<?xml version="1.0" encoding="ISO-8859-1"?>
<modeling>
 <generator>
  <i name="program" type="string">vasp </i>
  <i name="version" type="string">5.4.4.18Apr17-6-g9f103f2a35  </i>
  <i name="subversion" type="string">(build Dec 09 2018 21:25:21) complex            parallel </i>
  <i name="platform" type="string">IFC18.0.1.163_CrayMPICH7.7.0_MKL18.0.1.163 </i>
  <i name="date" type="string">2019 03 20 </i>
  <i name="time" type="string">09:20:36 </i>
 </generator>
 <incar>
  <i type="string" name="PREC">normal</i>
  <i type="int" name="IBRION">     2</i>
  <i name="EDIFF">      0.00040000</i>
  <i name="EDIFFG">     -0.01000000</i>
  <i type="int" name="NSW">    15</i>
  <i type="int" name="ISIF">     3</i>
  <i name="ENCUT">    250.00000000</i>
  <i type="int" name="NBANDS">     8</i>
  <i type="logical" name="LREAL"> F  </i>
  <i type="int" name="ISMEAR">     0</i>
  <i name="SIGMA">      0.20000000</i>
  <v type="int" name="KPOINT_BSE">    -1     0     0     0</v>
 </incar>
 <structure name="primitive_cell" >
  <crystal>
   <varray name="basis" >
    <v>      -2.45000000       2.45000000       1.27400000 </v>
    <v>       2.45000000      -2.45000000       1.27400000 </v>
    <v>       2.45000000       2.45000000      -1.27400000 </v>
   </varray>
   <i name="volume">     30.58874000 </i>
   <varray name="rec_basis" >
    <v>       0.00000000       0.20408163       0.39246468 </v>
    <v>       0.20408163       0.00000000       0.39246468 </v>
    <v>       0.20408163       0.20408163      -0.00000000 </v>
   </varray>
  </crystal>
  <varray name="positions" >
   <v>       0.25000000      -0.25000000      -0.50000000 </v>
   <v>       0.00000000       0.00000000       0.00000000 </v>
  </varray>
 </structure>
 <varray name="primitive_index" >
  <v type="int" >        1 </v>
  <v type="int" >        2 </v>
 </varray>
 <kpoints>
  <generation param="Monkhorst-Pack">
   <v type="int" name="divisions">       3        3        3 </v>
   <v name="usershift">      0.00000000       0.00000000       0.00000000 </v>
   <v name="genvec1">      0.33333333      -0.00000000       0.00000000 </v>
   <v name="genvec2">     -0.00000000       0.33333333       0.00000000 </v>
   <v name="genvec3">     -0.00000000      -0.00000000       0.33333333 </v>
   <v name="shift">      0.00000000       0.00000000       0.00000000 </v>
  </generation>
  <varray name="kpointlist" >
   <v>       0.00000000       0.00000000       0.00000000 </v>
   <v>       0.33333333      -0.00000000       0.00000000 </v>
   <v>       0.33333333       0.33333333       0.00000000 </v>
   <v>      -0.33333333       0.33333333       0.00000000 </v>
   <v>      -0.33333333       0.33333333       0.33333333 </v>
   <v>      -0.33333333      -0.33333333       0.33333333 </v>
  </varray>
  <varray name="weights" >
   <v>       0.03703704 </v>
   <v>       0.29629630 </v>
   <v>       0.29629630 </v>
   <v>       0.14814815 </v>
   <v>       0.14814815 </v>
   <v>       0.07407407 </v>
  </varray>
 </kpoints>
 <parameters>
  <separator name="general" >
   <i type="string" name="SYSTEM">unknown system</i>
   <i type="logical" name="LCOMPAT"> F  </i>
  </separator>
  <separator name="electronic" >
   <i type="string" name="PREC">normal</i>
   <i name="ENMAX">    250.00000000</i>
   <i name="ENAUG">    322.06900000</i>
   <i name="EDIFF">      0.00040000</i>
   <i type="int" name="IALGO">    38</i>
   <i type="int" name="IWAVPR">    11</i>
   <i type="int" name="NBANDS">     8</i>
   <i name="NELECT">      8.00000000</i>
   <i type="int" name="TURBO">     0</i>
   <i type="int" name="IRESTART">     0</i>
   <i type="int" name="NREBOOT">     0</i>
   <i type="int" name="NMIN">     0</i>
   <i name="EREF">      0.00000000</i>
   <separator name="electronic smearing" >
    <i type="int" name="ISMEAR">     0</i>
    <i name="SIGMA">      0.20000000</i>
    <i name="KSPACING">      0.50000000</i>
    <i type="logical" name="KGAMMA"> T  </i>
   </separator>
   <separator name="electronic projectors" >
    <i type="logical" name="LREAL"> F  </i>
    <v name="ROPT">      0.00000000</v>
    <i type="int" name="LMAXPAW">  -100</i>
    <i type="int" name="LMAXMIX">     2</i>
    <i type="logical" name="NLSPLINE"> F  </i>
   </separator>
   <separator name="electronic startup" >
    <i type="int" name="ISTART">     0</i>
    <i type="int" name="ICHARG">     2</i>
    <i type="int" name="INIWAV">     1</i>
   </separator>
   <separator name="electronic spin" >
    <i type="int" name="ISPIN">     1</i>
    <i type="logical" name="LNONCOLLINEAR"> F  </i>
    <v name="MAGMOM">      1.00000000      1.00000000</v>
    <i name="NUPDOWN">     -1.00000000</i>
    <i type="logical" name="LSORBIT"> F  </i>
    <v name="SAXIS">      0.00000000      0.00000000      1.00000000</v>
    <i type="logical" name="LSPIRAL"> F  </i>
    <v name="QSPIRAL">      0.00000000      0.00000000      0.00000000</v>
    <i type="logical" name="LZEROZ"> F  </i>
   </separator>
   <separator name="electronic exchange-correlation" >
    <i type="logical" name="LASPH"> F  </i>
    <i type="logical" name="LMETAGGA"> F  </i>
   </separator>
   <separator name="electronic convergence" >
    <i type="int" name="NELM">    60</i>
    <i type="int" name="NELMDL">    -5</i>
    <i type="int" name="NELMIN">     2</i>
    <i name="ENINI">    250.00000000</i>
    <separator name="electronic convergence detail" >
     <i type="logical" name="LDIAG"> T  </i>
     <i type="logical" name="LSUBROT"> F  </i>
     <i name="WEIMIN">      0.00100000</i>
     <i name="EBREAK">      0.00001250</i>
     <i name="DEPER">      0.30000000</i>
     <i type="int" name="NRMM">     4</i>
     <i name="TIME">      0.40000000</i>
    </separator>
   </separator>
   <separator name="electronic mixer" >
    <i name="AMIX">      0.40000000</i>
    <i name="BMIX">      1.00000000</i>
    <i name="AMIN">      0.10000000</i>
    <i name="AMIX_MAG">      1.60000000</i>
    <i name="BMIX_MAG">      1.00000000</i>
    <separator name="electronic mixer details" >
     <i type="int" name="IMIX">     4</i>
     <i type="logical" name="MIXFIRST"> F  </i>
     <i type="int" name="MAXMIX">   -45</i>
     <i name="WC">    100.00000000</i>
     <i type="int" name="INIMIX">     1</i>
     <i type="int" name="MIXPRE">     1</i>
     <i type="int" name="MREMOVE">     5</i>
    </separator>
   </separator>
   <separator name="electronic dipolcorrection" >
    <i type="logical" name="LDIPOL"> F  </i>
    <i type="logical" name="LMONO"> F  </i>
    <i type="int" name="IDIPOL">     0</i>
    <i name="EPSILON">      1.00000000</i>
    <v name="DIPOL">   -100.00000000   -100.00000000   -100.00000000</v>
    <i name="EFIELD">      0.00000000</i>
   </separator>
  </separator>
  <separator name="grids" >
   <i type="int" name="NGX">    14</i>
   <i type="int" name="NGY">    14</i>
   <i type="int" name="NGZ">    14</i>
   <i type="int" name="NGXF">    28</i>
   <i type="int" name="NGYF">    28</i>
   <i type="int" name="NGZF">    28</i>
   <i type="logical" name="ADDGRID"> F  </i>
  </separator>
  <separator name="ionic" >
   <i type="int" name="NSW">    15</i>
   <i type="int" name="IBRION">     2</i>
   <i type="int" name="MDALGO">     0</i>
   <i type="int" name="ISIF">     3</i>
   <i name="PSTRESS">      0.00000000</i>
   <i name="EDIFFG">     -0.01000000</i>
   <i type="int" name="NFREE">     1</i>
   <i name="POTIM">      0.50000000</i>
   <i name="SMASS">     -3.00000000</i>
   <i name="SCALEE">      1.00000000</i>
  </separator>
  <separator name="ionic md" >
   <i name="TEBEG">      0.00010000</i>
   <i name="TEEND">      0.00010000</i>
   <i type="int" name="NBLOCK">     1</i>
   <i type="int" name="KBLOCK">    15</i>
   <i type="int" name="NPACO">   256</i>
   <i name="APACO">     16.00000000</i>
  </separator>
  <separator name="symmetry" >
   <i type="int" name="ISYM">     2</i>
   <i name="SYMPREC">      0.00001000</i>
  </separator>
  <separator name="dos" >
   <i type="int" name="LORBIT">     0</i>
   <v name="RWIGS">     -1.00000000</v>
   <i type="int" name="NEDOS">   301</i>
   <i name="EMIN">     10.00000000</i>
   <i name="EMAX">    -10.00000000</i>
   <i name="EFERMI">      0.00000000</i>
  </separator>
  <separator name="writing" >
   <i type="int" name="NWRITE">     2</i>
   <i type="logical" name="LWAVE"> T  </i>
   <i type="logical" name="LDOWNSAMPLE"> F  </i>
   <i type="logical" name="LCHARG"> T  </i>
   <i type="logical" name="LPARD"> F  </i>
   <i type="logical" name="LVTOT"> F  </i>
   <i type="logical" name="LVHAR"> F  </i>
   <i type="logical" name="LELF"> F  </i>
   <i type="logical" name="LOPTICS"> F  </i>
   <v name="STM">      0.00000000      0.00000000      0.00000000      0.00000000      0.00000000      0.00000000      0.00000000</v>
  </separator>
  <separator name="performance" >
   <i type="int" name="NPAR">     8</i>
   <i type="int" name="NSIM">     4</i>
   <i type="int" name="NBLK">    -1</i>
   <i type="logical" name="LPLANE"> T  </i>
   <i type="logical" name="LSCALAPACK"> T  </i>
   <i type="logical" name="LSCAAWARE"> F  </i>
   <i type="logical" name="LSCALU"> F  </i>
   <i type="logical" name="LASYNC"> F  </i>
   <i type="logical" name="LORBITALREAL"> F  </i>
  </separator>
  <separator name="miscellaneous" >
   <i type="int" name="IDIOT">     3</i>
   <i type="int" name="ISPECIAL">     0</i>
   <i type="logical" name="LMUSIC"> F  </i>
   <v name="POMASS">     28.08500000</v>
   <v name="DARWINR">      0.00000000</v>
   <v name="DARWINV">      1.00000000</v>
   <i type="logical" name="LCORR"> T  </i>
  </separator>
  <i type="logical" name="GGA_COMPAT"> T  </i>
  <i type="logical" name="LBERRY"> F  </i>
  <i type="int" name="ICORELEVEL">     0</i>
  <i type="logical" name="LDAU"> F  </i>
  <i type="int" name="I_CONSTRAINED_M">     0</i>
  <separator name="electronic exchange-correlation" >
   <i type="string" name="GGA">--</i>
   <i type="int" name="VOSKOWN">     0</i>
   <i type="logical" name="LHFCALC"> F  </i>
   <i type="string" name="PRECFOCK"></i>
   <i type="logical" name="LSYMGRAD"> F  </i>
   <i type="logical" name="LHFONE"> F  </i>
   <i type="logical" name="LRHFCALC"> F  </i>
   <i type="logical" name="LTHOMAS"> F  </i>
   <i type="logical" name="LMODELHF"> F  </i>
   <i name="ENCUT4O">     -1.00000000</i>
   <i type="int" name="EXXOEP">     0</i>
   <i type="int" name="FOURORBIT">     0</i>
   <i name="AEXX">      0.00000000</i>
   <i name="HFALPHA">      0.00000000</i>
   <i name="MCALPHA">      0.00000000</i>
   <i name="ALDAX">      1.00000000</i>
   <i name="AGGAX">      1.00000000</i>
   <i name="ALDAC">      1.00000000</i>
   <i name="AGGAC">      1.00000000</i>
   <i type="int" name="NKREDX">     1</i>
   <i type="int" name="NKREDY">     1</i>
   <i type="int" name="NKREDZ">     1</i>
   <i type="logical" name="SHIFTRED"> F  </i>
   <i type="logical" name="ODDONLY"> F  </i>
   <i type="logical" name="EVENONLY"> F  </i>
   <i type="int" name="LMAXFOCK">     0</i>
   <i type="int" name="NMAXFOCKAE">     0</i>
   <i type="logical" name="LFOCKAEDFT"> F  </i>
   <i name="HFSCREEN">      0.00000000</i>
   <i name="HFSCREENC">      0.00000000</i>
   <i type="int" name="NBANDSGWLOW">     0</i>
  </separator>
  <separator name="vdW DFT" >
   <i type="logical" name="LUSE_VDW"> F  </i>
   <i name="Zab_VDW">     -0.84910000</i>
   <i name="PARAM1">      0.12340000</i>
   <i name="PARAM2">      1.00000000</i>
   <i name="PARAM3">      0.00000000</i>
  </separator>
  <separator name="model GW" >
   <i type="int" name="MODEL_GW">     0</i>
   <i name="MODEL_EPS0">      9.17662200</i>
   <i name="MODEL_ALPHA">      1.00000000</i>
  </separator>
  <separator name="linear response parameters" >
   <i type="logical" name="LEPSILON"> F  </i>
   <i type="logical" name="LRPA"> F  </i>
   <i type="logical" name="LNABLA"> F  </i>
   <i type="logical" name="LVEL"> F  </i>
   <i type="int" name="KINTER">     0</i>
   <i name="CSHIFT">      0.10000000</i>
   <i name="OMEGAMAX">     -1.00000000</i>
   <i name="DEG_THRESHOLD">      0.00200000</i>
   <i name="RTIME">     -0.10000000</i>
   <i name="WPLASMAI">      0.00000000</i>
   <v name="DFIELD">      0.00000000      0.00000000      0.00000000</v>
   <v name="WPLASMA">      0.00000000      0.00000000      0.00000000      0.00000000      0.00000000      0.00000000      0.00000000      0.00000000      0.00000000</v>
  </separator>
  <separator name="orbital magnetization" >
   <i type="logical" name="NUCIND"> F  </i>
   <v name="MAGPOS">      0.00000000      0.00000000      0.00000000</v>
   <i type="logical" name="LNICSALL"> T  </i>
   <i type="logical" name="ORBITALMAG"> F  </i>
   <i type="logical" name="LMAGBLOCH"> F  </i>
   <i type="logical" name="LCHIMAG"> F  </i>
   <i type="logical" name="LGAUGE"> T  </i>
   <i type="int" name="MAGATOM">     0</i>
   <v name="MAGDIPOL">      0.00000000      0.00000000      0.00000000</v>
   <v name="AVECCONST">      0.00000000      0.00000000      0.00000000</v>
  </separator>
  <separator name="response functions" >
   <i type="logical" name="LADDER"> F  </i>
   <i type="logical" name="LRPAFORCE"> F  </i>
   <i type="logical" name="LFXC"> F  </i>
   <i type="logical" name="LHARTREE"> T  </i>
   <i type="int" name="IBSE">     0</i>
   <v type="int" name="KPOINT">    -1     0     0     0</v>
   <i type="logical" name="LTCTE"> F  </i>
   <i type="logical" name="LTETE"> F  </i>
   <i type="logical" name="LTRIPLET"> F  </i>
   <i type="logical" name="LFXCEPS"> F  </i>
   <i type="logical" name="LFXHEG"> F  </i>
   <i type="int" name="NATURALO">     2</i>
   <i type="logical" name="L2ORDER"> F  </i>
   <i type="logical" name="LMP2LT"> F  </i>
   <i type="logical" name="LUSEW"> F  </i>
   <i name="ENCUTGW">     -2.00000000</i>
   <i name="ENCUTGWSOFT">     -2.00000000</i>
   <i name="ENCUTLF">     -1.00000000</i>
   <i type="int" name="LMAXMP2">    -1</i>
   <i name="SCISSOR">      0.00000000</i>
   <i type="int" name="NOMEGA">     0</i>
   <i type="int" name="NOMEGAR">     0</i>
   <i type="int" name="NBANDSGW">    -1</i>
   <i type="int" name="NBANDSO">    -1</i>
   <i type="int" name="NBANDSV">    -1</i>
   <i type="int" name="NELM">     1</i>
   <i type="int" name="NELMHF">     1</i>
   <i type="int" name="DIM">     3</i>
   <i type="int" name="ANTIRES">     0</i>
   <i name="OMEGAMAX">    -30.00000000</i>
   <i name="OMEGAMIN">    -30.00000000</i>
   <i name="OMEGATL">   -200.00000000</i>
   <i type="int" name="OMEGAGRID">   140</i>
   <i name="CSHIFT">     -0.10000000</i>
   <i type="logical" name="SELFENERGY"> F  </i>
   <i type="logical" name="LSPECTRAL"> F  </i>
   <i type="logical" name="LSPECTRALGW"> F  </i>
   <i type="logical" name="LSINGLES"> F  </i>
   <i type="logical" name="LFERMIGW"> F  </i>
   <i type="logical" name="ODDONLYGW"> F  </i>
   <i type="logical" name="EVENONLYGW"> F  </i>
   <i type="int" name="NKREDLFX">     1</i>
   <i type="int" name="NKREDLFY">     1</i>
   <i type="int" name="NKREDLFZ">     1</i>
   <i type="int" name="MAXMEM">  2800</i>
   <i type="int" name="TELESCOPE">     0</i>
   <i type="int" name="TAUPAR">     1</i>
   <i type="int" name="OMEGAPAR">    -1</i>
   <i name="LAMBDA">      1.00000000</i>
  </separator>
  <separator name="External order field" >
   <i name="OFIELD_KAPPA">      0.00000000</i>
   <v name="OFIELD_K">      0.00000000      0.00000000      0.00000000</v>
   <i name="OFIELD_Q6_NEAR">      0.00000000</i>
   <i name="OFIELD_Q6_FAR">      0.00000000</i>
   <i name="OFIELD_A">      0.00000000</i>
  </separator>
 </parameters>
 <atominfo>
  <atoms>       2 </atoms>
  <types>       1 </types>
  <array name="atoms" >
   <dimension dim="1">ion</dimension>
   <field type="string">element</field>
   <field type="int">atomtype</field>
   <set>
    <rc><c>Si</c><c>   1</c></rc>
    <rc><c>Si</c><c>   1</c></rc>
   </set>
  </array>
  <array name="atomtypes" >
   <dimension dim="1">type</dimension>
   <field type="int">atomspertype</field>
   <field type="string">element</field>
   <field>mass</field>
   <field>valence</field>
   <field type="string">pseudopotential</field>
   <set>
    <rc><c>   2</c><c>Si</c><c>     28.08500000</c><c>      4.00000000</c><c> PAW_PBE Si 05Jan2001                   </c></rc>
   </set>
  </array>
 </atominfo>
 <structure name="initialpos" >
  <crystal>
   <varray name="basis" >
    <v>      -2.45000000       2.45000000       1.27400000 </v>
    <v>       2.45000000      -2.45000000       1.27400000 </v>
    <v>       2.45000000       2.45000000      -1.27400000 </v>
   </varray>
   <i name="volume">     30.58874000 </i>
   <varray name="rec_basis" >
    <v>       0.00000000       0.20408163       0.39246468 </v>
    <v>       0.20408163       0.00000000       0.39246468 </v>
    <v>       0.20408163       0.20408163      -0.00000000 </v>
   </varray>
  </crystal>
  <varray name="positions" >
   <v>       0.25000000       0.75000000       0.50000000 </v>
   <v>       0.00000000       0.00000000       0.00000000 </v>
  </varray>
 </structure>
 <calculation>
  <scstep>
   <time name="dav">    0.05    0.06</time>
   <time name="total">    0.09    0.11</time>
   <energy>
    <i name="alphaZ">      4.40202223 </i>
    <i name="ewald">   -265.18101312 </i>
    <i name="hartreedc">     -2.30415367 </i>
    <i name="XCdc">    -17.81545108 </i>
    <i name="pawpsdc">     65.95520812 </i>
    <i name="pawaedc">    -30.76852678 </i>
    <i name="eentropy">     -0.02663134 </i>
    <i name="bandstr">     38.04536988 </i>
    <i name="atom">    206.12349923 </i>
    <i name="e_fr_energy">     -1.56967654 </i>
    <i name="e_wo_entrp">     -1.54304519 </i>
    <i name="e_0_energy">     -1.55636087 </i>
   </energy>
  </scstep>
  <scstep>
   <time name="dav">    0.09    0.10</time>
   <time name="total">    0.09    0.10</time>
   <energy>
    <i name="e_fr_energy">     -9.91747882 </i>
    <i name="e_wo_entrp">     -9.89062806 </i>
    <i name="e_0_energy">     -9.90405344 </i>
   </energy>
  </scstep>
  <scstep>
   <time name="dav">    0.08    0.08</time>
   <time name="total">    0.08    0.08</time>
   <energy>
    <i name="e_fr_energy">    -10.00097972 </i>
    <i name="e_wo_entrp">     -9.97418447 </i>
    <i name="e_0_energy">     -9.98758209 </i>
   </energy>
  </scstep>
  <scstep>
   <time name="dav">    0.09    0.09</time>
   <time name="total">    0.09    0.10</time>
   <energy>
    <i name="e_fr_energy">    -10.00123792 </i>
    <i name="e_wo_entrp">     -9.97444291 </i>
    <i name="e_0_energy">     -9.98784042 </i>
   </energy>
  </scstep>
  <scstep>
   <time name="dav">    0.08    0.08</time>
   <time name="total">    0.08    0.09</time>
   <energy>
    <i name="e_fr_energy">    -10.00123793 </i>
    <i name="e_wo_entrp">     -9.97444292 </i>
    <i name="e_0_energy">     -9.98784042 </i>
   </energy>
  </scstep>
  <scstep>
   <time name="dav">    0.06    0.06</time>
   <time name="total">    0.10    0.10</time>
   <energy>
    <i name="e_fr_energy">     -9.99615809 </i>
    <i name="e_wo_entrp">     -9.96937393 </i>
    <i name="e_0_energy">     -9.98276601 </i>
   </energy>
  </scstep>
  <scstep>
   <time name="dav">    0.06    0.06</time>
   <time name="total">    0.09    0.10</time>
   <energy>
    <i name="e_fr_energy">     -9.99182112 </i>
    <i name="e_wo_entrp">     -9.96505003 </i>
    <i name="e_0_energy">     -9.97843557 </i>
   </energy>
  </scstep>
  <scstep>
   <time name="dav">    0.04    0.04</time>
   <time name="total">    0.06    0.07</time>
   <energy>
    <i name="alphaZ">      4.40202223 </i>
    <i name="ewald">   -265.18101312 </i>
    <i name="hartreedc">     -2.50851784 </i>
    <i name="XCdc">    -17.56579930 </i>
    <i name="pawpsdc">     70.41112603 </i>
    <i name="pawaedc">    -35.32365243 </i>
    <i name="eentropy">     -0.02677237 </i>
    <i name="bandstr">     29.67730633 </i>
    <i name="atom">    206.12349923 </i>
    <i name="e_fr_energy">     -9.99180124 </i>
    <i name="e_wo_entrp">     -9.96502888 </i>
    <i name="e_0_energy">     -9.97841506 </i>
   </energy>
  </scstep>
  <structure>
   <crystal>
    <varray name="basis" >
     <v>      -2.45000000       2.45000000       1.27400000 </v>
     <v>       2.45000000      -2.45000000       1.27400000 </v>
     <v>       2.45000000       2.45000000      -1.27400000 </v>
    </varray>
    <i name="volume">     30.58874000 </i>
    <varray name="rec_basis" >
     <v>       0.00000000       0.20408163       0.39246468 </v>
     <v>       0.20408163       0.00000000       0.39246468 </v>
     <v>       0.20408163       0.20408163      -0.00000000 </v>
    </varray>
   </crystal>
   <varray name="positions" >
    <v>       0.25000000       0.75000000       0.50000000 </v>
    <v>       0.00000000       0.00000000       0.00000000 </v>
   </varray>
  </structure>
  <varray name="forces" >
   <v>      -0.00000000       0.00000000       0.00000000 </v>
   <v>       0.00000000      -0.00000000      -0.00000000 </v>
  </varray>
  <varray name="stress" >
   <v>    -118.55958641      -0.00000000       0.00000000 </v>
   <v>      -0.00000000    -118.55958641       0.00000000 </v>
   <v>       0.00000000      -0.00000000     195.53996077 </v>
  </varray>
  <energy>
   <i name="e_fr_energy">     -9.99180124 </i>
   <i name="e_wo_entrp">     -9.97841506 </i>
   <i name="e_0_energy">     -0.02677237 </i>
  </energy>
  <time name="totalsc">    1.30    2.09</time>
 </calculation>
 <calculation>
  <scstep>
   <time name="dav">    0.08    0.08</time>
   <time name="total">    0.12    0.12</time>
   <energy>
    <i name="alphaZ">      4.51828738 </i>
    <i name="ewald">   -267.14845661 </i>
    <i name="hartreedc">     -2.45765790 </i>
    <i name="XCdc">    -17.44413106 </i>
    <i name="pawpsdc">     70.41628214 </i>
    <i name="pawaedc">    -35.32914874 </i>
    <i name="eentropy">     -0.02663317 </i>
    <i name="bandstr">     31.08553939 </i>
    <i name="atom">    206.12349923 </i>
    <i name="e_fr_energy">    -10.26241934 </i>
    <i name="e_wo_entrp">    -10.23578616 </i>
    <i name="e_0_energy">    -10.24910275 </i>
   </energy>
  </scstep>
  <scstep>
   <time name="dav">    0.05    0.05</time>
   <time name="total">    0.09    0.10</time>
   <energy>
    <i name="e_fr_energy">    -10.13580146 </i>
    <i name="e_wo_entrp">    -10.10916616 </i>
    <i name="e_0_energy">    -10.12248381 </i>
   </energy>
  </scstep>
  <scstep>
   <time name="dav">    0.08    0.08</time>
   <time name="total">    0.12    0.12</time>
   <energy>
    <i name="e_fr_energy">    -10.07128223 </i>
    <i name="e_wo_entrp">    -10.04463435 </i>
    <i name="e_0_energy">    -10.05795829 </i>
   </energy>
  </scstep>
  <scstep>
   <time name="dav">    0.05    0.05</time>
   <time name="total">    0.08    0.09</time>
   <energy>
    <i name="e_fr_energy">    -10.07158829 </i>
    <i name="e_wo_entrp">    -10.04494086 </i>
    <i name="e_0_energy">    -10.05826457 </i>
   </energy>
  </scstep>
  <scstep>
   <time name="dav">    0.03    0.03</time>
   <time name="total">    0.06    0.06</time>
   <energy>
    <i name="alphaZ">      4.51828738 </i>
    <i name="ewald">   -267.14845661 </i>
    <i name="hartreedc">     -2.66505954 </i>
    <i name="XCdc">    -17.37819440 </i>
    <i name="pawpsdc">     72.23105424 </i>
    <i name="pawaedc">    -37.19436656 </i>
    <i name="eentropy">     -0.02664739 </i>
    <i name="bandstr">     31.46831337 </i>
    <i name="atom">    206.12349923 </i>
    <i name="e_fr_energy">    -10.07157027 </i>
    <i name="e_wo_entrp">    -10.04492288 </i>
    <i name="e_0_energy">    -10.05824658 </i>
   </energy>
  </scstep>
  <structure>
   <crystal>
    <varray name="basis" >
     <v>      -2.31623116       2.31623116       1.38872476 </v>
     <v>       2.31623116      -2.31623116       1.38872476 </v>
     <v>       2.31623116       2.31623116      -1.38872476 </v>
    </varray>
    <i name="volume">     29.80162662 </i>
    <varray name="rec_basis" >
     <v>       0.00000000       0.21586792       0.36004255 </v>
     <v>       0.21586792       0.00000000       0.36004255 </v>
     <v>       0.21586792       0.21586792      -0.00000000 </v>
    </varray>
   </crystal>
   <varray name="positions" >
    <v>       0.25000000       0.75000000       0.50000000 </v>
    <v>      -0.00000000      -0.00000000      -0.00000000 </v>
   </varray>
  </structure>
  <varray name="forces" >
   <v>      -0.00000000      -0.00000000       0.00000000 </v>
   <v>       0.00000000       0.00000000      -0.00000000 </v>
  </varray>
  <varray name="stress" >
   <v>     116.48045035       0.00000000      -0.00000000 </v>
   <v>       0.00000000     116.48045035      -0.00000000 </v>
   <v>       0.00000000       0.00000000     -87.68690894 </v>
  </varray>
  <energy>
   <i name="e_fr_energy">    -10.07157027 </i>
   <i name="e_wo_entrp">    -10.05824658 </i>
   <i name="e_0_energy">     -0.02664739 </i>
  </energy>
  <time name="totalsc">    0.63    0.73</time>
 </calculation>
 <calculation>
  <scstep>
   <time name="dav">    0.08    0.08</time>
   <time name="total">    0.12    0.12</time>
   <energy>
    <i name="alphaZ">      4.46074417 </i>
    <i name="ewald">   -266.40501932 </i>
    <i name="hartreedc">     -2.60606049 </i>
    <i name="XCdc">    -17.44744709 </i>
    <i name="pawpsdc">     72.19549310 </i>
    <i name="pawaedc">    -37.15773140 </i>
    <i name="eentropy">     -0.02663135 </i>
    <i name="bandstr">     30.68009387 </i>
    <i name="atom">    206.12349923 </i>
    <i name="e_fr_energy">    -10.18305927 </i>
    <i name="e_wo_entrp">    -10.15642792 </i>
    <i name="e_0_energy">    -10.16974359 </i>
   </energy>
  </scstep>
  <scstep>
   <time name="dav">    0.06    0.06</time>
   <time name="total">    0.09    0.10</time>
   <energy>
    <i name="e_fr_energy">    -10.16418309 </i>
    <i name="e_wo_entrp">    -10.13755175 </i>
    <i name="e_0_energy">    -10.15086742 </i>
   </energy>
  </scstep>
  <scstep>
   <time name="dav">    0.07    0.07</time>
   <time name="total">    0.10    0.11</time>
   <energy>
    <i name="e_fr_energy">    -10.15380630 </i>
    <i name="e_wo_entrp">    -10.12717496 </i>
    <i name="e_0_energy">    -10.14049063 </i>
   </energy>
  </scstep>
  <scstep>
   <time name="dav">    0.04    0.04</time>
   <time name="total">    0.07    0.08</time>
   <energy>
    <i name="alphaZ">      4.46074417 </i>
    <i name="ewald">   -266.40501932 </i>
    <i name="hartreedc">     -2.46508202 </i>
    <i name="XCdc">    -17.48037442 </i>
    <i name="pawpsdc">     71.18259515 </i>
    <i name="pawaedc">    -36.11737497 </i>
    <i name="eentropy">     -0.02663135 </i>
    <i name="bandstr">     30.57378504 </i>
    <i name="atom">    206.12349923 </i>
    <i name="e_fr_energy">    -10.15385849 </i>
    <i name="e_wo_entrp">    -10.12722714 </i>
    <i name="e_0_energy">    -10.14054282 </i>
   </energy>
  </scstep>
  <structure>
   <crystal>
    <varray name="basis" >
     <v>      -2.37338597       2.37338597       1.33970683 </v>
     <v>       2.37338597      -2.37338597       1.33970683 </v>
     <v>       2.37338597       2.37338597      -1.33970683 </v>
    </varray>
    <i name="volume">     30.18606501 </i>
    <varray name="rec_basis" >
     <v>       0.00000000       0.21066949       0.37321598 </v>
     <v>       0.21066949       0.00000000       0.37321598 </v>
     <v>       0.21066949       0.21066949       0.00000000 </v>
    </varray>
   </crystal>
   <varray name="positions" >
    <v>       0.25000000       0.75000000       0.50000000 </v>
    <v>      -0.00000000      -0.00000000      -0.00000000 </v>
   </varray>
  </structure>
  <varray name="forces" >
   <v>      -0.00000000      -0.00000000       0.00000000 </v>
   <v>       0.00000000       0.00000000      -0.00000000 </v>
  </varray>
  <varray name="stress" >
   <v>       7.07713599       0.00000000      -0.00000000 </v>
   <v>       0.00000000       7.07713599      -0.00000000 </v>
   <v>       0.00000000       0.00000000      11.23686319 </v>
  </varray>
  <energy>
   <i name="e_fr_energy">    -10.15385849 </i>
   <i name="e_wo_entrp">    -10.14054282 </i>
   <i name="e_0_energy">     -0.02663135 </i>
  </energy>
  <time name="totalsc">    0.53    0.62</time>
 </calculation>
 <calculation>
  <scstep>
   <time name="dav">    0.04    0.04</time>
   <time name="total">    0.08    0.08</time>
   <energy>
    <i name="alphaZ">      4.46134439 </i>
    <i name="ewald">   -266.41433798 </i>
    <i name="hartreedc">     -2.47538940 </i>
    <i name="XCdc">    -17.47956035 </i>
    <i name="pawpsdc">     71.15505019 </i>
    <i name="pawaedc">    -36.08900142 </i>
    <i name="eentropy">     -0.02663135 </i>
    <i name="bandstr">     30.59116905 </i>
    <i name="atom">    206.12349923 </i>
    <i name="e_fr_energy">    -10.15385764 </i>
    <i name="e_wo_entrp">    -10.12722630 </i>
    <i name="e_0_energy">    -10.14054197 </i>
   </energy>
  </scstep>
  <scstep>
   <time name="dav">    0.03    0.03</time>
   <time name="total">    0.06    0.07</time>
   <energy>
    <i name="alphaZ">      4.46134439 </i>
    <i name="ewald">   -266.41433798 </i>
    <i name="hartreedc">     -2.47511994 </i>
    <i name="XCdc">    -17.47942449 </i>
    <i name="pawpsdc">     71.16225519 </i>
    <i name="pawaedc">    -36.09637684 </i>
    <i name="eentropy">     -0.02663135 </i>
    <i name="bandstr">     30.59093535 </i>
    <i name="atom">    206.12349923 </i>
    <i name="e_fr_energy">    -10.15385644 </i>
    <i name="e_wo_entrp">    -10.12722510 </i>
    <i name="e_0_energy">    -10.14054077 </i>
   </energy>
  </scstep>
  <structure>
   <crystal>
    <varray name="basis" >
     <v>      -2.37272241       2.37272241       1.34027592 </v>
     <v>       2.37272241      -2.37272241       1.34027592 </v>
     <v>       2.37272241       2.37272241      -1.34027592 </v>
    </varray>
    <i name="volume">     30.18200387 </i>
    <varray name="rec_basis" >
     <v>       0.00000000       0.21072840       0.37305751 </v>
     <v>       0.21072840       0.00000000       0.37305751 </v>
     <v>       0.21072840       0.21072840      -0.00000000 </v>
    </varray>
   </crystal>
   <varray name="positions" >
    <v>       0.25000000       0.75000000       0.50000000 </v>
    <v>      -0.00000000      -0.00000000      -0.00000000 </v>
   </varray>
  </structure>
  <varray name="forces" >
   <v>       0.00000000      -0.00000000       0.00000000 </v>
   <v>      -0.00000000       0.00000000      -0.00000000 </v>
  </varray>
  <varray name="stress" >
   <v>       7.98333758       0.00000000      -0.00000000 </v>
   <v>       0.00000000       7.98333758      -0.00000000 </v>
   <v>      -0.00000000      -0.00000000       8.60876602 </v>
  </varray>
  <energy>
   <i name="e_fr_energy">    -10.15385644 </i>
   <i name="e_wo_entrp">    -10.14054077 </i>
   <i name="e_0_energy">     -0.02663135 </i>
  </energy>
  <time name="totalsc">    0.20    0.30</time>
 </calculation>
 <calculation>
  <scstep>
   <time name="dav">    0.01    0.01</time>
   <time name="total">    0.03    0.04</time>
   <energy>
    <i name="alphaZ">      4.46117158 </i>
    <i name="ewald">   -266.41165947 </i>
    <i name="hartreedc">     -2.47464878 </i>
    <i name="XCdc">    -17.47939178 </i>
    <i name="pawpsdc">     71.17217851 </i>
    <i name="pawaedc">    -36.10649883 </i>
    <i name="eentropy">     -0.02663135 </i>
    <i name="bandstr">     30.58811999 </i>
    <i name="atom">    206.12349923 </i>
    <i name="e_fr_energy">    -10.15386091 </i>
    <i name="e_wo_entrp">    -10.12722956 </i>
    <i name="e_0_energy">    -10.14054524 </i>
   </energy>
  </scstep>
  <scstep>
   <time name="dav">    0.01    0.01</time>
   <time name="total">    0.02    0.05</time>
   <energy>
    <i name="alphaZ">      4.46117158 </i>
    <i name="ewald">   -266.41165947 </i>
    <i name="hartreedc">     -2.47439799 </i>
    <i name="XCdc">    -17.47942546 </i>
    <i name="pawpsdc">     71.17114310 </i>
    <i name="pawaedc">    -36.10542904 </i>
    <i name="eentropy">     -0.02663135 </i>
    <i name="bandstr">     30.58786865 </i>
    <i name="atom">    206.12349923 </i>
    <i name="e_fr_energy">    -10.15386077 </i>
    <i name="e_wo_entrp">    -10.12722942 </i>
    <i name="e_0_energy">    -10.14054509 </i>
   </energy>
  </scstep>
  <structure>
   <crystal>
    <varray name="basis" >
     <v>      -2.37291328       2.37291328       1.34011223 </v>
     <v>       2.37291328      -2.37291328       1.34011223 </v>
     <v>       2.37291328       2.37291328      -1.34011223 </v>
    </varray>
    <i name="volume">     30.18317300 </i>
    <varray name="rec_basis" >
     <v>       0.00000000       0.21071145       0.37310308 </v>
     <v>       0.21071145       0.00000000       0.37310308 </v>
     <v>       0.21071145       0.21071145       0.00000000 </v>
    </varray>
   </crystal>
   <varray name="positions" >
    <v>       0.25000000       0.75000000       0.50000000 </v>
    <v>      -0.00000000      -0.00000000      -0.00000000 </v>
   </varray>
  </structure>
  <varray name="forces" >
   <v>       0.00000000      -0.00000000       0.00000000 </v>
   <v>      -0.00000000       0.00000000      -0.00000000 </v>
  </varray>
  <varray name="stress" >
   <v>       7.89222554      -0.00000000       0.00000000 </v>
   <v>      -0.00000000       7.89222554       0.00000000 </v>
   <v>       0.00000000       0.00000000       8.60001273 </v>
  </varray>
  <energy>
   <i name="e_fr_energy">    -10.15386077 </i>
   <i name="e_wo_entrp">    -10.14054509 </i>
   <i name="e_0_energy">     -0.02663135 </i>
  </energy>
  <time name="totalsc">    0.13    0.30</time>
 </calculation>
 <calculation>
  <scstep>
   <time name="dav">    0.01    0.01</time>
   <time name="total">    0.03    0.05</time>
   <energy>
    <i name="alphaZ">      4.46095778 </i>
    <i name="ewald">   -266.40834057 </i>
    <i name="hartreedc">     -2.47397525 </i>
    <i name="XCdc">    -17.47971985 </i>
    <i name="pawpsdc">     71.17012342 </i>
    <i name="pawaedc">    -36.10438105 </i>
    <i name="eentropy">     -0.02663135 </i>
    <i name="bandstr">     30.58460350 </i>
    <i name="atom">    206.12349923 </i>
    <i name="e_fr_energy">    -10.15386415 </i>
    <i name="e_wo_entrp">    -10.12723280 </i>
    <i name="e_0_energy">    -10.14054847 </i>
   </energy>
  </scstep>
  <scstep>
   <time name="dav">    0.01    0.02</time>
   <time name="total">    0.02    0.05</time>
   <energy>
    <i name="alphaZ">      4.46095778 </i>
    <i name="ewald">   -266.40834057 </i>
    <i name="hartreedc">     -2.47381597 </i>
    <i name="XCdc">    -17.47976436 </i>
    <i name="pawpsdc">     71.16854960 </i>
    <i name="pawaedc">    -36.10276057 </i>
    <i name="eentropy">     -0.02663135 </i>
    <i name="bandstr">     30.58444237 </i>
    <i name="atom">    206.12349923 </i>
    <i name="e_fr_energy">    -10.15386383 </i>
    <i name="e_wo_entrp">    -10.12723249 </i>
    <i name="e_0_energy">    -10.14054816 </i>
   </energy>
  </scstep>
  <structure>
   <crystal>
    <varray name="basis" >
     <v>      -2.37314962       2.37314962       1.33990953 </v>
     <v>       2.37314962      -2.37314962       1.33990953 </v>
     <v>       2.37314962       2.37314962      -1.33990953 </v>
    </varray>
    <i name="volume">     30.18461962 </i>
    <varray name="rec_basis" >
     <v>      -0.00000000       0.21069047       0.37315952 </v>
     <v>       0.21069047      -0.00000000       0.37315952 </v>
     <v>       0.21069047       0.21069047      -0.00000000 </v>
    </varray>
   </crystal>
   <varray name="positions" >
    <v>       0.25000000       0.75000000       0.50000000 </v>
    <v>      -0.00000000      -0.00000000      -0.00000000 </v>
   </varray>
  </structure>
  <varray name="forces" >
   <v>      -0.00000000      -0.00000000       0.00000000 </v>
   <v>       0.00000000       0.00000000      -0.00000000 </v>
  </varray>
  <varray name="stress" >
   <v>       7.48148393       0.00000000       0.00000000 </v>
   <v>       0.00000000       7.48148393       0.00000000 </v>
   <v>       0.00000000       0.00000000       9.07160201 </v>
  </varray>
  <energy>
   <i name="e_fr_energy">    -10.15386383 </i>
   <i name="e_wo_entrp">    -10.14054816 </i>
   <i name="e_0_energy">     -0.02663135 </i>
  </energy>
  <time name="totalsc">    0.13    0.32</time>
 </calculation>
 <calculation>
  <scstep>
   <time name="dav">    0.02    0.02</time>
   <time name="total">    0.04    0.07</time>
   <energy>
    <i name="alphaZ">      4.41689731 </i>
    <i name="ewald">   -265.52444618 </i>
    <i name="hartreedc">     -2.46554785 </i>
    <i name="XCdc">    -17.53076854 </i>
    <i name="pawpsdc">     71.16678445 </i>
    <i name="pawaedc">    -36.10095031 </i>
    <i name="eentropy">     -0.02663135 </i>
    <i name="bandstr">     29.78646251 </i>
    <i name="atom">    206.12349923 </i>
    <i name="e_fr_energy">    -10.15470073 </i>
    <i name="e_wo_entrp">    -10.12806939 </i>
    <i name="e_0_energy">    -10.14138506 </i>
   </energy>
  </scstep>
  <scstep>
   <time name="dav">    0.02    0.02</time>
   <time name="total">    0.04    0.05</time>
   <energy>
    <i name="alphaZ">      4.41689731 </i>
    <i name="ewald">   -265.52444618 </i>
    <i name="hartreedc">     -2.48971296 </i>
    <i name="XCdc">    -17.53201113 </i>
    <i name="pawpsdc">     71.09418181 </i>
    <i name="pawaedc">    -36.02658959 </i>
    <i name="eentropy">     -0.02663135 </i>
    <i name="bandstr">     29.81035993 </i>
    <i name="atom">    206.12349923 </i>
    <i name="e_fr_energy">    -10.15445293 </i>
    <i name="e_wo_entrp">    -10.12782159 </i>
    <i name="e_0_energy">    -10.14113726 </i>
   </energy>
  </scstep>
  <structure>
   <crystal>
    <varray name="basis" >
     <v>      -2.38019324       2.38019324       1.34527816 </v>
     <v>       2.38019324      -2.38019324       1.34527816 </v>
     <v>       2.38019324       2.38019324      -1.34527816 </v>
    </varray>
    <i name="volume">     30.48572428 </i>
    <varray name="rec_basis" >
     <v>       0.00000000       0.21006698       0.37167035 </v>
     <v>       0.21006698       0.00000000       0.37167035 </v>
     <v>       0.21006698       0.21006698       0.00000000 </v>
    </varray>
   </crystal>
   <varray name="positions" >
    <v>       0.25000000       0.75000000       0.50000000 </v>
    <v>       0.00000000       0.00000000       0.00000000 </v>
   </varray>
  </structure>
  <varray name="forces" >
   <v>       0.00000000      -0.00000000      -0.00000000 </v>
   <v>      -0.00000000       0.00000000       0.00000000 </v>
  </varray>
  <varray name="stress" >
   <v>      -1.71037699       0.00000000      -0.00000000 </v>
   <v>       0.00000000      -1.71037699       0.00000000 </v>
   <v>       0.00000000       0.00000000       2.36239810 </v>
  </varray>
  <energy>
   <i name="e_fr_energy">    -10.15445293 </i>
   <i name="e_wo_entrp">    -10.14113726 </i>
   <i name="e_0_energy">     -0.02663135 </i>
  </energy>
  <time name="totalsc">    0.15    0.31</time>
 </calculation>
 <calculation>
  <scstep>
   <time name="dav">    0.01    0.01</time>
   <time name="total">    0.03    0.04</time>
   <energy>
    <i name="alphaZ">      4.41727045 </i>
    <i name="ewald">   -265.53195663 </i>
    <i name="hartreedc">     -2.52364509 </i>
    <i name="XCdc">    -17.53380782 </i>
    <i name="pawpsdc">     70.96388826 </i>
    <i name="pawaedc">    -35.89289391 </i>
    <i name="eentropy">     -0.02663135 </i>
    <i name="bandstr">     29.84996490 </i>
    <i name="atom">    206.12349923 </i>
    <i name="e_fr_energy">    -10.15431196 </i>
    <i name="e_wo_entrp">    -10.12768061 </i>
    <i name="e_0_energy">    -10.14099629 </i>
   </energy>
  </scstep>
  <scstep>
   <time name="dav">    0.01    0.01</time>
   <time name="total">    0.02    0.04</time>
   <energy>
    <i name="alphaZ">      4.41727045 </i>
    <i name="ewald">   -265.53195663 </i>
    <i name="hartreedc">     -2.52312553 </i>
    <i name="XCdc">    -17.53411640 </i>
    <i name="pawpsdc">     70.95180742 </i>
    <i name="pawaedc">    -35.88027782 </i>
    <i name="eentropy">     -0.02663135 </i>
    <i name="bandstr">     29.84921913 </i>
    <i name="atom">    206.12349923 </i>
    <i name="e_fr_energy">    -10.15431151 </i>
    <i name="e_wo_entrp">    -10.12768016 </i>
    <i name="e_0_energy">    -10.14099584 </i>
   </energy>
  </scstep>
  <structure>
   <crystal>
    <varray name="basis" >
     <v>      -2.38013319       2.38013319       1.34523239 </v>
     <v>       2.38013319      -2.38013319       1.34523239 </v>
     <v>       2.38013319       2.38013319      -1.34523239 </v>
    </varray>
    <i name="volume">     30.48314907 </i>
    <varray name="rec_basis" >
     <v>       0.00000000       0.21007228       0.37168299 </v>
     <v>       0.21007228       0.00000000       0.37168299 </v>
     <v>       0.21007228       0.21007228       0.00000000 </v>
    </varray>
   </crystal>
   <varray name="positions" >
    <v>       0.25000000       0.75000000       0.50000000 </v>
    <v>       0.00000000       0.00000000       0.00000000 </v>
   </varray>
  </structure>
  <varray name="forces" >
   <v>      -0.00000000       0.00000000       0.00000000 </v>
   <v>       0.00000000      -0.00000000      -0.00000000 </v>
  </varray>
  <varray name="stress" >
   <v>      -4.02284043       0.00000000       0.00000000 </v>
   <v>       0.00000000      -4.02284043       0.00000000 </v>
   <v>       0.00000000      -0.00000000      -1.79248274 </v>
  </varray>
  <energy>
   <i name="e_fr_energy">    -10.15431151 </i>
   <i name="e_wo_entrp">    -10.14099584 </i>
   <i name="e_0_energy">     -0.02663135 </i>
  </energy>
  <time name="totalsc">    0.12    0.29</time>
 </calculation>
 <calculation>
  <scstep>
   <time name="dav">    0.02    0.02</time>
   <time name="total">    0.04    0.06</time>
   <energy>
    <i name="alphaZ">      4.42943458 </i>
    <i name="ewald">   -265.77655972 </i>
    <i name="hartreedc">     -2.52519015 </i>
    <i name="XCdc">    -17.52024102 </i>
    <i name="pawpsdc">     70.94283916 </i>
    <i name="pawaedc">    -35.87074183 </i>
    <i name="eentropy">     -0.02663135 </i>
    <i name="bandstr">     30.06916682 </i>
    <i name="atom">    206.12349923 </i>
    <i name="e_fr_energy">    -10.15442427 </i>
    <i name="e_wo_entrp">    -10.12779293 </i>
    <i name="e_0_energy">    -10.14110860 </i>
   </energy>
  </scstep>
  <scstep>
   <time name="dav">    0.01    0.01</time>
   <time name="total">    0.02    0.04</time>
   <energy>
    <i name="alphaZ">      4.42943458 </i>
    <i name="ewald">   -265.77655972 </i>
    <i name="hartreedc">     -2.51829556 </i>
    <i name="XCdc">    -17.51992221 </i>
    <i name="pawpsdc">     70.96170228 </i>
    <i name="pawaedc">    -35.88999667 </i>
    <i name="eentropy">     -0.02663135 </i>
    <i name="bandstr">     30.06236394 </i>
    <i name="atom">    206.12349923 </i>
    <i name="e_fr_energy">    -10.15440547 </i>
    <i name="e_wo_entrp">    -10.12777412 </i>
    <i name="e_0_energy">    -10.14108980 </i>
   </energy>
  </scstep>
  <structure>
   <crystal>
    <varray name="basis" >
     <v>      -2.37817944       2.37817944       1.34374325 </v>
     <v>       2.37817944      -2.37817944       1.34374325 </v>
     <v>       2.37817944       2.37817944      -1.34374325 </v>
    </varray>
    <i name="volume">     30.39943613 </i>
    <varray name="rec_basis" >
     <v>       0.00000000       0.21024486       0.37209489 </v>
     <v>       0.21024486       0.00000000       0.37209489 </v>
     <v>       0.21024486       0.21024486       0.00000000 </v>
    </varray>
   </crystal>
   <varray name="positions" >
    <v>       0.25000000       0.75000000       0.50000000 </v>
    <v>       0.00000000       0.00000000       0.00000000 </v>
   </varray>
  </structure>
  <varray name="forces" >
   <v>       0.00000000      -0.00000000      -0.00000000 </v>
   <v>      -0.00000000       0.00000000       0.00000000 </v>
  </varray>
  <varray name="stress" >
   <v>      -1.61453411       0.00000000       0.00000000 </v>
   <v>       0.00000000      -1.61453411       0.00000000 </v>
   <v>       0.00000000       0.00000000       0.09217684 </v>
  </varray>
  <energy>
   <i name="e_fr_energy">    -10.15440547 </i>
   <i name="e_wo_entrp">    -10.14108980 </i>
   <i name="e_0_energy">     -0.02663135 </i>
  </energy>
  <time name="totalsc">    0.14    0.34</time>
 </calculation>
 <calculation>
  <scstep>
   <time name="dav">    0.01    0.01</time>
   <time name="total">    0.03    0.05</time>
   <energy>
    <i name="alphaZ">      4.43403005 </i>
    <i name="ewald">   -265.86884982 </i>
    <i name="hartreedc">     -2.50975446 </i>
    <i name="XCdc">    -17.51400500 </i>
    <i name="pawpsdc">     70.99639902 </i>
    <i name="pawaedc">    -35.92550908 </i>
    <i name="eentropy">     -0.02663135 </i>
    <i name="bandstr">     30.13643154 </i>
    <i name="atom">    206.12349923 </i>
    <i name="e_fr_energy">    -10.15438986 </i>
    <i name="e_wo_entrp">    -10.12775851 </i>
    <i name="e_0_energy">    -10.14107419 </i>
   </energy>
  </scstep>
  <scstep>
   <time name="dav">    0.01    0.01</time>
   <time name="total">    0.02    0.04</time>
   <energy>
    <i name="alphaZ">      4.43403005 </i>
    <i name="ewald">   -265.86884982 </i>
    <i name="hartreedc">     -2.50713279 </i>
    <i name="XCdc">    -17.51384609 </i>
    <i name="pawpsdc">     71.00684144 </i>
    <i name="pawaedc">    -35.93630566 </i>
    <i name="eentropy">     -0.02663135 </i>
    <i name="bandstr">     30.13400749 </i>
    <i name="atom">    206.12349923 </i>
    <i name="e_fr_energy">    -10.15438750 </i>
    <i name="e_wo_entrp">    -10.12775615 </i>
    <i name="e_0_energy">    -10.14107183 </i>
   </energy>
  </scstep>
  <structure>
   <crystal>
    <varray name="basis" >
     <v>      -2.37744321       2.37744321       1.34318209 </v>
     <v>       2.37744321      -2.37744321       1.34318209 </v>
     <v>       2.37744321       2.37744321      -1.34318209 </v>
    </varray>
    <i name="volume">     30.36792988 </i>
    <varray name="rec_basis" >
     <v>       0.00000000       0.21030997       0.37225035 </v>
     <v>       0.21030997       0.00000000       0.37225035 </v>
     <v>       0.21030997       0.21030997       0.00000000 </v>
    </varray>
   </crystal>
   <varray name="positions" >
    <v>       0.25000000       0.75000000       0.50000000 </v>
    <v>       0.00000000       0.00000000       0.00000000 </v>
   </varray>
  </structure>
  <varray name="forces" >
   <v>      -0.00000000       0.00000000      -0.00000000 </v>
   <v>       0.00000000      -0.00000000       0.00000000 </v>
  </varray>
  <varray name="stress" >
   <v>       0.02663464      -0.00000000      -0.00000000 </v>
   <v>      -0.00000000       0.02663464       0.00000000 </v>
   <v>      -0.00000000       0.00000000       2.02652362 </v>
  </varray>
  <energy>
   <i name="e_fr_energy">    -10.15438750 </i>
   <i name="e_wo_entrp">    -10.14107183 </i>
   <i name="e_0_energy">     -0.02663135 </i>
  </energy>
  <time name="totalsc">    0.13    0.29</time>
 </calculation>
 <calculation>
  <scstep>
   <time name="dav">    0.01    0.01</time>
   <time name="total">    0.03    0.04</time>
   <energy>
    <i name="alphaZ">      4.43185577 </i>
    <i name="ewald">   -265.82519222 </i>
    <i name="hartreedc">     -2.50349152 </i>
    <i name="XCdc">    -17.51600693 </i>
    <i name="pawpsdc">     71.02445584 </i>
    <i name="pawaedc">    -35.95448229 </i>
    <i name="eentropy">     -0.02663135 </i>
    <i name="bandstr">     30.09159817 </i>
    <i name="atom">    206.12349923 </i>
    <i name="e_fr_energy">    -10.15439530 </i>
    <i name="e_wo_entrp">    -10.12776396 </i>
    <i name="e_0_energy">    -10.14107963 </i>
   </energy>
  </scstep>
  <scstep>
   <time name="dav">    0.01    0.01</time>
   <time name="total">    0.02    0.04</time>
   <energy>
    <i name="alphaZ">      4.43185577 </i>
    <i name="ewald">   -265.82519222 </i>
    <i name="hartreedc">     -2.50467039 </i>
    <i name="XCdc">    -17.51600324 </i>
    <i name="pawpsdc">     71.02241673 </i>
    <i name="pawaedc">    -35.95239953 </i>
    <i name="eentropy">     -0.02663135 </i>
    <i name="bandstr">     30.09273009 </i>
    <i name="atom">    206.12349923 </i>
    <i name="e_fr_energy">    -10.15439492 </i>
    <i name="e_wo_entrp">    -10.12776357 </i>
    <i name="e_0_energy">    -10.14107924 </i>
   </energy>
  </scstep>
  <structure>
   <crystal>
    <varray name="basis" >
     <v>      -2.37779142       2.37779142       1.34344750 </v>
     <v>       2.37779142      -2.37779142       1.34344750 </v>
     <v>       2.37779142       2.37779142      -1.34344750 </v>
    </varray>
    <i name="volume">     30.38282844 </i>
    <varray name="rec_basis" >
     <v>      -0.00000000       0.21027917       0.37217681 </v>
     <v>       0.21027917      -0.00000000       0.37217681 </v>
     <v>       0.21027917       0.21027917      -0.00000000 </v>
    </varray>
   </crystal>
   <varray name="positions" >
    <v>       0.25000000       0.75000000       0.50000000 </v>
    <v>       0.00000000       0.00000000       0.00000000 </v>
   </varray>
  </structure>
  <varray name="forces" >
   <v>       0.00000000       0.00000000      -0.00000000 </v>
   <v>      -0.00000000      -0.00000000       0.00000000 </v>
  </varray>
  <varray name="stress" >
   <v>      -0.21125663       0.00000000       0.00000000 </v>
   <v>       0.00000000      -0.21125663       0.00000000 </v>
   <v>       0.00000000      -0.00000000       2.03869024 </v>
  </varray>
  <energy>
   <i name="e_fr_energy">    -10.15439492 </i>
   <i name="e_wo_entrp">    -10.14107924 </i>
   <i name="e_0_energy">     -0.02663135 </i>
  </energy>
  <time name="totalsc">    0.39    1.37</time>
 </calculation>
 <calculation>
  <scstep>
   <time name="dav">    0.01    0.01</time>
   <time name="total">    0.03    0.04</time>
   <energy>
    <i name="alphaZ">      4.43064495 </i>
    <i name="ewald">   -265.80087376 </i>
    <i name="hartreedc">     -2.50583214 </i>
    <i name="XCdc">    -17.51748479 </i>
    <i name="pawpsdc">     71.01747128 </i>
    <i name="pawaedc">    -35.94736653 </i>
    <i name="eentropy">     -0.02663135 </i>
    <i name="bandstr">     30.07217614 </i>
    <i name="atom">    206.12349923 </i>
    <i name="e_fr_energy">    -10.15439698 </i>
    <i name="e_wo_entrp">    -10.12776563 </i>
    <i name="e_0_energy">    -10.14108130 </i>
   </energy>
  </scstep>
  <scstep>
   <time name="dav">    0.01    0.01</time>
   <time name="total">    0.02    0.05</time>
   <energy>
    <i name="alphaZ">      4.43064495 </i>
    <i name="ewald">   -265.80087376 </i>
    <i name="hartreedc">     -2.50657905 </i>
    <i name="XCdc">    -17.51752160 </i>
    <i name="pawpsdc">     71.01499816 </i>
    <i name="pawaedc">    -35.94482165 </i>
    <i name="eentropy">     -0.02663135 </i>
    <i name="bandstr">     30.07288835 </i>
    <i name="atom">    206.12349923 </i>
    <i name="e_fr_energy">    -10.15439670 </i>
    <i name="e_wo_entrp">    -10.12776536 </i>
    <i name="e_0_energy">    -10.14108103 </i>
   </energy>
  </scstep>
  <structure>
   <crystal>
    <varray name="basis" >
     <v>      -2.37798543       2.37798543       1.34359537 </v>
     <v>       2.37798543      -2.37798543       1.34359537 </v>
     <v>       2.37798543       2.37798543      -1.34359537 </v>
    </varray>
    <i name="volume">     30.39113153 </i>
    <varray name="rec_basis" >
     <v>      -0.00000000       0.21026201       0.37213585 </v>
     <v>       0.21026201      -0.00000000       0.37213585 </v>
     <v>       0.21026201       0.21026201      -0.00000000 </v>
    </varray>
   </crystal>
   <varray name="positions" >
    <v>       0.25000000       0.75000000       0.50000000 </v>
    <v>       0.00000000       0.00000000       0.00000000 </v>
   </varray>
  </structure>
  <varray name="forces" >
   <v>       0.00000000       0.00000000       0.00000000 </v>
   <v>      -0.00000000      -0.00000000      -0.00000000 </v>
  </varray>
  <varray name="stress" >
   <v>      -0.54786015       0.00000000       0.00000000 </v>
   <v>       0.00000000      -0.54786015      -0.00000000 </v>
   <v>       0.00000000       0.00000000       1.67298262 </v>
  </varray>
  <energy>
   <i name="e_fr_energy">    -10.15439670 </i>
   <i name="e_wo_entrp">    -10.14108103 </i>
   <i name="e_0_energy">     -0.02663135 </i>
  </energy>
  <time name="totalsc">    0.12    0.26</time>
 </calculation>
 <calculation>
  <scstep>
   <time name="dav">    0.01    0.01</time>
   <time name="total">    0.03    0.04</time>
   <energy>
    <i name="alphaZ">      4.43003971 </i>
    <i name="ewald">   -265.78871619 </i>
    <i name="hartreedc">     -2.50737080 </i>
    <i name="XCdc">    -17.51831477 </i>
    <i name="pawpsdc">     71.01048570 </i>
    <i name="pawaedc">    -35.94018941 </i>
    <i name="eentropy">     -0.02663135 </i>
    <i name="bandstr">     30.06280093 </i>
    <i name="atom">    206.12349923 </i>
    <i name="e_fr_energy">    -10.15439695 </i>
    <i name="e_wo_entrp">    -10.12776560 </i>
    <i name="e_0_energy">    -10.14108128 </i>
   </energy>
  </scstep>
  <scstep>
   <time name="dav">    0.01    0.01</time>
   <time name="total">    0.03    0.04</time>
   <energy>
    <i name="alphaZ">      4.43003971 </i>
    <i name="ewald">   -265.78871619 </i>
    <i name="hartreedc">     -2.50774381 </i>
    <i name="XCdc">    -17.51833640 </i>
    <i name="pawpsdc">     71.00917375 </i>
    <i name="pawaedc">    -35.93883633 </i>
    <i name="eentropy">     -0.02663135 </i>
    <i name="bandstr">     30.06315453 </i>
    <i name="atom">    206.12349923 </i>
    <i name="e_fr_energy">    -10.15439685 </i>
    <i name="e_wo_entrp">    -10.12776551 </i>
    <i name="e_0_energy">    -10.14108118 </i>
   </energy>
  </scstep>
  <structure>
   <crystal>
    <varray name="basis" >
     <v>      -2.37808244       2.37808244       1.34366931 </v>
     <v>       2.37808244      -2.37808244       1.34366931 </v>
     <v>       2.37808244       2.37808244      -1.34366931 </v>
    </varray>
    <i name="volume">     30.39528364 </i>
    <varray name="rec_basis" >
     <v>      -0.00000000       0.21025343       0.37211537 </v>
     <v>       0.21025343      -0.00000000       0.37211537 </v>
     <v>       0.21025343       0.21025343       0.00000000 </v>
    </varray>
   </crystal>
   <varray name="positions" >
    <v>       0.25000000       0.75000000       0.50000000 </v>
    <v>       0.00000000       0.00000000       0.00000000 </v>
   </varray>
  </structure>
  <varray name="forces" >
   <v>      -0.00000000      -0.00000000       0.00000000 </v>
   <v>       0.00000000       0.00000000      -0.00000000 </v>
  </varray>
  <varray name="stress" >
   <v>      -0.73970168       0.00000000       0.00000000 </v>
   <v>       0.00000000      -0.73970168       0.00000000 </v>
   <v>      -0.00000000       0.00000000       1.46697994 </v>
  </varray>
  <energy>
   <i name="e_fr_energy">    -10.15439685 </i>
   <i name="e_wo_entrp">    -10.14108118 </i>
   <i name="e_0_energy">     -0.02663135 </i>
  </energy>
  <time name="totalsc">    0.13    0.27</time>
 </calculation>
 <calculation>
  <scstep>
   <time name="dav">    0.01    0.01</time>
   <time name="total">    0.03    0.04</time>
   <energy>
    <i name="alphaZ">      4.42973713 </i>
    <i name="ewald">   -265.78263781 </i>
    <i name="hartreedc">     -2.50813467 </i>
    <i name="XCdc">    -17.51873587 </i>
    <i name="pawpsdc">     71.00686682 </i>
    <i name="pawaedc">    -35.93646228 </i>
    <i name="eentropy">     -0.02663135 </i>
    <i name="bandstr">     30.05810197 </i>
    <i name="atom">    206.12349923 </i>
    <i name="e_fr_energy">    -10.15439683 </i>
    <i name="e_wo_entrp">    -10.12776548 </i>
    <i name="e_0_energy">    -10.14108116 </i>
   </energy>
  </scstep>
  <scstep>
   <time name="dav">    0.01    0.01</time>
   <time name="total">    0.03    0.04</time>
   <energy>
    <i name="alphaZ">      4.42973713 </i>
    <i name="ewald">   -265.78263781 </i>
    <i name="hartreedc">     -2.50832267 </i>
    <i name="XCdc">    -17.51874655 </i>
    <i name="pawpsdc">     71.00622136 </i>
    <i name="pawaedc">    -35.93579607 </i>
    <i name="eentropy">     -0.02663135 </i>
    <i name="bandstr">     30.05827993 </i>
    <i name="atom">    206.12349923 </i>
    <i name="e_fr_energy">    -10.15439680 </i>
    <i name="e_wo_entrp">    -10.12776545 </i>
    <i name="e_0_energy">    -10.14108112 </i>
   </energy>
  </scstep>
  <structure>
   <crystal>
    <varray name="basis" >
     <v>      -2.37813094       2.37813094       1.34370628 </v>
     <v>       2.37813094      -2.37813094       1.34370628 </v>
     <v>       2.37813094       2.37813094      -1.34370628 </v>
    </varray>
    <i name="volume">     30.39735984 </i>
    <varray name="rec_basis" >
     <v>      -0.00000000       0.21024915       0.37210513 </v>
     <v>       0.21024915      -0.00000000       0.37210513 </v>
     <v>       0.21024915       0.21024915      -0.00000000 </v>
    </varray>
   </crystal>
   <varray name="positions" >
    <v>       0.25000000       0.75000000       0.50000000 </v>
    <v>       0.00000000       0.00000000       0.00000000 </v>
   </varray>
  </structure>
  <varray name="forces" >
   <v>       0.00000000       0.00000000      -0.00000000 </v>
   <v>      -0.00000000      -0.00000000       0.00000000 </v>
  </varray>
  <varray name="stress" >
   <v>      -0.83601635       0.00000000       0.00000000 </v>
   <v>       0.00000000      -0.83601635       0.00000000 </v>
   <v>       0.00000000       0.00000000       1.36517840 </v>
  </varray>
  <energy>
   <i name="e_fr_energy">    -10.15439680 </i>
   <i name="e_wo_entrp">    -10.14108112 </i>
   <i name="e_0_energy">     -0.02663135 </i>
  </energy>
  <time name="totalsc">    0.13    0.24</time>
 </calculation>
 <calculation>
  <scstep>
   <time name="dav">    0.01    0.01</time>
   <time name="total">    0.03    0.04</time>
   <energy>
    <i name="alphaZ">      4.42960004 </i>
    <i name="ewald">   -265.77988366 </i>
    <i name="hartreedc">     -2.50852255 </i>
    <i name="XCdc">    -17.51892948 </i>
    <i name="pawpsdc">     71.00509225 </i>
    <i name="pawaedc">    -35.93463318 </i>
    <i name="eentropy">     -0.02663135 </i>
    <i name="bandstr">     30.05601195 </i>
    <i name="atom">    206.12349923 </i>
    <i name="e_fr_energy">    -10.15439675 </i>
    <i name="e_wo_entrp">    -10.12776540 </i>
    <i name="e_0_energy">    -10.14108107 </i>
   </energy>
  </scstep>
  <scstep>
   <time name="dav">    0.01    0.01</time>
   <time name="total">    0.03    0.04</time>
   <energy>
    <i name="alphaZ">      4.42960004 </i>
    <i name="ewald">   -265.77988366 </i>
    <i name="hartreedc">     -2.50860863 </i>
    <i name="XCdc">    -17.51893451 </i>
    <i name="pawpsdc">     71.00479433 </i>
    <i name="pawaedc">    -35.93432553 </i>
    <i name="eentropy">     -0.02663135 </i>
    <i name="bandstr">     30.05609335 </i>
    <i name="atom">    206.12349923 </i>
    <i name="e_fr_energy">    -10.15439674 </i>
    <i name="e_wo_entrp">    -10.12776539 </i>
    <i name="e_0_energy">    -10.14108106 </i>
   </energy>
  </scstep>
  <structure>
   <crystal>
    <varray name="basis" >
     <v>      -2.37815292       2.37815292       1.34372303 </v>
     <v>       2.37815292      -2.37815292       1.34372303 </v>
     <v>       2.37815292       2.37815292      -1.34372303 </v>
    </varray>
    <i name="volume">     30.39830064 </i>
    <varray name="rec_basis" >
     <v>      -0.00000000       0.21024720       0.37210049 </v>
     <v>       0.21024720      -0.00000000       0.37210049 </v>
     <v>       0.21024720       0.21024720      -0.00000000 </v>
    </varray>
   </crystal>
   <varray name="positions" >
    <v>       0.25000000       0.75000000       0.50000000 </v>
    <v>       0.00000000       0.00000000       0.00000000 </v>
   </varray>
  </structure>
  <varray name="forces" >
   <v>       0.00000000      -0.00000000       0.00000000 </v>
   <v>      -0.00000000       0.00000000      -0.00000000 </v>
  </varray>
  <varray name="stress" >
   <v>      -0.88110943       0.00000000       0.00000000 </v>
   <v>       0.00000000      -0.88110943       0.00000000 </v>
   <v>      -0.00000000      -0.00000000       1.31660835 </v>
  </varray>
  <energy>
   <i name="e_fr_energy">    -10.15439674 </i>
   <i name="e_wo_entrp">    -10.14108106 </i>
   <i name="e_0_energy">     -0.02663135 </i>
  </energy>
  <time name="totalsc">    0.14    0.30</time>
  <eigenvalues>
   <array>
    <dimension dim="1">band</dimension>
    <dimension dim="2">kpoint</dimension>
    <dimension dim="3">spin</dimension>
    <field>eigene</field>
    <field>occ</field>
    <set>
     <set comment="spin 1">
      <set comment="kpoint 1">
       <r>   -4.5699    1.0000 </r>
       <r>    6.8211    1.0000 </r>
       <r>    6.8212    1.0000 </r>
       <r>    7.5128    1.0000 </r>
       <r>   10.8687    0.0000 </r>
       <r>   16.6578    0.0000 </r>
       <r>   18.2477    0.0000 </r>
       <r>   18.2477    0.0000 </r>
      </set>
      <set comment="kpoint 2">
       <r>   -1.6806    1.0000 </r>
       <r>    5.6328    1.0000 </r>
       <r>    6.7849    1.0000 </r>
       <r>    7.0769    1.0000 </r>
       <r>   10.0775    0.0000 </r>
       <r>   12.0901    0.0000 </r>
       <r>   13.6371    0.0000 </r>
       <r>   14.5170    0.0000 </r>
      </set>
      <set comment="kpoint 3">
       <r>    1.0161    1.0000 </r>
       <r>    1.0738    1.0000 </r>
       <r>    5.5232    1.0000 </r>
       <r>    8.2791    1.0000 </r>
       <r>    9.2194    0.2500 </r>
       <r>   10.8095    0.0000 </r>
       <r>   16.1250    0.0000 </r>
       <r>   16.8515    0.0000 </r>
      </set>
      <set comment="kpoint 4">
       <r>   -3.1638    1.0000 </r>
       <r>    0.9694    1.0000 </r>
       <r>    8.0887    1.0000 </r>
       <r>   10.3473    0.0000 </r>
       <r>   11.8112    0.0000 </r>
       <r>   14.2113    0.0000 </r>
       <r>   16.9901    0.0000 </r>
       <r>   17.1740    0.0000 </r>
      </set>
      <set comment="kpoint 5">
       <r>   -1.7826    1.0000 </r>
       <r>    1.7312    1.0000 </r>
       <r>    3.0908    1.0000 </r>
       <r>    6.5028    1.0000 </r>
       <r>   14.7333    0.0000 </r>
       <r>   15.1024    0.0000 </r>
       <r>   18.0505    0.0000 </r>
       <r>   19.6937    0.0000 </r>
      </set>
      <set comment="kpoint 6">
       <r>    2.7401    1.0000 </r>
       <r>    3.2313    1.0000 </r>
       <r>    4.4882    1.0000 </r>
       <r>    4.4882    1.0000 </r>
       <r>    4.7211    1.0000 </r>
       <r>   15.4895    0.0000 </r>
       <r>   15.7114    0.0000 </r>
       <r>   15.7115    0.0000 </r>
      </set>
     </set>
    </set>
   </array>
  </eigenvalues>
  <separator name="orbital magnetization" >
   <v name="MAGDIPOLOUT">      0.00000000      0.00000000      0.00000000</v>
  </separator>
  <dos>
   <i name="efermi">      9.12399216 </i>
   <total>
    <array>
     <dimension dim="1">gridpoints</dimension>
     <dimension dim="2">spin</dimension>
     <field>energy</field>
     <field>total</field>
     <field>integrated</field>
     <set>
      <set comment="spin 1">
       <r>    -6.5699     0.0000     0.0000 </r>
       <r>    -6.4757     0.0000     0.0000 </r>
       <r>    -6.3815     0.0000     0.0000 </r>
       <r>    -6.2873     0.0000     0.0000 </r>
       <r>    -6.1931     0.0000     0.0000 </r>
       <r>    -6.0989     0.0000     0.0000 </r>
       <r>    -6.0047     0.0000     0.0000 </r>
       <r>    -5.9105     0.0000     0.0000 </r>
       <r>    -5.8162     0.0000     0.0000 </r>
       <r>    -5.7220     0.0000     0.0000 </r>
       <r>    -5.6278     0.0000     0.0000 </r>
       <r>    -5.5336     0.0000     0.0000 </r>
       <r>    -5.4394     0.0000     0.0000 </r>
       <r>    -5.3452     0.0000     0.0000 </r>
       <r>    -5.2510     0.0000     0.0000 </r>
       <r>    -5.1568     0.0000     0.0000 </r>
       <r>    -5.0625     0.0002     0.0000 </r>
       <r>    -4.9683     0.0017     0.0002 </r>
       <r>    -4.8741     0.0105     0.0012 </r>
       <r>    -4.7799     0.0417     0.0051 </r>
       <r>    -4.6857     0.1083     0.0153 </r>
       <r>    -4.5915     0.1831     0.0326 </r>
       <r>    -4.4973     0.2020     0.0516 </r>
       <r>    -4.4031     0.1452     0.0653 </r>
       <r>    -4.3088     0.0681     0.0717 </r>
       <r>    -4.2146     0.0208     0.0736 </r>
       <r>    -4.1204     0.0041     0.0740 </r>
       <r>    -4.0262     0.0005     0.0741 </r>
       <r>    -3.9320     0.0000     0.0741 </r>
       <r>    -3.8378     0.0000     0.0741 </r>
       <r>    -3.7436     0.0001     0.0741 </r>
       <r>    -3.6494     0.0009     0.0742 </r>
       <r>    -3.5552     0.0080     0.0749 </r>
       <r>    -3.4609     0.0471     0.0794 </r>
       <r>    -3.3667     0.1819     0.0965 </r>
       <r>    -3.2725     0.4572     0.1396 </r>
       <r>    -3.1783     0.7489     0.2101 </r>
       <r>    -3.0841     0.7999     0.2855 </r>
       <r>    -2.9899     0.5571     0.3380 </r>
       <r>    -2.8957     0.2529     0.3618 </r>
       <r>    -2.8015     0.0748     0.3688 </r>
       <r>    -2.7072     0.0144     0.3702 </r>
       <r>    -2.6130     0.0018     0.3704 </r>
       <r>    -2.5188     0.0001     0.3704 </r>
       <r>    -2.4246     0.0000     0.3704 </r>
       <r>    -2.3304     0.0002     0.3704 </r>
       <r>    -2.2362     0.0022     0.3706 </r>
       <r>    -2.1420     0.0185     0.3723 </r>
       <r>    -2.0478     0.1043     0.3822 </r>
       <r>    -1.9535     0.3997     0.4198 </r>
       <r>    -1.8593     1.0470     0.5185 </r>
       <r>    -1.7651     1.8843     0.6960 </r>
       <r>    -1.6709     2.3290     0.9154 </r>
       <r>    -1.5767     1.9659     1.1006 </r>
       <r>    -1.4825     1.1233     1.2064 </r>
       <r>    -1.3883     0.4304     1.2470 </r>
       <r>    -1.2941     0.1096     1.2573 </r>
       <r>    -1.1998     0.0184     1.2591 </r>
       <r>    -1.1056     0.0020     1.2592 </r>
       <r>    -1.0114     0.0001     1.2593 </r>
       <r>    -0.9172     0.0000     1.2593 </r>
       <r>    -0.8230     0.0000     1.2593 </r>
       <r>    -0.7288     0.0000     1.2593 </r>
       <r>    -0.6346     0.0000     1.2593 </r>
       <r>    -0.5404     0.0000     1.2593 </r>
       <r>    -0.4461     0.0000     1.2593 </r>
       <r>    -0.3519     0.0000     1.2593 </r>
       <r>    -0.2577     0.0000     1.2593 </r>
       <r>    -0.1635     0.0000     1.2593 </r>
       <r>    -0.0693     0.0000     1.2593 </r>
       <r>     0.0249     0.0000     1.2593 </r>
       <r>     0.1191     0.0000     1.2593 </r>
       <r>     0.2133     0.0000     1.2593 </r>
       <r>     0.3076     0.0000     1.2593 </r>
       <r>     0.4018     0.0001     1.2593 </r>
       <r>     0.4960     0.0020     1.2595 </r>
       <r>     0.5902     0.0195     1.2613 </r>
       <r>     0.6844     0.1257     1.2731 </r>
       <r>     0.7786     0.5403     1.3240 </r>
       <r>     0.8728     1.5570     1.4707 </r>
       <r>     0.9670     3.0150     1.7548 </r>
       <r>     1.0612     3.9295     2.1250 </r>
       <r>     1.1555     3.4470     2.4497 </r>
       <r>     1.2497     2.0332     2.6413 </r>
       <r>     1.3439     0.8117     2.7178 </r>
       <r>     1.4381     0.2622     2.7425 </r>
       <r>     1.5323     0.2280     2.7639 </r>
       <r>     1.6265     0.4753     2.8087 </r>
       <r>     1.7207     0.7579     2.8801 </r>
       <r>     1.8149     0.7946     2.9550 </r>
       <r>     1.9092     0.5433     3.0062 </r>
       <r>     2.0034     0.2422     3.0290 </r>
       <r>     2.0976     0.0703     3.0356 </r>
       <r>     2.1918     0.0134     3.0369 </r>
       <r>     2.2860     0.0026     3.0371 </r>
       <r>     2.3802     0.0077     3.0378 </r>
       <r>     2.4744     0.0389     3.0415 </r>
       <r>     2.5686     0.1301     3.0538 </r>
       <r>     2.6629     0.2863     3.0807 </r>
       <r>     2.7571     0.4269     3.1210 </r>
       <r>     2.8513     0.4899     3.1671 </r>
       <r>     2.9455     0.5889     3.2226 </r>
       <r>     3.0397     0.8426     3.3020 </r>
       <r>     3.1339     1.0910     3.4048 </r>
       <r>     3.2281     1.0644     3.5051 </r>
       <r>     3.3223     0.7538     3.5761 </r>
       <r>     3.4166     0.3855     3.6124 </r>
       <r>     3.5108     0.1405     3.6256 </r>
       <r>     3.6050     0.0356     3.6290 </r>
       <r>     3.6992     0.0061     3.6296 </r>
       <r>     3.7934     0.0007     3.6296 </r>
       <r>     3.8876     0.0001     3.6296 </r>
       <r>     3.9818     0.0005     3.6297 </r>
       <r>     4.0760     0.0051     3.6302 </r>
       <r>     4.1703     0.0331     3.6333 </r>
       <r>     4.2645     0.1409     3.6466 </r>
       <r>     4.3587     0.3941     3.6837 </r>
       <r>     4.4529     0.7341     3.7528 </r>
       <r>     4.5471     0.9442     3.8418 </r>
       <r>     4.6413     0.9044     3.9270 </r>
       <r>     4.7355     0.7123     3.9941 </r>
       <r>     4.8297     0.4762     4.0390 </r>
       <r>     4.9239     0.2503     4.0626 </r>
       <r>     5.0182     0.0951     4.0715 </r>
       <r>     5.1124     0.0350     4.0748 </r>
       <r>     5.2066     0.0790     4.0823 </r>
       <r>     5.3008     0.3370     4.1140 </r>
       <r>     5.3950     1.0152     4.2096 </r>
       <r>     5.4892     2.0847     4.4061 </r>
       <r>     5.5834     2.9463     4.6836 </r>
       <r>     5.6776     2.8843     4.9554 </r>
       <r>     5.7719     1.9551     5.1396 </r>
       <r>     5.8661     0.9110     5.2254 </r>
       <r>     5.9603     0.2888     5.2526 </r>
       <r>     6.0545     0.0636     5.2586 </r>
       <r>     6.1487     0.0256     5.2610 </r>
       <r>     6.2429     0.0859     5.2691 </r>
       <r>     6.3371     0.2807     5.2955 </r>
       <r>     6.4313     0.6233     5.3543 </r>
       <r>     6.5256     1.0041     5.4489 </r>
       <r>     6.6198     1.3799     5.5789 </r>
       <r>     6.7140     1.8617     5.7543 </r>
       <r>     6.8082     2.3078     5.9717 </r>
       <r>     6.9024     2.3995     6.1978 </r>
       <r>     6.9966     2.2476     6.4095 </r>
       <r>     7.0908     2.0512     6.6028 </r>
       <r>     7.1850     1.6251     6.7559 </r>
       <r>     7.2793     0.9690     6.8472 </r>
       <r>     7.3735     0.4572     6.8902 </r>
       <r>     7.4677     0.2624     6.9150 </r>
       <r>     7.5619     0.2215     6.9358 </r>
       <r>     7.6561     0.1692     6.9518 </r>
       <r>     7.7503     0.1091     6.9620 </r>
       <r>     7.8445     0.1414     6.9754 </r>
       <r>     7.9387     0.3723     7.0104 </r>
       <r>     8.0330     0.8435     7.0899 </r>
       <r>     8.1272     1.4512     7.2266 </r>
       <r>     8.2214     1.9477     7.4101 </r>
       <r>     8.3156     2.0136     7.5998 </r>
       <r>     8.4098     1.5212     7.7431 </r>
       <r>     8.5040     0.7973     7.8183 </r>
       <r>     8.5982     0.2805     7.8447 </r>
       <r>     8.6924     0.0657     7.8509 </r>
       <r>     8.7867     0.0162     7.8524 </r>
       <r>     8.8809     0.0465     7.8568 </r>
       <r>     8.9751     0.2120     7.8768 </r>
       <r>     9.0693     0.6431     7.9373 </r>
       <r>     9.1635     1.2712     8.0571 </r>
       <r>     9.2577     1.6382     8.2115 </r>
       <r>     9.3519     1.3766     8.3411 </r>
       <r>     9.4461     0.7542     8.4122 </r>
       <r>     9.5403     0.2697     8.4376 </r>
       <r>     9.6346     0.0676     8.4440 </r>
       <r>     9.7288     0.0470     8.4484 </r>
       <r>     9.8230     0.1843     8.4658 </r>
       <r>     9.9172     0.5854     8.5209 </r>
       <r>    10.0114     1.2291     8.6367 </r>
       <r>    10.1056     1.7370     8.8004 </r>
       <r>    10.1998     1.7620     8.9664 </r>
       <r>    10.2940     1.4667     9.1045 </r>
       <r>    10.3883     1.1359     9.2116 </r>
       <r>    10.4825     0.8140     9.2882 </r>
       <r>    10.5767     0.6416     9.3487 </r>
       <r>    10.6709     0.8948     9.4330 </r>
       <r>    10.7651     1.4904     9.5734 </r>
       <r>    10.8593     1.8354     9.7463 </r>
       <r>    10.9535     1.5073     9.8883 </r>
       <r>    11.0477     0.8152     9.9651 </r>
       <r>    11.1420     0.2903     9.9925 </r>
       <r>    11.2362     0.0682     9.9989 </r>
       <r>    11.3304     0.0115    10.0000 </r>
       <r>    11.4246     0.0099    10.0009 </r>
       <r>    11.5188     0.0512    10.0057 </r>
       <r>    11.6130     0.1947    10.0241 </r>
       <r>    11.7072     0.4926    10.0705 </r>
       <r>    11.8014     0.8676    10.1523 </r>
       <r>    11.8957     1.1960    10.2649 </r>
       <r>    11.9899     1.5139    10.4076 </r>
       <r>    12.0841     1.7738    10.5747 </r>
       <r>    12.1783     1.6452    10.7297 </r>
       <r>    12.2725     1.0688    10.8304 </r>
       <r>    12.3667     0.4626    10.8739 </r>
       <r>    12.4609     0.1313    10.8863 </r>
       <r>    12.5551     0.0243    10.8886 </r>
       <r>    12.6494     0.0029    10.8889 </r>
       <r>    12.7436     0.0002    10.8889 </r>
       <r>    12.8378     0.0000    10.8889 </r>
       <r>    12.9320     0.0000    10.8889 </r>
       <r>    13.0262     0.0000    10.8889 </r>
       <r>    13.1204     0.0008    10.8890 </r>
       <r>    13.2146     0.0080    10.8897 </r>
       <r>    13.3088     0.0549    10.8949 </r>
       <r>    13.4030     0.2442    10.9179 </r>
       <r>    13.4973     0.7072    10.9845 </r>
       <r>    13.5915     1.3342    11.1102 </r>
       <r>    13.6857     1.6415    11.2649 </r>
       <r>    13.7799     1.3196    11.3892 </r>
       <r>    13.8741     0.7116    11.4562 </r>
       <r>    13.9683     0.3427    11.4885 </r>
       <r>    14.0625     0.3813    11.5245 </r>
       <r>    14.1567     0.6773    11.5883 </r>
       <r>    14.2510     0.9756    11.6802 </r>
       <r>    14.3452     1.2104    11.7942 </r>
       <r>    14.4394     1.5511    11.9404 </r>
       <r>    14.5336     1.9264    12.1218 </r>
       <r>    14.6278     1.9883    12.3092 </r>
       <r>    14.7220     1.6703    12.4665 </r>
       <r>    14.8162     1.2071    12.5803 </r>
       <r>    14.9104     0.8442    12.6598 </r>
       <r>    15.0047     0.7550    12.7309 </r>
       <r>    15.0989     0.8484    12.8109 </r>
       <r>    15.1931     0.8218    12.8883 </r>
       <r>    15.2873     0.6167    12.9464 </r>
       <r>    15.3815     0.4809    12.9917 </r>
       <r>    15.4757     0.5578    13.0442 </r>
       <r>    15.5699     0.7596    13.1158 </r>
       <r>    15.6641     0.9440    13.2047 </r>
       <r>    15.7584     0.9726    13.2964 </r>
       <r>    15.8526     0.8402    13.3755 </r>
       <r>    15.9468     0.8394    13.4546 </r>
       <r>    16.0410     1.2056    13.5682 </r>
       <r>    16.1352     1.6153    13.7204 </r>
       <r>    16.2294     1.5212    13.8637 </r>
       <r>    16.3236     0.9510    13.9533 </r>
       <r>    16.4178     0.4174    13.9926 </r>
       <r>    16.5121     0.2307    14.0143 </r>
       <r>    16.6063     0.3984    14.0519 </r>
       <r>    16.7005     0.8991    14.1366 </r>
       <r>    16.7947     1.6437    14.2914 </r>
       <r>    16.8889     2.2687    14.5052 </r>
       <r>    16.9831     2.3877    14.7301 </r>
       <r>    17.0773     2.0553    14.9238 </r>
       <r>    17.1715     1.5783    15.0725 </r>
       <r>    17.2657     1.0790    15.1741 </r>
       <r>    17.3600     0.5921    15.2299 </r>
       <r>    17.4542     0.2351    15.2521 </r>
       <r>    17.5484     0.0642    15.2581 </r>
       <r>    17.6426     0.0170    15.2597 </r>
       <r>    17.7368     0.0372    15.2632 </r>
       <r>    17.8310     0.1505    15.2774 </r>
       <r>    17.9252     0.4165    15.3166 </r>
       <r>    18.0194     0.7744    15.3896 </r>
       <r>    18.1137     1.0017    15.4840 </r>
       <r>    18.2079     0.9542    15.5738 </r>
       <r>    18.3021     0.7093    15.6407 </r>
       <r>    18.3963     0.4156    15.6798 </r>
       <r>    18.4905     0.1828    15.6971 </r>
       <r>    18.5847     0.0568    15.7024 </r>
       <r>    18.6789     0.0119    15.7035 </r>
       <r>    18.7731     0.0017    15.7037 </r>
       <r>    18.8674     0.0002    15.7037 </r>
       <r>    18.9616     0.0000    15.7037 </r>
       <r>    19.0558     0.0000    15.7037 </r>
       <r>    19.1500     0.0002    15.7037 </r>
       <r>    19.2442     0.0021    15.7039 </r>
       <r>    19.3384     0.0165    15.7055 </r>
       <r>    19.4326     0.0831    15.7133 </r>
       <r>    19.5268     0.2722    15.7390 </r>
       <r>    19.6211     0.5808    15.7937 </r>
       <r>    19.7153     0.8078    15.8698 </r>
       <r>    19.8095     0.7326    15.9388 </r>
       <r>    19.9037     0.4331    15.9796 </r>
       <r>    19.9979     0.1669    15.9953 </r>
       <r>    20.0921     0.0419    15.9993 </r>
       <r>    20.1863     0.0068    15.9999 </r>
       <r>    20.2805     0.0007    16.0000 </r>
       <r>    20.3748     0.0001    16.0000 </r>
       <r>    20.4690     0.0000    16.0000 </r>
       <r>    20.5632     0.0000    16.0000 </r>
       <r>    20.6574     0.0000    16.0000 </r>
       <r>    20.7516     0.0000    16.0000 </r>
       <r>    20.8458     0.0000    16.0000 </r>
       <r>    20.9400     0.0000    16.0000 </r>
       <r>    21.0342     0.0000    16.0000 </r>
       <r>    21.1285     0.0000    16.0000 </r>
       <r>    21.2227     0.0000    16.0000 </r>
       <r>    21.3169     0.0000    16.0000 </r>
       <r>    21.4111     0.0000    16.0000 </r>
       <r>    21.5053     0.0000    16.0000 </r>
       <r>    21.5995     0.0000    16.0000 </r>
       <r>    21.6937     0.0000    16.0000 </r>
      </set>
     </set>
    </array>
   </total>
  </dos>
 </calculation>
 <structure name="finalpos" >
  <crystal>
   <varray name="basis" >
    <v>      -2.37815292       2.37815292       1.34372303 </v>
    <v>       2.37815292      -2.37815292       1.34372303 </v>
    <v>       2.37815292       2.37815292      -1.34372303 </v>
   </varray>
   <i name="volume">     30.39830064 </i>
   <varray name="rec_basis" >
    <v>      -0.00000000       0.21024720       0.37210049 </v>
    <v>       0.21024720      -0.00000000       0.37210049 </v>
    <v>       0.21024720       0.21024720      -0.00000000 </v>
   </varray>
  </crystal>
  <varray name="positions" >
   <v>       0.25000000       0.75000000       0.50000000 </v>
   <v>       0.00000000       0.00000000       0.00000000 </v>
  </varray>
 </structure>
</modeling>
