unknown system                          
           1
    -2.450000    2.450000    1.274000
     2.450000   -2.450000    1.274000
     2.450000    2.450000   -1.274000
   Si
   2
Direct configuration=     1
   0.25000000  0.75000000  0.50000000
   0.00000000  0.00000000  0.00000000
unknown system                          
           1
    -2.316231    2.316231    1.388725
     2.316231   -2.316231    1.388725
     2.316231    2.316231   -1.388725
   Si
   2
Direct configuration=     2
   0.25000000  0.75000000  0.50000000
  -0.00000000 -0.00000000 -0.00000000
unknown system                          
           1
    -2.373386    2.373386    1.339707
     2.373386   -2.373386    1.339707
     2.373386    2.373386   -1.339707
   Si
   2
Direct configuration=     3
   0.25000000  0.75000000  0.50000000
  -0.00000000 -0.00000000 -0.00000000
unknown system                          
           1
    -2.372722    2.372722    1.340276
     2.372722   -2.372722    1.340276
     2.372722    2.372722   -1.340276
   Si
   2
Direct configuration=     4
   0.25000000  0.75000000  0.50000000
  -0.00000000 -0.00000000 -0.00000000
unknown system                          
           1
    -2.372913    2.372913    1.340112
     2.372913   -2.372913    1.340112
     2.372913    2.372913   -1.340112
   Si
   2
Direct configuration=     5
   0.25000000  0.75000000  0.50000000
  -0.00000000 -0.00000000 -0.00000000
unknown system                          
           1
    -2.373150    2.373150    1.339910
     2.373150   -2.373150    1.339910
     2.373150    2.373150   -1.339910
   Si
   2
Direct configuration=     6
   0.25000000  0.75000000  0.50000000
  -0.00000000 -0.00000000 -0.00000000
unknown system                          
           1
    -2.380193    2.380193    1.345278
     2.380193   -2.380193    1.345278
     2.380193    2.380193   -1.345278
   Si
   2
Direct configuration=     7
   0.25000000  0.75000000  0.50000000
   0.00000000  0.00000000  0.00000000
unknown system                          
           1
    -2.380133    2.380133    1.345232
     2.380133   -2.380133    1.345232
     2.380133    2.380133   -1.345232
   Si
   2
Direct configuration=     8
   0.25000000  0.75000000  0.50000000
   0.00000000  0.00000000  0.00000000
unknown system                          
           1
    -2.378179    2.378179    1.343743
     2.378179   -2.378179    1.343743
     2.378179    2.378179   -1.343743
   Si
   2
Direct configuration=     9
   0.25000000  0.75000000  0.50000000
   0.00000000  0.00000000  0.00000000
unknown system                          
           1
    -2.377443    2.377443    1.343182
     2.377443   -2.377443    1.343182
     2.377443    2.377443   -1.343182
   Si
   2
Direct configuration=    10
   0.25000000  0.75000000  0.50000000
   0.00000000  0.00000000  0.00000000
unknown system                          
           1
    -2.377791    2.377791    1.343447
     2.377791   -2.377791    1.343447
     2.377791    2.377791   -1.343447
   Si
   2
Direct configuration=    11
   0.25000000  0.75000000  0.50000000
   0.00000000  0.00000000  0.00000000
unknown system                          
           1
    -2.377985    2.377985    1.343595
     2.377985   -2.377985    1.343595
     2.377985    2.377985   -1.343595
   Si
   2
Direct configuration=    12
   0.25000000  0.75000000  0.50000000
   0.00000000  0.00000000  0.00000000
unknown system                          
           1
    -2.378082    2.378082    1.343669
     2.378082   -2.378082    1.343669
     2.378082    2.378082   -1.343669
   Si
   2
Direct configuration=    13
   0.25000000  0.75000000  0.50000000
   0.00000000  0.00000000  0.00000000
unknown system                          
           1
    -2.378131    2.378131    1.343706
     2.378131   -2.378131    1.343706
     2.378131    2.378131   -1.343706
   Si
   2
Direct configuration=    14
   0.25000000  0.75000000  0.50000000
   0.00000000  0.00000000  0.00000000
unknown system                          
           1
    -2.378153    2.378153    1.343723
     2.378153   -2.378153    1.343723
     2.378153    2.378153   -1.343723
   Si
   2
Direct configuration=    15
   0.25000000  0.75000000  0.50000000
   0.00000000  0.00000000  0.00000000
