       N       E                     dE             d eps       ncg     rms          rms(c)
DAV:   1    -0.175597347144E+01   -0.17560E+01   -0.23065E+03  1232   0.446E+02
DAV:   2    -0.101441076039E+02   -0.83881E+01   -0.80426E+01  1840   0.543E+01
DAV:   3    -0.102342463627E+02   -0.90139E-01   -0.86275E-01  1512   0.647E+00
DAV:   4    -0.102348447599E+02   -0.59840E-03   -0.59831E-03  1952   0.296E-01
DAV:   5    -0.102348454501E+02   -0.69011E-06   -0.69070E-06  1504   0.591E-03    0.150E+00
DAV:   6    -0.102298454216E+02    0.50000E-02   -0.17640E-03  1624   0.320E-01    0.937E-01
DAV:   7    -0.102257451769E+02    0.41002E-02   -0.52398E-03  1344   0.562E-01    0.333E-02
DAV:   8    -0.102257296869E+02    0.15490E-04   -0.78112E-05   912   0.707E-02
   1 F= -.10225730E+02 E0= -.10220002E+02  d E =-.102257E+02
       N       E                     dE             d eps       ncg     rms          rms(c)
DAV:   1    -0.102439829779E+02   -0.18238E-01   -0.38642E-01  1736   0.347E+00    0.377E-01
DAV:   2    -0.102399823285E+02    0.40006E-02   -0.78519E-03  1568   0.683E-01    0.211E-01
DAV:   3    -0.102380659179E+02    0.19164E-02   -0.51224E-03  1624   0.399E-01    0.190E-02
DAV:   4    -0.102380817000E+02   -0.15782E-04   -0.19577E-04   712   0.116E-01
   2 F= -.10238082E+02 E0= -.10231318E+02  d E =-.123520E-01
       N       E                     dE             d eps       ncg     rms          rms(c)
DAV:   1    -0.102954717109E+02   -0.57406E-01   -0.33430E+00  1672   0.101E+01    0.104E+00
DAV:   2    -0.102642621487E+02    0.31210E-01   -0.66804E-02  1504   0.198E+00    0.589E-01
DAV:   3    -0.102488971813E+02    0.15365E-01   -0.41858E-02  1616   0.111E+00    0.555E-02
DAV:   4    -0.102490133312E+02   -0.11615E-03   -0.15145E-03  1376   0.313E-01
   3 F= -.10249013E+02 E0= -.10243596E+02  d E =-.232836E-01
       N       E                     dE             d eps       ncg     rms          rms(c)
DAV:   1    -0.102559506528E+02   -0.70535E-02   -0.36874E-01  1656   0.342E+00    0.358E-01
DAV:   2    -0.102524696764E+02    0.34810E-02   -0.75138E-03  1512   0.672E-01    0.202E-01
DAV:   3    -0.102507095886E+02    0.17601E-02   -0.47757E-03  1640   0.380E-01    0.196E-02
DAV:   4    -0.102507224433E+02   -0.12855E-04   -0.17261E-04   616   0.108E-01
   4 F= -.10250722E+02 E0= -.10244031E+02  d E =-.249928E-01
       N       E                     dE             d eps       ncg     rms          rms(c)
DAV:   1    -0.102509566951E+02   -0.24711E-03   -0.88852E-03  1680   0.525E-01    0.580E-02
DAV:   2    -0.102508649721E+02    0.91723E-04   -0.18171E-04   776   0.105E-01
   5 F= -.10250865E+02 E0= -.10244266E+02  d E =-.251353E-01
       N       E                     dE             d eps       ncg     rms          rms(c)
DAV:   1    -0.102513817294E+02   -0.42503E-03   -0.63256E-02  1688   0.141E+00    0.148E-01
DAV:   2    -0.102507818289E+02    0.59990E-03   -0.12674E-03  1496   0.275E-01    0.832E-02
DAV:   3    -0.102504840749E+02    0.29775E-03   -0.78463E-04   816   0.156E-01
   6 F= -.10250484E+02 E0= -.10244333E+02  d E =-.247544E-01
       N       E                     dE             d eps       ncg     rms          rms(c)
DAV:   1    -0.102512437612E+02   -0.46193E-03   -0.29670E-02  1648   0.962E-01    0.102E-01
DAV:   2    -0.102509581654E+02    0.28560E-03   -0.64796E-04  1240   0.198E-01
   7 F= -.10250958E+02 E0= -.10244413E+02  d E =-.252285E-01
       N       E                     dE             d eps       ncg     rms          rms(c)
DAV:   1    -0.102508675552E+02    0.37621E-03   -0.20092E-03  1688   0.252E-01    0.316E-02
DAV:   2    -0.102508406289E+02    0.26926E-04   -0.39735E-05   656   0.468E-02
   8 F= -.10250841E+02 E0= -.10244239E+02  d E =-.251109E-01
       N       E                     dE             d eps       ncg     rms          rms(c)
DAV:   1    -0.102508281481E+02    0.39407E-04   -0.44751E-05   608   0.411E-02    0.566E-03
DAV:   2    -0.102508276725E+02    0.47567E-06   -0.25755E-06   608   0.122E-02
   9 F= -.10250828E+02 E0= -.10244224E+02  d E =-.250980E-01
       N       E                     dE             d eps       ncg     rms          rms(c)
DAV:   1    -0.102516209959E+02   -0.79285E-03   -0.69271E-02  1608   0.152E+00    0.164E-01
DAV:   2    -0.102509062491E+02    0.71475E-03   -0.82096E-04  1416   0.214E-01    0.969E-02
DAV:   3    -0.102504883173E+02    0.41793E-03   -0.60082E-04   736   0.143E-01    0.639E-03
DAV:   4    -0.102504903494E+02   -0.20321E-05   -0.23891E-05   624   0.449E-02
  10 F= -.10250490E+02 E0= -.10244100E+02  d E =0.337323E-03
       N       E                     dE             d eps       ncg     rms          rms(c)
DAV:   1    -0.102518043623E+02   -0.13160E-02   -0.21899E-02  1592   0.852E-01    0.927E-02
DAV:   2    -0.102515699995E+02    0.23436E-03   -0.25705E-04  1072   0.121E-01
  11 F= -.10251570E+02 E0= -.10245032E+02  d E =-.742327E-03
       N       E                     dE             d eps       ncg     rms          rms(c)
DAV:   1    -0.102513984058E+02    0.40596E-03   -0.37154E-04   992   0.119E-01    0.186E-02
DAV:   2    -0.102513875077E+02    0.10898E-04   -0.12987E-05   608   0.279E-02
  12 F= -.10251388E+02 E0= -.10244836E+02  d E =-.559835E-03
       N       E                     dE             d eps       ncg     rms          rms(c)
DAV:   1    -0.102514077632E+02   -0.93574E-05   -0.17320E-04   600   0.763E-02    0.660E-03
DAV:   2    -0.102514070596E+02    0.70361E-06   -0.52189E-06   600   0.199E-02
  13 F= -.10251407E+02 E0= -.10244866E+02  d E =-.579387E-03
       N       E                     dE             d eps       ncg     rms          rms(c)
DAV:   1    -0.102514216913E+02   -0.13928E-04   -0.76906E-05   600   0.511E-02    0.614E-03
DAV:   2    -0.102514209683E+02    0.72301E-06   -0.28187E-06   600   0.137E-02
  14 F= -.10251421E+02 E0= -.10244887E+02  d E =-.593296E-03
       N       E                     dE             d eps       ncg     rms          rms(c)
DAV:   1    -0.102514250206E+02   -0.33294E-05   -0.17129E-05   600   0.244E-02    0.316E-03
DAV:   2    -0.102514248835E+02    0.13717E-06   -0.75533E-07   600   0.700E-03
  15 F= -.10251425E+02 E0= -.10244894E+02  d E =-.597211E-03
