unknown system                          
           1
    -2.450000    2.450000    1.274000
     2.450000   -2.450000    1.274000
     2.450000    2.450000   -1.274000
   Si
   2
Direct configuration=     1
   0.25000000  0.75000000  0.50000000
   0.00000000  0.00000000  0.00000000
unknown system                          
           1
    -2.434430    2.434430    1.294779
     2.434430   -2.434430    1.294779
     2.434430    2.434430   -1.294779
   Si
   2
Direct configuration=     2
   0.25000000  0.75000000  0.50000000
  -0.00000000 -0.00000000 -0.00000000
unknown system                          
           1
    -2.387720    2.387720    1.357117
     2.387720   -2.387720    1.357117
     2.387720    2.387720   -1.357117
   Si
   2
Direct configuration=     3
   0.25000000  0.75000000  0.50000000
  -0.00000000 -0.00000000 -0.00000000
unknown system                          
           1
    -2.404026    2.404026    1.335355
     2.404026   -2.404026    1.335355
     2.404026    2.404026   -1.335355
   Si
   2
Direct configuration=     4
   0.25000000  0.75000000  0.50000000
  -0.00000000 -0.00000000 -0.00000000
unknown system                          
           1
    -2.401502    2.401502    1.338724
     2.401502   -2.401502    1.338724
     2.401502    2.401502   -1.338724
   Si
   2
Direct configuration=     5
   0.25000000  0.75000000  0.50000000
  -0.00000000 -0.00000000 -0.00000000
unknown system                          
           1
    -2.394611    2.394611    1.347920
     2.394611   -2.394611    1.347920
     2.394611    2.394611   -1.347920
   Si
   2
Direct configuration=     6
   0.25000000  0.75000000  0.50000000
  -0.00000000 -0.00000000 -0.00000000
unknown system                          
           1
    -2.399203    2.399203    1.341791
     2.399203   -2.399203    1.341791
     2.399203    2.399203   -1.341791
   Si
   2
Direct configuration=     7
   0.25000000  0.75000000  0.50000000
  -0.00000000 -0.00000000 -0.00000000
unknown system                          
           1
    -2.400760    2.400760    1.339714
     2.400760   -2.400760    1.339714
     2.400760    2.400760   -1.339714
   Si
   2
Direct configuration=     8
   0.25000000  0.75000000  0.50000000
  -0.00000000 -0.00000000 -0.00000000
unknown system                          
           1
    -2.401020    2.401020    1.339367
     2.401020   -2.401020    1.339367
     2.401020    2.401020   -1.339367
   Si
   2
Direct configuration=     9
   0.25000000  0.75000000  0.50000000
  -0.00000000 -0.00000000 -0.00000000
unknown system                          
           1
    -2.384007    2.384007    1.337215
     2.384007   -2.384007    1.337215
     2.384007    2.384007   -1.337215
   Si
   2
Direct configuration=    10
   0.25000000  0.75000000  0.50000000
   0.00000000  0.00000000  0.00000000
unknown system                          
           1
    -2.393584    2.393584    1.338426
     2.393584   -2.393584    1.338426
     2.393584    2.393584   -1.338426
   Si
   2
Direct configuration=    11
   0.25000000  0.75000000  0.50000000
  -0.00000000  0.00000000 -0.00000000
unknown system                          
           1
    -2.395535    2.395535    1.338673
     2.395535   -2.395535    1.338673
     2.395535    2.395535   -1.338673
   Si
   2
Direct configuration=    12
   0.25000000  0.75000000  0.50000000
  -0.00000000  0.00000000 -0.00000000
unknown system                          
           1
    -2.394801    2.394801    1.338580
     2.394801   -2.394801    1.338580
     2.394801    2.394801   -1.338580
   Si
   2
Direct configuration=    13
   0.25000000  0.75000000  0.50000000
  -0.00000000  0.00000000 -0.00000000
unknown system                          
           1
    -2.394193    2.394193    1.338503
     2.394193   -2.394193    1.338503
     2.394193    2.394193   -1.338503
   Si
   2
Direct configuration=    14
   0.25000000  0.75000000  0.50000000
  -0.00000000  0.00000000 -0.00000000
unknown system                          
           1
    -2.393888    2.393888    1.338465
     2.393888   -2.393888    1.338465
     2.393888    2.393888   -1.338465
   Si
   2
Direct configuration=    15
   0.25000000  0.75000000  0.50000000
  -0.00000000  0.00000000 -0.00000000
