unknown system                          
   1.00000000000000     
     0.000000    2.715000    2.715000
     2.715000    0.000000    2.715000
     2.715000    2.715000    0.000000
   Si
     2
Direct
  0.500000  0.500000  0.500000
  0.750000  0.750000  0.750000
 
   24   24   24
 0.87170     0.90914      1.0265      1.2380      1.5650      2.0301      2.6487      3.4161      4.2930      5.1947    
  5.9951      6.5524      6.7528      6.5524      5.9951      5.1947      4.2930      3.4161      2.6487      2.0301    
  1.5650      1.2380      1.0265     0.90914     0.90914     0.97007      1.0997      1.3118      1.6233      2.0476    
  2.5874      3.2242      3.9099      4.5639      5.0846      5.3749      5.3749      5.0846      4.5640      3.9100    
  3.2243      2.5874      2.0476      1.6232      1.3118      1.0997     0.97009     0.90915      1.0265      1.0997    
  1.2315      1.4341      1.7187      2.0906      2.5427      3.0490      3.5606      4.0088      4.3181      4.4289    
  4.3182      4.0088      3.5607      3.0490      2.5427      2.0906      1.7187      1.4341      1.2315      1.0997    
  1.0265      1.0031      1.2380      1.3118      1.4341      1.6144      1.8590      2.1673      2.5264      2.9084    
  3.2692      3.5546      3.7131      3.7131      3.5546      3.2692      2.9083      2.5263      2.1672      1.8591    
  1.6144      1.4342      1.3118      1.2380      1.2037      1.2037      1.5650      1.6233      1.7187      1.8590    
  2.0476      2.2803      2.5427      2.8086      3.0417      3.2026      3.2602      3.2026      3.0416      2.8085    
  2.5427      2.2803      2.0476      1.8591      1.7187      1.6233      1.5650      1.5347      1.5255      1.5347    
  2.0301      2.0476      2.0906      2.1673      2.2803      2.4250      2.5874      2.7457      2.8729      2.9440    
  2.9440      2.8728      2.7456      2.5874      2.4250      2.2804      2.1673      2.0906      2.0476      2.0300    
  2.0271      2.0286      2.0286      2.0271      2.6487      2.5874      2.5427      2.5264      2.5427      2.5874    
  2.6487      2.7101      2.7553      2.7718      2.7553      2.7102      2.6487      2.5874      2.5427      2.5264    
  2.5427      2.5874      2.6486      2.7101      2.7553      2.7718      2.7553      2.7102      3.4161      3.2242    
  3.0490      2.9084      2.8086      2.7457      2.7101      2.6922      2.6849      2.6849      2.6922      2.7102    
  2.7456      2.8085      2.9083      3.0490      3.2242      3.4161      3.5978      3.7400      3.8180      3.8181    
  3.7400      3.5978      4.2930      3.9099      3.5606      3.2692      3.0417      2.8729      2.7553      2.6849    
  2.6612      2.6848      2.7553      2.8729      3.0416      3.2692      3.5606      3.9099      4.2930      4.6688    
  4.9869      5.2000      5.2749      5.1999      4.9869      4.6688      5.1947      4.5639      4.0088      3.5546    
  3.2026      2.9440      2.7718      2.6849      2.6848      2.7718      2.9440      3.2026      3.5546      4.0088    
  4.5640      5.1947      5.8462      6.4409      6.8958      7.1423      7.1423      6.8958      6.4409      5.8462    
  5.9951      5.0846      4.3181      3.7131      3.2602      2.9440      2.7553      2.6922      2.7553      2.9440    
  3.2602      3.7131      4.3182      5.0846      5.9951      6.9894      7.9643      8.7916      9.3476      9.5436    
  9.3476      8.7916      7.9644      6.9894      6.5524      5.3749      4.4289      3.7131      3.2026      2.8728    
  2.7102      2.7102      2.8729      3.2026      3.7131      4.4289      5.3749      6.5524      7.9115      9.3376    
  10.660      11.686      12.249      12.249      11.686      10.660      9.3376      7.9116      6.7528      5.3749    
  4.3182      3.5546      3.0416      2.7456      2.6487      2.7456      3.0416      3.5546      4.3182      5.3749    
  6.7527      8.4299      10.304      12.185      13.818      14.934      15.331      14.934      13.818      12.185    
  10.304      8.4299      6.5524      5.0846      4.0088      3.2692      2.8085      2.5874      2.5874      2.8085    
  3.2692      4.0088      5.0846      6.5524      8.4299      10.654      13.050      15.330      17.123      18.098    
  18.098      17.123      15.330      13.050      10.654      8.4299      5.9951      4.5640      3.5607      2.9083    
  2.5427      2.4250      2.5427      2.9083      3.5606      4.5640      5.9951      7.9115      10.304      13.050    
  15.879      18.346      19.993      20.566      19.993      18.346      15.878      13.050      10.304      7.9115    
  5.1947      3.9100      3.0490      2.5263      2.2803      2.2804      2.5264      3.0490      3.9099      5.1947    
  6.9894      9.3376      12.185      15.330      18.346      20.663      21.902      21.902      20.663      18.346    
  15.330      12.186      9.3376      6.9893      4.2930      3.2243      2.5427      2.1672      2.0476      2.1673    
  2.5427      3.2242      4.2930      5.8462      7.9643      10.660      13.818      17.123      19.993      21.902    
  22.566      21.902      19.993      17.123      13.818      10.660      7.9643      5.8461      3.4161      2.5874    
  2.0906      1.8591      1.8591      2.0906      2.5874      3.4161      4.6688      6.4409      8.7916      11.686    
  14.934      18.098      20.566      21.902      21.902      20.566      18.098      14.934      11.686      8.7916    
  6.4409      4.6687      2.6487      2.0476      1.7187      1.6144      1.7187      2.0476      2.6486      3.5978    
  4.9869      6.8958      9.3476      12.249      15.331      18.098      19.993      20.663      19.993      18.098    
  15.331      12.249      9.3476      6.8958      4.9868      3.5978      2.0301      1.6232      1.4341      1.4342    
  1.6233      2.0300      2.7101      3.7400      5.2000      7.1423      9.5436      12.249      14.934      17.123    
  18.346      18.346      17.123      14.934      12.249      9.5437      7.1424      5.1999      3.7400      2.7102    
  1.5650      1.3118      1.2315      1.3118      1.5650      2.0271      2.7553      3.8180      5.2749      7.1423    
  9.3476      11.686      13.818      15.330      15.878      15.330      13.818      11.686      9.3476      7.1424    
  5.2749      3.8180      2.7553      2.0271      1.2380      1.0997      1.0997      1.2380      1.5347      2.0286    
  2.7718      3.8181      5.1999      6.8958      8.7916      10.660      12.185      13.050      13.050      12.186    
  10.660      8.7916      6.8958      5.1999      3.8180      2.7718      2.0286      1.5347      1.0265     0.97009    
  1.0265      1.2037      1.5255      2.0286      2.7553      3.7400      4.9869      6.4409      7.9644      9.3376    
  10.304      10.654      10.304      9.3376      7.9643      6.4409      4.9868      3.7400      2.7553      2.0286    
  1.5255      1.2037     0.90914     0.90915      1.0031      1.2037      1.5347      2.0271      2.7102      3.5978    
  4.6688      5.8462      6.9894      7.9116      8.4299      8.4299      7.9115      6.9893      5.8461      4.6687    
  3.5978      2.7102      2.0271      1.5347      1.2037      1.0031     0.90914     0.97007      1.0997      1.3118    
  1.6233      2.0476      2.5874      3.2242      3.9099      4.5639      5.0846      5.3749      5.3749      5.0846    
  4.5639      3.9099      3.2243      2.5874      2.0476      1.6233      1.3118      1.0997     0.97010     0.90915    
 0.97007      1.0384      1.1627      1.3555      1.6285      1.9874      2.4250      2.9154      3.4107      3.8439    
  4.1425      4.2493      4.1425      3.8440      3.4108      2.9155      2.4250      1.9873      1.6285      1.3554    
  1.1627      1.0385     0.97009     0.94840      1.0997      1.1627      1.2702      1.4327      1.6576      1.9443    
  2.2803      2.6384      2.9763      3.2431      3.3911      3.3911      3.2431      2.9764      2.6384      2.2803    
  1.9443      1.6576      1.4327      1.2701      1.1627      1.0997      1.0711      1.0711      1.3118      1.3555    
  1.4327      1.5526      1.7192      1.9287      2.1673      2.4100      2.6231      2.7702      2.8229      2.7702    
  2.6231      2.4099      2.1672      1.9287      1.7192      1.5526      1.4328      1.3555      1.3118      1.2913    
  1.2855      1.2913      1.6233      1.6285      1.6576      1.7192      1.8163      1.9443      2.0906      2.2348    
  2.3517      2.4174      2.4174      2.3517      2.2348      2.0906      1.9442      1.8162      1.7192      1.6577    
  1.6286      1.6233      1.6299      1.6368      1.6368      1.6299      2.0476      1.9874      1.9443      1.9287    
  1.9443      1.9874      2.0476      2.1095      2.1558      2.1730      2.1558      2.1095      2.0476      1.9874    
  1.9443      1.9287      1.9443      1.9874      2.0476      2.1095      2.1558      2.1730      2.1558      2.1095    
  2.5874      2.4250      2.2803      2.1673      2.0906      2.0476      2.0301      2.0271      2.0286      2.0286    
  2.0271      2.0301      2.0476      2.0906      2.1673      2.2804      2.4250      2.5874      2.7456      2.8728    
  2.9440      2.9441      2.8729      2.7457      3.2242      2.9154      2.6384      2.4100      2.2348      2.1095    
  2.0271      1.9807      1.9658      1.9807      2.0271      2.1094      2.2347      2.4099      2.6384      2.9155    
  3.2243      3.5342      3.8036      3.9884      4.0543      3.9884      3.8036      3.5342      3.9099      3.4107    
  2.9763      2.6231      2.3517      2.1558      2.0286      1.9658      1.9658      2.0286      2.1557      2.3516    
  2.6230      2.9764      3.4108      3.9099      4.4358      4.9286      5.3156      5.5296      5.5296      5.3156    
  4.9286      4.4358      4.5639      3.8439      3.2431      2.7702      2.4174      2.1730      2.0286      1.9807    
  2.0286      2.1729      2.4173      2.7702      3.2432      3.8441      4.5640      5.3646      6.1702      6.8737    
  7.3582      7.5314      7.3582      6.8738      6.1703      5.3646      5.0846      4.1425      3.3911      2.8229    
  2.4174      2.1558      2.0271      2.0271      2.1557      2.4173      2.8229      3.3912      4.1427      5.0848    
  6.1907      7.3814      8.5192      9.4270      9.9340      9.9340      9.4270      8.5193      7.3815      6.1908    
  5.3749      4.2493      3.3911      2.7702      2.3517      2.1095      2.0301      2.1094      2.3516      2.7702    
  3.3912      4.2495      5.3750      6.7670      8.3626      10.014      11.489      12.523      12.896      12.523    
  11.489      10.014      8.3628      6.7670      5.3749      4.1425      3.2431      2.6231      2.2348      2.0476    
  2.0476      2.2347      2.6230      3.2432      4.1427      5.3750      6.9743      8.9157      11.072      13.189    
  14.914      15.890      15.890      14.914      13.189      11.072      8.9158      6.9744      5.0846      3.8440    
  2.9764      2.4099      2.0906      1.9874      2.0906      2.4099      2.9764      3.8441      5.0848      6.7670    
  8.9157      11.455      14.157      16.627      18.384      19.023      18.384      16.627      14.157      11.456    
  8.9158      6.7669      4.5639      3.4108      2.6384      2.1672      1.9442      1.9443      2.1673      2.6384    
  3.4108      4.5640      6.1907      8.3626      11.072      14.157      17.251      19.814      21.276      21.276    
  19.814      17.251      14.157      11.072      8.3626      6.1907      3.9099      2.9155      2.2803      1.9287    
  1.8162      1.9287      2.2804      2.9155      3.9099      5.3646      7.3814      10.014      13.189      16.627    
  19.814      22.096      22.925      22.096      19.814      16.626      13.189      10.014      7.3815      5.3646    
  3.2243      2.4250      1.9443      1.7192      1.7192      1.9443      2.4250      3.2243      4.4358      6.1702    
  8.5192      11.489      14.914      18.384      21.276      22.925      22.925      21.276      18.384      14.914    
  11.489      8.5193      6.1704      4.4359      2.5874      1.9873      1.6576      1.5526      1.6577      1.9874    
  2.5874      3.5342      4.9286      6.8737      9.4270      12.523      15.890      19.023      21.276      22.096    
  21.276      19.023      15.890      12.523      9.4270      6.8739      4.9287      3.5343      2.0476      1.6285    
  1.4327      1.4328      1.6286      2.0476      2.7456      3.8036      5.3156      7.3582      9.9340      12.896    
  15.890      18.384      19.814      19.814      18.384      15.890      12.896      9.9339      7.3583      5.3157    
  3.8037      2.7457      1.6233      1.3554      1.2701      1.3555      1.6233      2.1095      2.8728      3.9884    
  5.5296      7.5314      9.9340      12.523      14.914      16.627      17.251      16.626      14.914      12.523    
  9.9339      7.5316      5.5297      3.9885      2.8728      2.1095      1.3118      1.1627      1.1627      1.3118    
  1.6299      2.1558      2.9440      4.0543      5.5296      7.3582      9.4270      11.489      13.189      14.157    
  14.157      13.189      11.489      9.4270      7.3583      5.5297      4.0544      2.9440      2.1557      1.6298    
  1.0997      1.0385      1.0997      1.2913      1.6368      2.1730      2.9441      3.9884      5.3156      6.8738    
  8.5193      10.014      11.072      11.456      11.072      10.014      8.5193      6.8739      5.3157      3.9885    
  2.9440      2.1729      1.6367      1.2913     0.97010     0.97009      1.0711      1.2855      1.6368      2.1558    
  2.8729      3.8036      4.9286      6.1703      7.3815      8.3628      8.9158      8.9158      8.3626      7.3815    
  6.1704      4.9287      3.8037      2.8728      2.1557      1.6367      1.2855      1.0711     0.90915     0.94840    
  1.0711      1.2913      1.6299      2.1095      2.7457      3.5342      4.4358      5.3646      6.1908      6.7670    
  6.9744      6.7669      6.1907      5.3646      4.4359      3.5343      2.7457      2.1095      1.6298      1.2913    
  1.0711     0.94844      1.0265      1.0997      1.2315      1.4341      1.7187      2.0906      2.5427      3.0490    
  3.5607      4.0088      4.3181      4.4289      4.3181      4.0088      3.5606      3.0490      2.5427      2.0906    
  1.7187      1.4341      1.2315      1.0997      1.0265      1.0031      1.0997      1.1627      1.2702      1.4327    
  1.6576      1.9443      2.2803      2.6384      2.9763      3.2431      3.3911      3.3911      3.2431      2.9764    
  2.6384      2.2804      1.9443      1.6576      1.4327      1.2702      1.1627      1.0997      1.0711      1.0711    
  1.2315      1.2702      1.3412      1.4543      1.6139      1.8163      2.0476      2.2834      2.4903      2.6332    
  2.6843      2.6332      2.4903      2.2834      2.0477      1.8163      1.6139      1.4543      1.3412      1.2701    
  1.2315      1.2143      1.2096      1.2143      1.4341      1.4327      1.4543      1.5083      1.5981      1.7192    
  1.8590      1.9974      2.1096      2.1728      2.1728      2.1096      1.9974      1.8590      1.7192      1.5981    
  1.5083      1.4543      1.4327      1.4341      1.4457      1.4553      1.4553      1.4457      1.7187      1.6576    
  1.6139      1.5981      1.6139      1.6576      1.7187      1.7815      1.8285      1.8459      1.8285      1.7814    
  1.7187      1.6576      1.6139      1.5981      1.6139      1.6576      1.7187      1.7815      1.8285      1.8459    
  1.8285      1.7815      2.0906      1.9443      1.8163      1.7192      1.6576      1.6285      1.6233      1.6299    
  1.6368      1.6368      1.6299      1.6233      1.6286      1.6576      1.7192      1.8163      1.9443      2.0906    
  2.2348      2.3517      2.4174      2.4174      2.3517      2.2348      2.5427      2.2803      2.0476      1.8590    
  1.7187      1.6233      1.5649      1.5347      1.5255      1.5347      1.5650      1.6233      1.7187      1.8591    
  2.0476      2.2803      2.5427      2.8085      3.0416      3.2026      3.2602      3.2026      3.0417      2.8086    
  3.0490      2.6384      2.2834      1.9974      1.7815      1.6299      1.5347      1.4891      1.4891      1.5347    
  1.6299      1.7815      1.9974      2.2833      2.6384      3.0490      3.4846      3.8959      4.2213      4.4022    
  4.4022      4.2213      3.8959      3.4846      3.5607      2.9763      2.4903      2.1096      1.8285      1.6368    
  1.5255      1.4891      1.5255      1.6368      1.8285      2.1096      2.4903      2.9763      3.5606      4.2136    
  4.8753      5.4576      5.8613      6.0062      5.8613      5.4576      4.8753      4.2136      4.0088      3.2431    
  2.6332      2.1728      1.8459      1.6368      1.5347      1.5347      1.6368      1.8459      2.1728      2.6332    
  3.2431      4.0088      4.9112      5.8892      6.8316      7.5895      8.0150      8.0150      7.5894      6.8316    
  5.8891      4.9112      4.3181      3.3911      2.6843      2.1728      1.8285      1.6299      1.5650      1.6299    
  1.8285      2.1728      2.6843      3.3911      4.3182      5.4684      6.7960      8.1823      9.4327      10.315    
  10.634      10.315      9.4327      8.1823      6.7960      5.4684      4.4289      3.3911      2.6332      2.1096    
  1.7814      1.6233      1.6233      1.7815      2.1096      2.6332      3.3911      4.4289      5.7798      7.4314    
  9.2841      11.122      12.632      13.492      13.492      12.632      11.122      9.2841      7.4314      5.7798    
  4.3181      3.2431      2.4903      1.9974      1.7187      1.6286      1.7187      1.9974      2.4903      3.2431    
  4.3182      5.7798      7.6607      9.9080      12.326      14.558      16.158      16.742      16.158      14.558    
  12.326      9.9080      7.6607      5.7798      4.0088      2.9764      2.2834      1.8590      1.6576      1.6576    
  1.8591      2.2833      2.9763      4.0088      5.4684      7.4314      9.9080      12.764      15.661      18.081    
  19.472      19.472      18.081      15.661      12.764      9.9080      7.4314      5.4683      3.5606      2.6384    
  2.0477      1.7192      1.6139      1.7192      2.0476      2.6384      3.5606      4.9112      6.7960      9.2841    
  12.326      15.661      18.786      21.046      21.874      21.046      18.786      15.661      12.326      9.2841    
  6.7960      4.9111      3.0490      2.2804      1.8163      1.5981      1.5981      1.8163      2.2803      3.0490    
  4.2136      5.8892      8.1823      11.122      14.558      18.081      21.046      22.756      22.756      21.046    
  18.081      14.558      11.122      8.1824      5.8892      4.2136      2.5427      1.9443      1.6139      1.5083    
  1.6139      1.9443      2.5427      3.4846      4.8753      6.8316      9.4327      12.632      16.158      19.472    
  21.874      22.756      21.874      19.472      16.158      12.632      9.4327      6.8316      4.8753      3.4846    
  2.0906      1.6576      1.4543      1.4543      1.6576      2.0906      2.8085      3.8959      5.4576      7.5895    
  10.315      13.492      16.742      19.472      21.046      21.046      19.472      16.742      13.492      10.315    
  7.5894      5.4576      3.8959      2.8086      1.7187      1.4327      1.3412      1.4327      1.7187      2.2348    
  3.0416      4.2213      5.8613      8.0150      10.634      13.492      16.158      18.081      18.786      18.081    
  16.158      13.492      10.634      8.0150      5.8613      4.2213      3.0416      2.2348      1.4341      1.2702    
  1.2701      1.4341      1.7815      2.3517      3.2026      4.4022      6.0062      8.0150      10.315      12.632    
  14.558      15.661      15.661      14.558      12.632      10.315      8.0150      6.0062      4.4022      3.2026    
  2.3517      1.7815      1.2315      1.1627      1.2315      1.4457      1.8285      2.4174      3.2602      4.4022    
  5.8613      7.5894      9.4327      11.122      12.326      12.764      12.326      11.122      9.4327      7.5894    
  5.8613      4.4022      3.2602      2.4174      1.8284      1.4457      1.0997      1.0997      1.2143      1.4553    
  1.8459      2.4174      3.2026      4.2213      5.4576      6.8316      8.1823      9.2841      9.9080      9.9080    
  9.2841      8.1824      6.8316      5.4576      4.2213      3.2026      2.4174      1.8459      1.4553      1.2143    
  1.0265      1.0711      1.2096      1.4553      1.8285      2.3517      3.0417      3.8959      4.8753      5.8891    
  6.7960      7.4314      7.6607      7.4314      6.7960      5.8892      4.8753      3.8959      3.0416      2.3517    
  1.8284      1.4553      1.2096      1.0711      1.0031      1.0711      1.2143      1.4457      1.7815      2.2348    
  2.8086      3.4846      4.2136      4.9112      5.4684      5.7798      5.7798      5.4683      4.9111      4.2136    
  3.4846      2.8086      2.2348      1.7815      1.4457      1.2143      1.0711      1.0031      1.2380      1.3118    
  1.4341      1.6144      1.8590      2.1673      2.5264      2.9084      3.2692      3.5546      3.7131      3.7131    
  3.5546      3.2692      2.9083      2.5263      2.1673      1.8591      1.6144      1.4342      1.3118      1.2380    
  1.2037      1.2037      1.3118      1.3555      1.4327      1.5526      1.7192      1.9287      2.1673      2.4100    
  2.6230      2.7702      2.8229      2.7702      2.6231      2.4100      2.1672      1.9287      1.7192      1.5527    
  1.4327      1.3555      1.3118      1.2913      1.2855      1.2913      1.4341      1.4327      1.4543      1.5083    
  1.5981      1.7192      1.8590      1.9974      2.1096      2.1728      2.1728      2.1096      1.9974      1.8590    
  1.7192      1.5981      1.5084      1.4543      1.4327      1.4341      1.4457      1.4553      1.4553      1.4457    
  1.6144      1.5526      1.5083      1.4923      1.5083      1.5526      1.6144      1.6776      1.7250      1.7425    
  1.7250      1.6776      1.6143      1.5526      1.5083      1.4924      1.5083      1.5526      1.6143      1.6776    
  1.7250      1.7425      1.7250      1.6776      1.8590      1.7192      1.5981      1.5083      1.4543      1.4327    
  1.4341      1.4457      1.4553      1.4553      1.4457      1.4341      1.4327      1.4543      1.5084      1.5981    
  1.7192      1.8590      1.9974      2.1096      2.1728      2.1728      2.1096      1.9974      2.1673      1.9287    
  1.7192      1.5526      1.4327      1.3555      1.3118      1.2913      1.2855      1.2913      1.3118      1.3555    
  1.4327      1.5527      1.7192      1.9287      2.1672      2.4100      2.6231      2.7702      2.8229      2.7702    
  2.6230      2.4100      2.5264      2.1673      1.8590      1.6144      1.4341      1.3118      1.2380      1.2037    
  1.2037      1.2380      1.3118      1.4342      1.6144      1.8591      2.1673      2.5263      2.9083      3.2692    
  3.5546      3.7131      3.7131      3.5546      3.2692      2.9084      2.9084      2.4100      1.9974      1.6776    
  1.4457      1.2913      1.2037      1.1754      1.2037      1.2913      1.4458      1.6777      1.9974      2.4099    
  2.9083      3.4658      4.0302      4.5263      4.8697      4.9928      4.8697      4.5263      4.0303      3.4658    
  3.2692      2.6230      2.1096      1.7250      1.4553      1.2855      1.2037      1.2037      1.2855      1.4554    
  1.7250      2.1097      2.6230      3.2691      4.0301      4.8536      5.6453      6.2807      6.6370      6.6369    
  6.2806      5.6452      4.8535      4.0303      3.5546      2.7702      2.1728      1.7425      1.4553      1.2913    
  1.2380      1.2913      1.4554      1.7426      2.1728      2.7702      3.5544      4.5261      5.6452      6.8109    
  7.8601      8.5988      8.8661      8.5987      7.8599      6.8107      5.6452      4.5263      3.7131      2.8229    
  2.1728      1.7250      1.4457      1.3118      1.3118      1.4458      1.7250      2.1728      2.8229      3.7129    
  4.8695      6.2806      7.8600      9.4241      10.708      11.438      11.438      10.708      9.4239      7.8599    
  6.2806      4.8697      3.7131      2.7702      2.1096      1.6776      1.4341      1.3555      1.4342      1.6777    
  2.1097      2.7702      3.7129      4.9927      6.6369      8.5989      10.708      12.654      14.047      14.556    
  14.047      12.654      10.708      8.5987      6.6369      4.9928      3.5546      2.6231      1.9974      1.6143    
  1.4327      1.4327      1.6144      1.9974      2.6230      3.5544      4.8695      6.6369      8.8662      11.438    
  14.047      16.227      17.480      17.480      16.227      14.047      11.438      8.8661      6.6370      4.8697    
  3.2692      2.4100      1.8590      1.5526      1.4543      1.5527      1.8591      2.4099      3.2691      4.5261    
  6.2806      8.5989      11.438      14.556      17.480      19.597      20.373      19.597      17.480      14.556    
  11.438      8.5988      6.2807      4.5263      2.9083      2.1672      1.7192      1.5083      1.5084      1.7192    
  2.1673      2.9083      4.0301      5.6452      7.8600      10.708      14.047      17.480      20.373      22.045    
  22.045      20.373      17.480      14.047      10.708      7.8601      5.6453      4.0302      2.5263      1.9287    
  1.5981      1.4924      1.5981      1.9287      2.5263      3.4658      4.8536      6.8109      9.4241      12.654    
  16.227      19.597      22.045      22.944      22.045      19.597      16.227      12.654      9.4241      6.8109    
  4.8536      3.4658      2.1673      1.7192      1.5084      1.5083      1.7192      2.1672      2.9083      4.0302    
  5.6453      7.8601      10.708      14.047      17.480      20.373      22.045      22.045      20.373      17.480    
  14.047      10.708      7.8600      5.6452      4.0301      2.9083      1.8591      1.5527      1.4543      1.5526    
  1.8590      2.4100      3.2692      4.5263      6.2807      8.5988      11.438      14.556      17.480      19.597    
  20.373      19.597      17.480      14.556      11.438      8.5989      6.2806      4.5261      3.2691      2.4099    
  1.6144      1.4327      1.4327      1.6143      1.9974      2.6231      3.5546      4.8697      6.6370      8.8661    
  11.438      14.047      16.227      17.480      17.480      16.227      14.047      11.438      8.8662      6.6369    
  4.8695      3.5544      2.6230      1.9974      1.4342      1.3555      1.4341      1.6776      2.1096      2.7702    
  3.7131      4.9928      6.6369      8.5987      10.708      12.654      14.047      14.556      14.047      12.654    
  10.708      8.5989      6.6369      4.9927      3.7129      2.7702      2.1097      1.6777      1.3118      1.3118    
  1.4457      1.7250      2.1728      2.8229      3.7131      4.8697      6.2806      7.8599      9.4239      10.708    
  11.438      11.438      10.708      9.4241      7.8600      6.2806      4.8695      3.7129      2.8229      2.1728    
  1.7250      1.4458      1.2380      1.2913      1.4553      1.7425      2.1728      2.7702      3.5546      4.5263    
  5.6452      6.8107      7.8599      8.5987      8.8661      8.5988      7.8601      6.8109      5.6452      4.5261    
  3.5544      2.7702      2.1728      1.7426      1.4554      1.2913      1.2037      1.2855      1.4553      1.7250    
  2.1096      2.6230      3.2692      4.0303      4.8535      5.6452      6.2806      6.6369      6.6370      6.2807    
  5.6453      4.8536      4.0301      3.2691      2.6230      2.1097      1.7250      1.4554      1.2855      1.2037    
  1.2037      1.2913      1.4457      1.6776      1.9974      2.4100      2.9084      3.4658      4.0303      4.5263    
  4.8697      4.9928      4.8697      4.5263      4.0302      3.4658      2.9083      2.4099      1.9974      1.6777    
  1.4458      1.2913      1.2037      1.1754      1.5649      1.6233      1.7187      1.8590      2.0476      2.2803    
  2.5427      2.8086      3.0417      3.2026      3.2602      3.2026      3.0416      2.8085      2.5427      2.2803    
  2.0476      1.8591      1.7187      1.6233      1.5650      1.5347      1.5255      1.5347      1.6233      1.6285    
  1.6576      1.7192      1.8163      1.9443      2.0906      2.2348      2.3517      2.4174      2.4174      2.3517    
  2.2348      2.0906      1.9443      1.8163      1.7192      1.6576      1.6286      1.6233      1.6299      1.6368    
  1.6368      1.6299      1.7187      1.6576      1.6139      1.5981      1.6139      1.6576      1.7187      1.7815    
  1.8285      1.8459      1.8285      1.7815      1.7187      1.6576      1.6139      1.5981      1.6139      1.6576    
  1.7187      1.7814      1.8285      1.8459      1.8285      1.7815      1.8590      1.7192      1.5981      1.5083    
  1.4543      1.4327      1.4341      1.4457      1.4553      1.4553      1.4457      1.4341      1.4327      1.4543    
  1.5083      1.5981      1.7192      1.8590      1.9974      2.1096      2.1728      2.1728      2.1096      1.9974    
  2.0476      1.8163      1.6139      1.4543      1.3412      1.2702      1.2315      1.2143      1.2096      1.2143    
  1.2315      1.2701      1.3412      1.4543      1.6139      1.8163      2.0477      2.2834      2.4903      2.6332    
  2.6843      2.6332      2.4903      2.2834      2.2803      1.9443      1.6576      1.4327      1.2702      1.1627    
  1.0997      1.0711      1.0711      1.0997      1.1627      1.2702      1.4327      1.6576      1.9443      2.2804    
  2.6384      2.9764      3.2431      3.3911      3.3911      3.2431      2.9763      2.6384      2.5427      2.0906    