unknown system                          
   1.00000000000000     
    -2.167582    2.167582    1.236909
     2.167582   -2.167582    1.236909
     2.167582    2.167582   -1.236909
   Si
     2
Direct
  0.000000  0.000000  0.000000
  0.250000  0.750000  0.500000
 
   32   32   32
 -4.5407     -3.7479     -1.5683      1.4696      4.6820      7.4345      9.3012      10.136      10.052      9.3438    
  8.3721      7.3832      6.4808      5.7341      5.1841      4.8498      4.7378      4.8497      5.1841      5.7341    
  6.4807      7.3832      8.3721      9.3439      10.052      10.136      9.3012      7.4344      4.6820      1.4695    
 -1.5684     -3.7479     -3.7479     -4.1160     -2.9457     -.53555      2.5332      5.5845      8.0431      9.5676    
  10.093      9.7908      8.9806      8.0044      7.0475      6.1988      5.5186      5.0402      4.7783      4.7380    
  4.9203      5.3233      5.9384      6.7420      7.6863      8.6944      9.6425      10.237      10.124      9.0473    
  6.9585      4.0790     0.89719     -1.9290     -1.5684     -2.9458     -2.8979     -1.4481      1.0295      3.9391    
  6.6520      8.6806      9.7801      9.9645      9.4514      8.5677      7.6051      6.6924      5.9077      5.3008    
  4.8976      4.7089      4.7384      4.9869      5.4520      6.1230      6.9717      7.9445      8.9590      9.8686    
  10.356      10.091      8.8667      6.6979      3.8673     0.89719      1.4695     -.53562     -1.4482     -1.0469    
 0.54809      2.9197      5.4969      7.7314      9.2413      9.8807      9.7320      9.0421      8.1241      7.1891    
  6.3322      5.6192      5.0894      4.7619      4.6442      4.7388      5.0467      5.5647      6.2801      7.1606    
  8.1478      9.1557      10.019      10.422      10.067      8.8015      6.6979      4.0790      4.6820      2.5331    
  1.0295     0.54809      1.1988      2.7892      4.8958      7.0073      8.6785      9.6387      9.8326      9.3954    
  8.5847      7.6666      6.7728      5.9811      5.3445      4.8925      4.6382      4.5863      4.7390      5.0970    
  5.6569      6.4034      7.3010      8.2879      9.2765      10.094      10.442      10.067      8.8667      6.9585    
  7.4344      5.5845      3.9392      2.9197      2.7892      3.5631      5.0081      6.7288      8.2988      9.3847    
  9.8214      9.6285      8.9756      8.1098      7.2127      6.3722      5.6524      5.0939      4.7173      4.5308    
  4.5373      4.7388      5.1362      5.7251      6.4882      7.3873      8.3593      9.3173      10.094      10.422    
  10.091      9.0473      9.3012      8.0431      6.6521      5.4969      4.8959      5.0081      5.7804      6.9709    
  8.2387      9.2546      9.7934      9.7808      9.2926      8.5127      7.6410      6.7811      6.0035      5.3588    
  4.8764      4.5697      4.4432      4.4988      4.7384      5.1628      5.7668      6.5313      7.4165      8.3593    
  9.2765      10.019      10.356      10.124      10.136      9.5676      8.6806      7.7314      7.0074      6.7288    
  6.9710      7.6403      8.5139      9.3203      9.8275      9.9053      9.5510      8.8754      8.0519      7.1994    
  6.3899      5.6811      5.1109      4.6995      4.4547      4.3785      4.4722      4.7379      5.1763      5.7809    
  6.5313      7.3873      8.2879      9.1557      9.8686      10.237      10.052      10.093      9.7802      9.2414    
  8.6785      8.2989      8.2388      8.5139      9.0170      9.5619      9.9509      10.039      9.7723      9.1986    
  8.4425      7.6214      6.8058      6.0561      5.4174      4.9175      4.5691      4.3760      4.3387      4.4586    
  4.7377      5.1763      5.7668      6.4882      7.3010      8.1478      8.9590      9.6425      9.3439      9.7908    
  9.9645      9.8808      9.6388      9.3848      9.2547      9.3204      9.5619      9.8780      10.127      10.181    
  9.9647      9.4816      8.8078      8.0408      7.2450      6.4793      5.7935      5.2222      4.7850      4.4892    
  4.3360      4.3253      4.4586      4.7379      5.1628      5.7251      6.4034      7.1606      7.9445      8.6944    
  8.3721      8.9806      9.4514      9.7321      9.8326      9.8214      9.7934      9.8275      9.9509      10.127    
  10.273      10.293      10.114      9.7154      9.1368      8.4467      7.6978      6.9437      6.2352      5.6127    
  5.1024      4.7177      4.4623      4.3360      4.3387      4.4722      4.7384      5.1362      5.6569      6.2801    
  6.9717      7.6863      7.3832      8.0044      8.5676      9.0422      9.3954      9.6285      9.7809      9.9054    
  10.039      10.181      10.293      10.313      10.184      9.8789      9.4112      8.8217      8.1481      7.4361    
  6.7339      6.0845      5.5206      5.0621      4.7177      4.4892      4.3760      4.3785      4.4988      4.7388    
  5.0970      5.5647      6.1230      6.7420      6.4807      7.0474      7.6050      8.1241      8.5847      8.9756    
  9.2926      9.5511      9.7723      9.9647      10.114      10.184      10.137      9.9442      9.6073      9.1420    
  8.5729      7.9356      7.2725      6.6263      6.0335      5.5206      5.1024      4.7850      4.5691      4.4547    
  4.4432      4.5373      4.7390      5.0467      5.4520      5.9384      5.7341      6.1988      6.6924      7.1891    
  7.6666      8.1098      8.5127      8.8754      9.1986      9.4816      9.7154      9.8789      9.9442      9.8885    
  9.7009      9.3817      8.9443      8.4140      7.8253      7.2169      6.6263      6.0845      5.6127      5.2222    
  4.9175      4.6995      4.5697      4.5308      4.5863      4.7388      4.9869      5.3233      5.1841      5.5186    
  5.9077      6.3322      6.7727      7.2127      7.6410      8.0519      8.4425      8.8078      9.1368      9.4112    
  9.6073      9.7009      9.6738      9.5171      9.2341      8.8398      8.3594      7.8253      7.2725      6.7339    
  6.2352      5.7935      5.4174      5.1109      4.8764      4.7173      4.6382      4.6442      4.7384      4.9203    
  4.8497      5.0402      5.3007      5.6191      5.9810      6.3722      6.7810      7.1993      7.6214      8.0408    
  8.4467      8.8216      9.1420      9.3817      9.5171      9.5315      9.4186      9.1829      8.8398      8.4140    
  7.9356      7.4361      6.9437      6.4793      6.0561      5.6811      5.3588      5.0939      4.8925      4.7619    
  4.7089      4.7380      4.7378      4.7783      4.8976      5.0894      5.3444      5.6524      6.0035      6.3899    
  6.8058      7.2450      7.6978      8.1481      8.5729      8.9443      9.2341      9.4186      9.4819      9.4186    
  9.2341      8.9443      8.5729      8.1481      7.6978      7.2450      6.8058      6.3899      6.0035      5.6524    
  5.3445      5.0894      4.8976      4.7783      4.8498      4.7380      4.7089      4.7619      4.8925      5.0938    
  5.3588      5.6811      6.0561      6.4793      6.9437      7.4361      7.9356      8.4140      8.8398      9.1829    
  9.4186      9.5315      9.5171      9.3817      9.1420      8.8217      8.4467      8.0408      7.6214      7.1994    
  6.7811      6.3722      5.9811      5.6192      5.3008      5.0402      5.1841      4.9203      4.7384      4.6442    
  4.6382      4.7172      4.8764      5.1109      5.4174      5.7935      6.2352      6.7338      7.2725      7.8253    
  8.3594      8.8398      9.2341      9.5171      9.6738      9.7009      9.6073      9.4112      9.1368      8.8078    
  8.4425      8.0519      7.6410      7.2127      6.7728      6.3322      5.9077      5.5186      5.7341      5.3233    
  4.9869      4.7388      4.5863      4.5308      4.5697      4.6995      4.9175      5.2222      5.6127      6.0845    
  6.6263      7.2168      7.8253      8.4140      8.9443      9.3817      9.7009      9.8885      9.9442      9.8789    
  9.7154      9.4816      9.1986      8.8754      8.5127      8.1098      7.6666      7.1891      6.6924      6.1988    
  6.4808      5.9384      5.4520      5.0467      4.7390      4.5373      4.4432      4.4547      4.5691      4.7850    
  5.1024      5.5206      6.0335      6.6263      7.2725      7.9356      8.5729      9.1420      9.6073      9.9442    
  10.137      10.184      10.114      9.9647      9.7723      9.5510      9.2926      8.9756      8.5847      8.1241    
  7.6051      7.0475      7.3832      6.7420      6.1230      5.5647      5.0970      4.7388      4.4988      4.3785    
  4.3760      4.4892      4.7177      5.0621      5.5206      6.0845      6.7338      7.4361      8.1481      8.8216    
  9.4112      9.8789      10.184      10.313      10.293      10.181      10.039      9.9053      9.7808      9.6285    
  9.3954      9.0421      8.5677      8.0044      8.3721      7.6862      6.9717      6.2800      5.6569      5.1362    
  4.7384      4.4722      4.3388      4.3360      4.4623      4.7177      5.1024      5.6127      6.2352      6.9437    
  7.6978      8.4467      9.1368      9.7154      10.114      10.293      10.273      10.127      9.9509      9.8275    
  9.7934      9.8214      9.8326      9.7320      9.4514      8.9806      9.3438      8.6944      7.9445      7.1605    
  6.4033      5.7251      5.1628      4.7379      4.4586      4.3254      4.3360      4.4892      4.7850      5.2222    
  5.7935      6.4793      7.2450      8.0408      8.8078      9.4816      9.9647      10.181      10.127      9.8780    
  9.5619      9.3203      9.2546      9.3847      9.6387      9.8807      9.9645      9.7908      10.052      9.6424    
  8.9590      8.1477      7.3009      6.4881      5.7668      5.1763      4.7378      4.4586      4.3388      4.3760    
  4.5691      4.9175      5.4174      6.0561      6.8058      7.6214      8.4425      9.1986      9.7723      10.039    
  9.9509      9.5619      9.0170      8.5139      8.2387      8.2988      8.6785      9.2413      9.7801      10.093    
  10.136      10.237      9.8685      9.1556      8.2878      7.3873      6.5312      5.7809      5.1763      4.7379    
  4.4722      4.3785      4.4547      4.6995      5.1109      5.6811      6.3899      7.1993      8.0519      8.8754    
  9.5511      9.9054      9.8275      9.3204      8.5139      7.6403      6.9709      6.7288      7.0073      7.7314    
  8.6806      9.5676      9.3012      10.124      10.356      10.019      9.2764      8.3593      7.4164      6.5312    
  5.7668      5.1628      4.7384      4.4988      4.4432      4.5697      4.8764      5.3588      6.0035      6.7810    
  7.6410      8.5127      9.2926      9.7809      9.7934      9.2547      8.2388      6.9710      5.7804      5.0081    
  4.8958      5.4969      6.6520      8.0431      7.4345      9.0474      10.091      10.422      10.094      9.3172    
  8.3593      7.3873      6.4881      5.7251      5.1362      4.7388      4.5373      4.5308      4.7172      5.0938    
  5.6524      6.3722      7.2127      8.1098      8.9756      9.6285      9.8214      9.3848      8.2989      6.7288    
  5.0081      3.5631      2.7892      2.9197      3.9391      5.5845      4.6820      6.9586      8.8668      10.067    
  10.442      10.094      9.2764      8.2878      7.3009      6.4033      5.6569      5.0970      4.7390      4.5863    
  4.6382      4.8925      5.3444      5.9810      6.7727      7.6666      8.5847      9.3954      9.8326      9.6388    
  8.6785      7.0074      4.8959      2.7892      1.1988     0.54809      1.0295      2.5332      1.4696      4.0792    
  6.6980      8.8017      10.067      10.422      10.019      9.1556      8.1477      7.1605      6.2800      5.5647    
  5.0467      4.7388      4.6442      4.7619      5.0894      5.6191      6.3322      7.1891      8.1241      9.0422    
  9.7321      9.8808      9.2414      7.7314      5.4969      2.9197     0.54809     -1.0469     -1.4481     -.53555    
 -1.5683     0.89732      3.8675      6.6980      8.8668      10.091      10.356      9.8685      8.9590      7.9445    
  6.9717      6.1230      5.4520      4.9869      4.7384      4.7089      4.8976      5.3007      5.9077      6.6924    
  7.6050      8.5676      9.4514      9.9645      9.7802      8.6806      6.6521      3.9392      1.0295     -1.4482    
 -2.8979     -2.9457     -3.7479     -1.9289     0.89732      4.0792      6.9586      9.0474      10.124      10.237    
  9.6424      8.6944      7.6862      6.7420      5.9384      5.3233      4.9203      4.7380      4.7783      5.0402    
  5.5186      6.1988      7.0474      8.0044      8.9806      9.7908      10.093      9.5676      8.0431      5.5845    
  2.5331     -.53562     -2.9458     -4.1160     -3.7479     -3.1779     -1.2691      1.5171      4.5467      7.2046    
  9.0533      9.9154      9.8712      9.1890      8.2194      7.2220      6.3053      5.5399      4.9670      4.6048    
  4.4587      4.5294      4.8160      5.3143      6.0103      6.8701      7.8315      8.8017      9.5755      9.8084    
  9.2008      7.6148      5.1559      2.1961     -.68444     -2.8399     -3.1780     -3.7479     -2.8399     -.68439    
  2.1962      5.1559      7.6148      9.2008      9.8084      9.5755      8.8017      7.8315      6.8701      6.0103    
  5.3143      4.8159      4.5294      4.4587      4.6048      4.9670      5.5399      6.3054      7.2221      8.2194    
  9.1890      9.8712      9.9154      9.0532      7.2045      4.5466      1.5170     -1.2691     -1.1690     -2.7331    
 -2.9458     -1.7648     0.50304      3.3053      6.0203      8.1336      9.3564      9.6585      9.2278      8.3802    
  7.4256      6.5109      5.7174      5.0974      4.6775      4.4680      4.4722      4.6914      5.1251      5.7661    
  6.5917      7.5542      8.5763      9.5299      10.120      10.009      8.9716      6.9870      4.2934      1.3691    
  1.7769     -.39635     -1.5643     -1.4482     -.97204E-01  2.1294      4.6837      7.0020      8.6593      9.4585    
  9.4407      8.8302      7.9409      7.0147      6.1568      5.4369      4.8968      4.5563      4.4227      4.4988    
  4.7862      5.2844      5.9842      6.8586      7.8542      8.8892      9.8159      10.327      10.113      8.9967    
  7.0122      4.4417      4.9747      2.6852     0.94476     0.17346     0.54806      1.9432      3.9767      6.1396    
  7.9529      9.0942      9.4574      9.1428      8.3950      7.4984      6.6123      5.8200      5.1785      4.7195    
  4.4567      4.3951      4.5373      4.8855      5.4389      6.1859      7.0956      8.1101      9.1451      10.040    
  10.495      10.240      9.1433      7.2864      7.7715      5.8164      3.9691      2.6764      2.2557      2.7892    
  4.0990      5.8121      7.4860      8.7430      9.3648      9.3262      8.7713      7.9462      7.0663      6.2319    
  5.5120      4.9510      4.5712      4.3816      4.3857      4.5863      4.9859      5.5828      6.3634      7.2930    
  8.3110      9.3323      10.195      10.623      10.385      9.3969      9.7164      8.3925      6.8461      5.4557    
  4.5766      4.4255      5.0081      6.1216      7.4296      8.5746      9.2842      9.4355      9.0687      8.3529    
  7.5068      6.6597      5.8869      5.2434      4.7617      4.4567      4.3336      4.3950      4.6441      5.0836    
  5.7107      6.5093      7.4421      8.4472      9.4410      10.273      10.698      10.528      10.637      10.043    
  9.0515      7.9191      6.9536      6.4173      6.4388      6.9709      7.8127      8.6840      9.3191      9.5435    
  9.3144      8.7182      7.9285      7.0941      6.2940      5.5899      5.0234      4.6170      4.3796      4.3141    
  4.4227      4.7088      5.1751      5.8173      6.6171      7.5356      8.5111      9.4639      10.264      10.705    
  10.627      10.677      10.310      9.6451      8.8925      8.2860      8.0033      8.1044      8.5139      9.0536    
  9.5095      9.7028      9.5431      9.0481      8.3302      7.5295      6.7265      5.9845      5.3522      4.8597    
  4.5215      4.3424      4.3238      4.4679      4.7782      5.2568      5.8979      6.6815      7.5681      8.4979    
  9.3969      10.162      9.9633      10.450      10.614      10.459      10.084      9.6498      9.3199      9.2023    
  9.3105      9.5619      9.8141      9.9185      9.7724      9.3502      8.7099      7.9604      7.1778      6.4219    
  5.7446      5.1830      4.7581      4.4788      4.3468      4.3628      4.5293      4.8497      5.3251      5.9485    
  6.6986      7.5365      8.4062      9.2410      9.0017      9.6716      10.169      10.426      10.449      10.310    
  10.120      9.9846      9.9600      10.032      10.127      10.142      9.9875      9.6198      9.0591      8.3781    
  7.6391      6.8947      6.1960      5.5849      5.0891      4.7228      4.4906      4.3928      4.4300      4.6047    
  4.9203      5.3768      5.9660      6.6664      7.4410      8.2389      8.0024      8.6889      9.2989      9.7883    
  10.111      10.266      10.301      10.285      10.277      10.298      10.323      10.293      10.144      9.8330    
  9.3599      8.7664      8.0957      7.3904      6.6977      6.0609      5.5131      5.0750      4.7557      4.5573    
  4.4796      4.5234      4.6914      4.9869      5.4090      5.9488      6.5854      7.2848      7.0744      7.7071    
  8.3160      8.8651      9.3286      9.6847      9.9275      10.081      10.181      10.253      10.298      10.288    
  10.184      9.9530      9.5856      9.1017      8.5254      7.8892      7.2334      6.5997      6.0244      5.5336    
  5.1425      4.8570      4.6778      4.6049      4.6399      4.7862      5.0467      5.4200      5.8970      6.4585    
  6.2915      6.8197      7.3663      7.8993      8.3908      8.8219      9.1845      9.4769      9.7054      9.8817    
  10.010      10.078      10.064      9.9442      9.7073      9.3556      8.9002      8.3638      7.7785      7.1813    
  6.6085      6.0903      5.6475      5.2909      5.0244      4.8489      4.7651      4.7759      4.8856      5.0971    
  5.4090      5.8129      5.7003      6.0923      6.5322      6.9954      7.4570      7.8963      8.2992      8.6601    
  8.9784      9.2550      9.4867      9.6640      9.7707      9.7882      9.7010      9.5009      9.1903      8.7826    
  8.3009      7.7758      7.2405      6.7264      6.2583      5.8523      5.5164      5.2537      5.0657      4.9552    
  4.9268      4.9859      5.1362      5.3768      5.3251      5.5647      5.8702      6.2253      6.6109      7.0086    
  7.4032      7.7851      8.1493      8.4930      8.8113      9.0940      9.3252      9.4849      9.5537      9.5171    
  9.3692      9.1140      8.7656      8.3467      7.8853      7.4111      6.9506      6.5235      6.1422      5.8125    
  5.5378      5.3214      5.1688      5.0872      5.0837      5.1629      5.1763      5.2568      5.4128      5.6356    
  5.9126      6.2296      6.5733      6.9334      7.3035      7.6788      8.0539      8.4186      8.7567      9.0471    
  9.2667      9.3952      9.4186      9.3317      9.1393      8.8554      8.5015      8.1034      7.6866      7.2727    
  6.8767      6.5072      6.1692      5.8671      5.6073      5.3986      5.2514      5.1751      5.2568      5.1763    
  5.1751      5.2513      5.3985      5.6072      5.8671      6.1692      6.5072      6.8767      7.2727      7.6866    
  8.1034      8.5015      8.8554      9.1393      9.3317      9.4186      9.3952      9.2667      9.0471      8.7567    
  8.4186      8.0539      7.6788      7.3035      6.9334      6.5733      6.2296      5.9126      5.6356      5.4128    
  5.5648      5.3251      5.1628      5.0836      5.0872      5.1688      5.3214      5.5378      5.8125      6.1422    
  6.5235      6.9505      7.4111      7.8853      8.3467      8.7656      9.1140      9.3691      9.5171      9.5537    
  9.4849      9.3252      9.0941      8.8113      8.4930      8.1493      7.7851      7.4032      7.0086      6.6110    
  6.2253      5.8703      6.0923      5.7003      5.3768      5.1362      4.9859      4.9267      4.9551      5.0656    
  5.2537      5.5164      5.8523      6.2583      6.7264      7.2405      7.7758      8.3009      8.7826      9.1903    
  9.5009      9.7009      9.7882      9.7707      9.6640      9.4867      9.2550      8.9784      8.6601      8.2992    
  7.8962      7.4570      6.9954      6.5323      6.8197      6.2916      5.8129      5.4090      5.0971      4.8856    
  4.7759      4.7650      4.8488      5.0244      5.2909      5.6475      6.0903      6.6085      7.1812      7.7785    
  8.3638      8.9002      9.3556      9.7073      9.9442      10.064      10.078      10.010      9.8817      9.7054    
  9.4769      9.1845      8.8219      8.3908      7.8993      7.3663      7.7071      7.0745      6.4586      5.8971    
  5.4200      5.0466      4.7862      4.6399      4.6049      4.6778      4.8570      5.1425      5.5336      6.0244    
  6.5997      7.2334      7.8892      8.5254      9.1017      9.5856      9.9530      10.184      10.288      10.297    
  10.253      10.181      10.081      9.9274      9.6847      9.3286      8.8651      8.3160      8.6890      8.0024    
  7.2848      6.5854      5.9488      5.4090      4.9869      4.6914      4.5234      4.4796      4.5574      4.7557    
  5.0750      5.5131      6.0609      6.6977      7.3904      8.0957      8.7664      9.3598      9.8330      10.144    
  10.293      10.323      10.298      10.277      10.285      10.301      10.266      10.111      9.7883      9.2989    
  9.6716      9.0018      8.2389      7.4410      6.6664      5.9660      5.3768      4.9203      4.6047      4.4300    
  4.3928      4.4906      4.7228      5.0891      5.5849      6.1960      6.8947      7.6391      8.3781      9.0591    
  9.6197      9.9875      10.142      10.127      10.032      9.9600      9.9845      10.120      10.309      10.449    
  10.426      10.169      10.450      9.9633      9.2410      8.4063      7.5365      6.6986      5.9485      5.3251    
  4.8497      4.5293      4.3629      4.3468      4.4788      4.7581      5.1829      5.7446      6.4219      7.1778    
  7.9604      8.7099      9.3502      9.7724      9.9185      9.8140      9.5619      9.3105      9.2023      9.3198    
  9.6497      10.084      10.459      10.614      10.677      10.627      10.162      9.3970      8.4978      7.5680    
  6.6815      5.8979      5.2568      4.7783      4.4680      4.3239      4.3425      4.5215      4.8597      5.3522    
  5.9845      6.7265      7.5294      8.3302      9.0481      9.5431      9.7028      9.5095      9.0536      8.5139    
  8.1044      8.0033      8.2859      8.8925      9.6450      10.310      10.043      10.637      10.705      10.264    
  9.4638      8.5110      7.5355      6.6171      5.8173      5.1751      4.7089      4.4227      4.3141      4.3796    
  4.6170      5.0234      5.5899      6.2940      7.0941      7.9285      8.7182      9.3144      9.5435      9.3191    
  8.6841      7.8127      6.9709      6.4388      6.4173      6.9536      7.9190      9.0514      8.3925      9.7164    
  10.528      10.697      10.273      9.4410      8.4471      7.4420      6.5092      5.7107      5.0836      4.6441    
  4.3951      4.3336      4.4567      4.7617      5.2434      5.8869      6.6596      7.5068      8.3528      9.0687    
  9.4355      9.2842      8.5746      7.4296      6.1216      5.0081      4.4255      4.5766      5.4557      6.8461    
  5.8164      7.7715      9.3969      10.385      10.623      10.195      9.3322      8.3110      7.2929      6.3633    
  5.5828      4.9859      4.5863      4.3857      4.3816      4.5712      4.9509      5.5120      6.2319      7.0663    
  7.9462      8.7713      9.3262      9.3648      8.7430      7.4860      5.8121      4.0991      2.7892      2.2557    
  2.6765      3.9691      2.6852      4.9747      7.2865      9.1434      10.240      10.495      10.040      9.1451    
  8.1101      7.0955      6.1858      5.4389      4.8856      4.5373      4.3950      4.4566      4.7195      5.1785    
  5.8200      6.6123      7.4984      8.3950      9.1428      9.4573      9.0942      7.9530      6.1396      3.9767    
  1.9432     0.54818     0.17359     0.94484     -.39627      1.7770      4.4418      7.0123      8.9968      10.113    
  10.327      9.8159      8.8891      7.8541      6.8585      5.9841      5.2843      4.7862      4.4988      4.4227    
  4.5563      4.8968      5.4368      6.1568      7.0147      7.9409      8.8302      9.4407      9.4585      8.6593    
  7.0020      4.6837      2.1294     -.97096E-01 -1.4481     -1.5642     -2.7329     -1.1688      1.3692      4.2934    
  6.9871      8.9717      10.009      10.119      9.5298      8.5763      7.5541      6.5917      5.7660      5.1251    
  4.6914      4.4722      4.4680      4.6774      5.0973      5.7174      6.5108      7.4256      8.3802      9.2279    
  9.6585      9.3563      8.1336      6.0203      3.3054     0.50306     -1.7648     -2.9457     -1.5683     -1.1689    
 0.42143      2.8125      5.4464      7.7677      9.3706      10.079      9.9546      9.2364      8.2494      7.2368    
  6.3026      5.5160      4.9171      4.5233      4.3388      4.3629      4.5945      5.0312      5.6630      6.4634    
  7.3798      8.3312      9.1699      9.5950      9.3135      8.1661      6.2073      3.7346      1.2453     -.68434    
 -1.2691     -1.9290     -1.2691     0.54137      3.0527      5.6829      7.8917      9.3177      9.8419      9.5761    
  8.7927      7.8169      6.8476      5.9759      5.2634      4.7437      4.4300      4.3254      4.4300      4.7437    
  5.2635      5.9760      6.8476      7.8170      8.7927      9.5761      9.8419      9.3176      7.8917      5.6830    
  3.0528     0.54139     0.42143     -1.1689     -1.5683     -.68440      1.2453      3.7346      6.2072      8.1661    
  9.3136      9.5950      9.1699      8.3312      7.3798      6.4633      5.6629      5.0311      4.5945      4.3629    
  4.3388      4.5233      4.9171      5.5160      6.3027      7.2368      8.2494      9.2364      9.9546      10.079    
  9.3705      7.7677      5.4464      2.8126      3.0580     0.90628     -.39633     -.53561     0.50303      2.4293    
  4.7478      6.9185      8.5122      9.3085      9.3177      8.7378      7.8673      6.9508      6.0960      5.3736    
  4.8262      4.4739      4.3239      4.3785      4.6399      5.1091      5.7803      6.6321      7.6178      8.6629    
  9.6484      10.305      10.325      9.5083      7.8438      5.5512      5.9944      3.7601      1.9314     0.94474    
  1.0295      2.1294      3.9229      5.9347      7.6886      8.8408      9.2528      8.9940      8.2879      7.4141    
  6.5419      5.7564      5.1163      4.6546      4.3855      4.3141      4.4432      4.7759      5.3131      6.0472    
  6.9522      7.9764      9.0413      10.016      10.623      10.585      9.7436      8.1308      8.5985      6.7183    
  4.8239      3.3593      2.6764      2.9197      3.9767      5.5201      7.1217      8.3891      9.0721      9.1106    
  8.6215      7.8371      6.9824      6.1644      5.4544      4.8987      4.5212      4.3315      4.3336      4.5307    
  4.9267      5.5221      6.3067      7.2504      8.2976      9.3676      10.323      10.899      10.851      10.062    
  10.425      9.1822      7.6220      6.1055      5.0026      4.5766      4.8957      5.8121      7.0175      8.1520    
  8.9169      9.1537      8.8703      8.2149      7.4050      6.5838      5.8292      5.1986      4.7266      4.4294    
  4.3134      4.3816      4.6382      5.0872      5.7282      6.5483      7.5137      8.5660      9.6244      10.555    
  11.115      11.098      11.294      10.777      9.7951      8.5794      7.4364      6.6559      6.4173      6.7287    
  7.4295      8.2518      8.9150      9.2137      9.0715      8.5481      7.8053      7.0049      6.2309      5.5468    
  4.9968      4.6050      4.3820      4.3315      4.4566      4.7619      5.2513      5.9231      6.7613      7.7294    
  8.7673      9.7959      10.694      11.250      11.281      11.401      11.057      10.344      9.4610      8.6526    
  8.1308      8.0032      8.2387      8.6840      9.1249      9.3617      9.2738      8.8504      8.1851      7.4225    
  6.6517      5.9364      5.3268      4.8552      4.5377      4.3803      4.3855      4.5563      4.8976      5.4128    
  6.0983      6.9355      7.8858      8.8891      9.8697      10.725      10.639      11.190      11.386      11.209    
  10.746      10.156      9.6211      9.2856      9.2023      9.3203      9.5095      9.6134      9.5071      9.1394    
  8.5469      7.8337      7.0856      6.3610      5.7121      5.1773      4.7790      4.5272      4.4250      4.4739    
  4.6774      5.0402      5.5648      6.2454      7.0615      7.9733      8.9225      9.8385      9.7011      10.434    
  10.970      11.227      11.195      10.942      10.588      10.260      10.045      9.9600      9.9509      9.9185    
  9.7618      9.4180      8.8876      8.2336      7.5258      6.8140      6.1477      5.5685      5.1049      4.7718    
  4.5749      4.5153      4.5945      4.8159      5.1841      5.7003      6.3569      7.1318      7.9856      8.8634    
  8.7127      9.4629      10.118      10.623      10.919      10.999      10.909      10.732      10.548      10.404    
  10.298      10.181      9.9875      9.6636      9.1937      8.6103      7.9611      7.2848      6.6252      6.0240    
  5.5135      5.1142      4.8357      4.6807      4.6496      4.7438      4.9670      5.3234      5.8129      6.4265    
  7.1416      7.9203      7.7798      8.4775      9.1353      9.7099      10.168      10.479      10.633      10.659    
  10.606      10.520      10.422      10.298      10.114      9.8330      9.4378      8.9424      8.3727      7.7567    