   2   2   0   0
  0.1162302E+02  0.3305566E-09  0.3305566E-09  0.3305566E-09  0.5000000E-15
  1.000000000000000E-004
  CAR 
 unknown system                          
     30.95070687     -5.24823548  301     13.02331262      1.00000000
     -5.248  0.0000E+00  0.0000E+00
     -5.128  0.0000E+00  0.0000E+00
     -5.007  0.0000E+00  0.0000E+00
     -4.886  0.0000E+00  0.0000E+00
     -4.766  0.0000E+00  0.0000E+00
     -4.645  0.0000E+00  0.0000E+00
     -4.524  0.0000E+00  0.0000E+00
     -4.404  0.1438E-17  0.1735E-18
     -4.283  0.1098E-14  0.1326E-15
     -4.162  0.4414E-12  0.5340E-13
     -4.042  0.8691E-10  0.1054E-10
     -3.921  0.8405E-08  0.1025E-08
     -3.800  0.4007E-06  0.4938E-07
     -3.680  0.9462E-05  0.1191E-05
     -3.559  0.1112E-03  0.1461E-04
     -3.438  0.6556E-03  0.9372E-04
     -3.318  0.1969E-02  0.3313E-03
     -3.197  0.3178E-02  0.7148E-03
     -3.076  0.3469E-02  0.1133E-02
     -2.956  0.4774E-02  0.1709E-02
     -2.835  0.9033E-02  0.2799E-02
     -2.714  0.1306E-01  0.4375E-02
     -2.594  0.1254E-01  0.5888E-02
     -2.473  0.9689E-02  0.7057E-02
     -2.352  0.7211E-02  0.7927E-02
     -2.232  0.5969E-02  0.8647E-02
     -2.111  0.7079E-02  0.9501E-02
     -1.990  0.1158E-01  0.1090E-01
     -1.870  0.1953E-01  0.1325E-01
     -1.749  0.2433E-01  0.1619E-01
     -1.628  0.1813E-01  0.1838E-01
     -1.508  0.1035E-01  0.1963E-01
     -1.387  0.1262E-01  0.2115E-01
     -1.266  0.1857E-01  0.2339E-01
     -1.146  0.1777E-01  0.2553E-01
     -1.025  0.1368E-01  0.2718E-01
     -0.904  0.1344E-01  0.2881E-01
     -0.784  0.1624E-01  0.3077E-01
     -0.663  0.1829E-01  0.3297E-01
     -0.542  0.1996E-01  0.3538E-01
     -0.422  0.2271E-01  0.3812E-01
     -0.301  0.2276E-01  0.4087E-01
     -0.180  0.1682E-01  0.4290E-01
     -0.060  0.1604E-01  0.4483E-01
      0.061  0.2756E-01  0.4816E-01
      0.182  0.3514E-01  0.5240E-01
      0.302  0.2628E-01  0.5557E-01
      0.423  0.1375E-01  0.5723E-01
      0.544  0.7103E-02  0.5808E-01
      0.664  0.6097E-02  0.5882E-01
      0.785  0.1244E-01  0.6032E-01
      0.906  0.2697E-01  0.6357E-01
      1.026  0.4494E-01  0.6900E-01
      1.147  0.4964E-01  0.7499E-01
      1.268  0.3505E-01  0.7922E-01
      1.388  0.2185E-01  0.8185E-01
      1.509  0.2137E-01  0.8443E-01
      1.630  0.2450E-01  0.8739E-01
      1.750  0.2497E-01  0.9040E-01
      1.871  0.2303E-01  0.9318E-01
      1.992  0.1945E-01  0.9553E-01
      2.112  0.1672E-01  0.9755E-01
      2.233  0.1761E-01  0.9967E-01
      2.354  0.2201E-01  0.1023E+00
      2.474  0.2452E-01  0.1053E+00
      2.595  0.2150E-01  0.1079E+00
      2.716  0.2068E-01  0.1104E+00
      2.836  0.3534E-01  0.1146E+00
      2.957  0.5568E-01  0.1214E+00
      3.078  0.5588E-01  0.1281E+00
      3.198  0.3784E-01  0.1327E+00
      3.319  0.2373E-01  0.1355E+00
      3.440  0.2035E-01  0.1380E+00
      3.560  0.2022E-01  0.1404E+00
      3.681  0.2485E-01  0.1434E+00
      3.802  0.3821E-01  0.1480E+00
      3.922  0.4738E-01  0.1537E+00
      4.043  0.4157E-01  0.1588E+00
      4.163  0.3373E-01  0.1628E+00
      4.284  0.3417E-01  0.1670E+00
      4.405  0.3442E-01  0.1711E+00
      4.525  0.3098E-01  0.1749E+00
      4.646  0.2652E-01  0.1781E+00
      4.767  0.1959E-01  0.1804E+00
      4.887  0.1320E-01  0.1820E+00
      5.008  0.1316E-01  0.1836E+00
      5.129  0.2199E-01  0.1863E+00
      5.249  0.3314E-01  0.1902E+00
      5.370  0.3880E-01  0.1949E+00
      5.491  0.4336E-01  0.2002E+00
      5.611  0.5364E-01  0.2066E+00
      5.732  0.6132E-01  0.2140E+00
      5.853  0.5564E-01  0.2208E+00
      5.973  0.4325E-01  0.2260E+00
      6.094  0.3217E-01  0.2298E+00
      6.215  0.2366E-01  0.2327E+00
      6.335  0.2357E-01  0.2355E+00
      6.456  0.3956E-01  0.2403E+00
      6.577  0.5879E-01  0.2474E+00
      6.697  0.5937E-01  0.2546E+00
      6.818  0.4443E-01  0.2599E+00
      6.939  0.2945E-01  0.2635E+00
      7.059  0.2105E-01  0.2660E+00
      7.180  0.1901E-01  0.2683E+00
      7.301  0.2316E-01  0.2711E+00
      7.421  0.3449E-01  0.2753E+00
      7.542  0.4398E-01  0.2806E+00
      7.663  0.4423E-01  0.2859E+00
      7.783  0.4723E-01  0.2916E+00
      7.904  0.5557E-01  0.2983E+00
      8.025  0.5233E-01  0.3046E+00
      8.145  0.4340E-01  0.3099E+00
      8.266  0.4557E-01  0.3154E+00
      8.387  0.5198E-01  0.3217E+00
      8.507  0.5024E-01  0.3277E+00
      8.628  0.3928E-01  0.3325E+00
      8.749  0.2528E-01  0.3355E+00
      8.869  0.2115E-01  0.3381E+00
      8.990  0.3416E-01  0.3422E+00
      9.111  0.5662E-01  0.3490E+00
      9.231  0.6991E-01  0.3575E+00
      9.352  0.6337E-01  0.3651E+00
      9.473  0.5229E-01  0.3714E+00
      9.593  0.5113E-01  0.3776E+00
      9.714  0.4988E-01  0.3836E+00
      9.835  0.4147E-01  0.3886E+00
      9.955  0.3920E-01  0.3933E+00
     10.076  0.4509E-01  0.3988E+00
     10.197  0.4603E-01  0.4043E+00
     10.317  0.4428E-01  0.4097E+00
     10.438  0.4715E-01  0.4154E+00
     10.559  0.4963E-01  0.4213E+00
     10.679  0.5024E-01  0.4274E+00
     10.800  0.6146E-01  0.4348E+00
     10.921  0.8930E-01  0.4456E+00
     11.041  0.1038E+00  0.4581E+00
     11.162  0.8304E-01  0.4681E+00
     11.283  0.5242E-01  0.4745E+00
     11.403  0.3114E-01  0.4782E+00
     11.524  0.2249E-01  0.4809E+00
     11.645  0.2962E-01  0.4845E+00
     11.765  0.3897E-01  0.4892E+00
     11.886  0.3889E-01  0.4939E+00
     12.007  0.3633E-01  0.4983E+00
     12.127  0.3507E-01  0.5025E+00
     12.248  0.3251E-01  0.5064E+00
     12.369  0.2982E-01  0.5100E+00
     12.489  0.3291E-01  0.5140E+00
     12.610  0.3770E-01  0.5186E+00
     12.731  0.3462E-01  0.5227E+00
     12.851  0.3168E-01  0.5266E+00
     12.972  0.3745E-01  0.5311E+00
     13.093  0.4595E-01  0.5366E+00
     13.213  0.5033E-01  0.5427E+00
     13.334  0.5036E-01  0.5488E+00
     13.455  0.5005E-01  0.5548E+00
     13.575  0.4699E-01  0.5605E+00
     13.696  0.3752E-01  0.5650E+00
     13.817  0.2788E-01  0.5684E+00
     13.937  0.2992E-01  0.5720E+00
     14.058  0.4479E-01  0.5774E+00
     14.179  0.5982E-01  0.5846E+00
     14.299  0.6393E-01  0.5923E+00
     14.420  0.5510E-01  0.5990E+00
     14.541  0.4354E-01  0.6042E+00
     14.661  0.3785E-01  0.6088E+00
     14.782  0.3548E-01  0.6131E+00
     14.903  0.3537E-01  0.6173E+00
     15.023  0.4095E-01  0.6223E+00
     15.144  0.5358E-01  0.6287E+00
     15.264  0.6131E-01  0.6361E+00
     15.385  0.6090E-01  0.6435E+00
     15.506  0.6565E-01  0.6514E+00
     15.626  0.7578E-01  0.6606E+00
     15.747  0.7751E-01  0.6699E+00
     15.868  0.6679E-01  0.6780E+00
     15.988  0.5359E-01  0.6844E+00
     16.109  0.4589E-01  0.6900E+00
     16.230  0.4383E-01  0.6953E+00
     16.350  0.4325E-01  0.7005E+00
     16.471  0.4238E-01  0.7056E+00
     16.592  0.3942E-01  0.7103E+00
     16.712  0.3636E-01  0.7147E+00
     16.833  0.3985E-01  0.7195E+00
     16.954  0.4461E-01  0.7249E+00
     17.074  0.4313E-01  0.7301E+00
     17.195  0.4313E-01  0.7353E+00
     17.316  0.4863E-01  0.7412E+00
     17.436  0.5039E-01  0.7473E+00
     17.557  0.4797E-01  0.7531E+00
     17.678  0.5352E-01  0.7595E+00
     17.798  0.6304E-01  0.7671E+00
     17.919  0.6402E-01  0.7749E+00
     18.040  0.5836E-01  0.7819E+00
     18.160  0.5341E-01  0.7883E+00
     18.281  0.5040E-01  0.7944E+00
     18.402  0.4445E-01  0.7998E+00
     18.522  0.3757E-01  0.8043E+00
     18.643  0.4165E-01  0.8093E+00
     18.764  0.5289E-01  0.8157E+00
     18.884  0.5565E-01  0.8224E+00
     19.005  0.5782E-01  0.8294E+00
     19.126  0.7209E-01  0.8381E+00
     19.246  0.7969E-01  0.8477E+00
     19.367  0.6877E-01  0.8560E+00
     19.488  0.6836E-01  0.8643E+00
     19.608  0.8350E-01  0.8744E+00
     19.729  0.8432E-01  0.8845E+00
     19.850  0.7017E-01  0.8930E+00
     19.970  0.5694E-01  0.8999E+00
     20.091  0.4568E-01  0.9054E+00
     20.212  0.3887E-01  0.9101E+00
     20.332  0.3769E-01  0.9146E+00
     20.453  0.3663E-01  0.9190E+00
     20.574  0.3132E-01  0.9228E+00
     20.694  0.2347E-01  0.9257E+00
     20.815  0.2091E-01  0.9282E+00
     20.936  0.2953E-01  0.9317E+00
     21.056  0.4597E-01  0.9373E+00
     21.177  0.5351E-01  0.9437E+00
     21.298  0.4354E-01  0.9490E+00
     21.418  0.3210E-01  0.9529E+00
     21.539  0.3674E-01  0.9573E+00
     21.660  0.5396E-01  0.9638E+00
     21.780  0.6550E-01  0.9717E+00
     21.901  0.6484E-01  0.9795E+00
     22.022  0.6093E-01  0.9869E+00
     22.142  0.5675E-01  0.9937E+00
     22.263  0.4547E-01  0.9992E+00
     22.384  0.2834E-01  0.1003E+01
     22.504  0.1546E-01  0.1005E+01
     22.625  0.9438E-02  0.1006E+01
     22.746  0.8859E-02  0.1007E+01
     22.866  0.1435E-01  0.1008E+01
     22.987  0.2424E-01  0.1011E+01
     23.108  0.3231E-01  0.1015E+01
     23.228  0.3404E-01  0.1019E+01
     23.349  0.3038E-01  0.1023E+01
     23.470  0.2236E-01  0.1026E+01
     23.590  0.1502E-01  0.1028E+01
     23.711  0.1454E-01  0.1029E+01
     23.832  0.1979E-01  0.1032E+01
     23.952  0.2515E-01  0.1035E+01
     24.073  0.2454E-01  0.1038E+01
     24.194  0.1991E-01  0.1040E+01
     24.314  0.1841E-01  0.1042E+01
     24.435  0.2056E-01  0.1045E+01
     24.556  0.2338E-01  0.1048E+01
     24.676  0.2697E-01  0.1051E+01
     24.797  0.2633E-01  0.1054E+01
     24.918  0.1912E-01  0.1056E+01
     25.038  0.1228E-01  0.1058E+01
     25.159  0.7781E-02  0.1059E+01
     25.280  0.3728E-02  0.1059E+01
     25.400  0.1046E-02  0.1059E+01
     25.521  0.1547E-03  0.1059E+01
     25.642  0.1175E-04  0.1059E+01
     25.762  0.5210E-05  0.1059E+01
     25.883  0.7743E-04  0.1059E+01
     26.004  0.6260E-03  0.1059E+01
     26.124  0.2538E-02  0.1060E+01
     26.245  0.5207E-02  0.1060E+01
     26.366  0.5710E-02  0.1061E+01
     26.486  0.4766E-02  0.1062E+01
     26.607  0.5965E-02  0.1062E+01
     26.727  0.7589E-02  0.1063E+01
     26.848  0.6282E-02  0.1064E+01
     26.969  0.3218E-02  0.1064E+01
     27.089  0.9908E-03  0.1065E+01
     27.210  0.1717E-03  0.1065E+01
     27.331  0.1579E-04  0.1065E+01
     27.451  0.7451E-06  0.1065E+01
     27.572  0.1790E-06  0.1065E+01
     27.693  0.4550E-05  0.1065E+01
     27.813  0.6369E-04  0.1065E+01
     27.934  0.4450E-03  0.1065E+01
     28.055  0.1559E-02  0.1065E+01
     28.175  0.2749E-02  0.1065E+01
     28.296  0.2442E-02  0.1065E+01
     28.417  0.1094E-02  0.1066E+01
     28.537  0.2603E-03  0.1066E+01
     28.658  0.1791E-03  0.1066E+01
     28.779  0.8024E-03  0.1066E+01
     28.899  0.2127E-02  0.1066E+01
     29.020  0.2846E-02  0.1066E+01
     29.141  0.1919E-02  0.1067E+01
     29.261  0.6517E-03  0.1067E+01
     29.382  0.1111E-03  0.1067E+01
     29.503  0.9458E-05  0.1067E+01
     29.623  0.4007E-06  0.1067E+01
     29.744  0.8405E-08  0.1067E+01
     29.865  0.8691E-10  0.1067E+01
     29.985  0.4414E-12  0.1067E+01
     30.106  0.1097E-14  0.1067E+01
     30.227  0.1917E-17  0.1067E+01
     30.347  0.0000E+00  0.1067E+01
     30.468  0.0000E+00  0.1067E+01
     30.589  0.0000E+00  0.1067E+01
     30.709  0.0000E+00  0.1067E+01
     30.830  0.0000E+00  0.1067E+01
     30.951  0.0000E+00  0.1067E+01
