    2    2   15    1
  0.1162302E+02  0.3305566E-09  0.3305566E-09  0.3305566E-09  0.5000000E-15
  1.000000000000000E-004
  CAR 
 unknown system                          
      8     56      8
 
  0.6250000E-01  0.6250000E-01  0.6250000E-01  0.1562500E-01
    1       -2.758806   1.000000
    2        8.229386   1.000000
    3       10.644287   1.000000
    4       13.322709   0.017128
    5       15.747341   0.000000
    6       19.171722   0.000000
    7       19.320361   0.000000
    8       22.126848   0.000000
 
  0.1875000E+00  0.6250000E-01  0.6250000E-01  0.3125000E-01
    1       -1.298974   1.000000
    2        7.850159   1.000000
    3       10.969521   1.000000
    4       13.113427   0.261997
    5       15.270985   0.000000
    6       16.199220   0.000000
    7       18.752836   0.000000
    8       19.699554   0.000000
 
  0.3125000E+00  0.6250000E-01  0.6250000E-01  0.3125000E-01
    1        1.105835   1.000000
    2        8.283563   1.000000
    3        8.594256   1.000000
    4       11.044684   1.000000
    5       12.945656   0.708537
    6       15.671074   0.000000
    7       19.160445   0.000000
    8       19.520408   0.000000
 
  0.4375000E+00  0.6250000E-01  0.6250000E-01  0.1562500E-01
    1        4.294845   1.000000
    2        4.536563   1.000000
    3        9.551542   1.000000
    4        9.694932   1.000000
    5       13.136441   0.211873
    6       14.034909   0.000000
    7       18.976941   0.000000
    8       19.155356   0.000000
 
 -0.6250000E-01  0.6250000E-01  0.6250000E-01  0.7812500E-02
    1       -3.248235   1.000000
    2        9.305880   1.000000
    3        9.438579   1.000000
    4       13.433487   0.001864
    5       14.313224   0.000000
    6       20.277725   0.000000
    7       23.255395   0.000000
    8       24.035193   0.000000
 
  0.1875000E+00  0.1875000E+00  0.6250000E-01  0.1562500E-01
    1        0.871582   1.000000
    2        8.108482   1.000000
    3       10.005210   1.000000
    4       10.015395   1.000000
    5       14.027986   0.000000
    6       16.679905   0.000000
    7       17.645374   0.000000
    8       18.222552   0.000000
 
  0.3125000E+00  0.1875000E+00  0.6250000E-01  0.3125000E-01
    1        3.948769   1.000000
    2        5.784177   1.000000
    3        7.553199   1.000000
    4        9.241544   1.000000
    5       14.494559   0.000000
    6       15.852021   0.000000
    7       17.635090   0.000000
    8       20.513312   0.000000
 
  0.4375000E+00  0.1875000E+00  0.6250000E-01  0.3125000E-01
    1        2.271823   1.000000
    2        5.923562   1.000000
    3        7.895730   1.000000
    4       10.986129   1.000000
    5       13.421937   0.002411
    6       16.475521   0.000000
    7       18.737195   0.000000
    8       21.114108   0.000000
 
 -0.4375000E+00  0.1875000E+00  0.6250000E-01  0.3125000E-01
    1       -0.350647   1.000000
    2        5.203868   1.000000
    3       11.653433   1.000000
    4       12.523637   0.999795
    5       14.585393   0.000000
    6       16.885784   0.000000
    7       17.691520   0.000000
    8       21.025806   0.000000
 
 -0.3125000E+00  0.1875000E+00  0.6250000E-01  0.1562500E-01
    1       -2.040742   1.000000
    2        5.398990   1.000000
    3       11.257103   1.000000
    4       13.993830   0.000000
    5       17.034837   0.000000
    6       18.274364   0.000000
    7       18.910914   0.000000
    8       21.249679   0.000000
 
 -0.1875000E+00  0.1875000E+00  0.6250000E-01  0.1562500E-01
    1       -2.767828   1.000000
    2        6.499804   1.000000
    3        9.806431   1.000000
    4       14.228769   0.000000
    5       17.419681   0.000000
    6       18.011449   0.000000
    7       21.681597   0.000000
    8       23.337010   0.000000
 
 -0.6250000E-01  0.1875000E+00  0.6250000E-01  0.1562500E-01
    1       -2.519166   1.000000
    2        8.346187   1.000000
    3        8.558819   1.000000
    4       15.081119   0.000000
    5       16.491102   0.000000
    6       18.117584   0.000000
    7       18.663897   0.000000
    8       22.213585   0.000000
 
  0.3125000E+00  0.3125000E+00  0.6250000E-01  0.1562500E-01
    1        3.884635   1.000000
    2        3.888115   1.000000
    3        7.673410   1.000000
    4       10.889716   1.000000
    5       14.343111   0.000000
    6       15.250137   0.000000
    7       20.676255   0.000000
    8       21.043795   0.000000
 
  0.4375000E+00  0.3125000E+00  0.6250000E-01  0.3125000E-01
    1        1.060830   1.000000
    2        2.920781   1.000000
    3       11.977415   1.000000
    4       12.640893   0.996576
    5       14.258245   0.000000
    6       15.968181   0.000000
    7       18.186126   0.000000
    8       19.882761   0.000000
 
 -0.4375000E+00  0.3125000E+00  0.6250000E-01  0.1562500E-01
    1       -0.851080   1.000000
    2        2.892717   1.000000
    3       12.266449   1.000000
    4       14.838422   0.000000
    5       15.561175   0.000000
    6       17.355207   0.000000
    7       18.663417   0.000000
    8       19.612016   0.000000
 
 -0.3125000E+00  0.3125000E+00  0.6250000E-01  0.1562500E-01
    1       -1.811239   1.000000
    2        3.802017   1.000000
    3       10.662125   1.000000
    4       15.111641   0.000000
    5       15.669146   0.000000
    6       19.801116   0.000000
    7       20.802080   0.000000
    8       22.890703   0.000000
 
 -0.1875000E+00  0.3125000E+00  0.6250000E-01  0.3125000E-01
    1       -1.802287   1.000000
    2        5.623516   1.000000
    3        9.113781   1.000000
    4       15.415858   0.000000
    5       16.025089   0.000000
    6       17.807810   0.000000
    7       19.679759   0.000000
    8       21.832574   0.000000
 
 -0.6250000E-01  0.3125000E+00  0.6250000E-01  0.1562500E-01
    1       -0.824237   1.000000
    2        8.172109   1.000000
    3        8.412206   1.000000
    4       12.099944   1.000000
    5       15.825281   0.000000
    6       17.739260   0.000000
    7       18.333882   0.000000
    8       20.446064   0.000000
 
  0.4375000E+00  0.4375000E+00  0.6250000E-01  0.7812500E-02
    1        0.799156   1.000000
    2        0.799156   1.000000
    3       13.634488   0.000008
    4       13.634488   0.000008
    5       16.303030   0.000000
    6       16.303038   0.000000
    7       18.675329   0.000000
    8       18.675341   0.000000
 
 -0.4375000E+00  0.4375000E+00  0.6250000E-01  0.1562500E-01
    1       -0.387024   1.000000
    2        1.491262   1.000000
    3       11.937167   1.000000
    4       13.616412   0.000014
    5       16.372040   0.000000
    6       17.969097   0.000000
    7       22.022566   0.000000
    8       22.323685   0.000000
 
 -0.3125000E+00  0.4375000E+00  0.6250000E-01  0.3125000E-01
    1       -0.614591   1.000000
    2        3.122803   1.000000
    3       10.197359   1.000000
    4       13.572920   0.000051
    5       15.609634   0.000000
    6       18.350825   0.000000
    7       20.016978   0.000000
    8       21.546883   0.000000
 
 -0.1875000E+00  0.4375000E+00  0.6250000E-01  0.3125000E-01
    1        0.120967   1.000000
    2        5.654144   1.000000
    3        9.164155   1.000000
    4       11.297436   1.000000
    5       14.086184   0.000000
    6       17.375092   0.000000
    7       19.540436   0.000000
    8       21.638088   0.000000
 
 -0.6250000E-01  0.4375000E+00  0.6250000E-01  0.1562500E-01
    1        1.806342   1.000000
    2        7.437196   1.000000
    3        8.885467   1.000000
    4        9.082626   1.000000
    5       13.802175   0.000000
    6       15.127641   0.000000
    7       17.235533   0.000000
    8       21.715594   0.000000
 
 -0.4375000E+00 -0.4375000E+00  0.6250000E-01  0.1562500E-01
    1        1.032098   1.000000
    2        1.033777   1.000000
    3       11.649163   1.000000
    4       11.744918   1.000000
    5       15.515247   0.000000
    6       19.131509   0.000000
    7       19.919021   0.000000
    8       20.317658   0.000000
 
 -0.3125000E+00 -0.4375000E+00  0.6250000E-01  0.3125000E-01
    1        1.527751   1.000000
    2        3.381134   1.000000
    3       10.408751   1.000000
    4       10.902491   1.000000
    5       12.165505   1.000000
    6       16.882785   0.000000
    7       21.172866   0.000000
    8       23.142709   0.000000
 
 -0.1875000E+00 -0.4375000E+00  0.6250000E-01  0.3125000E-01
    1        2.965829   1.000000
    2        6.550514   1.000000
    3        6.831594   1.000000
    4       10.014801   1.000000
    5       12.883408   0.838736
    6       15.139858   0.000000
    7       17.866626   0.000000
    8       23.339191   0.000000
 
 -0.6250000E-01 -0.4375000E+00  0.6250000E-01  0.1562500E-01
    1        3.489284   1.000000
    2        5.335019   1.000000
    3       10.280405   1.000000
    4       10.363714   1.000000
    5       12.312743   1.000000
    6       13.386821   0.005079
    7       16.786875   0.000000
    8       21.383054   0.000000
 
 -0.3125000E+00 -0.3125000E+00  0.6250000E-01  0.1562500E-01
    1        4.566724   1.000000
    2        4.572518   1.000000
    3        6.566280   1.000000
    4       11.123589   1.000000
    5       11.693149   1.000000
    6       14.703716   0.000000
    7       19.901611   0.000000
    8       21.893419   0.000000
 
 -0.1875000E+00 -0.3125000E+00  0.6250000E-01  0.3125000E-01
    1        3.031001   1.000000
    2        6.679159   1.000000
    3        8.424662   1.000000
    4       10.973381   1.000000
    5       12.530088   0.999756
    6       14.293956   0.000000
    7       16.201640   0.000000
    8       20.178164   0.000000
 
 -0.6250000E-01 -0.3125000E+00  0.6250000E-01  0.1562500E-01
    1        0.401651   1.000000
    2        9.589547   1.000000
    3       10.784085   1.000000
    4       10.850243   1.000000
    5       13.150457   0.184314
    6       14.166566   0.000000
    7       17.355983   0.000000
    8       19.200729   0.000000
 
 -0.1875000E+00 -0.1875000E+00  0.6250000E-01  0.1562500E-01
    1        0.166182   1.000000
    2       10.584174   1.000000
    3       10.951021   1.000000
    4       11.052019   1.000000
    5       13.225819   0.076081
    6       15.201625   0.000000
    7       15.747759   0.000000
    8       17.194739   0.000000
 
 -0.6250000E-01 -0.1875000E+00  0.6250000E-01  0.1562500E-01
    1       -1.775292   1.000000
    2       10.516627   1.000000
    3       10.648692   1.000000
    4       13.491657   0.000464
    5       15.581112   0.000000
    6       15.773803   0.000000
    7       17.434379   0.000000
    8       17.778874   0.000000
 
 -0.6250000E-01 -0.6250000E-01  0.6250000E-01  0.3906250E-02
    1       -2.998878   1.000000
    2       10.439168   1.000000
    3       10.439168   1.000000
    4       12.695508   0.989773
    5       13.758274   0.000000
    6       20.102327   0.000000
    7       20.207722   0.000000
    8       21.729428   0.000000
 
  0.1875000E+00  0.1875000E+00  0.1875000E+00  0.1562500E-01
    1        2.039683   1.000000
    2        5.700471   1.000000
    3        9.390379   1.000000
    4        9.390824   1.000000
    5       15.139251   0.000000
    6       18.026172   0.000000
    7       18.478941   0.000000
    8       19.589136   0.000000
 
  0.3125000E+00  0.1875000E+00  0.1875000E+00  0.1562500E-01
    1        5.211730   1.000000
    2        5.430830   1.000000
    3        7.023181   1.000000
    4        7.217922   1.000000
    5       16.476263   0.000000
    6       17.904245   0.000000
    7       19.138944   0.000000
    8       19.903617   0.000000
 
 -0.1875000E+00  0.1875000E+00  0.1875000E+00  0.7812500E-02
    1       -2.289028   1.000000
    2        6.820925   1.000000
    3        7.083718   1.000000
    4       15.548128   0.000000
    5       17.006556   0.000000
    6       18.426265   0.000000
    7       21.189408   0.000000
    8       22.729703   0.000000
 
  0.3125000E+00  0.3125000E+00  0.1875000E+00  0.7812500E-02
    1        3.657384   1.000000
    2        3.657384   1.000000
    3        9.179988   1.000000
    4        9.179989   1.000000
    5       16.619257   0.000000
    6       16.619260   0.000000
    7       19.527003   0.000000
    8       19.527016   0.000000
 
 -0.3125000E+00  0.3125000E+00  0.1875000E+00  0.1562500E-01
    1       -1.335606   1.000000
    2        4.257149   1.000000
    3        7.851929   1.000000
    4       13.076652   0.353024
    5       18.030307   0.000000
    6       20.290796   0.000000
    7       21.086620   0.000000
    8       23.085289   0.000000
 
 -0.1875000E+00  0.3125000E+00  0.1875000E+00  0.1562500E-01
    1       -1.088964   1.000000
    2        6.160176   1.000000
    3        6.451508   1.000000
    4       13.271752   0.039482
    5       15.396482   0.000000
    6       20.434743   0.000000
    7       20.945835   0.000000
    8       23.015518   0.000000
 
 -0.4375000E+00  0.4375000E+00  0.1875000E+00  0.1562500E-01
    1        0.083910   1.000000
    2        1.955709   1.000000
    3        9.179221   1.000000
    4       10.930559   1.000000
    5       18.806166   0.000000
    6       19.527251   0.000000
    7       21.954055   0.000000
    8       22.984323   0.000000
 
 -0.3125000E+00  0.4375000E+00  0.1875000E+00  0.3125000E-01
    1        0.092836   1.000000
    2        3.809490   1.000000
    3        7.435251   1.000000
    4       10.951876   1.000000
    5       14.871602   0.000000
    6       21.672420   0.000000
    7       22.110340   0.000000
    8       24.427723   0.000000
 
 -0.1875000E+00  0.4375000E+00  0.1875000E+00  0.1562500E-01
    1        1.059872   1.000000
    2        6.414961   1.000000
    3        6.705002   1.000000
    4       10.448643   1.000000
    5       11.807795   1.000000
    6       19.491962   0.000000
    7       19.636192   0.000000
    8       24.144454   0.000000
 
 -0.4375000E+00 -0.4375000E+00  0.1875000E+00  0.1562500E-01
    1        1.730033   1.000000
    2        1.733827   1.000000
    3        8.967489   1.000000
    4        9.007136   1.000000
    5       14.683253   0.000000
    6       22.023613   0.000000
    7       22.491171   0.000000
    8       23.963117   0.000000
 
 -0.3125000E+00 -0.4375000E+00  0.1875000E+00  0.3125000E-01
    1        2.457001   1.000000
    2        4.295837   1.000000
    3        7.903374   1.000000
    4        9.627261   1.000000
    5       10.074952   1.000000
    6       19.209965   0.000000
    7       22.182990   0.000000
    8       24.707060   0.000000
 
 -0.1875000E+00 -0.4375000E+00  0.1875000E+00  0.1562500E-01
    1        4.112929   1.000000
    2        6.097993   1.000000
    3        7.604919   1.000000
    4        7.840700   1.000000
    5       11.125125   1.000000
    6       17.155076   0.000000
    7       17.221249   0.000000
    8       23.686564   0.000000
 
 -0.3125000E+00 -0.3125000E+00  0.1875000E+00  0.1562500E-01
    1        5.627035   1.000000
    2        5.692675   1.000000
    3        5.974458   1.000000
    4        9.182509   1.000000
    5        9.318702   1.000000
    6       16.959996   0.000000
    7       19.218017   0.000000
    8       21.823481   0.000000
 
 -0.1875000E+00 -0.3125000E+00  0.1875000E+00  0.1562500E-01
    1        2.568642   1.000000
    2        8.000953   1.000000
    3        9.609585   1.000000
    4        9.776353   1.000000
    5       11.270718   1.000000
    6       15.456781   0.000000
    7       15.639127   0.000000
    8       19.617257   0.000000
 
 -0.1875000E+00 -0.1875000E+00  0.1875000E+00  0.3906250E-02
    1       -0.069724   1.000000
    2       11.738864   1.000000
    3       11.738865   1.000000
    4       11.940518   1.000000
    5       12.669890   0.993774
    6       14.909233   0.000000
    7       14.909238   0.000000
    8       16.695194   0.000000
 
 -0.3125000E+00  0.3125000E+00  0.3125000E+00  0.7812500E-02
    1       -0.388525   1.000000
    2        5.008035   1.000000
    3        5.345438   1.000000
    4       10.531858   1.000000
    5       19.064462   0.000000
    6       19.683170   0.000000
    7       23.562889   0.000000
    8       23.852190   0.000000
 
 -0.4375000E+00  0.4375000E+00  0.3125000E+00  0.1562500E-01
    1        1.021228   1.000000
    2        2.878345   1.000000
    3        6.545410   1.000000
    4        8.333607   1.000000
    5       19.082726   0.000000
    6       19.239016   0.000000
    7       24.874517   0.000000
    8       26.249438   0.000000
 
 -0.3125000E+00  0.4375000E+00  0.3125000E+00  0.1562500E-01
    1        1.264573   1.000000
    2        4.786028   1.000000
    3        5.136012   1.000000
    4        8.562391   1.000000
    5       14.298859   0.000000
    6       23.852112   0.000000
    7       24.310187   0.000000
    8       24.686112   0.000000
 
 -0.4375000E+00 -0.4375000E+00  0.3125000E+00  0.1562500E-01
    1        2.884119   1.000000
    2        2.891311   1.000000
    3        6.547780   1.000000
    4        6.566403   1.000000
    5       14.099391   0.000000
    6       23.941064   0.000000
    7       24.632825   0.000000
    8       26.640987   0.000000
 
 -0.3125000E+00 -0.4375000E+00  0.3125000E+00  0.1562500E-01
    1        3.837838   1.000000
    2        5.506179   1.000000
    3        5.830289   1.000000
    4        7.470712   1.000000
    5        9.605380   1.000000
    6       21.764381   0.000000
    7       21.950263   0.000000
    8       25.068808   0.000000
 
 -0.3125000E+00 -0.3125000E+00  0.3125000E+00  0.3906250E-02
    1        5.626923   1.000000
    2        7.095742   1.000000
    3        7.234945   1.000000
    4        7.413396   1.000000
    5        7.413397   1.000000
    6       18.990802   0.000000
    7       18.990814   0.000000
    8       21.330363   0.000000
 
 -0.4375000E+00  0.4375000E+00  0.4375000E+00  0.7812500E-02
    1        2.414357   1.000000
    2        4.076698   1.000000
    3        4.461139   1.000000
    4        6.101034   1.000000
    5       18.864562   0.000000
    6       18.902320   0.000000
    7       28.154630   0.000000
    8       28.950707   0.000000
 
 -0.4375000E+00 -0.4375000E+00  0.4375000E+00  0.3906250E-02
    1        4.309528   1.000000
    2        4.331319   1.000000
    3        4.693619   1.000000
    4        4.693619   1.000000
    5       13.897455   0.000000
    6       24.019099   0.000000
    7       26.799880   0.000000
    8       26.799901   0.000000
