<?xml version="1.0" encoding="ISO-8859-1"?>
<modeling>
 <generator>
  <i name="program" type="string">vasp </i>
  <i name="version" type="string">5.4.4.18Apr17-6-g9f103f2a35  </i>
  <i name="subversion" type="string">(build Dec 09 2018 21:25:21) complex            parallel </i>
  <i name="platform" type="string">IFC18.0.1.163_CrayMPICH7.7.0_MKL18.0.1.163 </i>
  <i name="date" type="string">2019 04 01 </i>
  <i name="time" type="string">15:48:55 </i>
 </generator>
 <incar>
  <i type="string" name="PREC">normal</i>
  <i type="int" name="IBRION">     2</i>
  <i name="EDIFF">      0.00040000</i>
  <i name="EDIFFG">     -0.01000000</i>
  <i type="int" name="NSW">    15</i>
  <i type="int" name="ISIF">     2</i>
  <i name="ENCUT">    350.00000000</i>
  <i type="int" name="NBANDS">     8</i>
  <i type="logical" name="LREAL"> F  </i>
  <i type="int" name="ISMEAR">     0</i>
  <i name="SIGMA">      0.20000000</i>
  <v type="int" name="KPOINT_BSE">    -1     0     0     0</v>
 </incar>
 <structure name="primitive_cell" >
  <crystal>
   <varray name="basis" >
    <v>      -2.16758200       2.16758200       1.23690900 </v>
    <v>       2.16758200      -2.16758200       1.23690900 </v>
    <v>       2.16758200       2.16758200      -1.23690900 </v>
   </varray>
   <i name="volume">     23.24603100 </i>
   <varray name="rec_basis" >
    <v>      -0.00000000       0.23067178       0.40423346 </v>
    <v>       0.23067178      -0.00000000       0.40423346 </v>
    <v>       0.23067178       0.23067178       0.00000000 </v>
   </varray>
  </crystal>
  <varray name="positions" >
   <v>       0.00000000       0.00000000       0.00000000 </v>
   <v>       0.25000000      -0.25000000      -0.50000000 </v>
  </varray>
 </structure>
 <varray name="primitive_index" >
  <v type="int" >        1 </v>
  <v type="int" >        2 </v>
 </varray>
 <kpoints>
  <generation param="Monkhorst-Pack">
   <v type="int" name="divisions">       8        8        8 </v>
   <v name="usershift">      0.00000000       0.00000000       0.00000000 </v>
   <v name="genvec1">      0.12500000      -0.00000000       0.00000000 </v>
   <v name="genvec2">     -0.00000000       0.12500000      -0.00000000 </v>
   <v name="genvec3">      0.00000000      -0.00000000       0.12500000 </v>
   <v name="shift">      0.50000000       0.50000000       0.50000000 </v>
  </generation>
  <varray name="kpointlist" >
   <v>       0.06250000       0.06250000       0.06250000 </v>
   <v>       0.18750000       0.06250000       0.06250000 </v>
   <v>       0.31250000       0.06250000       0.06250000 </v>
   <v>       0.43750000       0.06250000       0.06250000 </v>
   <v>      -0.06250000       0.06250000       0.06250000 </v>
   <v>       0.18750000       0.18750000       0.06250000 </v>
   <v>       0.31250000       0.18750000       0.06250000 </v>
   <v>       0.43750000       0.18750000       0.06250000 </v>
   <v>      -0.43750000       0.18750000       0.06250000 </v>
   <v>      -0.31250000       0.18750000       0.06250000 </v>
   <v>      -0.18750000       0.18750000       0.06250000 </v>
   <v>      -0.06250000       0.18750000       0.06250000 </v>
   <v>       0.31250000       0.31250000       0.06250000 </v>
   <v>       0.43750000       0.31250000       0.06250000 </v>
   <v>      -0.43750000       0.31250000       0.06250000 </v>
   <v>      -0.31250000       0.31250000       0.06250000 </v>
   <v>      -0.18750000       0.31250000       0.06250000 </v>
   <v>      -0.06250000       0.31250000       0.06250000 </v>
   <v>       0.43750000       0.43750000       0.06250000 </v>
   <v>      -0.43750000       0.43750000       0.06250000 </v>
   <v>      -0.31250000       0.43750000       0.06250000 </v>
   <v>      -0.18750000       0.43750000       0.06250000 </v>
   <v>      -0.06250000       0.43750000       0.06250000 </v>
   <v>      -0.43750000      -0.43750000       0.06250000 </v>
   <v>      -0.31250000      -0.43750000       0.06250000 </v>
   <v>      -0.18750000      -0.43750000       0.06250000 </v>
   <v>      -0.06250000      -0.43750000       0.06250000 </v>
   <v>      -0.31250000      -0.31250000       0.06250000 </v>
   <v>      -0.18750000      -0.31250000       0.06250000 </v>
   <v>      -0.06250000      -0.31250000       0.06250000 </v>
   <v>      -0.18750000      -0.18750000       0.06250000 </v>
   <v>      -0.06250000      -0.18750000       0.06250000 </v>
   <v>      -0.06250000      -0.06250000       0.06250000 </v>
   <v>       0.18750000       0.18750000       0.18750000 </v>
   <v>       0.31250000       0.18750000       0.18750000 </v>
   <v>      -0.18750000       0.18750000       0.18750000 </v>
   <v>       0.31250000       0.31250000       0.18750000 </v>
   <v>      -0.31250000       0.31250000       0.18750000 </v>
   <v>      -0.18750000       0.31250000       0.18750000 </v>
   <v>      -0.43750000       0.43750000       0.18750000 </v>
   <v>      -0.31250000       0.43750000       0.18750000 </v>
   <v>      -0.18750000       0.43750000       0.18750000 </v>
   <v>      -0.43750000      -0.43750000       0.18750000 </v>
   <v>      -0.31250000      -0.43750000       0.18750000 </v>
   <v>      -0.18750000      -0.43750000       0.18750000 </v>
   <v>      -0.31250000      -0.31250000       0.18750000 </v>
   <v>      -0.18750000      -0.31250000       0.18750000 </v>
   <v>      -0.18750000      -0.18750000       0.18750000 </v>
   <v>      -0.31250000       0.31250000       0.31250000 </v>
   <v>      -0.43750000       0.43750000       0.31250000 </v>
   <v>      -0.31250000       0.43750000       0.31250000 </v>
   <v>      -0.43750000      -0.43750000       0.31250000 </v>
   <v>      -0.31250000      -0.43750000       0.31250000 </v>
   <v>      -0.31250000      -0.31250000       0.31250000 </v>
   <v>      -0.43750000       0.43750000       0.43750000 </v>
   <v>      -0.43750000      -0.43750000       0.43750000 </v>
  </varray>
  <varray name="weights" >
   <v>       0.01562500 </v>
   <v>       0.03125000 </v>
   <v>       0.03125000 </v>
   <v>       0.01562500 </v>
   <v>       0.00781250 </v>
   <v>       0.01562500 </v>
   <v>       0.03125000 </v>
   <v>       0.03125000 </v>
   <v>       0.03125000 </v>
   <v>       0.01562500 </v>
   <v>       0.01562500 </v>
   <v>       0.01562500 </v>
   <v>       0.01562500 </v>
   <v>       0.03125000 </v>
   <v>       0.01562500 </v>
   <v>       0.01562500 </v>
   <v>       0.03125000 </v>
   <v>       0.01562500 </v>
   <v>       0.00781250 </v>
   <v>       0.01562500 </v>
   <v>       0.03125000 </v>
   <v>       0.03125000 </v>
   <v>       0.01562500 </v>
   <v>       0.01562500 </v>
   <v>       0.03125000 </v>
   <v>       0.03125000 </v>
   <v>       0.01562500 </v>
   <v>       0.01562500 </v>
   <v>       0.03125000 </v>
   <v>       0.01562500 </v>
   <v>       0.01562500 </v>
   <v>       0.01562500 </v>
   <v>       0.00390625 </v>
   <v>       0.01562500 </v>
   <v>       0.01562500 </v>
   <v>       0.00781250 </v>
   <v>       0.00781250 </v>
   <v>       0.01562500 </v>
   <v>       0.01562500 </v>
   <v>       0.01562500 </v>
   <v>       0.03125000 </v>
   <v>       0.01562500 </v>
   <v>       0.01562500 </v>
   <v>       0.03125000 </v>
   <v>       0.01562500 </v>
   <v>       0.01562500 </v>
   <v>       0.01562500 </v>
   <v>       0.00390625 </v>
   <v>       0.00781250 </v>
   <v>       0.01562500 </v>
   <v>       0.01562500 </v>
   <v>       0.01562500 </v>
   <v>       0.01562500 </v>
   <v>       0.00390625 </v>
   <v>       0.00781250 </v>
   <v>       0.00390625 </v>
  </varray>
 </kpoints>
 <parameters>
  <separator name="general" >
   <i type="string" name="SYSTEM">unknown system</i>
   <i type="logical" name="LCOMPAT"> F  </i>
  </separator>
  <separator name="electronic" >
   <i type="string" name="PREC">normal</i>
   <i name="ENMAX">    350.00000000</i>
   <i name="ENAUG">    322.06900000</i>
   <i name="EDIFF">      0.00040000</i>
   <i type="int" name="IALGO">    38</i>
   <i type="int" name="IWAVPR">    11</i>
   <i type="int" name="NBANDS">     8</i>
   <i name="NELECT">      8.00000000</i>
   <i type="int" name="TURBO">     0</i>
   <i type="int" name="IRESTART">     0</i>
   <i type="int" name="NREBOOT">     0</i>
   <i type="int" name="NMIN">     0</i>
   <i name="EREF">      0.00000000</i>
   <separator name="electronic smearing" >
    <i type="int" name="ISMEAR">     0</i>
    <i name="SIGMA">      0.20000000</i>
    <i name="KSPACING">      0.50000000</i>
    <i type="logical" name="KGAMMA"> T  </i>
   </separator>
   <separator name="electronic projectors" >
    <i type="logical" name="LREAL"> F  </i>
    <v name="ROPT">      0.00000000</v>
    <i type="int" name="LMAXPAW">  -100</i>
    <i type="int" name="LMAXMIX">     2</i>
    <i type="logical" name="NLSPLINE"> F  </i>
   </separator>
   <separator name="electronic startup" >
    <i type="int" name="ISTART">     0</i>
    <i type="int" name="ICHARG">     2</i>
    <i type="int" name="INIWAV">     1</i>
   </separator>
   <separator name="electronic spin" >
    <i type="int" name="ISPIN">     1</i>
    <i type="logical" name="LNONCOLLINEAR"> F  </i>
    <v name="MAGMOM">      1.00000000      1.00000000</v>
    <i name="NUPDOWN">     -1.00000000</i>
    <i type="logical" name="LSORBIT"> F  </i>
    <v name="SAXIS">      0.00000000      0.00000000      1.00000000</v>
    <i type="logical" name="LSPIRAL"> F  </i>
    <v name="QSPIRAL">      0.00000000      0.00000000      0.00000000</v>
    <i type="logical" name="LZEROZ"> F  </i>
   </separator>
   <separator name="electronic exchange-correlation" >
    <i type="logical" name="LASPH"> F  </i>
    <i type="logical" name="LMETAGGA"> F  </i>
   </separator>
   <separator name="electronic convergence" >
    <i type="int" name="NELM">    60</i>
    <i type="int" name="NELMDL">    -5</i>
    <i type="int" name="NELMIN">     2</i>
    <i name="ENINI">    350.00000000</i>
    <separator name="electronic convergence detail" >
     <i type="logical" name="LDIAG"> T  </i>
     <i type="logical" name="LSUBROT"> F  </i>
     <i name="WEIMIN">      0.00100000</i>
     <i name="EBREAK">      0.00001250</i>
     <i name="DEPER">      0.30000000</i>
     <i type="int" name="NRMM">     4</i>
     <i name="TIME">      0.40000000</i>
    </separator>
   </separator>
   <separator name="electronic mixer" >
    <i name="AMIX">      0.40000000</i>
    <i name="BMIX">      1.00000000</i>
    <i name="AMIN">      0.10000000</i>
    <i name="AMIX_MAG">      1.60000000</i>
    <i name="BMIX_MAG">      1.00000000</i>
    <separator name="electronic mixer details" >
     <i type="int" name="IMIX">     4</i>
     <i type="logical" name="MIXFIRST"> F  </i>
     <i type="int" name="MAXMIX">   -45</i>
     <i name="WC">    100.00000000</i>
     <i type="int" name="INIMIX">     1</i>
     <i type="int" name="MIXPRE">     1</i>
     <i type="int" name="MREMOVE">     5</i>
    </separator>
   </separator>
   <separator name="electronic dipolcorrection" >
    <i type="logical" name="LDIPOL"> F  </i>
    <i type="logical" name="LMONO"> F  </i>
    <i type="int" name="IDIPOL">     0</i>
    <i name="EPSILON">      1.00000000</i>
    <v name="DIPOL">   -100.00000000   -100.00000000   -100.00000000</v>
    <i name="EFIELD">      0.00000000</i>
   </separator>
  </separator>
  <separator name="grids" >
   <i type="int" name="NGX">    16</i>
   <i type="int" name="NGY">    16</i>
   <i type="int" name="NGZ">    16</i>
   <i type="int" name="NGXF">    32</i>
   <i type="int" name="NGYF">    32</i>
   <i type="int" name="NGZF">    32</i>
   <i type="logical" name="ADDGRID"> F  </i>
  </separator>
  <separator name="ionic" >
   <i type="int" name="NSW">    15</i>
   <i type="int" name="IBRION">     2</i>
   <i type="int" name="MDALGO">     0</i>
   <i type="int" name="ISIF">     2</i>
   <i name="PSTRESS">      0.00000000</i>
   <i name="EDIFFG">     -0.01000000</i>
   <i type="int" name="NFREE">     1</i>
   <i name="POTIM">      0.50000000</i>
   <i name="SMASS">     -3.00000000</i>
   <i name="SCALEE">      1.00000000</i>
  </separator>
  <separator name="ionic md" >
   <i name="TEBEG">      0.00010000</i>
   <i name="TEEND">      0.00010000</i>
   <i type="int" name="NBLOCK">     1</i>
   <i type="int" name="KBLOCK">    15</i>
   <i type="int" name="NPACO">   256</i>
   <i name="APACO">     16.00000000</i>
  </separator>
  <separator name="symmetry" >
   <i type="int" name="ISYM">     2</i>
   <i name="SYMPREC">      0.00001000</i>
  </separator>
  <separator name="dos" >
   <i type="int" name="LORBIT">     0</i>
   <v name="RWIGS">     -1.00000000</v>
   <i type="int" name="NEDOS">   301</i>
   <i name="EMIN">     10.00000000</i>
   <i name="EMAX">    -10.00000000</i>
   <i name="EFERMI">      0.00000000</i>
  </separator>
  <separator name="writing" >
   <i type="int" name="NWRITE">     2</i>
   <i type="logical" name="LWAVE"> T  </i>
   <i type="logical" name="LDOWNSAMPLE"> F  </i>
   <i type="logical" name="LCHARG"> T  </i>
   <i type="logical" name="LPARD"> F  </i>
   <i type="logical" name="LVTOT"> F  </i>
   <i type="logical" name="LVHAR"> F  </i>
   <i type="logical" name="LELF"> F  </i>
   <i type="logical" name="LOPTICS"> F  </i>
   <v name="STM">      0.00000000      0.00000000      0.00000000      0.00000000      0.00000000      0.00000000      0.00000000</v>
  </separator>
  <separator name="performance" >
   <i type="int" name="NPAR">     8</i>
   <i type="int" name="NSIM">     4</i>
   <i type="int" name="NBLK">    -1</i>
   <i type="logical" name="LPLANE"> T  </i>
   <i type="logical" name="LSCALAPACK"> T  </i>
   <i type="logical" name="LSCAAWARE"> F  </i>
   <i type="logical" name="LSCALU"> F  </i>
   <i type="logical" name="LASYNC"> F  </i>
   <i type="logical" name="LORBITALREAL"> F  </i>
  </separator>
  <separator name="miscellaneous" >
   <i type="int" name="IDIOT">     3</i>
   <i type="int" name="ISPECIAL">     0</i>
   <i type="logical" name="LMUSIC"> F  </i>
   <v name="POMASS">     28.08500000</v>
   <v name="DARWINR">      0.00000000</v>
   <v name="DARWINV">      1.00000000</v>
   <i type="logical" name="LCORR"> T  </i>
  </separator>
  <i type="logical" name="GGA_COMPAT"> T  </i>
  <i type="logical" name="LBERRY"> F  </i>
  <i type="int" name="ICORELEVEL">     0</i>
  <i type="logical" name="LDAU"> F  </i>
  <i type="int" name="I_CONSTRAINED_M">     0</i>
  <separator name="electronic exchange-correlation" >
   <i type="string" name="GGA">--</i>
   <i type="int" name="VOSKOWN">     0</i>
   <i type="logical" name="LHFCALC"> F  </i>
   <i type="string" name="PRECFOCK"></i>
   <i type="logical" name="LSYMGRAD"> F  </i>
   <i type="logical" name="LHFONE"> F  </i>
   <i type="logical" name="LRHFCALC"> F  </i>
   <i type="logical" name="LTHOMAS"> F  </i>
   <i type="logical" name="LMODELHF"> F  </i>
   <i name="ENCUT4O">     -1.00000000</i>
   <i type="int" name="EXXOEP">     0</i>
   <i type="int" name="FOURORBIT">     0</i>
   <i name="AEXX">      0.00000000</i>
   <i name="HFALPHA">      0.00000000</i>
   <i name="MCALPHA">      0.00000000</i>
   <i name="ALDAX">      1.00000000</i>
   <i name="AGGAX">      1.00000000</i>
   <i name="ALDAC">      1.00000000</i>
   <i name="AGGAC">      1.00000000</i>
   <i type="int" name="NKREDX">     1</i>
   <i type="int" name="NKREDY">     1</i>
   <i type="int" name="NKREDZ">     1</i>
   <i type="logical" name="SHIFTRED"> F  </i>
   <i type="logical" name="ODDONLY"> F  </i>
   <i type="logical" name="EVENONLY"> F  </i>
   <i type="int" name="LMAXFOCK">     0</i>
   <i type="int" name="NMAXFOCKAE">     0</i>
   <i type="logical" name="LFOCKAEDFT"> F  </i>
   <i name="HFSCREEN">      0.00000000</i>
   <i name="HFSCREENC">      0.00000000</i>
   <i type="int" name="NBANDSGWLOW">     0</i>
  </separator>
  <separator name="vdW DFT" >
   <i type="logical" name="LUSE_VDW"> F  </i>
   <i name="Zab_VDW">     -0.84910000</i>
   <i name="PARAM1">      0.12340000</i>
   <i name="PARAM2">      1.00000000</i>
   <i name="PARAM3">      0.00000000</i>
  </separator>
  <separator name="model GW" >
   <i type="int" name="MODEL_GW">     0</i>
   <i name="MODEL_EPS0">      6.97380930</i>
   <i name="MODEL_ALPHA">      1.00000000</i>
  </separator>
  <separator name="linear response parameters" >
   <i type="logical" name="LEPSILON"> F  </i>
   <i type="logical" name="LRPA"> F  </i>
   <i type="logical" name="LNABLA"> F  </i>
   <i type="logical" name="LVEL"> F  </i>
   <i type="int" name="KINTER">     0</i>
   <i name="CSHIFT">      0.10000000</i>
   <i name="OMEGAMAX">     -1.00000000</i>
   <i name="DEG_THRESHOLD">      0.00200000</i>
   <i name="RTIME">     -0.10000000</i>
   <i name="WPLASMAI">      0.00000000</i>
   <v name="DFIELD">      0.00000000      0.00000000      0.00000000</v>
   <v name="WPLASMA">      0.00000000      0.00000000      0.00000000      0.00000000      0.00000000      0.00000000      0.00000000      0.00000000      0.00000000</v>
  </separator>
  <separator name="orbital magnetization" >
   <i type="logical" name="NUCIND"> F  </i>
   <v name="MAGPOS">      0.00000000      0.00000000      0.00000000</v>
   <i type="logical" name="LNICSALL"> T  </i>
   <i type="logical" name="ORBITALMAG"> F  </i>
   <i type="logical" name="LMAGBLOCH"> F  </i>
   <i type="logical" name="LCHIMAG"> F  </i>
   <i type="logical" name="LGAUGE"> T  </i>
   <i type="int" name="MAGATOM">     0</i>
   <v name="MAGDIPOL">      0.00000000      0.00000000      0.00000000</v>
   <v name="AVECCONST">      0.00000000      0.00000000      0.00000000</v>
  </separator>
  <separator name="response functions" >
   <i type="logical" name="LADDER"> F  </i>
   <i type="logical" name="LRPAFORCE"> F  </i>
   <i type="logical" name="LFXC"> F  </i>
   <i type="logical" name="LHARTREE"> T  </i>
   <i type="int" name="IBSE">     0</i>
   <v type="int" name="KPOINT">    -1     0     0     0</v>
   <i type="logical" name="LTCTE"> F  </i>
   <i type="logical" name="LTETE"> F  </i>
   <i type="logical" name="LTRIPLET"> F  </i>
   <i type="logical" name="LFXCEPS"> F  </i>
   <i type="logical" name="LFXHEG"> F  </i>
   <i type="int" name="NATURALO">     2</i>
   <i type="logical" name="L2ORDER"> F  </i>
   <i type="logical" name="LMP2LT"> F  </i>
   <i type="logical" name="LUSEW"> F  </i>
   <i name="ENCUTGW">     -2.00000000</i>
   <i name="ENCUTGWSOFT">     -2.00000000</i>
   <i name="ENCUTLF">     -1.00000000</i>
   <i type="int" name="LMAXMP2">    -1</i>
   <i name="SCISSOR">      0.00000000</i>
   <i type="int" name="NOMEGA">     0</i>
   <i type="int" name="NOMEGAR">     0</i>
   <i type="int" name="NBANDSGW">    -1</i>
   <i type="int" name="NBANDSO">    -1</i>
   <i type="int" name="NBANDSV">    -1</i>
   <i type="int" name="NELM">     1</i>
   <i type="int" name="NELMHF">     1</i>
   <i type="int" name="DIM">     3</i>
   <i type="int" name="ANTIRES">     0</i>
   <i name="OMEGAMAX">    -30.00000000</i>
   <i name="OMEGAMIN">    -30.00000000</i>
   <i name="OMEGATL">   -200.00000000</i>
   <i type="int" name="OMEGAGRID">   140</i>
   <i name="CSHIFT">     -0.10000000</i>
   <i type="logical" name="SELFENERGY"> F  </i>
   <i type="logical" name="LSPECTRAL"> F  </i>
   <i type="logical" name="LSPECTRALGW"> F  </i>
   <i type="logical" name="LSINGLES"> F  </i>
   <i type="logical" name="LFERMIGW"> F  </i>
   <i type="logical" name="ODDONLYGW"> F  </i>
   <i type="logical" name="EVENONLYGW"> F  </i>
   <i type="int" name="NKREDLFX">     1</i>
   <i type="int" name="NKREDLFY">     1</i>
   <i type="int" name="NKREDLFZ">     1</i>
   <i type="int" name="MAXMEM">  2800</i>
   <i type="int" name="TELESCOPE">     0</i>
   <i type="int" name="TAUPAR">     1</i>
   <i type="int" name="OMEGAPAR">    -1</i>
   <i name="LAMBDA">      1.00000000</i>
  </separator>
  <separator name="External order field" >
   <i name="OFIELD_KAPPA">      0.00000000</i>
   <v name="OFIELD_K">      0.00000000      0.00000000      0.00000000</v>
   <i name="OFIELD_Q6_NEAR">      0.00000000</i>
   <i name="OFIELD_Q6_FAR">      0.00000000</i>
   <i name="OFIELD_A">      0.00000000</i>
  </separator>
 </parameters>
 <atominfo>
  <atoms>       2 </atoms>
  <types>       1 </types>
  <array name="atoms" >
   <dimension dim="1">ion</dimension>
   <field type="string">element</field>
   <field type="int">atomtype</field>
   <set>
    <rc><c>Si</c><c>   1</c></rc>
    <rc><c>Si</c><c>   1</c></rc>
   </set>
  </array>
  <array name="atomtypes" >
   <dimension dim="1">type</dimension>
   <field type="int">atomspertype</field>
   <field type="string">element</field>
   <field>mass</field>
   <field>valence</field>
   <field type="string">pseudopotential</field>
   <set>
    <rc><c>   2</c><c>Si</c><c>     28.08500000</c><c>      4.00000000</c><c> PAW_PBE Si 05Jan2001                   </c></rc>
   </set>
  </array>
 </atominfo>
 <structure name="initialpos" >
  <crystal>
   <varray name="basis" >
    <v>      -2.16758200       2.16758200       1.23690900 </v>
    <v>       2.16758200      -2.16758200       1.23690900 </v>
    <v>       2.16758200       2.16758200      -1.23690900 </v>
   </varray>
   <i name="volume">     23.24603100 </i>
   <varray name="rec_basis" >
    <v>      -0.00000000       0.23067178       0.40423346 </v>
    <v>       0.23067178      -0.00000000       0.40423346 </v>
    <v>       0.23067178       0.23067178       0.00000000 </v>
   </varray>
  </crystal>
  <varray name="positions" >
   <v>       0.00000000       0.00000000       0.00000000 </v>
   <v>       0.25000000       0.75000000       0.50000000 </v>
  </varray>
 </structure>
 <calculation>
  <scstep>
   <time name="dav">    0.46    0.46</time>
   <time name="total">    0.50    0.51</time>
   <energy>
    <i name="alphaZ">      5.79248619 </i>
    <i name="ewald">   -290.59398000 </i>
    <i name="hartreedc">     -0.96848597 </i>
    <i name="XCdc">    -16.33825051 </i>
    <i name="pawpsdc">     65.95520812 </i>
    <i name="pawaedc">    -30.76852678 </i>
    <i name="eentropy">     -0.01372889 </i>
    <i name="bandstr">     63.59827095 </i>
    <i name="atom">    206.13125414 </i>
    <i name="e_fr_energy">      2.79424725 </i>
    <i name="e_wo_entrp">      2.80797614 </i>
    <i name="e_0_energy">      2.80111169 </i>
   </energy>
  </scstep>
  <scstep>
   <time name="dav">    0.71    0.72</time>
   <time name="total">    0.72    0.72</time>
   <energy>
    <i name="e_fr_energy">     -9.19258206 </i>
    <i name="e_wo_entrp">     -9.18020005 </i>
    <i name="e_0_energy">     -9.18639105 </i>
   </energy>
  </scstep>
  <scstep>
   <time name="dav">    0.63    0.63</time>
   <time name="total">    0.63    0.64</time>
   <energy>
    <i name="e_fr_energy">     -9.29144357 </i>
    <i name="e_wo_entrp">     -9.27791544 </i>
    <i name="e_0_energy">     -9.28467951 </i>
   </energy>
  </scstep>
  <scstep>
   <time name="dav">    0.76    0.77</time>
   <time name="total">    0.76    0.77</time>
   <energy>
    <i name="e_fr_energy">     -9.29172570 </i>
    <i name="e_wo_entrp">     -9.27815773 </i>
    <i name="e_0_energy">     -9.28494172 </i>
   </energy>
  </scstep>
  <scstep>
   <time name="dav">    0.69    0.69</time>
   <time name="total">    0.71    0.71</time>
   <energy>
    <i name="e_fr_energy">     -9.29172578 </i>
    <i name="e_wo_entrp">     -9.27815779 </i>
    <i name="e_0_energy">     -9.28494178 </i>
   </energy>
  </scstep>
  <scstep>
   <time name="dav">    0.68    0.68</time>
   <time name="total">    0.73    0.74</time>
   <energy>
    <i name="e_fr_energy">     -9.25591703 </i>
    <i name="e_wo_entrp">     -9.24231535 </i>
    <i name="e_0_energy">     -9.24911619 </i>
   </energy>
  </scstep>
  <scstep>
   <time name="dav">    0.68    0.68</time>
   <time name="total">    0.73    0.73</time>
   <energy>
    <i name="e_fr_energy">     -9.23572900 </i>
    <i name="e_wo_entrp">     -9.22203108 </i>
    <i name="e_0_energy">     -9.22888004 </i>
   </energy>
  </scstep>
  <scstep>
   <time name="dav">    0.43    0.43</time>
   <time name="total">    0.46    0.47</time>
   <energy>
    <i name="alphaZ">      5.79248619 </i>
    <i name="ewald">   -290.59398000 </i>
    <i name="hartreedc">     -1.52715781 </i>
    <i name="XCdc">    -15.93954931 </i>
    <i name="pawpsdc">     79.62831362 </i>
    <i name="pawaedc">    -44.79123806 </i>
    <i name="eentropy">     -0.01367818 </i>
    <i name="bandstr">     52.07797972 </i>
    <i name="atom">    206.13125414 </i>
    <i name="e_fr_energy">     -9.23556969 </i>
    <i name="e_wo_entrp">     -9.22189151 </i>
    <i name="e_0_energy">     -9.22873060 </i>
   </energy>
  </scstep>
  <structure>
   <crystal>
    <varray name="basis" >
     <v>      -2.16758200       2.16758200       1.23690900 </v>
     <v>       2.16758200      -2.16758200       1.23690900 </v>
     <v>       2.16758200       2.16758200      -1.23690900 </v>
    </varray>
    <i name="volume">     23.24603100 </i>
    <varray name="rec_basis" >
     <v>      -0.00000000       0.23067178       0.40423346 </v>
     <v>       0.23067178      -0.00000000       0.40423346 </v>
     <v>       0.23067178       0.23067178       0.00000000 </v>
    </varray>
   </crystal>
   <varray name="positions" >
    <v>       0.00000000       0.00000000       0.00000000 </v>
    <v>       0.25000000       0.75000000       0.50000000 </v>
   </varray>
  </structure>
  <varray name="forces" >
   <v>       0.00000000      -0.00000000      -0.00000000 </v>
   <v>      -0.00000000       0.00000000       0.00000000 </v>
  </varray>
  <varray name="stress" >
   <v>     612.38984716      -0.00000000      -0.00000000 </v>
   <v>      -0.00000000     612.38984716       0.00000000 </v>
   <v>       0.00000000       0.00000000     454.81188380 </v>
  </varray>
  <energy>
   <i name="e_fr_energy">     -9.23556969 </i>
   <i name="e_wo_entrp">     -9.22873060 </i>
   <i name="e_0_energy">     -0.01367818 </i>
  </energy>
  <time name="totalsc">    6.39    6.84</time>
  <eigenvalues>
   <array>
    <dimension dim="1">band</dimension>
    <dimension dim="2">kpoint</dimension>
    <dimension dim="3">spin</dimension>
    <field>eigene</field>
    <field>occ</field>
    <set>
     <set comment="spin 1">
      <set comment="kpoint 1">
       <r>   -2.7588    1.0000 </r>
       <r>    8.2294    1.0000 </r>
       <r>   10.6443    1.0000 </r>
       <r>   13.3227    0.0171 </r>
       <r>   15.7473    0.0000 </r>
       <r>   19.1717    0.0000 </r>
       <r>   19.3204    0.0000 </r>
       <r>   22.1268    0.0000 </r>
      </set>
      <set comment="kpoint 2">
       <r>   -1.2990    1.0000 </r>
       <r>    7.8502    1.0000 </r>
       <r>   10.9695    1.0000 </r>
       <r>   13.1134    0.2620 </r>
       <r>   15.2710    0.0000 </r>
       <r>   16.1992    0.0000 </r>
       <r>   18.7528    0.0000 </r>
       <r>   19.6996    0.0000 </r>
      </set>
      <set comment="kpoint 3">
       <r>    1.1058    1.0000 </r>
       <r>    8.2836    1.0000 </r>
       <r>    8.5943    1.0000 </r>
       <r>   11.0447    1.0000 </r>
       <r>   12.9457    0.7085 </r>
       <r>   15.6711    0.0000 </r>
       <r>   19.1604    0.0000 </r>
       <r>   19.5204    0.0000 </r>
      </set>
      <set comment="kpoint 4">
       <r>    4.2948    1.0000 </r>
       <r>    4.5366    1.0000 </r>
       <r>    9.5515    1.0000 </r>
       <r>    9.6949    1.0000 </r>
       <r>   13.1364    0.2119 </r>
       <r>   14.0349    0.0000 </r>
       <r>   18.9769    0.0000 </r>
       <r>   19.1554    0.0000 </r>
      </set>
      <set comment="kpoint 5">
       <r>   -3.2482    1.0000 </r>
       <r>    9.3059    1.0000 </r>
       <r>    9.4386    1.0000 </r>
       <r>   13.4335    0.0019 </r>
       <r>   14.3132    0.0000 </r>
       <r>   20.2777    0.0000 </r>
       <r>   23.2554    0.0000 </r>
       <r>   24.0352    0.0000 </r>
      </set>
      <set comment="kpoint 6">
       <r>    0.8716    1.0000 </r>
       <r>    8.1085    1.0000 </r>
       <r>   10.0052    1.0000 </r>
       <r>   10.0154    1.0000 </r>
       <r>   14.0280    0.0000 </r>
       <r>   16.6799    0.0000 </r>
       <r>   17.6454    0.0000 </r>
       <r>   18.2226    0.0000 </r>
      </set>
      <set comment="kpoint 7">
       <r>    3.9488    1.0000 </r>
       <r>    5.7842    1.0000 </r>
       <r>    7.5532    1.0000 </r>
       <r>    9.2415    1.0000 </r>
       <r>   14.4946    0.0000 </r>
       <r>   15.8520    0.0000 </r>
       <r>   17.6351    0.0000 </r>
       <r>   20.5133    0.0000 </r>
      </set>
      <set comment="kpoint 8">
       <r>    2.2718    1.0000 </r>
       <r>    5.9236    1.0000 </r>
       <r>    7.8957    1.0000 </r>
       <r>   10.9861    1.0000 </r>
       <r>   13.4219    0.0024 </r>
       <r>   16.4755    0.0000 </r>
       <r>   18.7372    0.0000 </r>
       <r>   21.1141    0.0000 </r>
      </set>
      <set comment="kpoint 9">
       <r>   -0.3506    1.0000 </r>
       <r>    5.2039    1.0000 </r>
       <r>   11.6534    1.0000 </r>
       <r>   12.5236    0.9998 </r>
       <r>   14.5854    0.0000 </r>
       <r>   16.8858    0.0000 </r>
       <r>   17.6915    0.0000 </r>
       <r>   21.0258    0.0000 </r>
      </set>
      <set comment="kpoint 10">
       <r>   -2.0407    1.0000 </r>
       <r>    5.3990    1.0000 </r>
       <r>   11.2571    1.0000 </r>
       <r>   13.9938    0.0000 </r>
       <r>   17.0348    0.0000 </r>
       <r>   18.2744    0.0000 </r>
       <r>   18.9109    0.0000 </r>
       <r>   21.2497    0.0000 </r>
      </set>
      <set comment="kpoint 11">
       <r>   -2.7678    1.0000 </r>
       <r>    6.4998    1.0000 </r>
       <r>    9.8064    1.0000 </r>
       <r>   14.2288    0.0000 </r>
       <r>   17.4197    0.0000 </r>
       <r>   18.0114    0.0000 </r>
       <r>   21.6816    0.0000 </r>
       <r>   23.3370    0.0000 </r>
      </set>
      <set comment="kpoint 12">
       <r>   -2.5192    1.0000 </r>
       <r>    8.3462    1.0000 </r>
       <r>    8.5588    1.0000 </r>
       <r>   15.0811    0.0000 </r>
       <r>   16.4911    0.0000 </r>
       <r>   18.1176    0.0000 </r>
       <r>   18.6639    0.0000 </r>
       <r>   22.2136    0.0000 </r>
      </set>
      <set comment="kpoint 13">
       <r>    3.8846    1.0000 </r>
       <r>    3.8881    1.0000 </r>
       <r>    7.6734    1.0000 </r>
       <r>   10.8897    1.0000 </r>
       <r>   14.3431    0.0000 </r>
       <r>   15.2501    0.0000 </r>
       <r>   20.6763    0.0000 </r>
       <r>   21.0438    0.0000 </r>
      </set>
      <set comment="kpoint 14">
       <r>    1.0608    1.0000 </r>
       <r>    2.9208    1.0000 </r>
       <r>   11.9774    1.0000 </r>
       <r>   12.6409    0.9966 </r>
       <r>   14.2582    0.0000 </r>
       <r>   15.9682    0.0000 </r>
       <r>   18.1861    0.0000 </r>
       <r>   19.8828    0.0000 </r>
      </set>
      <set comment="kpoint 15">
       <r>   -0.8511    1.0000 </r>
       <r>    2.8927    1.0000 </r>
       <r>   12.2664    1.0000 </r>
       <r>   14.8384    0.0000 </r>
       <r>   15.5612    0.0000 </r>
       <r>   17.3552    0.0000 </r>
       <r>   18.6634    0.0000 </r>
       <r>   19.6120    0.0000 </r>
      </set>
      <set comment="kpoint 16">
       <r>   -1.8112    1.0000 </r>
       <r>    3.8020    1.0000 </r>
       <r>   10.6621    1.0000 </r>
       <r>   15.1116    0.0000 </r>
       <r>   15.6691    0.0000 </r>
       <r>   19.8011    0.0000 </r>
       <r>   20.8021    0.0000 </r>
       <r>   22.8907    0.0000 </r>
      </set>
      <set comment="kpoint 17">
       <r>   -1.8023    1.0000 </r>
       <r>    5.6235    1.0000 </r>
       <r>    9.1138    1.0000 </r>
       <r>   15.4159    0.0000 </r>
       <r>   16.0251    0.0000 </r>
       <r>   17.8078    0.0000 </r>
       <r>   19.6798    0.0000 </r>
       <r>   21.8326    0.0000 </r>
      </set>
      <set comment="kpoint 18">
       <r>   -0.8242    1.0000 </r>
       <r>    8.1721    1.0000 </r>
       <r>    8.4122    1.0000 </r>
       <r>   12.0999    1.0000 </r>
       <r>   15.8253    0.0000 </r>
       <r>   17.7393    0.0000 </r>
       <r>   18.3339    0.0000 </r>
       <r>   20.4461    0.0000 </r>
      </set>
      <set comment="kpoint 19">
       <r>    0.7992    1.0000 </r>
       <r>    0.7992    1.0000 </r>
       <r>   13.6345    0.0000 </r>
       <r>   13.6345    0.0000 </r>
       <r>   16.3030    0.0000 </r>
       <r>   16.3030    0.0000 </r>
       <r>   18.6753    0.0000 </r>
       <r>   18.6753    0.0000 </r>
      </set>
      <set comment="kpoint 20">
       <r>   -0.3870    1.0000 </r>
       <r>    1.4913    1.0000 </r>
       <r>   11.9372    1.0000 </r>
       <r>   13.6164    0.0000 </r>
       <r>   16.3720    0.0000 </r>
       <r>   17.9691    0.0000 </r>
       <r>   22.0226    0.0000 </r>
       <r>   22.3237    0.0000 </r>
      </set>
      <set comment="kpoint 21">
       <r>   -0.6146    1.0000 </r>
       <r>    3.1228    1.0000 </r>
       <r>   10.1974    1.0000 </r>
       <r>   13.5729    0.0001 </r>
       <r>   15.6096    0.0000 </r>
       <r>   18.3508    0.0000 </r>
       <r>   20.0170    0.0000 </r>
       <r>   21.5469    0.0000 </r>
      </set>
      <set comment="kpoint 22">
       <r>    0.1210    1.0000 </r>
       <r>    5.6541    1.0000 </r>
       <r>    9.1642    1.0000 </r>
       <r>   11.2974    1.0000 </r>
       <r>   14.0862    0.0000 </r>
       <r>   17.3751    0.0000 </r>
       <r>   19.5404    0.0000 </r>
       <r>   21.6381    0.0000 </r>
      </set>
      <set comment="kpoint 23">
       <r>    1.8063    1.0000 </r>
       <r>    7.4372    1.0000 </r>
       <r>    8.8855    1.0000 </r>
       <r>    9.0826    1.0000 </r>
       <r>   13.8022    0.0000 </r>
       <r>   15.1276    0.0000 </r>
       <r>   17.2355    0.0000 </r>
       <r>   21.7156    0.0000 </r>
      </set>
      <set comment="kpoint 24">
       <r>    1.0321    1.0000 </r>
       <r>    1.0338    1.0000 </r>
       <r>   11.6492    1.0000 </r>
       <r>   11.7449    1.0000 </r>
       <r>   15.5152    0.0000 </r>
       <r>   19.1315    0.0000 </r>
       <r>   19.9190    0.0000 </r>
       <r>   20.3177    0.0000 </r>
      </set>
      <set comment="kpoint 25">
       <r>    1.5278    1.0000 </r>
       <r>    3.3811    1.0000 </r>
       <r>   10.4088    1.0000 </r>
       <r>   10.9025    1.0000 </r>
       <r>   12.1655    1.0000 </r>
       <r>   16.8828    0.0000 </r>
       <r>   21.1729    0.0000 </r>
       <r>   23.1427    0.0000 </r>
      </set>
      <set comment="kpoint 26">
       <r>    2.9658    1.0000 </r>
       <r>    6.5505    1.0000 </r>
       <r>    6.8316    1.0000 </r>
       <r>   10.0148    1.0000 </r>
       <r>   12.8834    0.8387 </r>
       <r>   15.1399    0.0000 </r>
       <r>   17.8666    0.0000 </r>
       <r>   23.3392    0.0000 </r>
      </set>
      <set comment="kpoint 27">
       <r>    3.4893    1.0000 </r>
       <r>    5.3350    1.0000 </r>
       <r>   10.2804    1.0000 </r>
       <r>   10.3637    1.0000 </r>
       <r>   12.3127    1.0000 </r>
       <r>   13.3868    0.0051 </r>
       <r>   16.7869    0.0000 </r>
       <r>   21.3831    0.0000 </r>
      </set>
      <set comment="kpoint 28">
       <r>    4.5667    1.0000 </r>
       <r>    4.5725    1.0000 </r>
       <r>    6.5663    1.0000 </r>
       <r>   11.1236    1.0000 </r>
       <r>   11.6931    1.0000 </r>
       <r>   14.7037    0.0000 </r>
       <r>   19.9016    0.0000 </r>
       <r>   21.8934    0.0000 </r>
      </set>
      <set comment="kpoint 29">
       <r>    3.0310    1.0000 </r>
       <r>    6.6792    1.0000 </r>
       <r>    8.4247    1.0000 </r>
       <r>   10.9734    1.0000 </r>
       <r>   12.5301    0.9998 </r>
       <r>   14.2940    0.0000 </r>
       <r>   16.2016    0.0000 </r>
       <r>   20.1782    0.0000 </r>
      </set>
      <set comment="kpoint 30">
       <r>    0.4017    1.0000 </r>
       <r>    9.5895    1.0000 </r>
       <r>   10.7841    1.0000 </r>
       <r>   10.8502    1.0000 </r>
       <r>   13.1505    0.1843 </r>
       <r>   14.1666    0.0000 </r>
       <r>   17.3560    0.0000 </r>
       <r>   19.2007    0.0000 </r>
      </set>
      <set comment="kpoint 31">
       <r>    0.1662    1.0000 </r>
       <r>   10.5842    1.0000 </r>
       <r>   10.9510    1.0000 </r>
       <r>   11.0520    1.0000 </r>
       <r>   13.2258    0.0761 </r>
       <r>   15.2016    0.0000 </r>
       <r>   15.7478    0.0000 </r>
       <r>   17.1947    0.0000 </r>
      </set>
      <set comment="kpoint 32">
       <r>   -1.7753    1.0000 </r>
       <r>   10.5166    1.0000 </r>
       <r>   10.6487    1.0000 </r>
       <r>   13.4917    0.0005 </r>
       <r>   15.5811    0.0000 </r>
       <r>   15.7738    0.0000 </r>
       <r>   17.4344    0.0000 </r>
       <r>   17.7789    0.0000 </r>
      </set>
      <set comment="kpoint 33">
       <r>   -2.9989    1.0000 </r>
       <r>   10.4392    1.0000 </r>
       <r>   10.4392    1.0000 </r>
       <r>   12.6955    0.9898 </r>
       <r>   13.7583    0.0000 </r>
       <r>   20.1023    0.0000 </r>
       <r>   20.2077    0.0000 </r>
       <r>   21.7294    0.0000 </r>
      </set>
      <set comment="kpoint 34">
       <r>    2.0397    1.0000 </r>
       <r>    5.7005    1.0000 </r>
       <r>    9.3904    1.0000 </r>
       <r>    9.3908    1.0000 </r>
       <r>   15.1393    0.0000 </r>
       <r>   18.0262    0.0000 </r>
       <r>   18.4789    0.0000 </r>
       <r>   19.5891    0.0000 </r>
      </set>
      <set comment="kpoint 35">
       <r>    5.2117    1.0000 </r>
       <r>    5.4308    1.0000 </r>
       <r>    7.0232    1.0000 </r>
       <r>    7.2179    1.0000 </r>
       <r>   16.4763    0.0000 </r>
       <r>   17.9042    0.0000 </r>
       <r>   19.1389    0.0000 </r>
       <r>   19.9036    0.0000 </r>
      </set>
      <set comment="kpoint 36">
       <r>   -2.2890    1.0000 </r>
       <r>    6.8209    1.0000 </r>
       <r>    7.0837    1.0000 </r>
       <r>   15.5481    0.0000 </r>
       <r>   17.0066    0.0000 </r>
       <r>   18.4263    0.0000 </r>
       <r>   21.1894    0.0000 </r>
       <r>   22.7297    0.0000 </r>
      </set>
      <set comment="kpoint 37">
       <r>    3.6574    1.0000 </r>
       <r>    3.6574    1.0000 </r>
       <r>    9.1800    1.0000 </r>
       <r>    9.1800    1.0000 </r>
       <r>   16.6193    0.0000 </r>
       <r>   16.6193    0.0000 </r>
       <r>   19.5270    0.0000 </r>
       <r>   19.5270    0.0000 </r>
      </set>
      <set comment="kpoint 38">
       <r>   -1.3356    1.0000 </r>
       <r>    4.2571    1.0000 </r>
       <r>    7.8519    1.0000 </r>
       <r>   13.0767    0.3530 </r>
       <r>   18.0303    0.0000 </r>
       <r>   20.2908    0.0000 </r>
       <r>   21.0866    0.0000 </r>
       <r>   23.0853    0.0000 </r>
      </set>
      <set comment="kpoint 39">
       <r>   -1.0890    1.0000 </r>
       <r>    6.1602    1.0000 </r>
       <r>    6.4515    1.0000 </r>
       <r>   13.2718    0.0395 </r>
       <r>   15.3965    0.0000 </r>
       <r>   20.4347    0.0000 </r>
       <r>   20.9458    0.0000 </r>
       <r>   23.0155    0.0000 </r>
      </set>
      <set comment="kpoint 40">
       <r>    0.0839    1.0000 </r>
       <r>    1.9557    1.0000 </r>
       <r>    9.1792    1.0000 </r>
       <r>   10.9306    1.0000 </r>
       <r>   18.8062    0.0000 </r>
       <r>   19.5273    0.0000 </r>
       <r>   21.9541    0.0000 </r>
       <r>   22.9843    0.0000 </r>
      </set>
      <set comment="kpoint 41">
       <r>    0.0928    1.0000 </r>
       <r>    3.8095    1.0000 </r>
       <r>    7.4353    1.0000 </r>
       <r>   10.9519    1.0000 </r>
       <r>   14.8716    0.0000 </r>
       <r>   21.6724    0.0000 </r>
       <r>   22.1103    0.0000 </r>
       <r>   24.4277    0.0000 </r>
      </set>
      <set comment="kpoint 42">
       <r>    1.0599    1.0000 </r>
       <r>    6.4150    1.0000 </r>
       <r>    6.7050    1.0000 </r>
       <r>   10.4486    1.0000 </r>
       <r>   11.8078    1.0000 </r>
       <r>   19.4920    0.0000 </r>
       <r>   19.6362    0.0000 </r>
       <r>   24.1445    0.0000 </r>
      </set>
      <set comment="kpoint 43">
       <r>    1.7300    1.0000 </r>
       <r>    1.7338    1.0000 </r>
       <r>    8.9675    1.0000 </r>
       <r>    9.0071    1.0000 </r>
       <r>   14.6833    0.0000 </r>
       <r>   22.0236    0.0000 </r>
       <r>   22.4912    0.0000 </r>
       <r>   23.9631    0.0000 </r>
      </set>
      <set comment="kpoint 44">
       <r>    2.4570    1.0000 </r>
       <r>    4.2958    1.0000 </r>
       <r>    7.9034    1.0000 </r>
       <r>    9.6273    1.0000 </r>
       <r>   10.0750    1.0000 </r>
       <r>   19.2100    0.0000 </r>
       <r>   22.1830    0.0000 </r>
       <r>   24.7071    0.0000 </r>
      </set>
      <set comment="kpoint 45">
       <r>    4.1129    1.0000 </r>
       <r>    6.0980    1.0000 </r>
       <r>    7.6049    1.0000 </r>
       <r>    7.8407    1.0000 </r>
       <r>   11.1251    1.0000 </r>
       <r>   17.1551    0.0000 </r>
       <r>   17.2212    0.0000 </r>
       <r>   23.6866    0.0000 </r>
      </set>
      <set comment="kpoint 46">
       <r>    5.6270    1.0000 </r>
       <r>    5.6927    1.0000 </r>
       <r>    5.9745    1.0000 </r>
       <r>    9.1825    1.0000 </r>
       <r>    9.3187    1.0000 </r>
       <r>   16.9600    0.0000 </r>
       <r>   19.2180    0.0000 </r>
       <r>   21.8235    0.0000 </r>
      </set>
      <set comment="kpoint 47">
       <r>    2.5686    1.0000 </r>
       <r>    8.0010    1.0000 </r>
       <r>    9.6096    1.0000 </r>
       <r>    9.7764    1.0000 </r>
       <r>   11.2707    1.0000 </r>
       <r>   15.4568    0.0000 </r>
       <r>   15.6391    0.0000 </r>
       <r>   19.6173    0.0000 </r>
      </set>
      <set comment="kpoint 48">
       <r>   -0.0697    1.0000 </r>
       <r>   11.7389    1.0000 </r>
       <r>   11.7389    1.0000 </r>
       <r>   11.9405    1.0000 </r>
       <r>   12.6699    0.9938 </r>
       <r>   14.9092    0.0000 </r>
       <r>   14.9092    0.0000 </r>
       <r>   16.6952    0.0000 </r>
      </set>
      <set comment="kpoint 49">
       <r>   -0.3885    1.0000 </r>
       <r>    5.0080    1.0000 </r>
       <r>    5.3454    1.0000 </r>
       <r>   10.5319    1.0000 </r>
       <r>   19.0645    0.0000 </r>
       <r>   19.6832    0.0000 </r>
       <r>   23.5629    0.0000 </r>
       <r>   23.8522    0.0000 </r>
      </set>
      <set comment="kpoint 50">
       <r>    1.0212    1.0000 </r>
       <r>    2.8783    1.0000 </r>
       <r>    6.5454    1.0000 </r>
       <r>    8.3336    1.0000 </r>
       <r>   19.0827    0.0000 </r>
       <r>   19.2390    0.0000 </r>
       <r>   24.8745    0.0000 </r>
       <r>   26.2494    0.0000 </r>
      </set>
      <set comment="kpoint 51">
       <r>    1.2646    1.0000 </r>
       <r>    4.7860    1.0000 </r>
       <r>    5.1360    1.0000 </r>
       <r>    8.5624    1.0000 </r>
       <r>   14.2989    0.0000 </r>
       <r>   23.8521    0.0000 </r>
       <r>   24.3102    0.0000 </r>
       <r>   24.6861    0.0000 </r>
      </set>
      <set comment="kpoint 52">
       <r>    2.8841    1.0000 </r>
       <r>    2.8913    1.0000 </r>
       <r>    6.5478    1.0000 </r>
       <r>    6.5664    1.0000 </r>
       <r>   14.0994    0.0000 </r>
       <r>   23.9411    0.0000 </r>
       <r>   24.6328    0.0000 </r>
       <r>   26.6410    0.0000 </r>
      </set>
      <set comment="kpoint 53">
       <r>    3.8378    1.0000 </r>
       <r>    5.5062    1.0000 </r>
       <r>    5.8303    1.0000 </r>
       <r>    7.4707    1.0000 </r>
       <r>    9.6054    1.0000 </r>
       <r>   21.7644    0.0000 </r>
       <r>   21.9503    0.0000 </r>
       <r>   25.0688    0.0000 </r>
      </set>
      <set comment="kpoint 54">
       <r>    5.6269    1.0000 </r>
       <r>    7.0957    1.0000 </r>
       <r>    7.2349    1.0000 </r>
       <r>    7.4134    1.0000 </r>
       <r>    7.4134    1.0000 </r>
       <r>   18.9908    0.0000 </r>
       <r>   18.9908    0.0000 </r>
       <r>   21.3304    0.0000 </r>
      </set>
      <set comment="kpoint 55">
       <r>    2.4144    1.0000 </r>
       <r>    4.0767    1.0000 </r>
       <r>    4.4611    1.0000 </r>
       <r>    6.1010    1.0000 </r>
       <r>   18.8646    0.0000 </r>
       <r>   18.9023    0.0000 </r>
       <r>   28.1546    0.0000 </r>
       <r>   28.9507    0.0000 </r>
      </set>
      <set comment="kpoint 56">
       <r>    4.3095    1.0000 </r>
       <r>    4.3313    1.0000 </r>
       <r>    4.6936    1.0000 </r>
       <r>    4.6936    1.0000 </r>
       <r>   13.8975    0.0000 </r>
       <r>   24.0191    0.0000 </r>
       <r>   26.7999    0.0000 </r>
       <r>   26.7999    0.0000 </r>
      </set>
     </set>
    </set>
   </array>
  </eigenvalues>
  <separator name="orbital magnetization" >
   <v name="MAGDIPOLOUT">      0.00000000      0.00000000      0.00000000</v>
  </separator>
  <dos>
   <i name="efermi">     13.02331262 </i>
   <total>
    <array>
     <dimension dim="1">gridpoints</dimension>
     <dimension dim="2">spin</dimension>
     <field>energy</field>
     <field>total</field>
     <field>integrated</field>
     <set>
      <set comment="spin 1">
       <r>    -5.2482     0.0000     0.0000 </r>
       <r>    -5.1276     0.0000     0.0000 </r>
       <r>    -5.0069     0.0000     0.0000 </r>
       <r>    -4.8862     0.0000     0.0000 </r>
       <r>    -4.7656     0.0000     0.0000 </r>
       <r>    -4.6449     0.0000     0.0000 </r>
       <r>    -4.5243     0.0000     0.0000 </r>
       <r>    -4.4036     0.0000     0.0000 </r>
       <r>    -4.2829     0.0000     0.0000 </r>
       <r>    -4.1623     0.0000     0.0000 </r>
       <r>    -4.0416     0.0000     0.0000 </r>
       <r>    -3.9209     0.0000     0.0000 </r>
       <r>    -3.8003     0.0000     0.0000 </r>
       <r>    -3.6796     0.0001     0.0000 </r>
       <r>    -3.5590     0.0017     0.0002 </r>
       <r>    -3.4383     0.0098     0.0014 </r>
       <r>    -3.3176     0.0295     0.0050 </r>
       <r>    -3.1970     0.0477     0.0107 </r>
       <r>    -3.0763     0.0520     0.0170 </r>
       <r>    -2.9556     0.0716     0.0256 </r>
       <r>    -2.8350     0.1355     0.0420 </r>
       <r>    -2.7143     0.1958     0.0656 </r>
       <r>    -2.5936     0.1881     0.0883 </r>
       <r>    -2.4730     0.1453     0.1059 </r>
       <r>    -2.3523     0.1082     0.1189 </r>
       <r>    -2.2317     0.0895     0.1297 </r>
       <r>    -2.1110     0.1062     0.1425 </r>
       <r>    -1.9903     0.1736     0.1635 </r>
       <r>    -1.8697     0.2929     0.1988 </r>
       <r>    -1.7490     0.3649     0.2428 </r>
       <r>    -1.6283     0.2720     0.2757 </r>
       <r>    -1.5077     0.1553     0.2944 </r>
       <r>    -1.3870     0.1892     0.3172 </r>
       <r>    -1.2664     0.2786     0.3509 </r>
       <r>    -1.1457     0.2665     0.3830 </r>
       <r>    -1.0250     0.2052     0.4078 </r>
       <r>    -0.9044     0.2016     0.4321 </r>
       <r>    -0.7837     0.2437     0.4615 </r>
       <r>    -0.6630     0.2744     0.4946 </r>
       <r>    -0.5424     0.2993     0.5307 </r>
       <r>    -0.4217     0.3406     0.5718 </r>
       <r>    -0.3010     0.3414     0.6130 </r>
       <r>    -0.1804     0.2523     0.6435 </r>
       <r>    -0.0597     0.2406     0.6725 </r>
       <r>     0.0609     0.4133     0.7224 </r>
       <r>     0.1816     0.5270     0.7860 </r>
       <r>     0.3023     0.3942     0.8335 </r>
       <r>     0.4229     0.2063     0.8584 </r>
       <r>     0.5436     0.1065     0.8713 </r>
       <r>     0.6643     0.0915     0.8823 </r>
       <r>     0.7849     0.1866     0.9048 </r>
       <r>     0.9056     0.4045     0.9536 </r>
       <r>     1.0262     0.6740     1.0350 </r>
       <r>     1.1469     0.7447     1.1248 </r>
       <r>     1.2676     0.5258     1.1882 </r>
       <r>     1.3882     0.3277     1.2278 </r>
       <r>     1.5089     0.3206     1.2665 </r>
       <r>     1.6296     0.3675     1.3108 </r>
       <r>     1.7502     0.3746     1.3560 </r>
       <r>     1.8709     0.3454     1.3977 </r>
       <r>     1.9916     0.2918     1.4329 </r>
       <r>     2.1122     0.2509     1.4632 </r>
       <r>     2.2329     0.2642     1.4951 </r>
       <r>     2.3535     0.3301     1.5349 </r>
       <r>     2.4742     0.3678     1.5793 </r>
       <r>     2.5949     0.3225     1.6182 </r>
       <r>     2.7155     0.3102     1.6556 </r>
       <r>     2.8362     0.5300     1.7196 </r>
       <r>     2.9569     0.8353     1.8204 </r>
       <r>     3.0775     0.8382     1.9215 </r>
       <r>     3.1982     0.5676     1.9900 </r>
       <r>     3.3188     0.3559     2.0329 </r>
       <r>     3.4395     0.3053     2.0698 </r>
       <r>     3.5602     0.3033     2.1064 </r>
       <r>     3.6808     0.3727     2.1513 </r>
       <r>     3.8015     0.5731     2.2205 </r>
       <r>     3.9222     0.7107     2.3062 </r>
       <r>     4.0428     0.6236     2.3815 </r>
       <r>     4.1635     0.5060     2.4425 </r>
       <r>     4.2842     0.5126     2.5044 </r>
       <r>     4.4048     0.5164     2.5667 </r>
       <r>     4.5255     0.4647     2.6228 </r>
       <r>     4.6461     0.3978     2.6708 </r>
       <r>     4.7668     0.2939     2.7062 </r>
       <r>     4.8875     0.1981     2.7301 </r>
       <r>     5.0081     0.1974     2.7540 </r>
       <r>     5.1288     0.3299     2.7938 </r>
       <r>     5.2495     0.4971     2.8537 </r>
       <r>     5.3701     0.5820     2.9240 </r>
       <r>     5.4908     0.6504     3.0025 </r>
       <r>     5.6114     0.8046     3.0995 </r>
       <r>     5.7321     0.9199     3.2105 </r>
       <r>     5.8528     0.8347     3.3113 </r>
       <r>     5.9734     0.6487     3.3895 </r>
       <r>     6.0941     0.4825     3.4477 </r>
       <r>     6.2148     0.3550     3.4906 </r>
       <r>     6.3354     0.3536     3.5332 </r>
       <r>     6.4561     0.5934     3.6048 </r>
       <r>     6.5768     0.8818     3.7112 </r>
       <r>     6.6974     0.8905     3.8187 </r>
       <r>     6.8181     0.6665     3.8991 </r>
       <r>     6.9387     0.4418     3.9524 </r>
       <r>     7.0594     0.3158     3.9905 </r>
       <r>     7.1801     0.2852     4.0249 </r>
       <r>     7.3007     0.3474     4.0669 </r>
       <r>     7.4214     0.5173     4.1293 </r>
       <r>     7.5421     0.6597     4.2089 </r>
       <r>     7.6627     0.6635     4.2889 </r>
       <r>     7.7834     0.7084     4.3744 </r>
       <r>     7.9040     0.8336     4.4750 </r>
       <r>     8.0247     0.7850     4.5697 </r>
       <r>     8.1454     0.6510     4.6483 </r>
       <r>     8.2660     0.6835     4.7307 </r>
       <r>     8.3867     0.7797     4.8248 </r>
       <r>     8.5074     0.7536     4.9158 </r>
       <r>     8.6280     0.5891     4.9868 </r>
       <r>     8.7487     0.3793     5.0326 </r>
       <r>     8.8694     0.3173     5.0709 </r>
       <r>     8.9900     0.5124     5.1327 </r>
       <r>     9.1107     0.8493     5.2352 </r>
       <r>     9.2313     1.0487     5.3618 </r>
       <r>     9.3520     0.9505     5.4764 </r>
       <r>     9.4727     0.7843     5.5711 </r>
       <r>     9.5933     0.7670     5.6636 </r>
       <r>     9.7140     0.7482     5.7539 </r>
       <r>     9.8347     0.6221     5.8290 </r>
       <r>     9.9553     0.5880     5.8999 </r>
       <r>    10.0760     0.6763     5.9815 </r>
       <r>    10.1966     0.6905     6.0648 </r>
       <r>    10.3173     0.6642     6.1450 </r>
       <r>    10.4380     0.7072     6.2303 </r>
       <r>    10.5586     0.7444     6.3201 </r>
       <r>    10.6793     0.7536     6.4111 </r>
       <r>    10.8000     0.9218     6.5223 </r>
       <r>    10.9206     1.3394     6.6839 </r>
       <r>    11.0413     1.5569     6.8718 </r>
       <r>    11.1620     1.2455     7.0221 </r>
       <r>    11.2826     0.7862     7.1170 </r>
       <r>    11.4033     0.4671     7.1733 </r>
       <r>    11.5239     0.3373     7.2140 </r>
       <r>    11.6446     0.4443     7.2676 </r>
       <r>    11.7653     0.5845     7.3382 </r>
       <r>    11.8859     0.5834     7.4086 </r>
       <r>    12.0066     0.5450     7.4743 </r>
       <r>    12.1273     0.5261     7.5378 </r>
       <r>    12.2479     0.4876     7.5966 </r>
       <r>    12.3686     0.4473     7.6506 </r>
       <r>    12.4892     0.4936     7.7102 </r>
       <r>    12.6099     0.5656     7.7784 </r>
       <r>    12.7306     0.5193     7.8411 </r>
       <r>    12.8512     0.4753     7.8984 </r>
       <r>    12.9719     0.5617     7.9662 </r>
       <r>    13.0926     0.6892     8.0494 </r>
       <r>    13.2132     0.7549     8.1404 </r>
       <r>    13.3339     0.7554     8.2316 </r>
       <r>    13.4546     0.7507     8.3222 </r>
       <r>    13.5752     0.7048     8.4072 </r>
       <r>    13.6959     0.5628     8.4751 </r>
       <r>    13.8165     0.4182     8.5256 </r>
       <r>    13.9372     0.4488     8.5797 </r>
       <r>    14.0579     0.6719     8.6608 </r>
       <r>    14.1785     0.8973     8.7691 </r>
       <r>    14.2992     0.9589     8.8848 </r>
       <r>    14.4199     0.8264     8.9845 </r>
       <r>    14.5405     0.6530     9.0633 </r>
       <r>    14.6612     0.5678     9.1318 </r>
       <r>    14.7818     0.5322     9.1960 </r>
       <r>    14.9025     0.5305     9.2601 </r>
       <r>    15.0232     0.6143     9.3342 </r>
       <r>    15.1438     0.8038     9.4312 </r>
       <r>    15.2645     0.9196     9.5421 </r>
       <r>    15.3852     0.9135     9.6524 </r>
       <r>    15.5058     0.9847     9.7712 </r>
       <r>    15.6265     1.1367     9.9083 </r>
       <r>    15.7472     1.1626    10.0486 </r>
       <r>    15.8678     1.0019    10.1695 </r>
       <r>    15.9885     0.8039    10.2665 </r>
       <r>    16.1091     0.6883    10.3496 </r>
       <r>    16.2298     0.6575    10.4289 </r>
       <r>    16.3505     0.6487    10.5072 </r>
       <r>    16.4711     0.6356    10.5839 </r>
       <r>    16.5918     0.5913    10.6552 </r>
       <r>    16.7125     0.5454    10.7210 </r>
       <r>    16.8331     0.5977    10.7931 </r>
       <r>    16.9538     0.6691    10.8739 </r>
       <r>    17.0744     0.6469    10.9520 </r>
       <r>    17.1951     0.6469    11.0300 </r>
       <r>    17.3158     0.7295    11.1180 </r>
       <r>    17.4364     0.7558    11.2092 </r>
       <r>    17.5571     0.7195    11.2960 </r>
       <r>    17.6778     0.8028    11.3929 </r>
       <r>    17.7984     0.9456    11.5070 </r>
       <r>    17.9191     0.9603    11.6229 </r>
       <r>    18.0398     0.8754    11.7285 </r>
       <r>    18.1604     0.8011    11.8252 </r>
       <r>    18.2811     0.7561    11.9164 </r>
       <r>    18.4017     0.6667    11.9968 </r>
       <r>    18.5224     0.5636    12.0648 </r>
       <r>    18.6431     0.6248    12.1402 </r>
       <r>    18.7637     0.7934    12.2360 </r>
       <r>    18.8844     0.8347    12.3367 </r>
       <r>    19.0051     0.8674    12.4413 </r>
       <r>    19.1257     1.0813    12.5718 </r>
       <r>    19.2464     1.1954    12.7160 </r>
       <r>    19.3670     1.0316    12.8405 </r>
       <r>    19.4877     1.0254    12.9643 </r>
       <r>    19.6084     1.2524    13.1154 </r>
       <r>    19.7290     1.2648    13.2680 </r>
       <r>    19.8497     1.0526    13.3950 </r>
       <r>    19.9704     0.8542    13.4981 </r>
       <r>    20.0910     0.6852    13.5808 </r>
       <r>    20.2117     0.5831    13.6511 </r>
       <r>    20.3324     0.5654    13.7193 </r>
       <r>    20.4530     0.5494    13.7856 </r>
       <r>    20.5737     0.4698    13.8423 </r>
       <r>    20.6943     0.3521    13.8848 </r>
       <r>    20.8150     0.3136    13.9226 </r>
       <r>    20.9357     0.4429    13.9761 </r>
       <r>    21.0563     0.6895    14.0593 </r>
       <r>    21.1770     0.8026    14.1561 </r>
       <r>    21.2977     0.6531    14.2349 </r>
       <r>    21.4183     0.4815    14.2930 </r>
       <r>    21.5390     0.5511    14.3595 </r>
       <r>    21.6596     0.8093    14.4572 </r>
       <r>    21.7803     0.9824    14.5757 </r>
       <r>    21.9010     0.9726    14.6931 </r>
       <r>    22.0216     0.9139    14.8034 </r>
       <r>    22.1423     0.8512    14.9061 </r>
       <r>    22.2630     0.6820    14.9884 </r>
       <r>    22.3836     0.4251    15.0397 </r>
       <r>    22.5043     0.2319    15.0676 </r>
       <r>    22.6250     0.1416    15.0847 </r>
       <r>    22.7456     0.1329    15.1008 </r>
       <r>    22.8663     0.2152    15.1267 </r>
       <r>    22.9869     0.3637    15.1706 </r>
       <r>    23.1076     0.4847    15.2291 </r>
       <r>    23.2283     0.5105    15.2907 </r>
       <r>    23.3489     0.4557    15.3457 </r>
       <r>    23.4696     0.3355    15.3862 </r>
       <r>    23.5903     0.2252    15.4133 </r>
       <r>    23.7109     0.2181    15.4397 </r>
       <r>    23.8316     0.2969    15.4755 </r>
       <r>    23.9522     0.3773    15.5210 </r>
       <r>    24.0729     0.3680    15.5654 </r>
       <r>    24.1936     0.2986    15.6014 </r>
       <r>    24.3142     0.2761    15.6348 </r>
       <r>    24.4349     0.3084    15.6720 </r>
       <r>    24.5556     0.3507    15.7143 </r>
       <r>    24.6762     0.4046    15.7631 </r>
       <r>    24.7969     0.3949    15.8108 </r>
       <r>    24.9175     0.2868    15.8454 </r>
       <r>    25.0382     0.1842    15.8676 </r>
       <r>    25.1589     0.1167    15.8817 </r>
       <r>    25.2795     0.0559    15.8884 </r>
       <r>    25.4002     0.0157    15.8903 </r>
       <r>    25.5209     0.0023    15.8906 </r>
       <r>    25.6415     0.0002    15.8906 </r>
       <r>    25.7622     0.0001    15.8906 </r>
       <r>    25.8829     0.0012    15.8908 </r>
       <r>    26.0035     0.0094    15.8919 </r>
       <r>    26.1242     0.0381    15.8965 </r>
       <r>    26.2448     0.0781    15.9059 </r>
       <r>    26.3655     0.0857    15.9163 </r>
       <r>    26.4862     0.0715    15.9249 </r>
       <r>    26.6068     0.0895    15.9357 </r>
       <r>    26.7275     0.1138    15.9494 </r>
       <r>    26.8482     0.0942    15.9608 </r>
       <r>    26.9688     0.0483    15.9666 </r>
       <r>    27.0895     0.0149    15.9684 </r>
       <r>    27.2101     0.0026    15.9687 </r>
       <r>    27.3308     0.0002    15.9687 </r>
       <r>    27.4515     0.0000    15.9687 </r>
       <r>    27.5721     0.0000    15.9688 </r>
       <r>    27.6928     0.0001    15.9688 </r>
       <r>    27.8135     0.0010    15.9689 </r>
       <r>    27.9341     0.0067    15.9697 </r>
       <r>    28.0548     0.0234    15.9725 </r>
       <r>    28.1755     0.0412    15.9775 </r>
       <r>    28.2961     0.0366    15.9819 </r>
       <r>    28.4168     0.0164    15.9839 </r>
       <r>    28.5374     0.0039    15.9843 </r>
       <r>    28.6581     0.0027    15.9847 </r>
       <r>    28.7788     0.0120    15.9861 </r>
       <r>    28.8994     0.0319    15.9900 </r>
       <r>    29.0201     0.0427    15.9951 </r>
       <r>    29.1408     0.0288    15.9986 </r>
       <r>    29.2614     0.0098    15.9998 </r>
       <r>    29.3821     0.0017    16.0000 </r>
       <r>    29.5027     0.0001    16.0000 </r>
       <r>    29.6234     0.0000    16.0000 </r>
       <r>    29.7441     0.0000    16.0000 </r>
       <r>    29.8647     0.0000    16.0000 </r>
       <r>    29.9854     0.0000    16.0000 </r>
       <r>    30.1061     0.0000    16.0000 </r>
       <r>    30.2267     0.0000    16.0000 </r>
       <r>    30.3474     0.0000    16.0000 </r>
       <r>    30.4681     0.0000    16.0000 </r>
       <r>    30.5887     0.0000    16.0000 </r>
       <r>    30.7094     0.0000    16.0000 </r>
       <r>    30.8300     0.0000    16.0000 </r>
       <r>    30.9507     0.0000    16.0000 </r>
      </set>
     </set>
    </array>
   </total>
  </dos>
 </calculation>
 <structure name="finalpos" >
  <crystal>
   <varray name="basis" >
    <v>      -2.16758200       2.16758200       1.23690900 </v>
    <v>       2.16758200      -2.16758200       1.23690900 </v>
    <v>       2.16758200       2.16758200      -1.23690900 </v>
   </varray>
   <i name="volume">     23.24603100 </i>
   <varray name="rec_basis" >
    <v>      -0.00000000       0.23067178       0.40423346 </v>
    <v>       0.23067178      -0.00000000       0.40423346 </v>
    <v>       0.23067178       0.23067178       0.00000000 </v>
   </varray>
  </crystal>
  <varray name="positions" >
   <v>       0.00000000       0.00000000       0.00000000 </v>
   <v>       0.25000000       0.75000000       0.50000000 </v>
  </varray>
 </structure>
</modeling>
