unknown system                          
   1.00000000000000     
     0.000000    2.715000    2.715000
     2.715000    0.000000    2.715000
     2.715000    2.715000    0.000000
   Si
     2
Direct
  0.500000  0.500000  0.500000
  0.750000  0.750000  0.750000
 
   32   32   32
 0.88280     0.90323     0.96636      1.0774      1.2437      1.4743      1.7784      2.1643      2.6373      3.1958    
  3.8267      4.5016      5.1763      5.7943      6.2943      6.6205      6.7339      6.6205      6.2942      5.7943    
  5.1764      4.5017      3.8268      3.1959      2.6373      2.1643      1.7784      1.4743      1.2437      1.0774    
 0.96637     0.90323     0.90323     0.93820      1.0113      1.1279      1.2950      1.5196      1.8082      2.1652    
  2.5910      3.0792      3.6131      4.1640      4.6915      5.1478      5.4852      5.6648      5.6648      5.4852    
  5.1477      4.6914      4.1640      3.6132      3.0792      2.5910      2.1652      1.8082      1.5196      1.2950    
  1.1279      1.0113     0.93821     0.90323     0.96636      1.0113      1.0903      1.2087      1.3722      1.5860    
  1.8538      2.1766      2.5514      2.9686      3.4099      3.8479      4.2475      4.5699      4.7800      4.8530    
  4.7800      4.5699      4.2475      3.8480      3.4099      2.9685      2.5514      2.1766      1.8538      1.5860    
  1.3722      1.2087      1.0903      1.0113     0.96636     0.95184      1.0774      1.1279      1.2087      1.3243    
  1.4792      1.6768      1.9184      2.2029      2.5248      2.8727      3.2284      3.5670      3.8589      4.0743    
  4.1888      4.1888      4.0742      3.8589      3.5671      3.2285      2.8727      2.5247      2.2029      1.9184    
  1.6768      1.4793      1.3244      1.2087      1.1279      1.0774      1.0532      1.0532      1.2437      1.2950    
  1.3722      1.4792      1.6193      1.7944      2.0047      2.2473      2.5154      2.7970      3.0749      3.3273    
  3.5303      3.6625      3.7084      3.6625      3.5304      3.3272      3.0749      2.7970      2.5154      2.2473    
  2.0047      1.7944      1.6193      1.4793      1.3722      1.2950      1.2437      1.2147      1.2054      1.2148    
  1.4743      1.5196      1.5860      1.6768      1.7944      1.9404      2.1138      2.3111      2.5248      2.7430    
  2.9503      3.1286      3.2599      3.3297      3.3297      3.2599      3.1286      2.9503      2.7430      2.5247    
  2.3111      2.1139      1.9404      1.7945      1.6768      1.5860      1.5196      1.4743      1.4466      1.4336    
  1.4336      1.4466      1.7784      1.8082      1.8538      1.9184      2.0047      2.1138      2.2447      2.3931    
  2.5514      2.7089      2.8524      2.9679      3.0431      3.0692      3.0431      2.9679      2.8524      2.7089    
  2.5515      2.3931      2.2447      2.1139      2.0047      1.9184      1.8538      1.8082      1.7784      1.7606    
  1.7516      1.7488      1.7515      1.7606      2.1643      2.1652      2.1766      2.2029      2.2473      2.3111    
  2.3931      2.4888      2.5910      2.6906      2.7774      2.8418      2.8762      2.8762      2.8418      2.7775    
  2.6906      2.5911      2.4888      2.3931      2.3111      2.2473      2.2029      2.1766      2.1652      2.1643    
  2.1692      2.1755      2.1796      2.1796      2.1755      2.1692      2.6373      2.5910      2.5514      2.5248    
  2.5154      2.5248      2.5514      2.5910      2.6373      2.6833      2.7221      2.7479      2.7570      2.7479    
  2.7221      2.6833      2.6373      2.5910      2.5514      2.5247      2.5153      2.5247      2.5514      2.5910    
  2.6373      2.6833      2.7221      2.7479      2.7570      2.7479      2.7221      2.6833      3.1958      3.0792    
  2.9686      2.8727      2.7970      2.7430      2.7089      2.6906      2.6833      2.6822      2.6837      2.6851    
  2.6851      2.6838      2.6823      2.6833      2.6906      2.7088      2.7429      2.7969      2.8727      2.9686    
  3.0792      3.1958      3.3076      3.4035      3.4735      3.5105      3.5105      3.4735      3.4035      3.3076    
  3.8267      3.6131      3.4099      3.2284      3.0749      2.9503      2.8524      2.7774      2.7221      2.6837    
  2.6611      2.6536      2.6611      2.6837      2.7220      2.7774      2.8523      2.9503      3.0749      3.2284    
  3.4099      3.6132      3.8267      4.0349      4.2201      4.3660      4.4593      4.4914      4.4593      4.3660    
  4.2201      4.0348      4.5016      4.1640      3.8479      3.5670      3.3273      3.1286      2.9679      2.8418    
  2.7479      2.6851      2.6536      2.6536      2.6852      2.7479      2.8418      2.9678      3.1285      3.3272    
  3.5671      3.8480      4.1640      4.5016      4.8397      5.1528      5.4150      5.6036      5.7023      5.7023    
  5.6037      5.4150      5.1527      4.8396      5.1763      4.6915      4.2475      3.8589      3.5303      3.2599    
  3.0431      2.8762      2.7570      2.6851      2.6611      2.6852      2.7570      2.8761      3.0430      3.2598    
  3.5303      3.8589      4.2475      4.6915      5.1764      5.6764      6.1575      6.5821      6.9145      7.1262    
  7.1988      7.1262      6.9145      6.5821      6.1576      5.6764      5.7943      5.1478      4.5699      4.0743    
  3.6625      3.3297      3.0692      2.8762      2.7479      2.6838      2.6837      2.7479      2.8761      3.0691    
  3.3296      3.6625      4.0743      4.5699      5.1478      5.7944      6.4813      7.1664      7.7995      8.3293    
  8.7107      8.9102      8.9103      8.7108      8.3294      7.7996      7.1664      6.4812      6.2943      5.4852    
  4.7800      4.1888      3.7084      3.3297      3.0431      2.8418      2.7221      2.6823      2.7220      2.8418    
  3.0430      3.3296      3.7084      4.1888      4.7801      5.4852      6.2943      7.1792      8.0929      8.9739    
  9.7541      10.368      10.760      10.895      10.760      10.368      9.7541      8.9739      8.0930      7.1792    
  6.6205      5.6648      4.8530      4.1888      3.6625      3.2599      2.9679      2.7775      2.6833      2.6833    
  2.7774      2.9678      3.2598      3.6625      4.1888      4.8531      5.6648      6.6206      7.6962      8.8441    
  9.9959      11.069      11.976      12.636      12.983      12.983      12.636      11.976      11.069      9.9959    
  8.8442      7.6962      6.7339      5.6648      4.7800      4.0742      3.5304      3.1286      2.8524      2.6906    
  2.6373      2.6906      2.8523      3.1285      3.5303      4.0743      4.7801      5.6648      6.7339      7.9716    
  9.3353      10.756      12.142      13.389      14.388      15.035      15.260      15.035      14.387      13.389    
  12.142      10.756      9.3353      7.9716      6.6205      5.4852      4.5699      3.8589      3.3272      2.9503    
  2.7089      2.5911      2.5910      2.7088      2.9503      3.3272      3.8589      4.5699      5.4852      6.6206    
  7.9716      9.5061      11.162      12.848      14.450      15.835      16.852      17.390      17.390      16.852    
  15.835      14.450      12.847      11.162      9.5062      7.9716      6.2942      5.1477      4.2475      3.5671    
  3.0749      2.7430      2.5515      2.4888      2.5514      2.7429      3.0749      3.5671      4.2475      5.1478    
  6.2943      7.6962      9.3353      11.162      13.094      15.022      16.792      18.214      19.135      19.453    
  19.135      18.214      16.792      15.022      13.094      11.161      9.3352      7.6962      5.7943      4.6914    
  3.8480      3.2285      2.7970      2.5247      2.3931      2.3931      2.5247      2.7969      3.2284      3.8480    
  4.6915      5.7944      7.1792      8.8441      10.756      12.848      15.022      17.126      18.945      20.282    
  20.992      20.992      20.282      18.945      17.126      15.022      12.847      10.755      8.8441      7.1793    
  5.1764      4.1640      3.4099      2.8727      2.5154      2.3111      2.2447      2.3111      2.5153      2.8727    
  3.4099      4.1640      5.1764      6.4813      8.0929      9.9959      12.142      14.450      16.792      18.945    
  20.683      21.816      22.210      21.816      20.683      18.945      16.792      14.450      12.142      9.9958    
  8.0929      6.4813      4.5017      3.6132      2.9685      2.5247      2.2473      2.1139      2.1139      2.2473    
  2.5247      2.9686      3.6132      4.5016      5.6764      7.1664      8.9739      11.069      13.389      15.835    
  18.214      20.282      21.816      22.635      22.635      21.816      20.282      18.214      15.835      13.389    
  11.069      8.9739      7.1664      5.6765      3.8268      3.0792      2.5514      2.2029      2.0047      1.9404    
  2.0047      2.2029      2.5514      3.0792      3.8267      4.8397      6.1575      7.7995      9.7541      11.976    
  14.388      16.852      19.135      20.992      22.210      22.635      22.210      20.992      19.135      16.852    
  14.387      11.976      9.7540      7.7996      6.1576      4.8397      3.1959      2.5910      2.1766      1.9184    
  1.7944      1.7945      1.9184      2.1766      2.5910      3.1958      4.0349      5.1528      6.5821      8.3293    
  10.368      12.636      15.035      17.390      19.453      20.992      21.816      21.816      20.992      19.453    
  17.390      15.035      12.636      10.368      8.3294      6.5822      5.1528      4.0349      2.6373      2.1652    
  1.8538      1.6768      1.6193      1.6768      1.8538      2.1652      2.6373      3.3076      4.2201      5.4150    
  6.9145      8.7107      10.760      12.983      15.260      17.390      19.135      20.282      20.683      20.282    
  19.135      17.390      15.259      12.983      10.760      8.7108      6.9145      5.4151      4.2202      3.3077    
  2.1643      1.8082      1.5860      1.4793      1.4793      1.5860      1.8082      2.1643      2.6833      3.4035    
  4.3660      5.6036      7.1262      8.9102      10.895      12.983      15.035      16.852      18.214      18.945    
  18.945      18.214      16.852      15.035      12.983      10.895      8.9103      7.1262      5.6037      4.3661    
  3.4035      2.6833      1.7784      1.5196      1.3722      1.3244      1.3722      1.5196      1.7784      2.1692    
  2.7221      3.4735      4.4593      5.7023      7.1988      8.9103      10.760      12.636      14.387      15.835    
  16.792      17.126      16.792      15.835      14.387      12.636      10.760      8.9103      7.1989      5.7024    
  4.4594      3.4736      2.7221      2.1692      1.4743      1.2950      1.2087      1.2087      1.2950      1.4743    
  1.7606      2.1755      2.7479      3.5105      4.4914      5.7023      7.1262      8.7108      10.368      11.976    
  13.389      14.450      15.022      15.022      14.450      13.389      11.976      10.368      8.7108      7.1262    
  5.7024      4.4915      3.5105      2.7479      2.1755      1.7606      1.2437      1.1279      1.0903      1.1279    
  1.2437      1.4466      1.7516      2.1796      2.7570      3.5105      4.4593      5.6037      6.9145      8.3294    
  9.7541      11.069      12.142      12.847      13.094      12.847      12.142      11.069      9.7540      8.3294    
  6.9145      5.6037      4.4594      3.5105      2.7570      2.1796      1.7515      1.4466      1.0774      1.0113    
  1.0113      1.0774      1.2147      1.4336      1.7488      2.1796      2.7479      3.4735      4.3660      5.4150    
  6.5821      7.7996      8.9739      9.9959      10.756      11.162      11.161      10.755      9.9958      8.9739    
  7.7996      6.5822      5.4151      4.3661      3.4736      2.7479      2.1796      1.7488      1.4336      1.2147    
 0.96637     0.93821     0.96636      1.0532      1.2054      1.4336      1.7515      2.1755      2.7221      3.4035    
  4.2201      5.1527      6.1576      7.1664      8.0930      8.8442      9.3353      9.5062      9.3352      8.8441    
  8.0929      7.1664      6.1576      5.1528      4.2202      3.4035      2.7221      2.1755      1.7515      1.4336    
  1.2054      1.0532     0.90323     0.90323     0.95184      1.0532      1.2148      1.4466      1.7606      2.1692    
  2.6833      3.3076      4.0348      4.8396      5.6764      6.4812      7.1792      7.6962      7.9716      7.9716    
  7.6962      7.1793      6.4813      5.6765      4.8397      4.0349      3.3077      2.6833      2.1692      1.7606    
  1.4466      1.2147      1.0532     0.95185     0.90323     0.93821      1.0113      1.1279      1.2950      1.5196    
  1.8082      2.1652      2.5910      3.0792      3.6131      4.1640      4.6915      5.1478      5.4852      5.6648    
  5.6648      5.4852      5.1477      4.6914      4.1640      3.6132      3.0792      2.5910      2.1652      1.8082    
  1.5196      1.2950      1.1279      1.0113     0.93821     0.90323     0.93821     0.98161      1.0582      1.1734    
  1.3329      1.5421      1.8044      2.1211      2.4888      2.8978      3.3302      3.7589      4.1495      4.4644    
  4.6694      4.7407      4.6694      4.4643      4.1494      3.7589      3.3302      2.8978      2.4887      2.1210    
  1.8044      1.5421      1.3330      1.1734      1.0582     0.98161     0.93821     0.92421      1.0113      1.0582    
  1.1339      1.2431      1.3904      1.5792      1.8109      2.0841      2.3931      2.7268      3.0676      3.3914    
  3.6701      3.8755      3.9847      3.9847      3.8755      3.6701      3.3914      3.0676      2.7268      2.3930    
  2.0840      1.8109      1.5792      1.3904      1.2431      1.1339      1.0582      1.0113     0.98893     0.98894    
  1.1279      1.1734      1.2431      1.3411      1.4709      1.6345      1.8317      2.0595      2.3111      2.5753    
  2.8357      3.0720      3.2619      3.3854      3.4282      3.3853      3.2619      3.0720      2.8358      2.5753    
  2.3111      2.0594      1.8317      1.6346      1.4710      1.3411      1.2431      1.1734      1.1279      1.1026    
  1.0945      1.1026      1.2950      1.3329      1.3904      1.4709      1.5773      1.7105      1.8696      2.0509    
  2.2473      2.4481      2.6390      2.8032      2.9242      2.9886      2.9886      2.9242      2.8032      2.6390    
  2.4481      2.2473      2.0508      1.8696      1.7105      1.5773      1.4709      1.3904      1.3329      1.2950    
  1.2726      1.2623      1.2623      1.2726      1.5196      1.5421      1.5792      1.6345      1.7105      1.8079    
  1.9255      2.0595      2.2029      2.3462      2.4772      2.5830      2.6521      2.6761      2.6521      2.5831    
  2.4772      2.3461      2.2029      2.0595      1.9256      1.8080      1.7105      1.6345      1.5792      1.5421    
  1.5196      1.5078      1.5025      1.5012      1.5026      1.5078      1.8082      1.8044      1.8109      1.8317    
  1.8696      1.9255      1.9983      2.0841      2.1766      2.2677      2.3479      2.4078      2.4399      2.4399    
  2.4078      2.3479      2.2677      2.1766      2.0841      1.9983      1.9256      1.8696      1.8317      1.8109    
  1.8044      1.8082      1.8174      1.8269      1.8329      1.8329      1.8270      1.8174      2.1652      2.1211    
  2.0841      2.0595      2.0509      2.0595      2.0841      2.1211      2.1652      2.2098      2.2482      2.2741    
  2.2832      2.2741      2.2482      2.2098      2.1652      2.1211      2.0841      2.0595      2.0508      2.0595    
  2.0841      2.1211      2.1652      2.2098      2.2482      2.2741      2.2832      2.2741      2.2482      2.2098    
  2.5910      2.4888      2.3931      2.3111      2.2473      2.2029      2.1766      2.1652      2.1643      2.1692    
  2.1755      2.1796      2.1796      2.1755      2.1692      2.1643      2.1652      2.1766      2.2029      2.2473    
  2.3111      2.3931      2.4888      2.5911      2.6906      2.7774      2.8418      2.8762      2.8762      2.8418    
  2.7774      2.6906      3.0792      2.8978      2.7268      2.5753      2.4481      2.3462      2.2677      2.2098    
  2.1692      2.1428      2.1280      2.1233      2.1280      2.1428      2.1692      2.2098      2.2676      2.3460    
  2.4480      2.5753      2.7269      2.8979      3.0793      3.2584      3.4202      3.5496      3.6333      3.6622    
  3.6333      3.5496      3.4202      3.2584      3.6131      3.3302      3.0676      2.8357      2.6390      2.4772    
  2.3479      2.2482      2.1755      2.1280      2.1045      2.1045      2.1280      2.1755      2.2482      2.3478    
  2.4770      2.6388      2.8357      3.0678      3.3304      3.6133      3.9001      4.1698      4.3993      4.5668    
  4.6552      4.6552      4.5668      4.3993      4.1698      3.9001      4.1640      3.7589      3.3914      3.0720    
  2.8032      2.5830      2.4078      2.2741      2.1796      2.1233      2.1045      2.1233      2.1796      2.2740    
  2.4077      2.5828      2.8030      3.0720      3.3916      3.7591      4.1642      4.5874      5.0013      5.3730    
  5.6689      5.8598      5.9258      5.8598      5.6689      5.3730      5.0013      4.5874      4.6915      4.1495    
  3.6701      3.2619      2.9242      2.6521      2.4399      2.2832      2.1796      2.1280      2.1280      2.1796    
  2.2832      2.4398      2.6519      2.9240      3.2619      3.6704      4.1498      4.6916      5.2755      5.8683    
  6.4267      6.9028      7.2508      7.4348      7.4348      7.2509      6.9028      6.4267      5.8683      5.2755    
  5.1478      4.4644      3.8755      3.3854      2.9886      2.6761      2.4399      2.2741      2.1755      2.1428    
  2.1755      2.2740      2.4398      2.6759      2.9883      3.3853      3.8758      4.4647      5.1480      5.9067    
  6.7048      7.4899      8.1989      8.7660      9.1332      9.2604      9.1333      8.7660      8.1989      7.4900    
  6.7049      5.9067      5.4852      4.6694      3.9847      3.4282      2.9886      2.6521      2.4078      2.2482    
  2.1692      2.1692      2.2482      2.4077      2.6519      2.9883      3.4282      3.9850      4.6698      5.4854    
  6.4180      7.4325      8.4712      9.4576      10.305      10.929      11.260      11.260      10.929      10.305    
  9.4575      8.4712      7.4326      6.4180      5.6648      4.7407      3.9847      3.3853      2.9242      2.5831    
  2.3479      2.2098      2.1643      2.2098      2.3478      2.5828      2.9240      3.3853      3.9850      4.7411    
  5.6650      6.7519      7.9726      9.2699      10.559      11.736      12.687      13.309      13.525      13.309    
  12.687      11.736      10.559      9.2700      7.9728      6.7519      5.6648      4.6694      3.8755      3.2619    
  2.8032      2.4772      2.2677      2.1652      2.1652      2.2676      2.4770      2.8030      3.2619      3.8758    
  4.6698      5.6650      6.8681      8.2610      9.7935      11.382      12.910      14.242      15.235      15.767    
  15.767      15.235      14.242      12.910      11.382      9.7937      8.2612      6.8681      5.4852      4.4643    
  3.6701      3.0720      2.6390      2.3461      2.1766      2.1211      2.1766      2.3460      2.6388      3.0720    
  3.6704      4.4647      5.4854      6.7519      8.2610      9.9761      11.822      13.685      15.415      16.836    
  17.776      18.106      17.776      16.836      15.415      13.685      11.822      9.9762      8.2612      6.7520    
  5.1477      4.1494      3.3914      2.8358      2.4481      2.2029      2.0841      2.0841      2.2029      2.4480    
  2.8357      3.3916      4.1498      5.1480      6.4180      7.9726      9.7935      11.822      13.957      16.047    
  17.903      19.306      20.063      20.063      19.306      17.903      16.047      13.957      11.822      9.7936    
  7.9729      6.4181      4.6914      3.7589      3.0676      2.5753      2.2473      2.0595      1.9983      2.0595    
  2.2473      2.5753      3.0678      3.7591      4.6916      5.9067      7.4325      9.2699      11.382      13.685    
  16.047      18.278      20.135      21.369      21.802      21.369      20.135      18.278      16.047      13.685    
  11.382      9.2700      7.4326      5.9067      4.1640      3.3302      2.7268      2.3111      2.0508      1.9256    
  1.9256      2.0508      2.3111      2.7269      3.3304      4.1642      5.2755      6.7048      8.4712      10.559    
  12.910      15.415      17.903      20.135      21.828      22.744      22.745      21.829      20.135      17.903    
  15.415      12.910      10.559      8.4712      6.7048      5.2755      3.6132      2.8978      2.3930      2.0594    
  1.8696      1.8080      1.8696      2.0595      2.3931      2.8979      3.6133      4.5874      5.8683      7.4899    
  9.4576      11.736      14.242      16.836      19.306      21.369      22.744      23.228      22.745      21.369    
  19.306      16.836      14.243      11.736      9.4576      7.4899      5.8682      4.5873      3.0792      2.4887    
  2.0840      1.8317      1.7105      1.7105      1.8317      2.0841      2.4888      3.0793      3.9001      5.0013    
  6.4267      8.1989      10.305      12.687      15.235      17.776      20.063      21.802      22.745      22.745    
  21.802      20.063      17.776      15.236      12.688      10.305      8.1988      6.4266      5.0012      3.9001    
  2.5910      2.1210      1.8109      1.6346      1.5773      1.6345      1.8109      2.1211      2.5911      3.2584    
  4.1698      5.3730      6.9028      8.7660      10.929      13.309      15.767      18.106      20.063      21.369    
  21.829      21.369      20.063      18.106      15.768      13.309      10.929      8.7659      6.9026      5.3729    
  4.1699      3.2585      2.1652      1.8044      1.5792      1.4710      1.4709      1.5792      1.8044      2.1652    
  2.6906      3.4202      4.3993      5.6689      7.2508      9.1332      11.260      13.525      15.767      17.776    
  19.306      20.135      20.135      19.306      17.776      15.768      13.525      11.260      9.1332      7.2506    
  5.6687      4.3993      3.4204      2.6907      1.8082      1.5421      1.3904      1.3411      1.3904      1.5421    
  1.8082      2.2098      2.7774      3.5496      4.5668      5.8598      7.4348      9.2604      11.260      13.309    
  15.235      16.836      17.903      18.278      17.903      16.836      15.236      13.309      11.260      9.2604    
  7.4345      5.8596      4.5668      3.5498      2.7775      2.2098      1.5196      1.3330      1.2431      1.2431    
  1.3329      1.5196      1.8174      2.2482      2.8418      3.6333      4.6552      5.9258      7.4348      9.1333    
  10.929      12.687      14.242      15.415      16.047      16.047      15.415      14.243      12.688      10.929    
  9.1332      7.4345      5.9255      4.6552      3.6335      2.8420      2.2482      1.8173      1.2950      1.1734    
  1.1339      1.1734      1.2950      1.5078      1.8269      2.2741      2.8762      3.6622      4.6552      5.8598    
  7.2509      8.7660      10.305      11.736      12.910      13.685      13.957      13.685      12.910      11.736    
  10.305      8.7659      7.2506      5.8596      4.6552      3.6624      2.8763      2.2741      1.8269      1.5077    
  1.1279      1.0582      1.0582      1.1279      1.2726      1.5025      1.8329      2.2832      2.8762      3.6333    
  4.5668      5.6689      6.9028      8.1989      9.4575      10.559      11.382      11.822      11.822      11.382    
  10.559      9.4576      8.1988      6.9026      5.6687      4.5668      3.6335      2.8763      2.2832      1.8329    
  1.5025      1.2726      1.0113     0.98161      1.0113      1.1026      1.2623      1.5012      1.8329      2.2741    
  2.8418      3.5496      4.3993      5.3730      6.4267      7.4900      8.4712      9.2700      9.7937      9.9762    
  9.7936      9.2700      8.4712      7.4899      6.4266      5.3729      4.3993      3.5498      2.8420      2.2741    
  1.8329      1.5011      1.2623      1.1026     0.93821     0.93821     0.98893      1.0945      1.2623      1.5026    
  1.8270      2.2482      2.7774      3.4202      4.1698      5.0013      5.8683      6.7049      7.4326      7.9728    
  8.2612      8.2612      7.9729      7.4326      6.7048      5.8682      5.0012      4.1699      3.4204      2.7775    
  2.2482      1.8269      1.5025      1.2623      1.0945     0.98893     0.90323     0.92421     0.98894      1.1026    
  1.2726      1.5078      1.8174      2.2098      2.6906      3.2584      3.9001      4.5874      5.2755      5.9067    
  6.4180      6.7519      6.8681      6.7520      6.4181      5.9067      5.2755      4.5873      3.9001      3.2585    
  2.6907      2.2098      1.8173      1.5077      1.2726      1.1026     0.98893     0.92418     0.96637      1.0113    
  1.0903      1.2087      1.3722      1.5860      1.8538      2.1766      2.5514      2.9686      3.4099      3.8479    
  4.2475      4.5699      4.7800      4.8530      4.7800      4.5699      4.2475      3.8480      3.4099      2.9685    
  2.5514      2.1766      1.8537      1.5860      1.3722      1.2087      1.0903      1.0113     0.96636     0.95185    
  1.0113      1.0582      1.1339      1.2431      1.3904      1.5792      1.8109      2.0841      2.3931      2.7268    
  3.0676      3.3914      3.6701      3.8755      3.9847      3.9847      3.8755      3.6701      3.3914      3.0676    
  2.7268      2.3930      2.0840      1.8109      1.5792      1.3904      1.2431      1.1339      1.0582      1.0113    
 0.98894     0.98894      1.0903      1.1339      1.2011      1.2961      1.4226      1.5824      1.7753      1.9983    
  2.2447      2.5032      2.7580      2.9889      3.1745      3.2951      3.3370      3.2951      3.1745      2.9889    
  2.7580      2.5033      2.2447      1.9983      1.7753      1.5824      1.4226      1.2962      1.2011      1.1339    
  1.0903      1.0661      1.0585      1.0661      1.2087      1.2431      1.2961      1.3717      1.4725      1.5996    
  1.7519      1.9255      2.1139      2.3064      2.4893      2.6467      2.7626      2.8242      2.8242      2.7626    
  2.6467      2.4893      2.3064      2.1138      1.9255      1.7519      1.5996      1.4726      1.3717      1.2961    
  1.2431      1.2087      1.1888      1.1799      1.1799      1.1888      1.3722      1.3904      1.4226      1.4725    
  1.5426      1.6334      1.7437      1.8696      2.0047      2.1399      2.2638      2.3641      2.4295      2.4523    
  2.4295      2.3640      2.2638      2.1399      2.0047      1.8696      1.7437      1.6335      1.5426      1.4726    
  1.4226      1.3904      1.3722      1.3637      1.3607      1.3601      1.3607      1.3637      1.5860      1.5792    
  1.5824      1.5996      1.6334      1.6846      1.7519      1.8317      1.9184      2.0043      2.0802      2.1372    
  2.1677      2.1677      2.1372      2.0802      2.0043      1.9184      1.8317      1.7519      1.6846      1.6335    
  1.5996      1.5824      1.5792      1.5860      1.5978      1.6095      1.6166      1.6166      1.6095      1.5978    
  1.8538      1.8109      1.7753      1.7519      1.7437      1.7519      1.7753      1.8109      1.8538      1.8976    
  1.9356      1.9614      1.9705      1.9614      1.9356      1.8976      1.8538      1.8109      1.7753      1.7519    
  1.7437      1.7519      1.7753      1.8109      1.8538      1.8976      1.9356      1.9614      1.9705      1.9614    
  1.9356      1.8976      2.1766      2.0841      1.9983      1.9255      1.8696      1.8317      1.8109      1.8045    
  1.8082      1.8174      1.8270      1.8329      1.8329      1.8269      1.8174      1.8082      1.8044      1.8109    
  1.8317      1.8696      1.9256      1.9983      2.0841      2.1766      2.2677      2.3479      2.4078      2.4399    
  2.4399      2.4078      2.3479      2.2677      2.5514      2.3931      2.2447      2.1139      2.0047      1.9184    
  1.8538      1.8082      1.7784      1.7606      1.7516      1.7488      1.7516      1.7606      1.7783      1.8082    
  1.8538      1.9184      2.0047      2.1139      2.2447      2.3931      2.5515      2.7089      2.8524      2.9679    
  3.0431      3.0692      3.0431      2.9679      2.8524      2.7089      2.9686      2.7268      2.5032      2.3064    
  2.1399      2.0043      1.8976      1.8174      1.7606      1.7246      1.7073      1.7073      1.7246      1.7606    
  1.8173      1.8976      2.0043      2.1400      2.3064      2.5033      2.7268      2.9686      3.2151      3.4485    
  3.6486      3.7956      3.8736      3.8736      3.7956      3.6486      3.4485      3.2150      3.4099      3.0676    
  2.7580      2.4893      2.2638      2.0802      1.9356      1.8270      1.7516      1.7073      1.6926      1.7072    
  1.7515      1.8269      1.9356      2.0802      2.2638      2.4893      2.7581      3.0677      3.4100      3.7695    
  4.1236      4.4443      4.7017      4.8688      4.9267      4.8688      4.7017      4.4443      4.1236      3.7694    
  3.8479      3.3914      2.9889      2.6467      2.3641      2.1372      1.9614      1.8329      1.7488      1.7073    
  1.7072      1.7488      1.8329      1.9614      2.1372      2.3641      2.6467      2.9890      3.3915      3.8480    
  4.3427      4.8490      5.3304      5.7448      6.0502      6.2124      6.2124      6.0501      5.7448      5.3304    
  4.8489      4.3427      4.2475      3.6701      3.1745      2.7626      2.4295      2.1677      1.9705      1.8329    
  1.7516      1.7246      1.7515      1.8329      1.9705      2.1678      2.4295      2.7627      3.1746      3.6702    