unknown system                          
   1.00000000000000     
     0.000000    2.715000    2.715000
     2.715000    0.000000    2.715000
     2.715000    2.715000    0.000000
   Si
     2
Direct
  0.500000  0.500000  0.500000
  0.750000  0.750000  0.750000
 
   32   32   32
 0.88279668017E+00 0.90322557404E+00 0.96636323594E+00 0.10773560472E+01 0.12437239574E+01
 0.14743208393E+01 0.17783830180E+01 0.21642990523E+01 0.26373312808E+01 0.31958455569E+01
 0.38267013845E+01 0.45015842270E+01 0.51763112260E+01 0.57943227449E+01 0.62942832539E+01
 0.66205119056E+01 0.67339242485E+01 0.66204582899E+01 0.62942320431E+01 0.57943273600E+01
 0.51763732940E+01 0.45016624364E+01 0.38267547191E+01 0.31958606232E+01 0.26373181788E+01
 0.21642744982E+01 0.17783590832E+01 0.14743029163E+01 0.12437138867E+01 0.10773545125E+01
 0.96636836072E+00 0.90323126712E+00 0.90322557404E+00 0.93820388453E+00 0.10112622033E+01
 0.11279079736E+01 0.12949906009E+01 0.15196298540E+01 0.18082240345E+01 0.21652057239E+01
 0.25910271377E+01 0.30792137374E+01 0.36131488134E+01 0.41640187248E+01 0.46914626872E+01
 0.51477572724E+01 0.54851549117E+01 0.56647925667E+01 0.56647980536E+01 0.54851559025E+01
 0.51477341145E+01 0.46914298373E+01 0.41640129121E+01 0.36131795107E+01 0.30792462356E+01
 0.25910232935E+01 0.21651680217E+01 0.18081878966E+01 0.15196211682E+01 0.12950044093E+01
 0.11279253871E+01 0.10112731929E+01 0.93820912738E+00 0.90322720280E+00 0.96636323594E+00
 0.10112622033E+01 0.10902843005E+01 0.12086977666E+01 0.13722166383E+01 0.15860071554E+01
 0.18537762531E+01 0.21766381066E+01 0.25514370933E+01 0.29685628267E+01 0.34098837872E+01
 0.38479267480E+01 0.42474505460E+01 0.45698937155E+01 0.47800228291E+01 0.48530440705E+01
 0.47800251099E+01 0.45699085460E+01 0.42474795323E+01 0.38479517969E+01 0.34098828845E+01
 0.29685350710E+01 0.25514025380E+01 0.21766123238E+01 0.18537573745E+01 0.15859921325E+01
 0.13722144266E+01 0.12087137868E+01 0.10903040854E+01 0.10112675878E+01 0.96635773968E+00
 0.95184453668E+00 0.10773560472E+01 0.11279079736E+01 0.12086977666E+01 0.13243379170E+01
 0.14792351701E+01 0.16767534567E+01 0.19184201614E+01 0.22029308241E+01 0.25247818231E+01
 0.28726942282E+01 0.32284465694E+01 0.35670312443E+01 0.38588876323E+01 0.40742648563E+01
 0.41888146519E+01 0.41888031420E+01 0.40742455349E+01 0.38588898625E+01 0.35670634329E+01
 0.32284783829E+01 0.28726839824E+01 0.25247240595E+01 0.22028654009E+01 0.19183892853E+01
 0.16767617805E+01 0.14792583543E+01 0.13243554935E+01 0.12087050680E+01 0.11279070059E+01
 0.10773507423E+01 0.10531780580E+01 0.10531811140E+01 0.12437239574E+01 0.12949906009E+01
 0.13722166383E+01 0.14792351701E+01 0.16193053022E+01 0.17944499273E+01 0.20047313792E+01
 0.22473216843E+01 0.25153789613E+01 0.27970130844E+01 0.30749087462E+01 0.33272583234E+01
 0.35303495085E+01 0.36625071553E+01 0.37084187342E+01 0.36625288813E+01 0.35303542413E+01
 0.33272224097E+01 0.30748535711E+01 0.27969732340E+01 0.25153606735E+01 0.22473084277E+01
 0.20047175654E+01 0.17944494776E+01 0.16193283013E+01 0.14792704893E+01 0.13722422034E+01
 0.12949943512E+01 0.12437118858E+01 0.12147432682E+01 0.12054202167E+01 0.12147554010E+01
 0.14743208393E+01 0.15196298540E+01 0.15860071554E+01 0.16767534567E+01 0.17944499273E+01
 0.19403924541E+01 0.21138494359E+01 0.23111416197E+01 0.25247808630E+01 0.27430380138E+01
 0.29503116073E+01 0.31285693260E+01 0.32598856493E+01 0.33296635536E+01 0.33296748955E+01
 0.32599112795E+01 0.31285844184E+01 0.29502888857E+01 0.27429790029E+01 0.25247268232E+01
 0.23111365323E+01 0.21138930515E+01 0.19404437118E+01 0.17944754447E+01 0.16767569514E+01
 0.15860086647E+01 0.15196336709E+01 0.14743168106E+01 0.14466112586E+01 0.14336073525E+01
 0.14336147098E+01 0.14466240386E+01 0.17783830180E+01 0.18082240345E+01 0.18537762531E+01
 0.19184201614E+01 0.20047313792E+01 0.21138494359E+01 0.22446749704E+01 0.23930717328E+01
 0.25514363603E+01 0.27089204713E+01 0.28523695286E+01 0.29679170229E+01 0.30431083687E+01
 0.30692169298E+01 0.30431036121E+01 0.29679230052E+01 0.28523929717E+01 0.27089497898E+01
 0.25514582535E+01 0.23930847806E+01 0.22446848689E+01 0.21138611097E+01 0.20047452371E+01
 0.19184272842E+01 0.18537623253E+01 0.18081895407E+01 0.17783523093E+01 0.17605977558E+01
 0.17515558195E+01 0.17488250603E+01 0.17515459778E+01 0.17606031387E+01 0.21642990523E+01
 0.21652057239E+01 0.21766381066E+01 0.22029308241E+01 0.22473216843E+01 0.23111416197E+01
 0.23930717328E+01 0.24887605943E+01 0.25910264591E+01 0.26906315263E+01 0.27774449649E+01
 0.28418322938E+01 0.28761564104E+01 0.28761613655E+01 0.28418413739E+01 0.27774508802E+01
 0.26906414339E+01 0.25910565196E+01 0.24888073272E+01 0.23930999905E+01 0.23111189263E+01
 0.22472596968E+01 0.22028724258E+01 0.21766053796E+01 0.21651849072E+01 0.21642780132E+01
 0.21691968899E+01 0.21754978263E+01 0.21796345683E+01 0.21796276953E+01 0.21754909368E+01
 0.21692072508E+01 0.26373312808E+01 0.25910271377E+01 0.25514370933E+01 0.25247818231E+01
 0.25153789613E+01 0.25247808630E+01 0.25514363603E+01 0.25910264591E+01 0.26373292198E+01
 0.26832926318E+01 0.27220629992E+01 0.27478985694E+01 0.27569641669E+01 0.27479120638E+01
 0.27220904578E+01 0.26833193446E+01 0.26373291579E+01 0.25909906170E+01 0.25513847855E+01
 0.25247367047E+01 0.25153404980E+01 0.25247329208E+01 0.25513791161E+01 0.25909841752E+01
 0.26373220529E+01 0.26833129351E+01 0.27220869909E+01 0.27479118361E+01 0.27569654996E+01
 0.27479006131E+01 0.27220660927E+01 0.26832960387E+01 0.31958455569E+01 0.30792137374E+01
 0.29685628267E+01 0.28726942282E+01 0.27970130844E+01 0.27430380138E+01 0.27089204713E+01
 0.26906315263E+01 0.26832926318E+01 0.26822499372E+01 0.26837308629E+01 0.26851379006E+01
 0.26851486994E+01 0.26837563461E+01 0.26822769278E+01 0.26833060721E+01 0.26906076441E+01
 0.27088411645E+01 0.27429271047E+01 0.27969324022E+01 0.28726812239E+01 0.29685898354E+01
 0.30792297898E+01 0.31958399522E+01 0.33076330442E+01 0.34034812858E+01 0.34735321025E+01
 0.35104865341E+01 0.35104728801E+01 0.34735016505E+01 0.34034585580E+01 0.33076328222E+01
 0.38267013845E+01 0.36131488134E+01 0.34098837872E+01 0.32284465694E+01 0.30749087462E+01
 0.29503116073E+01 0.28523695286E+01 0.27774449649E+01 0.27220629992E+01 0.26837308629E+01
 0.26610928520E+01 0.26536079340E+01 0.26611269639E+01 0.26837487620E+01 0.27220394568E+01
 0.27774023042E+01 0.28523250106E+01 0.29502583013E+01 0.30748550639E+01 0.32284229000E+01
 0.34098994434E+01 0.36131845071E+01 0.38267461459E+01 0.40348724385E+01 0.42201200069E+01
 0.43660261141E+01 0.44593209774E+01 0.44914236831E+01 0.44593422924E+01 0.43660260878E+01
 0.42200806347E+01 0.40348194437E+01 0.45015842270E+01 0.41640187248E+01 0.38479267480E+01
 0.35670312443E+01 0.33272583234E+01 0.31285693260E+01 0.29679170229E+01 0.28418322938E+01
 0.27478985694E+01 0.26851379006E+01 0.26536079340E+01 0.26536222197E+01 0.26851572804E+01
 0.27478837561E+01 0.28417739244E+01 0.29678382349E+01 0.31285048937E+01 0.33272394226E+01
 0.35670617300E+01 0.38479667282E+01 0.41640272884E+01 0.45015804978E+01 0.48396647267E+01
 0.51527898162E+01 0.54149749624E+01 0.56036164759E+01 0.57022759612E+01 0.57023114946E+01
 0.56036675561E+01 0.54149629038E+01 0.51527308219E+01 0.48396309307E+01 0.51763112260E+01
 0.46914626872E+01 0.42474505460E+01 0.38588876323E+01 0.35303495085E+01 0.32598856493E+01
 0.30431083687E+01 0.28761564104E+01 0.27569641669E+01 0.26851486994E+01 0.26611269639E+01
 0.26851572804E+01 0.27569510879E+01 0.28761051704E+01 0.30430381693E+01 0.32598240614E+01
 0.35303060907E+01 0.38588663040E+01 0.42474655367E+01 0.46915179712E+01 0.51763731754E+01
 0.56764100955E+01 0.61575193911E+01 0.65820538676E+01 0.69144726742E+01 0.71261800629E+01
 0.71988483597E+01 0.71261991970E+01 0.69145228577E+01 0.65821234978E+01 0.61575634706E+01
 0.56763930066E+01 0.57943227449E+01 0.51477572724E+01 0.45698937155E+01 0.40742648563E+01
 0.36625071553E+01 0.33296635536E+01 0.30692169298E+01 0.28761613655E+01 0.27479120638E+01
 0.26837563461E+01 0.26837487620E+01 0.27478837561E+01 0.28761051704E+01 0.30691439816E+01
 0.33296043867E+01 0.36624796342E+01 0.40742527940E+01 0.45698812092E+01 0.51477688335E+01
 0.57943850232E+01 0.64812749156E+01 0.71664034095E+01 0.77995028784E+01 0.83293298792E+01
 0.87107107814E+01 0.89102448193E+01 0.89102524863E+01 0.87107578760E+01 0.83294288678E+01
 0.77995900918E+01 0.71664034221E+01 0.64812028335E+01 0.62942832539E+01 0.54851549117E+01
 0.47800228291E+01 0.41888146519E+01 0.37084187342E+01 0.33296748955E+01 0.30431036121E+01
 0.28418413739E+01 0.27220904578E+01 0.26822769278E+01 0.27220394568E+01 0.28417739244E+01
 0.30430381693E+01 0.33296043867E+01 0.37083552106E+01 0.41887984150E+01 0.47800681458E+01
 0.54852206560E+01 0.62943173628E+01 0.71792356471E+01 0.80929440261E+01 0.89739182388E+01
 0.97540567991E+01 0.10367704650E+02 0.10760217003E+02 0.10895295082E+02 0.10760202416E+02
 0.10367689277E+02 0.97540544606E+01 0.89739334152E+01 0.80929679214E+01 0.71792434061E+01
 0.66205119056E+01 0.56647925667E+01 0.48530440705E+01 0.41888031420E+01 0.36625288813E+01
 0.32599112795E+01 0.29679230052E+01 0.27774508802E+01 0.26833193446E+01 0.26833060721E+01
 0.27774023042E+01 0.29678382349E+01 0.32598240614E+01 0.36624796342E+01 0.41887984150E+01
 0.48530677548E+01 0.56648393688E+01 0.66205739991E+01 0.76962113746E+01 0.88441414953E+01
 0.99958656164E+01 0.11068951745E+02 0.11976146817E+02 0.12635792412E+02 0.12983480148E+02
 0.12983393996E+02 0.12635614452E+02 0.11976031290E+02 0.11068967201E+02 0.99959441785E+01
 0.88441780091E+01 0.76961762942E+01 0.67339242485E+01 0.56647980536E+01 0.47800251099E+01
 0.40742455349E+01 0.35303542413E+01 0.31285844184E+01 0.28523929717E+01 0.26906414339E+01
 0.26373291579E+01 0.26906076441E+01 0.28523250106E+01 0.31285048937E+01 0.35303060907E+01
 0.40742527940E+01 0.47800681458E+01 0.56648393688E+01 0.67339464135E+01 0.79716289454E+01
 0.93352520427E+01 0.10755581787E+02 0.12141885627E+02 0.13389196890E+02 0.14387540537E+02
 0.15035261189E+02 0.15259509581E+02 0.15035148544E+02 0.14387394145E+02 0.13389096882E+02
 0.12141850104E+02 0.10755579371E+02 0.93352525550E+01 0.79716215465E+01 0.66204582899E+01
 0.54851559025E+01 0.45699085460E+01 0.38588898625E+01 0.33272224097E+01 0.29502888857E+01
 0.27089497898E+01 0.25910565196E+01 0.25909906170E+01 0.27088411645E+01 0.29502583013E+01
 0.33272394226E+01 0.38588663040E+01 0.45698812092E+01 0.54852206560E+01 0.66205739991E+01
 0.79716289454E+01 0.95061149887E+01 0.11161506657E+02 0.12847574841E+02 0.14450432615E+02
 0.15834862868E+02 0.16852280355E+02 0.17390012316E+02 0.17390035455E+02 0.16852276976E+02
 0.15834725381E+02 0.14450199979E+02 0.12847422361E+02 0.11161528576E+02 0.95061958866E+01
 0.79716050606E+01 0.62942320431E+01 0.51477341145E+01 0.42474795323E+01 0.35670634329E+01
 0.30748535711E+01 0.27429790029E+01 0.25514582535E+01 0.24888073272E+01 0.25513847855E+01
 0.27429271047E+01 0.30748550639E+01 0.35670617300E+01 0.42474655367E+01 0.51477688335E+01
 0.62943173628E+01 0.76962113746E+01 0.93352520427E+01 0.11161506657E+02 0.13094011184E+02
 0.15021874259E+02 0.16791751840E+02 0.18214241857E+02 0.19134602564E+02 0.19452977586E+02
 0.19134532646E+02 0.18214146857E+02 0.16791647907E+02 0.15021756351E+02 0.13093917499E+02
 0.11161478358E+02 0.93352451137E+01 0.76961538645E+01 0.57943273600E+01 0.46914298373E+01
 0.38479517969E+01 0.32284783829E+01 0.27969732340E+01 0.25247268232E+01 0.23930847806E+01
 0.23930999905E+01 0.25247367047E+01 0.27969324022E+01 0.32284229000E+01 0.38479667282E+01
 0.46915179712E+01 0.57943850232E+01 0.71792356471E+01 0.88441414953E+01 0.10755581787E+02
 0.12847574841E+02 0.15021874259E+02 0.17126310238E+02 0.18944651257E+02 0.20282127996E+02
 0.20991586294E+02 0.20991504858E+02 0.20282006650E+02 0.18944656693E+02 0.17126384088E+02
 0.15021835377E+02 0.12847413354E+02 0.10755465413E+02 0.88441494704E+01 0.71792614567E+01
 0.51763732940E+01 0.41640129121E+01 0.34098828845E+01 0.28726839824E+01 0.25153606735E+01
 0.23111365323E+01 0.22446848689E+01 0.23111189263E+01 0.25153404980E+01 0.28726812239E+01
 0.34098994434E+01 0.41640272884E+01 0.51763731754E+01 0.64812749156E+01 0.80929440261E+01
 0.99958656164E+01 0.12141885627E+02 0.14450432615E+02 0.16791751840E+02 0.18944651257E+02
 0.20682803272E+02 0.21815908768E+02 0.22210084060E+02 0.21815978922E+02 0.20682847795E+02
 0.18944612026E+02 0.16791671582E+02 0.14450371082E+02 0.12141846826E+02 0.99958314311E+01
 0.80929204469E+01 0.64812719346E+01 0.45016624364E+01 0.36131795107E+01 0.29685350710E+01
 0.25247240595E+01 0.22473084277E+01 0.21138930515E+01 0.21138611097E+01 0.22472596968E+01
 0.25247329208E+01 0.29685898354E+01 0.36131845071E+01 0.45015804978E+01 0.56764100955E+01
 0.71664034095E+01 0.89739182388E+01 0.11068951745E+02 0.13389196890E+02 0.15834862868E+02
 0.18214241857E+02 0.20282127996E+02 0.21815908768E+02 0.22635413992E+02 0.22635488583E+02
 0.21815996576E+02 0.20282045869E+02 0.18214056992E+02 0.15834777279E+02 0.13389233713E+02
 0.11068964117E+02 0.89738555863E+01 0.71663768036E+01 0.56764834434E+01 0.38267547191E+01
 0.30792462356E+01 0.25514025380E+01 0.22028654009E+01 0.20047175654E+01 0.19404437118E+01
 0.20047452371E+01 0.22028724258E+01 0.25513791161E+01 0.30792297898E+01 0.38267461459E+01
 0.48396647267E+01 0.61575193911E+01 0.77995028784E+01 0.97540567991E+01 0.11976146817E+02
 0.14387540537E+02 0.16852280355E+02 0.19134602564E+02 0.20991586294E+02 0.22210084060E+02
 0.22635488583E+02 0.22210071007E+02 0.20991558242E+02 0.19134564664E+02 0.16852233589E+02
 0.14387473794E+02 0.11976074004E+02 0.97540341981E+01 0.77995604418E+01 0.61576068687E+01
 0.48397116041E+01 0.31958606232E+01 0.25910232935E+01 0.21766123238E+01 0.19183892853E+01
 0.17944494776E+01 0.17944754447E+01 0.19184272842E+01 0.21766053796E+01 0.25909841752E+01
 0.31958399522E+01 0.40348724385E+01 0.51527898162E+01 0.65820538676E+01 0.83293298792E+01
 0.10367704650E+02 0.12635792412E+02 0.15035261189E+02 0.17390012316E+02 0.19452977586E+02
 0.20991504858E+02 0.21815978922E+02 0.21815996576E+02 0.20991558242E+02 0.19453043963E+02
 0.17390032760E+02 0.15035198535E+02 0.12635697316E+02 0.10367679523E+02 0.83294077105E+01
 0.65821603000E+01 0.51528429025E+01 0.40348799344E+01 0.26373181788E+01 0.21651680217E+01
 0.18537573745E+01 0.16767617805E+01 0.16193283013E+01 0.16767569514E+01 0.18537623253E+01
 0.21651849072E+01 0.26373220529E+01 0.33076330442E+01 0.42201200069E+01 0.54149749624E+01
 0.69144726742E+01 0.87107107814E+01 0.10760217003E+02 0.12983480148E+02 0.15259509581E+02
 0.17390035455E+02 0.19134532646E+02 0.20282006650E+02 0.20682847795E+02 0.20282045869E+02
 0.19134564664E+02 0.17390032760E+02 0.15259495595E+02 0.12983488170E+02 0.10760252727E+02
 0.87107634283E+01 0.69145414955E+01 0.54150595504E+01 0.42201964964E+01 0.33076706609E+01
 0.21642744982E+01 0.18081878966E+01 0.15859921325E+01 0.14792583543E+01 0.14792704893E+01
 0.15860086647E+01 0.18081895407E+01 0.21642780132E+01 0.26833129351E+01 0.34034812858E+01
 0.43660261141E+01 0.56036164759E+01 0.71261800629E+01 0.89102448193E+01 0.10895295082E+02
 0.12983393996E+02 0.15035148544E+02 0.16852276976E+02 0.18214146857E+02 0.18944656693E+02
 0.18944612026E+02 0.18214056992E+02 0.16852233589E+02 0.15035198535E+02 0.12983488170E+02
 0.10895356530E+02 0.89102728013E+01 0.71262408797E+01 0.56037304948E+01 0.43661271176E+01
 0.34035144422E+01 0.26833045498E+01 0.17783590832E+01 0.15196211682E+01 0.13722144266E+01
 0.13243554935E+01 0.13722422034E+01 0.15196336709E+01 0.17783523093E+01 0.21691968899E+01
 0.27220869909E+01 0.34735321025E+01 0.44593209774E+01 0.57022759612E+01 0.71988483597E+01
 0.89102524863E+01 0.10760202416E+02 0.12635614452E+02 0.14387394145E+02 0.15834725381E+02
 0.16791647907E+02 0.17126384088E+02 0.16791671582E+02 0.15834777279E+02 0.14387473794E+02
 0.12635697316E+02 0.10760252727E+02 0.89102728013E+01 0.71988904622E+01 0.57023667408E+01
 0.44594078780E+01 0.34735532677E+01 0.27220608918E+01 0.21691843731E+01 0.14743029163E+01
 0.12950044093E+01 0.12087137868E+01 0.12087050680E+01 0.12949943512E+01 0.14743168106E+01
 0.17605977558E+01 0.21754978263E+01 0.27479118361E+01 0.35104865341E+01 0.44914236831E+01
 0.57023114946E+01 0.71261991970E+01 0.87107578760E+01 0.10367689277E+02 0.11976031290E+02
 0.13389096882E+02 0.14450199979E+02 0.15021756351E+02 0.15021835377E+02 0.14450371082E+02
 0.13389233713E+02 0.11976074004E+02 0.10367679523E+02 0.87107634283E+01 0.71262408797E+01
 0.57023667408E+01 0.44914675292E+01 0.35105078921E+01 0.27479048115E+01 0.21754650565E+01
 0.17605611207E+01 0.12437138867E+01 0.11279253871E+01 0.10903040854E+01 0.11279070059E+01
 0.12437118858E+01 0.14466112586E+01 0.17515558195E+01 0.21796345683E+01 0.27569654996E+01
 0.35104728801E+01 0.44593422924E+01 0.56036675561E+01 0.69145228577E+01 0.83294288678E+01
 0.97540544606E+01 0.11068967201E+02 0.12141850104E+02 0.12847422361E+02 0.13093917499E+02
 0.12847413354E+02 0.12141846826E+02 0.11068964117E+02 0.97540341981E+01 0.83294077105E+01
 0.69145414955E+01 0.56037304948E+01 0.44594078780E+01 0.35105078921E+01 0.27569704590E+01
 0.21796169619E+01 0.17515215679E+01 0.14465831992E+01 0.10773545125E+01 0.10112731929E+01
 0.10112675878E+01 0.10773507423E+01 0.12147432682E+01 0.14336073525E+01 0.17488250603E+01
 0.21796276953E+01 0.27479006131E+01 0.34735016505E+01 0.43660260878E+01 0.54149629038E+01
 0.65821234978E+01 0.77995900918E+01 0.89739334152E+01 0.99959441785E+01 0.10755579371E+02
 0.11161528576E+02 0.11161478358E+02 0.10755465413E+02 0.99958314311E+01 0.89738555863E+01
 0.77995604418E+01 0.65821603000E+01 0.54150595504E+01 0.43661271176E+01 0.34735532677E+01
 0.27479048115E+01 0.21796169619E+01 0.17488113961E+01 0.14335886101E+01 0.12147310276E+01
 0.96636836072E+00 0.93820912738E+00 0.96635773968E+00 0.10531780580E+01 0.12054202167E+01
 0.14336147098E+01 0.17515459778E+01 0.21754909368E+01 0.27220660927E+01 0.34034585580E+01
 0.42200806347E+01 0.51527308219E+01 0.61575634706E+01 0.71664034221E+01 0.80929679214E+01
 0.88441780091E+01 0.93352525550E+01 0.95061958866E+01 0.93352451137E+01 0.88441494704E+01
 0.80929204469E+01 0.71663768036E+01 0.61576068687E+01 0.51528429025E+01 0.42201964964E+01
 0.34035144422E+01 0.27220608918E+01 0.21754650565E+01 0.17515215679E+01 0.14335886101E+01
 0.12053986715E+01 0.10531762113E+01 0.90323126712E+00 0.90322720280E+00 0.95184453668E+00
 0.10531811140E+01 0.12147554010E+01 0.14466240386E+01 0.17606031387E+01 0.21692072508E+01
 0.26832960387E+01 0.33076328222E+01 0.40348194437E+01 0.48396309307E+01 0.56763930066E+01
 0.64812028335E+01 0.71792434061E+01 0.76961762942E+01 0.79716215465E+01 0.79716050606E+01
 0.76961538645E+01 0.71792614567E+01 0.64812719346E+01 0.56764834434E+01 0.48397116041E+01
 0.40348799344E+01 0.33076706609E+01 0.26833045498E+01 0.21691843731E+01 0.17605611207E+01
 0.14465831992E+01 0.12147310276E+01 0.10531762113E+01 0.95185055269E+00 0.90322829423E+00
 0.93820657345E+00 0.10112636836E+01 0.11279089695E+01 0.12949923412E+01 0.15196317447E+01
 0.18082249390E+01 0.21652062336E+01 0.25910283132E+01 0.30792149535E+01 0.36131491436E+01
 0.41640190845E+01 0.46914642596E+01 0.51477591590E+01 0.54851557162E+01 0.56647930210E+01
 0.56647997449E+01 0.54851586758E+01 0.51477369846E+01 0.46914330462E+01 0.41640166446E+01
 0.36131818563E+01 0.30792448982E+01 0.25910183325E+01 0.21651609191E+01 0.18081793769E+01
 0.15196121386E+01 0.12949974297E+01 0.11279225360E+01 0.10112735226E+01 0.93821042635E+00
 0.90322900384E+00 0.93820657345E+00 0.98161019510E+00 0.10582265832E+01 0.11734028207E+01
 0.13329410585E+01 0.15420638496E+01 0.18044499270E+01 0.21211054845E+01 0.24887607405E+01
 0.28977777908E+01 0.33301719866E+01 0.37588892718E+01 0.41494535378E+01 0.44643536058E+01
 0.46694390162E+01 0.47406966085E+01 0.46694485546E+01 0.44643401879E+01 0.41494163498E+01
 0.37588733885E+01 0.33301989035E+01 0.28978016075E+01 0.24887262799E+01 0.21210266517E+01
 0.18043937837E+01 0.15420664372E+01 0.13329736991E+01 0.11734230594E+01 0.10582292680E+01
 0.98161375016E+00 0.93821429756E+00 0.92420585032E+00 0.10112636836E+01 0.10582265832E+01
 0.11338821728E+01 0.12430703499E+01 0.13903702787E+01 0.15791805168E+01 0.18109103275E+01
 0.20840718899E+01 0.23930719964E+01 0.27268007376E+01 0.30675879298E+01 0.33914177015E+01
 0.36701158169E+01 0.38755096160E+01 0.39846592220E+01 0.39846604968E+01 0.38755140148E+01
 0.36701260293E+01 0.33914349921E+01 0.30676030067E+01 0.27267957905E+01 0.23930398339E+01
 0.20840284466E+01 0.18108807199E+01 0.15791759912E+01 0.13903835125E+01 0.12430876861E+01
 0.11338934396E+01 0.10582276796E+01 0.10112581057E+01 0.98893379620E+00 0.98893728554E+00
 0.11279089695E+01 0.11734028207E+01 0.12430703499E+01 0.13411019701E+01 0.14709357076E+01
 0.16345220699E+01 0.18317003867E+01 0.20594822655E+01 0.23111427281E+01 0.25753316656E+01
 0.28357424906E+01 0.30719687475E+01 0.32618960279E+01 0.33853691168E+01 0.34282128129E+01
 0.33853388111E+01 0.32618813262E+01 0.30719961829E+01 0.28357789429E+01 0.25753251928E+01
 0.23110898200E+01 0.20594324512E+01 0.18316954341E+01 0.16345517097E+01 0.14709606644E+01
 0.13411031612E+01 0.12430603290E+01 0.11733988829E+01 0.11279131546E+01 0.11025703101E+01
 0.10944717408E+01 0.11025655273E+01 0.12949923412E+01 0.13329410585E+01 0.13903702787E+01
 0.14709357076E+01 0.15772837349E+01 0.17104995868E+01 0.18695901174E+01 0.20508735973E+01
 0.22473221525E+01 0.24481360806E+01 0.26389735633E+01 0.28032022790E+01 0.29242384190E+01
 0.29885610889E+01 0.29885553678E+01 0.29242299257E+01 0.28032013670E+01 0.26389720032E+01
 0.24481173794E+01 0.22472879923E+01 0.20508460766E+01 0.18695867106E+01 0.17105159195E+01
 0.15773026707E+01 0.14709453213E+01 0.13903698959E+01 0.13329360386E+01 0.12949878038E+01
 0.12725770711E+01 0.12623416024E+01 0.12623420436E+01 0.12725791885E+01 0.15196317447E+01
 0.15420638496E+01 0.15791805168E+01 0.16345220699E+01 0.17104995868E+01 0.18079302679E+01
 0.19255448405E+01 0.20594815722E+01 0.22029301205E+01 0.23461591202E+01 0.24771588989E+01
 0.25830431067E+01 0.26521140649E+01 0.26761401208E+01 0.26521437073E+01 0.25830789460E+01
 0.24771666896E+01 0.23461265239E+01 0.22028890673E+01 0.20594783513E+01 0.19255839734E+01
 0.18079682763E+01 0.17105010058E+01 0.16345006437E+01 0.15791715111E+01 0.15420733803E+01
 0.15196344569E+01 0.15077535296E+01 0.15025420893E+01 0.15011649713E+01 0.15025653154E+01
 0.15077728593E+01 0.18082249390E+01 0.18044499270E+01 0.18109103275E+01 0.18317003867E+01
 0.18695901174E+01 0.19255448405E+01 0.19982956841E+01 0.20840718891E+01 0.21766377943E+01
 0.22677205020E+01 0.23478721111E+01 0.24077764562E+01 0.24398672819E+01 0.24398777673E+01
 0.24078012129E+01 0.23478937733E+01 0.22677242765E+01 0.21766296322E+01 0.20840749779E+01
 0.19983211617E+01 0.19255755170E+01 0.18696023284E+01 0.18316925193E+01 0.18108982097E+01
 0.18044422349E+01 0.18082167407E+01 0.18173537013E+01 0.18269384897E+01 0.18328985721E+01
 0.18329040811E+01 0.18269516643E+01 0.18173667456E+01 0.21652062336E+01 0.21211054845E+01
 0.20840718899E+01 0.20594822655E+01 0.20508735973E+01 0.20594815722E+01 0.20840718891E+01
 0.21211062049E+01 0.21652063977E+01 0.22098374551E+01 0.22481620600E+01 0.22740578766E+01
 0.22832165913E+01 0.22740667333E+01 0.22481611349E+01 0.22098240307E+01 0.21652029398E+01
 0.21211237454E+01 0.20840850414E+01 0.20594610530E+01 0.20508319416E+01 0.20594613634E+01
 0.20840862687E+01 0.21211246633E+01 0.21652010437E+01 0.22098189162E+01 0.22481548674E+01
 0.22740608475E+01 0.22832112558E+01 0.22740538253E+01 0.22481604337E+01 0.22098375487E+01
 0.25910283132E+01 0.24887607405E+01 0.23930719964E+01 0.23111427281E+01 0.22473221525E+01
 0.22029301205E+01 0.21766377943E+01 0.21652063977E+01 0.21642993617E+01 0.21692071520E+01
 0.21754927265E+01 0.21796324942E+01 0.21796407088E+01 0.21755037979E+01 0.21692028254E+01
 0.21642832342E+01 0.21651872764E+01 0.21766044253E+01 0.22028701404E+01 0.22472570875E+01
 0.23111147347E+01 0.23930938110E+01 0.24888008343E+01 0.25910505378E+01 0.26906350093E+01
 0.27774444204E+01 0.28418374753E+01 0.28761611777E+01 0.28761581272E+01 0.28418343559E+01
 0.27774477234E+01 0.26906347193E+01 0.30792149535E+01 0.28977777908E+01 0.27268007376E+01
 0.25753316656E+01 0.24481360806E+01 0.23461591202E+01 0.22677205020E+01 0.22098374551E+01
 0.21692071520E+01 0.21427659258E+01 0.21280127679E+01 0.21232849587E+01 0.21280028888E+01
 0.21427647526E+01 0.21692210870E+01 0.22098318426E+01 0.22676455732E+01 0.23460242733E+01
 0.24480327129E+01 0.25753446171E+01 0.27269095877E+01 0.28978841213E+01 0.30792574267E+01
 0.32583611337E+01 0.34202312341E+01 0.35496166825E+01 0.36332919925E+01 0.36622446210E+01
 0.36332757829E+01 0.35495972020E+01 0.34202257023E+01 0.32583600196E+01 0.36131491436E+01
 0.33301719866E+01 0.30675879298E+01 0.28357424906E+01 0.26389735633E+01 0.24771588989E+01
 0.23478721111E+01 0.22481620600E+01 0.21754927265E+01 0.21280127679E+01 0.21045438985E+01
 0.21045287806E+01 0.21279886712E+01 0.21754885419E+01 0.22481549125E+01 0.23477953621E+01
 0.24769973119E+01 0.26388283135E+01 0.28357473804E+01 0.30677558400E+01 0.33303746838E+01
 0.36132634697E+01 0.39000838305E+01 0.41698106448E+01 0.43993230754E+01 0.45667942917E+01
 0.46551947136E+01 0.46551841928E+01 0.45667675920E+01 0.43992996841E+01 0.41698053256E+01
 0.39000595444E+01 0.41640190845E+01 0.37588892718E+01 0.33914177015E+01 0.30719687475E+01
 0.28032022790E+01 0.25830431067E+01 0.24077764562E+01 0.22740578766E+01 0.21796324942E+01
 0.21232849587E+01 0.21045287806E+01 0.21232723344E+01 0.21796287869E+01 0.22740341821E+01
 0.24076580551E+01 0.25828283715E+01 0.28030271928E+01 0.30719865091E+01 0.33916245396E+01
 0.37591265468E+01 0.41641503097E+01 0.45873882475E+01 0.50012928372E+01 0.53730054056E+01
 0.56688944148E+01 0.58597732191E+01 0.59257615230E+01 0.58597849563E+01 0.56688914746E+01
 0.53729888304E+01 0.50012842748E+01 0.45873576402E+01 0.46914642596E+01 0.41494535378E+01
 0.36701158169E+01 0.32618960279E+01 0.29242384190E+01 0.26521140649E+01 0.24398672819E+01
 0.22832165913E+01 0.21796407088E+01 0.21280028888E+01 0.21279886712E+01 0.21796287869E+01
 0.22832093289E+01 0.24397623555E+01 0.26518531140E+01 0.29239773774E+01 0.32618800506E+01
 0.36703821431E+01 0.41497765197E+01 0.46916191368E+01 0.52754842883E+01 0.58682663919E+01
 0.64267212276E+01 0.69028225977E+01 0.72508404012E+01 0.74347973480E+01 0.74348194890E+01
 0.72508763772E+01 0.69028365396E+01 0.64267394585E+01 0.58683210163E+01 0.52755020489E+01
 0.51477591590E+01 0.44643536058E+01 0.38755096160E+01 0.33853691168E+01 0.29885610889E+01
 0.26761401208E+01 0.24398777673E+01 0.22740667333E+01 0.21755037979E+01 0.21427647526E+01
 0.21754885419E+01 0.22740341821E+01 0.24397623555E+01 0.26758872216E+01 0.29882889753E+01
 0.33853207767E+01 0.38757738607E+01 0.44647303673E+01 0.51479754444E+01 0.59067146432E+01
 0.67047963256E+01 0.74899172624E+01 0.81988848260E+01 0.87659995306E+01 0.91332327538E+01
 0.92604489770E+01 0.91332554037E+01 0.87660146425E+01 0.81988954337E+01 0.74899721961E+01
 0.67048931048E+01 0.59067243254E+01 0.54851557162E+01 0.46694390162E+01 0.39846592220E+01
 0.34282128129E+01 0.29885553678E+01 0.26521437073E+01 0.24078012129E+01 0.22481611349E+01
 0.21692028254E+01 0.21692210870E+01 0.22481549125E+01 0.24076580551E+01 0.26518531140E+01
 0.29882889753E+01 0.34282009684E+01 0.39849530035E+01 0.46698300699E+01 0.54853743127E+01
 0.64179811073E+01 0.74325007180E+01 0.84711642661E+01 0.94575527799E+01 0.10305025024E+02
 0.10928732432E+02 0.11259963332E+02 0.11259960866E+02 0.10928707686E+02 0.10304967640E+02
 0.94575160583E+01 0.84712234026E+01 0.74326276824E+01 0.64180086207E+01 0.56647930210E+01
 0.47406966085E+01 0.39846604968E+01 0.33853388111E+01 0.29242299257E+01 0.25830789460E+01
 0.23478937733E+01 0.22098240307E+01 0.21642832342E+01 0.22098318426E+01 0.23477953621E+01
 0.25828283715E+01 0.29239773774E+01 0.33853207767E+01 0.39849530035E+01 0.47411104338E+01
 0.56650403773E+01 0.67519048816E+01 0.79726490764E+01 0.92698924747E+01 0.10559284726E+02
 0.11736166644E+02 0.12687399348E+02 0.13308582754E+02 0.13524777245E+02 0.13308551239E+02
 0.12687310301E+02 0.11736050991E+02 0.10559253122E+02 0.92700196614E+01 0.79728423083E+01
 0.67519442290E+01 0.56647997449E+01 0.46694485546E+01 0.38755140148E+01 0.32618813262E+01
 0.28032013670E+01 0.24771666896E+01 0.22677242765E+01 0.21652029398E+01 0.21651872764E+01
 0.22676455732E+01 0.24769973119E+01 0.28030271928E+01 0.32618800506E+01 0.38757738607E+01
 0.46698300699E+01 0.56650403773E+01 0.68681091861E+01 0.82609752386E+01 0.97935493732E+01
 0.11381684771E+02 0.12910363939E+02 0.14242441236E+02 0.15235398268E+02 0.15767465143E+02
 0.15767451840E+02 0.15235354743E+02 0.14242366200E+02 0.12910289772E+02 0.11381690853E+02
 0.97936882014E+01 0.82611600091E+01 0.68681381606E+01 0.54851586758E+01 0.44643401879E+01
 0.36701260293E+01 0.30719961829E+01 0.26389720032E+01 0.23461265239E+01 0.21766296322E+01
 0.21211237454E+01 0.21766044253E+01 0.23460242733E+01 0.26388283135E+01 0.30719865091E+01
 0.36703821431E+01 0.44647303673E+01 0.54853743127E+01 0.67519048816E+01 0.82609752386E+01
 0.99761428708E+01 0.11822404381E+02 0.13685340407E+02 0.15414609272E+02 0.16835667621E+02
 0.17776090427E+02 0.18105682971E+02 0.17776057436E+02 0.16835672304E+02 0.15414633152E+02
 0.13685296318E+02 0.11822335154E+02 0.99762092103E+01 0.82611786743E+01 0.67519965195E+01
 0.51477369846E+01 0.41494163498E+01 0.33914349921E+01 0.28357789429E+01 0.24481173794E+01
 0.22028890673E+01 0.20840749779E+01 0.20840850414E+01 0.22028701404E+01 0.24480327129E+01
 0.28357473804E+01 0.33916245396E+01 0.41497765197E+01 0.51479754444E+01 0.64179811073E+01
 0.79726490764E+01 0.97935493732E+01 0.11822404381E+02 0.13956573113E+02 0.16047136282E+02
 0.17902591287E+02 0.19305855479E+02 0.20062797355E+02 0.20062775302E+02 0.19305869708E+02
 0.17902710297E+02 0.16047231271E+02 0.13956507488E+02 0.11822298016E+02 0.97936298442E+01