unknown system                          
   1.00000000000000     
    -2.450000    2.450000    1.274000
     2.450000   -2.450000    1.274000
     2.450000    2.450000   -1.274000
   Si
     2
Direct
  0.250000  0.750000  0.500000
  0.000000  0.000000  0.000000
 
   28   28   28
 -5.5748     -4.0419     -.47814E-01  4.8967      9.1017      11.436      11.699      10.501      8.7936      7.1758    
  5.8250      4.8011      4.1003      3.6958      3.5639      3.6958      4.1003      4.8011      5.8250      7.1758    
  8.7936      10.501      11.699      11.436      9.1017      4.8967     -.47825E-01 -4.0419     -4.0419     -4.8345    
 -2.6852      1.5530      6.2904      9.9559      11.658      11.429      10.006      8.3012      6.7517      5.4924    
  4.5623      3.9482      3.6223      3.5640      3.7681      4.2473      5.0268      6.1308      7.5521      9.2106    
  10.879      11.847      11.199      8.4855      4.1185     -.61802     -.47825E-01 -2.6852     -2.7483     -.22004    
  3.8819      8.0150      10.838      11.753      11.014      9.4257      7.7622      6.3048      5.1524      4.3238    
  3.7992      3.5516      3.5640      3.8353      4.3808      5.2262      6.3911      7.8573      9.5274      11.132    
  11.913      11.050      8.2612      4.1185      4.8967      1.5530     -.22004     0.31161      2.9157      6.5158    
  9.7351      11.540      11.636      10.457      8.7977      7.2072      5.8605      4.8233      4.0980      3.6609    
  3.4872      3.5640      3.8938      4.4933      5.3873      6.5898      8.0722      9.7254      11.257      11.931    
  11.050      8.4855      9.1017      6.2904      3.8819      2.9157      3.8222      6.1957      9.0105      11.145    
  11.907      11.278      9.8000      8.1577      6.6658      5.4415      4.5214      3.8959      3.5398      3.4322    
  3.5641      3.9404      4.5784      5.5004      6.7142      8.1832      9.7926      11.257      11.913      11.199    
  11.436      9.9558      8.0150      6.5158      6.1957      7.2273      9.1227      10.999      12.039      11.878    
  10.713      9.1132      7.5394      6.1652      5.0673      4.2599      3.7257      3.4410      3.3889      3.5641    
  3.9728      4.6315      5.5587      6.7566      8.1832      9.7254      11.132      11.847      11.699      11.658    
  10.838      9.7351      9.0106      9.1228      10.057      11.331      12.264      12.348      11.494      10.035    
  8.4481      6.9743      5.7278      4.7530      4.0484      3.5936      3.3681      3.3592      3.5641      3.9894    
  4.6494      5.5587      6.7142      8.0722      9.5274      10.879      10.501      11.429      11.753      11.540    
  11.145      10.999      11.331      12.019      12.650      12.770      12.144      10.884      9.3555      7.8430    
  6.4894      5.3713      4.5094      3.8935      3.5037      3.3235      3.3441      3.5641      3.9894      4.6315    
  5.5004      6.5898      7.8573      9.2106      8.7936      10.006      11.014      11.636      11.907      12.039    
  12.264      12.650      13.034      13.115      12.648      11.608      10.217      8.7379      7.3328      6.1069    
  5.1084      4.3437      3.7992      3.4582      3.3085      3.3441      3.5641      3.9728      4.5784      5.3873    
  6.3911      7.5521      7.1758      8.3012      9.4257      10.457      11.278      11.878      12.348      12.770    
  13.115      13.229      12.930      12.141      10.970      9.6121      8.2287      6.9466      5.8429      4.9476    
  4.2600      3.7676      3.4582      3.3235      3.3592      3.5641      3.9404      4.4933      5.2262      6.1308    
  5.8250      6.7517      7.7622      8.7977      9.8000      10.713      11.494      12.144      12.648      12.930    
  12.873      12.397      11.534      10.399      9.1314      7.8662      6.7060      5.7083      4.8935      4.2600    
  3.7992      3.5037      3.3681      3.3889      3.5641      3.8938      4.3808      5.0268      4.8011      5.4924    
  6.3048      7.2072      8.1577      9.1132      10.035      10.884      11.608      12.141      12.397      12.298    
  11.823      11.015      9.9737      8.8225      7.6779      6.6243      5.7083      4.9476      4.3437      3.8935    
  3.5936      3.4410      3.4322      3.5640      3.8353      4.2473      4.1003      4.5623      5.1524      5.8605    
  6.6658      7.5394      8.4481      9.3555      10.217      10.970      11.534      11.823      11.776      11.377    
  10.670      9.7470      8.7160      7.6779      6.7060      5.8429      5.1084      4.5094      4.0484      3.7257    
  3.5398      3.4872      3.5640      3.7681      3.6958      3.9482      4.3238      4.8233      5.4415      6.1652    
  6.9742      7.8430      8.7379      9.6121      10.399      11.015      11.377      11.422      11.134      10.550    
  9.7470      8.8225      7.8662      6.9466      6.1069      5.3713      4.7530      4.2599      3.8959      3.6609    
  3.5516      3.5640      3.5639      3.6223      3.7991      4.0980      4.5214      5.0673      5.7278      6.4894    
  7.3328      8.2287      9.1314      9.9737      10.670      11.134      11.297      11.134      10.670      9.9737    
  9.1314      8.2287      7.3328      6.4894      5.7278      5.0673      4.5214      4.0980      3.7992      3.6223    
  3.6958      3.5640      3.5516      3.6608      3.8959      4.2599      4.7530      5.3713      6.1069      6.9466    
  7.8662      8.8225      9.7470      10.550      11.134      11.422      11.377      11.015      10.399      9.6121    
  8.7379      7.8430      6.9743      6.1652      5.4415      4.8233      4.3238      3.9482      4.1003      3.7681    
  3.5640      3.4872      3.5397      3.7257      4.0484      4.5094      5.1084      5.8429      6.7060      7.6779    
  8.7160      9.7470      10.670      11.377      11.776      11.823      11.534      10.970      10.217      9.3555    
  8.4481      7.5394      6.6658      5.8605      5.1524      4.5623      4.8011      4.2472      3.8353      3.5640    
  3.4321      3.4409      3.5936      3.8935      4.3437      4.9476      5.7083      6.6243      7.6779      8.8225    
  9.9737      11.015      11.823      12.298      12.397      12.141      11.608      10.884      10.035      9.1132    
  8.1577      7.2072      6.3048      5.4924      5.8250      5.0268      4.3808      3.8938      3.5641      3.3889    
  3.3681      3.5037      3.7992      4.2599      4.8935      5.7083      6.7060      7.8662      9.1314      10.399    
  11.534      12.397      12.873      12.930      12.648      12.144      11.494      10.713      9.8000      8.7977    
  7.7622      6.7517      7.1758      6.1308      5.2262      4.4933      3.9404      3.5641      3.3592      3.3235    
  3.4582      3.7676      4.2599      4.9476      5.8429      6.9466      8.2287      9.6121      10.970      12.141    
  12.930      13.229      13.115      12.770      12.348      11.878      11.278      10.457      9.4257      8.3012    
  8.7936      7.5521      6.3911      5.3873      4.5784      3.9728      3.5641      3.3441      3.3085      3.4582    
  3.7992      4.3437      5.1084      6.1069      7.3328      8.7379      10.217      11.608      12.648      13.115    
  13.034      12.650      12.264      12.039      11.907      11.636      11.014      10.006      10.501      9.2106    
  7.8573      6.5898      5.5004      4.6315      3.9894      3.5641      3.3441      3.3235      3.5037      3.8935    
  4.5094      5.3713      6.4894      7.8430      9.3555      10.884      12.144      12.770      12.650      12.019    
  11.331      10.999      11.145      11.540      11.753      11.429      11.699      10.879      9.5274      8.0722    
  6.7142      5.5587      4.6495      3.9894      3.5641      3.3592      3.3681      3.5936      4.0484      4.7530    
  5.7278      6.9742      8.4481      10.035      11.494      12.348      12.264      11.331      10.057      9.1227    
  9.0105      9.7351      10.838      11.658      11.436      11.847      11.132      9.7254      8.1832      6.7566    
  5.5587      4.6315      3.9728      3.5641      3.3889      3.4409      3.7257      4.2599      5.0673      6.1652    
  7.5394      9.1132      10.713      11.878      12.039      10.999      9.1228      7.2273      6.1957      6.5158    
  8.0150      9.9559      9.1017      11.199      11.913      11.257      9.7926      8.1832      6.7142      5.5004    
  4.5784      3.9404      3.5641      3.4321      3.5397      3.8959      4.5214      5.4415      6.6658      8.1577    
  9.8000      11.278      11.907      11.145      9.0106      6.1957      3.8222      2.9157      3.8819      6.2904    
  4.8967      8.4855      11.050      11.931      11.257      9.7254      8.0722      6.5898      5.3873      4.4933    
  3.8938      3.5640      3.4872      3.6608      4.0980      4.8233      5.8605      7.2072      8.7977      10.457    
  11.636      11.540      9.7351      6.5158      2.9157     0.31161     -.22004      1.5530     -.47814E-01  4.1184    
  8.2612      11.050      11.913      11.132      9.5274      7.8573      6.3911      5.2262      4.3808      3.8353    
  3.5640      3.5516      3.7991      4.3238      5.1524      6.3048      7.7622      9.4257      11.014      11.753    
  10.838      8.0150      3.8819     -.22004     -2.7483     -2.6852     -4.0419     -.61800      4.1184      8.4855    
  11.199      11.847      10.879      9.2106      7.5521      6.1308      5.0268      4.2472      3.7681      3.5640    
  3.6223      3.9482      4.5623      5.4924      6.7517      8.3012      10.006      11.429      11.658      9.9558    
  6.2904      1.5530     -2.6852     -4.8345     -4.0419     -2.9308     0.56125      5.0846      9.0384      11.288    
  11.565      10.403      8.7062      7.0831      5.7172      4.6719      3.9456      3.5114      3.3440      3.4325    
  3.7836      4.4194      5.3683      6.6409      8.1937      9.8847      11.243      11.371      9.6042      6.0001    
  1.5060     -2.3325     -2.9308     -4.0419     -2.3325      1.5060      6.0000      9.6041      11.371      11.243    
  9.8847      8.1937      6.6409      5.3683      4.4194      3.7835      3.4325      3.3440      3.5114      3.9457    
  4.6720      5.7172      7.0831      8.7062      10.403      11.565      11.288      9.0384      5.0846     0.56125    
 0.66000     -2.2273     -2.6852     -.54747      3.3036      7.3840      10.317      11.409      10.818      9.2967    
  7.6472      6.1867      5.0223      4.1783      3.6366      3.3697      3.3592      3.6027      4.1151      4.9231    
  6.0506      7.4889      9.1566      10.827      11.810      11.255      8.7854      4.8437      5.3414      1.7900    
 -.35020     -.22001      2.0936      5.6071      8.9417      10.979      11.311      10.284      8.6745      7.0949    
  5.7441      4.6968      3.9603      3.5118      3.3261      3.3889      3.7023      4.2835      5.1594      6.3495    
  7.8346      9.5187      11.143      11.999      11.338      8.9322      9.4618      6.4830      3.7387      2.3596    
  2.9157      5.1227      7.9971      10.364      11.416      11.023      9.6630      8.0499      6.5636      5.3341    
  4.4066      3.7751      3.4148      3.3037      3.4322      3.8055      4.4423      5.3679      6.5961      8.0984    
  9.7691      11.341      12.144      11.551      11.847      10.257      8.0383      6.1446      5.4286      6.1957    
  8.0423      10.079      11.402      11.523      10.544      9.0090      7.4515      6.0774      4.9746      4.1639    
  3.6303      3.3495      3.3037      3.4872      3.9076      4.5832      5.5364      6.7747      8.2623      9.8901    
  11.407      12.227      12.214      12.136      11.130      9.6995      8.5833      8.3593      9.1227      10.434    
  11.571      11.921      11.288      9.9364      8.3752      6.9067      5.6569      4.6796      3.9776      3.5312    
  3.3184      3.3261      3.5517      4.0035      4.6985      5.6545      6.8732      8.3142      9.8708      11.329    
  11.097      12.062      12.307      11.876      11.157      10.664      10.738      11.331      12.042      12.351    
  11.925      10.792      9.2997      7.7954      6.4396      5.3183      4.4591      3.8534      3.4805      3.3223    
  3.3698      3.6225      4.0882      4.7811      5.7143      6.8841      8.2485      9.7092      9.4138      10.713    
  11.738      12.266      12.325      12.170      12.115      12.314      12.650      12.806      12.469      11.536    
  10.181      8.7088      7.3008      6.0708      5.0739      4.3197      3.7944      3.4791      3.3604      3.4325    
  3.6959      4.1569      4.8259      5.7112      6.8054      8.0683      7.7848      9.0026      10.196      11.235    
  11.967      12.383      12.620      12.828      13.037      13.115      12.852      12.114      10.959      9.5977    
  8.2076      6.9196      5.8164      4.9316      4.2648      3.8013      3.5263      3.4309      3.5114      3.7682    
  4.2053      4.8295      5.6447      6.6419      6.4041      7.4172      8.5024      9.5845      10.586      11.424    
  12.058      12.527      12.867      13.038      12.930      12.434      11.548      10.393      9.1100      7.8354    
  6.6746      5.6881      4.8963      4.2952      3.8732      3.6202      3.5308      3.6027      3.8353      4.2304    
  4.7911      5.5188      5.3416      6.1082      6.9900      7.9457      8.9205      9.8584      10.714      11.447    
  12.030      12.428      12.577      12.397      11.859      11.008      9.9374      8.7703      7.6234      6.5822    
  5.6926      4.9695      4.4102      4.0079      3.7575      3.6562      3.7022      3.8937      4.2304      4.7131    
  4.6002      5.1248      5.7737      6.5309      7.3672      8.2436      9.1187      9.9541      10.711      11.342    
  11.782      11.961      11.823      11.356      10.604      9.6541      8.6171      7.5923      6.6510      5.8321    
  5.1501      4.6070      4.2019      3.9339      3.8024      3.8054      3.9403      4.2053      4.1568      4.4599    
  4.8824      5.4217      6.0675      6.8002      7.5925      8.4138      9.2303      10.001      10.670      11.168    
  11.421      11.377      11.023      10.399      9.5838      8.6718      7.7499      6.8814      6.1033      5.4337    
  4.8809      4.4497      4.1436      3.9634      3.9075      3.9727      3.9893      4.0882      4.3008      4.6290    
  5.0723      5.6249      6.2740      7.0014      7.7845      8.5947      9.3915      10.117      10.697      11.055    
  11.134      10.916      10.430      9.7420      8.9360      8.0905      7.2650      6.4979      5.8125      5.2240    
  4.7435      4.3786      4.1323      4.0034      4.0882      3.9893      4.0034      4.1323      4.3786      4.7435    
  5.2240      5.8125      6.4979      7.2650      8.0905      8.9360      9.7420      10.430      10.916      11.134    
  11.055      10.697      10.117      9.3915      8.5947      7.7845      7.0014      6.2740      5.6249      5.0723    
  4.6290      4.3008      4.4599      4.1569      3.9727      3.9075      3.9634      4.1436      4.4497      4.8809    
  5.4337      6.1033      6.8814      7.7499      8.6718      9.5838      10.399      11.023      11.377      11.421    
  11.168      10.670      10.001      9.2303      8.4138      7.5925      6.8001      6.0675      5.4216      4.8824    
  5.1248      4.6002      4.2053      3.9403      3.8054      3.8024      3.9340      4.2019      4.6070      5.1501    
  5.8321      6.6510      7.5923      8.6171      9.6541      10.604      11.356      11.823      11.961      11.782    
  11.342      10.711      9.9541      9.1187      8.2436      7.3672      6.5309      5.7737      6.1082      5.3416    
  4.7131      4.2304      3.8938      3.7022      3.6563      3.7575      4.0079      4.4102      4.9695      5.6927    
  6.5822      7.6234      8.7702      9.9373      11.008      11.859      12.397      12.577      12.428      12.030    
  11.447      10.714      9.8584      8.9205      7.9457      6.9900      7.4172      6.4041      5.5188      4.7912    
  4.2304      3.8353      3.6027      3.5308      3.6202      3.8732      4.2952      4.8963      5.6881      6.6746    
  7.8354      9.1100      10.393      11.548      12.434      12.930      13.038      12.867      12.527      12.058    
  11.424      10.586      9.5845      8.5024      9.0026      7.7848      6.6419      5.6448      4.8295      4.2053    
  3.7682      3.5114      3.4309      3.5263      3.8012      4.2648      4.9316      5.8164      6.9196      8.2076    
  9.5977      10.959      12.114      12.852      13.115      13.037      12.828      12.620      12.383      11.967    
  11.235      10.196      10.713      9.4138      8.0683      6.8055      5.7112      4.8259      4.1569      3.6959    
  3.4325      3.3605      3.4791      3.7944      4.3197      5.0739      6.0707      7.3008      8.7088      10.181    
  11.536      12.469      12.806      12.650      12.314      12.115      12.170      12.325      12.266      11.738    
  12.062      11.097      9.7093      8.2485      6.8841      5.7143      4.7811      4.0882      3.6224      3.3698    
  3.3223      3.4804      3.8534      4.4591      5.3183      6.4395      7.7954      9.2997      10.792      11.925    
  12.351      12.042      11.331      10.738      10.664      11.157      11.876      12.307      12.136      12.214    
  11.329      9.8708      8.3141      6.8732      5.6545      4.6985      4.0035      3.5517      3.3261      3.3184    
  3.5311      3.9776      4.6796      5.6569      6.9066      8.3752      9.9364      11.288      11.921      11.571    
  10.434      9.1227      8.3593      8.5833      9.6996      11.130      10.257      11.848      12.227      11.407    
  9.8901      8.2623      6.7747      5.5364      4.5832      3.9075      3.4872      3.3037      3.3495      3.6303    
  4.1639      4.9746      6.0774      7.4515      9.0090      10.544      11.523      11.402      10.079      8.0423    
  6.1957      5.4286      6.1447      8.0383      6.4830      9.4618      11.551      12.144      11.341      9.7691    
  8.0984      6.5961      5.3679      4.4423      3.8055      3.4322      3.3037      3.4147      3.7751      4.4066    
  5.3341      6.5636      8.0499      9.6630      11.023      11.416      10.364      7.9972      5.1227      2.9157    
  2.3596      3.7388      1.7901      5.3414      8.9322      11.338      11.999      11.143      9.5186      7.8346    
  6.3494      5.1594      4.2835      3.7022      3.3889      3.3260      3.5118      3.9603      4.6968      5.7441    
  7.0949      8.6745      10.284      11.311      10.979      8.9417      5.6071      2.0937     -.21998     -.35017    
 -2.2273     0.66002      4.8437      8.7854      11.255      11.810      10.827      9.1566      7.4889      6.0505    
  4.9230      4.1151      3.6027      3.3592      3.3697      3.6366      4.1783      5.0223      6.1867      7.6472    
  9.2968      10.818      11.409      10.317      7.3840      3.3036     -.54744     -2.6851     -.47666E-01 0.66011    
  3.3551      6.9464      10.075      11.750      11.724      10.463      8.7672      7.1560      5.7939      4.7407    
  3.9950      3.5309      3.3235      3.3605      3.6455      4.1970      5.0415      6.1954      7.6332      9.2503    
  10.754      11.411      10.553      8.0727      4.6404      1.5061     0.56135     -.61784     0.56135      3.6031    
  7.2755      10.223      11.582      11.274      9.8827      8.2117      6.6766      5.4110      4.4576      3.8066    
  3.4310      3.3085      3.4310      3.8066      4.4576      5.4110      6.6766      8.2117      9.8827      11.274    
  11.582      10.223      7.2755      3.6031      3.3551     0.66011     -.47662E-01  1.5061      4.6404      8.0727    
  10.553      11.411      10.754      9.2503      7.6332      6.1954      5.0415      4.1970      3.6455      3.3605    
  3.3235      3.5309      3.9950      4.7407      5.7939      7.1560      8.7672      10.463      11.724      11.750    
  10.075      6.9464      7.1888      3.9631      1.7901      1.5531      3.3037      6.2409      9.1320      10.919    
  11.171      10.162      8.6001      7.0602      5.7357      4.7024      3.9702      3.5183      3.3223      3.3681    
  3.6563      4.2027      5.0333      6.1710      7.6081      9.2691      10.960      12.108      11.967      10.202    
  10.616      7.9738      5.3171      3.7388      3.8819      5.6072      8.0765      10.200      11.173      10.809    
  9.5166      7.9617      6.5184      5.3176      4.4079      3.7865      3.4304      3.3184      3.4409      3.8024    
  4.4206      5.3211      6.5222      8.0065      9.6863      11.350      12.423      12.250      12.567      11.244    
  9.1468      7.1566      6.1447      6.5159      7.9971      9.7980      11.041      11.202      10.313      8.8583    
  7.3608      6.0302      4.9580      4.1697      3.6532      3.3855      3.3495      3.5397      3.9634      4.6388    
  5.5890      6.8266      8.3253      9.9892      11.607      12.650      12.753      12.849      11.944      10.467    
  9.1352      8.5833      9.0105      10.079      11.118      11.500      10.966      9.7181      8.2317      6.8207    
  5.6139      4.6700      3.9962      3.5750      3.3854      3.4147      3.6609      4.1323      4.8460      5.8215    
  7.0644      8.5413      10.154      11.707      11.630      12.692      13.003      12.544      11.666      10.903    
  10.664      10.999      11.571      11.873      11.530      10.507      9.1005      7.6641      6.3622      5.2844    
  4.4630      3.8928      3.5544      3.4303      3.5118      3.7992      4.3008      5.0309      6.0038      7.2185    
  8.6370      10.163      10.013      11.369      12.434      12.945      12.891      12.520      12.185      12.115    
  12.264      12.350      12.048      11.201      9.9304      8.5278      7.1810      6.0028      5.0523      4.3427    
  3.8620      3.5916      3.5182      3.6366      3.9482      4.4599      5.1820      6.1232      7.2768      8.6030    
  8.4399      9.7120      10.938      11.971      12.630      12.888      12.892      12.841      12.828      12.770    
  12.469      11.765      10.667      9.3658      8.0370      6.8063      5.7568      4.9249      4.3120      3.9037    
  3.6845      3.6454      3.7835      4.1003      4.6002      5.2893      6.1706      7.2337      7.0913      8.1589    
  9.2810      10.370      11.332      12.065      12.524      12.769      12.880      12.867      12.648      12.114    
  11.236      10.113      8.8804      7.6627      6.5607      5.6349      4.9064      4.3711      4.0158      3.8294    
  3.8065      3.9456      4.2473      4.7131      5.3450      6.1418      6.0387      6.8601      7.7808      8.7515    
  9.7063      10.578      11.313      11.872      12.247      12.443      12.428      12.141      11.548      10.688    
  9.6428      8.5225      7.4347      6.4603      5.6437      4.9978      4.5179      4.1946      4.0211      3.9949    
  4.1150      4.3808      4.7912      5.3450      5.2894      5.8685      6.5570      7.3331      8.1606      8.9926    
  9.7802      10.483      11.068      11.507      11.760      11.782      11.534      11.008      10.243      9.3182    
  8.3320      7.3759      6.5158      5.7863      5.1980      4.7489      4.4346      4.2527      4.2026      4.2834    
  4.4933      4.8295      4.8260      5.1822      5.6437      6.2034      6.8463      7.5473      8.2739      8.9911    
  9.6658      10.265      10.748      11.067      11.168      11.015      10.604      9.9698      9.1854      8.3360    
  7.4993      6.7309      6.0614      5.5027      5.0581      4.7287      4.5159      4.4206      4.4423      4.5784    
  4.6315      4.7812      5.0311      5.3795      5.8226      6.3508      6.9476      7.5914      8.2574      8.9188    
  9.5423      10.084      10.487      10.697      10.670      10.399      9.9126      9.2704      8.5459      7.8066    
  7.1022      6.4628      5.9047      5.4371      5.0672      4.8001      4.6388      4.5833      4.6985      4.6495    
  4.6985      4.8462      5.0929      5.4373      5.8737      6.3921      6.9790      7.6179      8.2874      8.9559    
  9.5767      10.089      10.430      10.550      10.430      10.089      9.5767      8.9559      8.2874      7.6179    
  6.9790      6.3921      5.8737      5.4373      5.0929      4.8462      5.0311      4.7812      4.6315      4.5833    
  4.6388      4.8001      5.0672      5.4371      5.9047      6.4628      7.1022      7.8066      8.5459      9.2704    
  9.9126      10.399      10.670      10.697      10.487      10.084      9.5423      8.9188      8.2574      7.5914    
  6.9476      6.3508      5.8226      5.3795      5.6437      5.1822      4.8260      4.5784      4.4423      4.4206    
  4.5159      4.7287      5.0581      5.5027      6.0614      6.7309      7.4993      8.3360      9.1854      9.9698    
  10.604      11.015      11.168      11.066      10.748      10.265      9.6658      8.9912      8.2739      7.5474    
  6.8463      6.2034      6.5570      5.8685      5.2894      4.8295      4.4933      4.2834      4.2026      4.2528    
  4.4346      4.7489      5.1980      5.7863      6.5158      7.3759      8.3320      9.3182      10.243      11.008    
  11.534      11.782      11.760      11.507      11.068      10.483      9.7802      8.9926      8.1607      7.3331    
  7.7808      6.8601      6.0387      5.3450      4.7912      4.3808      4.1150      3.9949      4.0211      4.1946    
  4.5179      4.9978      5.6437      6.4603      7.4347      8.5226      9.6428      10.688      11.548      12.141    
  12.428      12.443      12.247      11.872      11.313      10.578      9.7063      8.7515      9.2811      8.1589    
  7.0913      6.1419      5.3450      4.7131      4.2472      3.9456      3.8065      3.8294      4.0158      4.3711    
  4.9064      5.6349      6.5607      7.6627      8.8805      10.113      11.236      12.114      12.648      12.867    
  12.880      12.769      12.524      12.065      11.332      10.370      10.938      9.7120      8.4399      7.2336    
  6.1706      5.2893      4.6002      4.1003      3.7835      3.6454      3.6845      3.9037      4.3120      4.9249    
  5.7568      6.8063      8.0370      9.3658      10.667      11.765      12.469      12.770      12.828      12.841    
  12.892      12.888      12.630      11.971      12.434      11.369      10.013      8.6030      7.2768      6.1232    
  5.1820      4.4598      3.9482      3.6366      3.5182      3.5916      3.8620      4.3428      5.0523      6.0028    
  7.1810      8.5278      9.9304      11.201      12.048      12.350      12.264      12.115      12.185      12.520    
  12.891      12.945      13.003      12.692      11.630      10.163      8.6370      7.2185      6.0038      5.0309    
  4.3007      3.7992      3.5118      3.4303      3.5544      3.8929      4.4630      5.2844      6.3622      7.6641    
  9.1005      10.507      11.530      11.873      11.571      10.999      10.664      10.903      11.666      12.544    
  11.944      12.849      12.753      11.707      10.154      8.5413      7.0643      5.8215      4.8460      4.1323    
  3.6609      3.4147      3.3854      3.5750      3.9963      4.6700      5.6139      6.8207      8.2317      9.7181    
  10.966      11.500      11.118      10.079      9.0105      8.5833      9.1352      10.467      9.1468      11.244    
  12.567      12.650      11.607      9.9892      8.3253      6.8265      5.5890      4.6387      3.9634      3.5398    
  3.3495      3.3855      3.6531      4.1697      4.9580      6.0302      7.3608      8.8583      10.313      11.202    
  11.041      9.7981      7.9971      6.5158      6.1447      7.1566      5.3171      7.9738      10.616      12.250    
  12.423      11.350      9.6862      8.0065      6.5222      5.3211      4.4206      3.8024      3.4410      3.3184    
  3.4304      3.7865      4.4079      5.3176      6.5184      7.9617      9.5166      10.809      11.173      10.200    
  8.0765      5.6072      3.8819      3.7388      1.7901      3.9631      7.1888      10.202      11.967      12.108    
  10.960      9.2691      7.6081      6.1710      5.0333      4.2027      3.6563      3.3681      3.3223      3.5183    
  3.9702      4.7023      5.7356      7.0602      8.6001      10.162      11.171      10.919      9.1320      6.2409    
  3.3037      1.5531      4.8968      5.3415      7.1888      9.6414      11.669      12.519      12.036      10.632    
  8.9618      7.3913      6.0572      5.0117      4.2528      3.7576      3.5036      3.4791      3.6846      4.1333    
  4.8475      5.8455      7.1176      8.5940      10.112      11.216      11.301      10.132      8.0727      6.0001    
  5.0847      4.1186      4.8438      6.9464      9.4992      11.445      12.109      11.453      9.9843      8.3536    
  6.8618      5.6252      4.6814      4.0212      3.6202      3.4582      3.5264      3.8295      4.3848      5.2162    
  6.3384      7.7285      9.2928      10.806      11.682      11.347      9.6974      7.2755      6.9464      4.8438    
  4.1186      5.0847      7.2755      9.6974      11.347      11.682      10.806      9.2928      7.7285      6.3384    
  5.2162      4.3848      3.8295      3.5264      3.4581      3.6202      4.0212      4.6814      5.6252      6.8618    
  8.3536      9.9843      11.453      12.109      11.445      9.4992      9.6413      7.1888      5.3415      4.8969    
  6.0001      8.0727      10.132      11.301      11.216      10.112      8.5940      7.1176      5.8455      4.8475    