unknown system                          
   1.00000000000000     
    -2.487990    2.487990    1.245418
     2.487990   -2.487990    1.245418
     2.487990    2.487990   -1.245418
   Si
     2
Direct
  0.250000  0.750000  0.500000
 -0.000000 -0.000000  0.000000
 
   32   32   32
 -.53880701359E+01 -.41809999370E+01 -.94841709829E+00 0.33102259011E+01 0.73914315958E+01
 0.10325574149E+02 0.11656335737E+02 0.11485756249E+02 0.10321371837E+02 0.88106752835E+01
 0.73485632984E+01 0.60706468728E+01 0.50425322065E+01 0.42781041742E+01 0.37607575294E+01
 0.34644275106E+01 0.33682478966E+01 0.34644289031E+01 0.37607352097E+01 0.42780639903E+01
 0.50425077853E+01 0.60706413739E+01 0.73485518100E+01 0.88106599677E+01 0.10321375232E+02
 0.11485767933E+02 0.11656328184E+02 0.10325561564E+02 0.73914469243E+01 0.33102508771E+01
 -.94842731364E+00 -.41810322380E+01 -.41810322380E+01 -.48350789110E+01 -.31481753020E+01
 0.33606785910E+00 0.45510730583E+01 0.83340293790E+01 0.10833856405E+02 0.11734995649E+02
 0.11251020929E+02 0.99416870239E+01 0.84245937337E+01 0.70004398766E+01 0.57821472379E+01
 0.48207875249E+01 0.41206908775E+01 0.36613394296E+01 0.34168008787E+01 0.33684877605E+01
 0.35118078617E+01 0.38576907709E+01 0.44289564844E+01 0.52508729362E+01 0.63350255499E+01
 0.76579075855E+01 0.91413128387E+01 0.10623651119E+02 0.11637916990E+02 0.11546855191E+02
 0.99162435205E+01 0.67573371903E+01 0.26412704044E+01 -.13971400867E+01 -.94842731364E+00
 -.31482013853E+01 -.32494889225E+01 -.12205927466E+01 0.22805694632E+01 0.61856473821E+01
 0.94355911028E+01 0.11338152456E+02 0.11729589120E+02 0.10921819674E+02 0.94993366300E+01
 0.79986730846E+01 0.66283848840E+01 0.54817352736E+01 0.45948503465E+01 0.39633570988E+01
 0.35637399247E+01 0.33708515439E+01 0.33689186826E+01 0.35567935467E+01 0.39481796680E+01
 0.45668959063E+01 0.54365002319E+01 0.65633039375E+01 0.79149734469E+01 0.94030639036E+01
 0.10841259124E+02 0.11724907779E+02 0.11457048193E+02 0.96887733154E+01 0.65340027776E+01
 0.26412704044E+01 0.33102508771E+01 0.33606153441E+00 -.12206100427E+01 -.84051506851E+00
 0.13479067630E+01 0.46256646777E+01 0.79867508294E+01 0.10526585175E+02 0.11735414516E+02
 0.11597404643E+02 0.10499346846E+02 0.90150414631E+01 0.75495701557E+01 0.62473714398E+01
 0.51816361676E+01 0.43738915828E+01 0.38122282345E+01 0.34714249032E+01 0.33280447321E+01
 0.33693992083E+01 0.35974528357E+01 0.40280848618E+01 0.46854825235E+01 0.55908721319E+01
 0.67450542217E+01 0.81080026559E+01 0.95843981476E+01 0.10971781026E+02 0.11763527244E+02
 0.11422899727E+02 0.96887733154E+01 0.67573371903E+01 0.73914469243E+01 0.45510889997E+01
 0.22805673228E+01 0.13479002305E+01 0.20823982475E+01 0.42313902864E+01 0.70724271685E+01
 0.97171198706E+01 0.11448682506E+02 0.11944636432E+02 0.11318676857E+02 0.10001807957E+02
 0.85072668019E+01 0.70948898600E+01 0.58725949832E+01 0.48934410241E+01 0.41659398693E+01
 0.36725835966E+01 0.33876589626E+01 0.32898446198E+01 0.33695788436E+01 0.36317679153E+01
 0.40938789945E+01 0.47794949553E+01 0.57067726147E+01 0.68713871175E+01 0.82276951547E+01
 0.96772695255E+01 0.11015293112E+02 0.11763527244E+02 0.11457048193E+02 0.99162435205E+01
 0.10325561564E+02 0.83340327432E+01 0.61856557663E+01 0.46256683229E+01 0.42313926921E+01
 0.51615190315E+01 0.70860347010E+01 0.93332365248E+01 0.11171551019E+02 0.12084300868E+02
 0.11923344441E+02 0.10903161915E+02 0.94645480528E+01 0.79959551055E+01 0.66525762222E+01
 0.55181772972E+01 0.46274508421E+01 0.39782451474E+01 0.35491887873E+01 0.33150684236E+01
 0.32572383345E+01 0.33693154441E+01 0.36585067408E+01 0.41428496958E+01 0.48445506589E+01
 0.57785628071E+01 0.69361974845E+01 0.82683256026E+01 0.96772695255E+01 0.10971781026E+02
 0.11724907779E+02 0.11546855191E+02 0.11656328184E+02 0.10833845155E+02 0.94355876327E+01
 0.79867522987E+01 0.70724317816E+01 0.70860413223E+01 0.80506142156E+01 0.96080509674E+01
 0.11179698005E+02 0.12210192710E+02 0.12375911605E+02 0.11676360515E+02 0.10391385472E+02
 0.89218759052E+01 0.75019387474E+01 0.62397778836E+01 0.51970820542E+01 0.43928095492E+01
 0.38167874472E+01 0.34457125930E+01 0.32558821080E+01 0.32314761187E+01 0.33688151733E+01
 0.36766740080E+01 0.41729369134E+01 0.48778265903E+01 0.58029288957E+01 0.69361974845E+01
 0.82276951547E+01 0.95843981476E+01 0.10841259124E+02 0.11637916990E+02 0.11485767933E+02
 0.11734996527E+02 0.11338143900E+02 0.10526573577E+02 0.97171128757E+01 0.93332403880E+01
 0.96080599436E+01 0.10471171270E+02 0.11579914323E+02 0.12475102081E+02 0.12777656169E+02
 0.12333720274E+02 0.11254336378E+02 0.98462821293E+01 0.83988842078E+01 0.70460177518E+01
 0.58723328019E+01 0.49203123881E+01 0.41967572872E+01 0.36863432757E+01 0.33653545717E+01
 0.32120919521E+01 0.32135297963E+01 0.33682709619E+01 0.36858583134E+01 0.41831251889E+01
 0.48778265903E+01 0.57785628071E+01 0.68713871175E+01 0.81080026559E+01 0.94030639036E+01
 0.10623651119E+02 0.10321375232E+02 0.11251030471E+02 0.11729590756E+02 0.11735405237E+02
 0.11448668358E+02 0.11171542386E+02 0.11179701520E+02 0.11579922878E+02 0.12250634172E+02
 0.12896976154E+02 0.13188087579E+02 0.12904555354E+02 0.12028260897E+02 0.10742024191E+02
 0.93191755031E+01 0.79206771560E+01 0.66471839655E+01 0.55634081873E+01 0.46966280502E+01
 0.40450906547E+01 0.35906525140E+01 0.33104046590E+01 0.31851149538E+01 0.32043122292E+01
 0.33680790054E+01 0.36858583134E+01 0.41729369134E+01 0.48445506589E+01 0.57067726147E+01
 0.67450542217E+01 0.79149734469E+01 0.91413128387E+01 0.88106599677E+01 0.99416800932E+01
 0.10921819558E+02 0.11597406497E+02 0.11944634281E+02 0.12084291114E+02 0.12210182313E+02
 0.12475102351E+02 0.12896983898E+02 0.13338449906E+02 0.13570532665E+02 0.13384268982E+02
 0.12692110306E+02 0.11572399718E+02 0.10231888413E+02 0.88411884733E+01 0.75100568655E+01
 0.63213120081E+01 0.53234404163E+01 0.45326036729E+01 0.39418191570E+01 0.35321952670E+01
 0.32825197830E+01 0.31760328979E+01 0.32043122292E+01 0.33682709619E+01 0.36766740080E+01
 0.41428496958E+01 0.47794949553E+01 0.55908721319E+01 0.65633039375E+01 0.76579075855E+01
 0.73485518100E+01 0.84245766149E+01 0.94993232896E+01 0.10499344003E+02 0.11318682446E+02
 0.11923346680E+02 0.12375902252E+02 0.12777644659E+02 0.13188088744E+02 0.13570542030E+02
 0.13796909774E+02 0.13709042763E+02 0.13202103159E+02 0.12286180285E+02 0.11093219876E+02
 0.97739088430E+01 0.84397895414E+01 0.71860487461E+01 0.60805443717E+01 0.51596927079E+01
 0.44325237770E+01 0.38895661065E+01 0.35125674262E+01 0.32825197830E+01 0.31851149538E+01
 0.32135297963E+01 0.33688151733E+01 0.36585067408E+01 0.40938789945E+01 0.46854825235E+01
 0.54365002319E+01 0.63350255499E+01 0.60706413739E+01 0.70004362198E+01 0.79986654682E+01
 0.90150299023E+01 0.10001800304E+02 0.10903164374E+02 0.11676365257E+02 0.12333715956E+02
 0.12904547565E+02 0.13384271886E+02 0.13709052777E+02 0.13774094493E+02 0.13485921301E+02
 0.12819015595E+02 0.11843427965E+02 0.10669530102E+02 0.94006482957E+01 0.81373091119E+01
 0.69626052706E+01 0.59329917266E+01 0.50767540696E+01 0.43989250474E+01 0.38895661065E+01
 0.35321952670E+01 0.33104046590E+01 0.32120919521E+01 0.32314761187E+01 0.33693154441E+01
 0.36317679153E+01 0.40280848618E+01 0.45668959063E+01 0.52508729362E+01 0.50425077853E+01
 0.57821475272E+01 0.66283958289E+01 0.75495707792E+01 0.85072522908E+01 0.94645370019E+01
 0.10391392229E+02 0.11254348004E+02 0.12028258885E+02 0.12692101694E+02 0.13202106371E+02
 0.13485932248E+02 0.13466149714E+02 0.13100536742E+02 0.12411734699E+02 0.11462887095E+02
 0.10339173769E+02 0.91375156107E+01 0.79495822021E+01 0.68487407590E+01 0.58833405266E+01
 0.50767540696E+01 0.44325237770E+01 0.39418191570E+01 0.35906525140E+01 0.33653545717E+01
 0.32558821080E+01 0.32572383345E+01 0.33695788436E+01 0.35974528357E+01 0.39481796680E+01
 0.44289564844E+01 0.42780639903E+01 0.48207690138E+01 0.54817420498E+01 0.62473886858E+01
 0.70948957090E+01 0.79959465578E+01 0.89218714385E+01 0.98462916904E+01 0.10742033407E+02
 0.11572395531E+02 0.12286173571E+02 0.12819020981E+02 0.13100546789E+02 0.13076939144E+02
 0.12729764749E+02 0.12080210822E+02 0.11186108515E+02 0.10129706345E+02 0.90016982849E+01
 0.78860142993E+01 0.68487407590E+01 0.59329917266E+01 0.51596927079E+01 0.45326036729E+01
 0.40450906547E+01 0.36863432757E+01 0.34457125930E+01 0.33150684236E+01 0.32898446198E+01
 0.33693992083E+01 0.35567935467E+01 0.38576907709E+01 0.37607352097E+01 0.41206696130E+01
 0.45948393531E+01 0.51816478157E+01 0.58726205008E+01 0.66525908539E+01 0.75019344773E+01
 0.83988788281E+01 0.93191826129E+01 0.10231897967E+02 0.11093219203E+02 0.11843423346E+02
 0.12411737339E+02 0.12729770661E+02 0.12748700598E+02 0.12452918575E+02 0.11864935136E+02
 0.11040716603E+02 0.10058032756E+02 0.90016982849E+01 0.79495822021E+01 0.69626052706E+01
 0.60805443717E+01 0.53234404163E+01 0.46966280502E+01 0.41967572872E+01 0.38167874472E+01
 0.35491887873E+01 0.33876589626E+01 0.33280447321E+01 0.33689186826E+01 0.35118078617E+01
 0.34644289031E+01 0.36613474558E+01 0.39633581484E+01 0.43738960788E+01 0.48934613702E+01
 0.55182028204E+01 0.62397878946E+01 0.70460122514E+01 0.79206754622E+01 0.88411988220E+01
 0.97739184448E+01 0.10669528444E+02 0.11462881205E+02 0.12080210380E+02 0.12452921066E+02
 0.12533169695E+02 0.12305442301E+02 0.11790445021E+02 0.11040716603E+02 0.10129706345E+02
 0.91375156107E+01 0.81373091119E+01 0.71860487461E+01 0.63213120081E+01 0.55634081873E+01
 0.49203123881E+01 0.43928095492E+01 0.39782451474E+01 0.36725835966E+01 0.34714249032E+01
 0.33708515439E+01 0.33684877605E+01 0.33682478966E+01 0.34168312106E+01 0.35637780501E+01
 0.38122548901E+01 0.41659558820E+01 0.46274660589E+01 0.51970974841E+01 0.58723415674E+01
 0.66471846889E+01 0.75100566328E+01 0.84397934857E+01 0.94006532783E+01 0.10339174600E+02
 0.11186105516E+02 0.11864932347E+02 0.12305441436E+02 0.12458210629E+02 0.12305442301E+02
 0.11864935136E+02 0.11186108515E+02 0.10339173769E+02 0.94006482957E+01 0.84397895414E+01
 0.75100568655E+01 0.66471839655E+01 0.58723328019E+01 0.51970820542E+01 0.46274508421E+01
 0.41659398693E+01 0.38122282345E+01 0.35637399247E+01 0.34168008787E+01 0.34644275106E+01
 0.33685144765E+01 0.33709053983E+01 0.34714808559E+01 0.36726194699E+01 0.39782611346E+01
 0.43928197633E+01 0.49203241200E+01 0.55634154982E+01 0.63213089145E+01 0.71860415624E+01
 0.81373093169E+01 0.91375234806E+01 0.10129710896E+02 0.11040712516E+02 0.11790439442E+02
 0.12305441436E+02 0.12533169695E+02 0.12452918575E+02 0.12080210822E+02 0.11462887095E+02
 0.10669530102E+02 0.97739088430E+01 0.88411884733E+01 0.79206771560E+01 0.70460177518E+01
 0.62397778836E+01 0.55181772972E+01 0.48934410241E+01 0.43738915828E+01 0.39633570988E+01
 0.36613394296E+01 0.37607575294E+01 0.35118373152E+01 0.33689631724E+01 0.33281003566E+01
 0.33877120613E+01 0.35492255428E+01 0.38168027796E+01 0.41967586796E+01 0.46966276580E+01
 0.53234414840E+01 0.60805416210E+01 0.69625990800E+01 0.79495809767E+01 0.90017036024E+01
 0.10058035345E+02 0.11040712516E+02 0.11864932347E+02 0.12452921066E+02 0.12748700598E+02
 0.12729764749E+02 0.12411734699E+02 0.11843427965E+02 0.11093219876E+02 0.10231888413E+02
 0.93191755031E+01 0.83988842078E+01 0.75019387474E+01 0.66525762222E+01 0.58725949832E+01
 0.51816361676E+01 0.45948503465E+01 0.41206908775E+01 0.42781041742E+01 0.38577394471E+01
 0.35568396725E+01 0.33694407634E+01 0.32898867912E+01 0.33151100882E+01 0.34457386899E+01
 0.36863426079E+01 0.40450765376E+01 0.45325993939E+01 0.51596993552E+01 0.59329911310E+01
 0.68487289572E+01 0.78860076155E+01 0.90017036024E+01 0.10129710896E+02 0.11186105516E+02
 0.12080210380E+02 0.12729770661E+02 0.13076939144E+02 0.13100536742E+02 0.12819015595E+02
 0.12286180285E+02 0.11572399718E+02 0.10742024191E+02 0.98462821293E+01 0.89218759052E+01
 0.79959551055E+01 0.70948898600E+01 0.62473714398E+01 0.54817352736E+01 0.48207875249E+01
 0.50425322065E+01 0.44290037064E+01 0.39482351269E+01 0.35974979928E+01 0.33696057677E+01
 0.32572552054E+01 0.32558962882E+01 0.33653583481E+01 0.35906391604E+01 0.39418021926E+01
 0.44325202815E+01 0.50767579051E+01 0.58833348356E+01 0.68487289572E+01 0.79495809767E+01
 0.91375234806E+01 0.10339174600E+02 0.11462881205E+02 0.12411737339E+02 0.13100546789E+02
 0.13466149714E+02 0.13485921301E+02 0.13202103159E+02 0.12692110306E+02 0.12028260897E+02
 0.11254336378E+02 0.10391385472E+02 0.94645480528E+01 0.85072668019E+01 0.75495701557E+01
 0.66283848840E+01 0.57821472379E+01 0.60706468728E+01 0.52508904451E+01 0.45669335367E+01
 0.40281322882E+01 0.36317973082E+01 0.33693128713E+01 0.32314595208E+01 0.32120825123E+01
 0.33103965019E+01 0.35321740492E+01 0.38895410149E+01 0.43989157646E+01 0.50767579051E+01
 0.59329911310E+01 0.69625990800E+01 0.81373093169E+01 0.94006532783E+01 0.10669528444E+02
 0.11843423346E+02 0.12819020981E+02 0.13485932248E+02 0.13774094493E+02 0.13709042763E+02
 0.13384268982E+02 0.12904555354E+02 0.12333720274E+02 0.11676360515E+02 0.10903161915E+02
 0.10001807957E+02 0.90150414631E+01 0.79986730846E+01 0.70004398766E+01 0.73485632984E+01
 0.63350284559E+01 0.54365054688E+01 0.46855024973E+01 0.40939034111E+01 0.36585078007E+01
 0.33687849951E+01 0.32134925056E+01 0.31850902859E+01 0.32824980475E+01 0.35125370093E+01
 0.38895410149E+01 0.44325202815E+01 0.51596993552E+01 0.60805416210E+01 0.71860415624E+01
 0.84397934857E+01 0.97739184448E+01 0.11093219203E+02 0.12286173571E+02 0.13202106371E+02
 0.13709052777E+02 0.13796909774E+02 0.13570532665E+02 0.13188087579E+02 0.12777656169E+02
 0.12375911605E+02 0.11923344441E+02 0.11318676857E+02 0.10499346846E+02 0.94993366300E+01
 0.84245937337E+01 0.88106752835E+01 0.76579228852E+01 0.65633065602E+01 0.55908638846E+01
 0.47794901517E+01 0.41428475327E+01 0.36766529591E+01 0.33682223360E+01 0.32042584551E+01
 0.31759972717E+01 0.32824980475E+01 0.35321740492E+01 0.39418021926E+01 0.45325993939E+01
 0.53234414840E+01 0.63213089145E+01 0.75100566328E+01 0.88411988220E+01 0.10231897967E+02
 0.11572395531E+02 0.12692101694E+02 0.13384271886E+02 0.13570542030E+02 0.13338449906E+02
 0.12896976154E+02 0.12475102081E+02 0.12210192710E+02 0.12084300868E+02 0.11944636432E+02
 0.11597404643E+02 0.10921819674E+02 0.99416870239E+01 0.10321371837E+02 0.91413266737E+01
 0.79149927810E+01 0.67450547023E+01 0.57067508527E+01 0.48445262047E+01 0.41729154544E+01
 0.36858207561E+01 0.33680195761E+01 0.32042584551E+01 0.31850902859E+01 0.33103965019E+01
 0.35906391604E+01 0.40450765376E+01 0.46966276580E+01 0.55634154982E+01 0.66471846889E+01
 0.79206754622E+01 0.93191826129E+01 0.10742033407E+02 0.12028258885E+02 0.12904547565E+02
 0.13188088744E+02 0.12896983898E+02 0.12250634172E+02 0.11579914323E+02 0.11179698005E+02
 0.11171551019E+02 0.11448682506E+02 0.11735414516E+02 0.11729589120E+02 0.11251020929E+02
 0.11485756249E+02 0.10623641394E+02 0.94030720047E+01 0.81080202433E+01 0.68713859087E+01
 0.57785336320E+01 0.48777898882E+01 0.41830940914E+01 0.36858207561E+01 0.33682223360E+01
 0.32134925056E+01 0.32120825123E+01 0.33653583481E+01 0.36863426079E+01 0.41967586796E+01
 0.49203241200E+01 0.58723415674E+01 0.70460122514E+01 0.83988788281E+01 0.98462916904E+01
 0.11254348004E+02 0.12333715956E+02 0.12777644659E+02 0.12475102351E+02 0.11579922878E+02
 0.10471171270E+02 0.96080509674E+01 0.93332365248E+01 0.97171198706E+01 0.10526585175E+02
 0.11338152456E+02 0.11734995649E+02 0.11656335737E+02 0.11637905042E+02 0.10841238763E+02
 0.95843976692E+01 0.82277123369E+01 0.69361968948E+01 0.58028966829E+01 0.48777898882E+01
 0.41729154544E+01 0.36766529591E+01 0.33687849951E+01 0.32314595208E+01 0.32558962882E+01
 0.34457386899E+01 0.38168027796E+01 0.43928197633E+01 0.51970974841E+01 0.62397878946E+01
 0.75019344773E+01 0.89218714385E+01 0.10391392229E+02 0.11676365257E+02 0.12375902252E+02
 0.12210182313E+02 0.11179701520E+02 0.96080599436E+01 0.80506142156E+01 0.70860347010E+01
 0.70724271685E+01 0.79867508294E+01 0.94355911028E+01 0.10833856405E+02 0.10325574149E+02
 0.11546866811E+02 0.11724893546E+02 0.10971754522E+02 0.96772667591E+01 0.82683436761E+01
 0.69361968948E+01 0.57785336320E+01 0.48445262047E+01 0.41428475327E+01 0.36585078007E+01
 0.33693128713E+01 0.32572552054E+01 0.33151100882E+01 0.35492255428E+01 0.39782611346E+01
 0.46274660589E+01 0.55182028204E+01 0.66525908539E+01 0.79959465578E+01 0.94645370019E+01
 0.10903164374E+02 0.11923346680E+02 0.12084291114E+02 0.11171542386E+02 0.93332403880E+01
 0.70860413223E+01 0.51615190315E+01 0.42313902864E+01 0.46256646777E+01 0.61856473821E+01
 0.83340293790E+01 0.73914315958E+01 0.99162531996E+01 0.11457064451E+02 0.11763516039E+02
 0.11015266635E+02 0.96772667591E+01 0.82277123369E+01 0.68713859087E+01 0.57067508527E+01
 0.47794901517E+01 0.40939034111E+01 0.36317973082E+01 0.33696057677E+01 0.32898867912E+01
 0.33877120613E+01 0.36726194699E+01 0.41659558820E+01 0.48934613702E+01 0.58726205008E+01
 0.70948957090E+01 0.85072522908E+01 0.10001800304E+02 0.11318682446E+02 0.11944634281E+02
 0.11448668358E+02 0.97171128757E+01 0.70724317816E+01 0.42313926921E+01 0.20823982475E+01
 0.13479067630E+01 0.22805694632E+01 0.45510730583E+01 0.33102259011E+01 0.67573135895E+01
 0.96887849645E+01 0.11422920413E+02 0.11763516039E+02 0.10971754522E+02 0.95843976692E+01
 0.81080202433E+01 0.67450547023E+01 0.55908638846E+01 0.46855024973E+01 0.40281322882E+01
 0.35974979928E+01 0.33694407634E+01 0.33281003566E+01 0.34714808559E+01 0.38122548901E+01
 0.43738960788E+01 0.51816478157E+01 0.62473886858E+01 0.75495707792E+01 0.90150299023E+01
 0.10499344003E+02 0.11597406497E+02 0.11735405237E+02 0.10526573577E+02 0.79867522987E+01
 0.46256683229E+01 0.13479002305E+01 -.84051506851E+00 -.12205927466E+01 0.33606785910E+00
 -.94841709829E+00 0.26412429310E+01 0.65339783713E+01 0.96887849645E+01 0.11457064451E+02
 0.11724893546E+02 0.10841238763E+02 0.94030720047E+01 0.79149927810E+01 0.65633065602E+01
 0.54365054688E+01 0.45669335367E+01 0.39482351269E+01 0.35568396725E+01 0.33689631724E+01
 0.33709053983E+01 0.35637780501E+01 0.39633581484E+01 0.45948393531E+01 0.54817420498E+01
 0.66283958289E+01 0.79986654682E+01 0.94993232896E+01 0.10921819558E+02 0.11729590756E+02
 0.11338143900E+02 0.94355876327E+01 0.61856557663E+01 0.22805673228E+01 -.12206100427E+01
 -.32494889225E+01 -.31481753020E+01 -.41809999370E+01 -.13971270624E+01 0.26412429310E+01
 0.67573135895E+01 0.99162531996E+01 0.11546866811E+02 0.11637905042E+02 0.10623641394E+02
 0.91413266737E+01 0.76579228852E+01 0.63350284559E+01 0.52508904451E+01 0.44290037064E+01
 0.38577394471E+01 0.35118373152E+01 0.33685144765E+01 0.34168312106E+01 0.36613474558E+01
 0.41206696130E+01 0.48207690138E+01 0.57821475272E+01 0.70004362198E+01 0.84245766149E+01
 0.99416800932E+01 0.11251030471E+02 0.11734996527E+02 0.10833845155E+02 0.83340327432E+01
 0.45510889997E+01 0.33606153441E+00 -.31482013853E+01 -.48350789110E+01 -.41809030775E+01
 -.32829418664E+01 -.42461972788E+00 0.34990839111E+01 0.73538790227E+01 0.10186004961E+02
 0.11509888202E+02 0.11377242290E+02 0.10249556988E+02 0.87513175930E+01 0.72877815439E+01
 0.59997901308E+01 0.49567849048E+01 0.41753803483E+01 0.36398698493E+01 0.33236312496E+01
 0.32044122191E+01 0.32726673535E+01 0.35344543812E+01 0.40096633425E+01 0.47250629566E+01
 0.57006626167E+01 0.69292734565E+01 0.83547438618E+01 0.98577986750E+01 0.11114737790E+02
 0.11512484091E+02 0.10530229161E+02 0.80109155854E+01 0.43217459750E+01 0.33233585413E+00
 -.28291830540E+01 -.32829689589E+01 -.41810189862E+01 -.28292555618E+01 0.33235555040E+00
 0.43217716464E+01 0.80108776069E+01 0.10530182971E+02 0.11512511792E+02 0.11114808944E+02
 0.98578134019E+01 0.83546876907E+01 0.69292379680E+01 0.57007011201E+01 0.47251109449E+01
 0.40096468539E+01 0.35344084146E+01 0.32726735047E+01 0.32044600934E+01 0.33236332007E+01
 0.36398071897E+01 0.41753402196E+01 0.49568232699E+01 0.59998431665E+01 0.72877708006E+01
 0.87512752082E+01 0.10249563662E+02 0.11377283229E+02 0.11509873307E+02 0.10185927715E+02
 0.73538484277E+01 0.34991598893E+01 -.42453334462E+00 -.34211525812E+00 -.27395544567E+01
 -.31481075052E+01 -.14405903882E+01 0.18212855603E+01 0.56252810085E+01 0.89107920241E+01
 0.10937569417E+02 0.11475783977E+02 0.10781841358E+02 0.94129407479E+01 0.79252803561E+01
 0.65527219560E+01 0.53956393334E+01 0.44956207006E+01 0.38508655866E+01 0.34381295370E+01
 0.32313881725E+01 0.32135982137E+01 0.33823146379E+01 0.37503277906E+01 0.43415760650E+01
 0.51815429779E+01 0.62808552437E+01 0.76137956372E+01 0.90998393059E+01 0.10575503174E+02
 0.11580808241E+02 0.11514416923E+02 0.99894941110E+01 0.70544739301E+01 0.32823850511E+01
 0.37072701597E+01 0.57023267347E+00 -.12716975323E+01 -.12206603192E+01 0.69542343489E+00
 0.38356162593E+01 0.72173263756E+01 0.99016341858E+01 0.11309638923E+02 0.11354095556E+02
 0.10374112052E+02 0.89334035138E+01 0.74785472855E+01 0.61724536287E+01 0.50963621964E+01
 0.42770819540E+01 0.37047808177E+01 0.33542245096E+01 0.32010752974E+01 0.32315081980E+01
 0.34464950784E+01 0.38615059207E+01 0.45014213236E+01 0.53897958350E+01 0.65317480037E+01
 0.78932832401E+01 0.93856977452E+01 0.10827275731E+02 0.11737180128E+02 0.11561356561E+02
 0.99940416718E+01 0.71687167986E+01 0.76845050770E+01 0.47148485972E+01 0.21877217237E+01
 0.92476490433E+00 0.13478961944E+01 0.32978136481E+01 0.61047540006E+01 0.88719384867E+01
 0.10823153445E+02 0.11555969624E+02 0.11116248166E+02 0.99003418682E+01 0.84361254586E+01
 0.70303962858E+01 0.58025415443E+01 0.48136819138E+01 0.40769258804E+01 0.35762029489E+01
 0.32855183528E+01 0.31826870760E+01 0.32572326930E+01 0.35134490527E+01 0.39688904838E+01
 0.46482999883E+01 0.55723846515E+01 0.67408732740E+01 0.81131941975E+01 0.95958067886E+01
 0.10998668642E+02 0.11852254905E+02 0.11665159760E+02 0.10210761557E+02 0.10606562503E+02
 0.85233703856E+01 0.61616911492E+01 0.42923457340E+01 0.35645437115E+01 0.42313463908E+01
 0.60392275689E+01 0.83412655788E+01 0.10371189119E+02 0.11538136655E+02 0.11613700795E+02
 0.10755355658E+02 0.93857948462E+01 0.79379355206E+01 0.65968586077E+01 0.54559504085E+01
 0.45571241022E+01 0.39017453297E+01 0.34692296696E+01 0.32339330564E+01 0.31764545706E+01
 0.32897388268E+01 0.35807796817E+01 0.40681922753E+01 0.47757040923E+01 0.57207985125E+01
 0.68982388723E+01 0.82626604847E+01 0.97192466917E+01 0.11083384677E+02 0.11923053116E+02
 0.11816470754E+02 0.11983020769E+02 0.11110299077E+02 0.95555741384E+01 0.78455670303E+01
 0.66095160344E+01 0.63202076030E+01 0.70859552240E+01 0.86026472603E+01 0.10290892738E+02
 0.11543111444E+02 0.11957538033E+02 0.11461824963E+02 0.10294325748E+02 0.88640156631E+01
 0.74567903259E+01 0.61935202387E+01 0.51446998696E+01 0.43350554091E+01 0.37567644499E+01
 0.33867830230E+01 0.32008931388E+01 0.31826431966E+01 0.33279796904E+01 0.36459092501E+01
 0.41553057516E+01 0.48780682170E+01 0.58280387168E+01 0.69957531501E+01 0.83334543911E+01
 0.97487449639E+01 0.11075302951E+02 0.11937360602E+02 0.11876307962E+02 0.12117249817E+02
 0.11627161076E+02 0.10623124716E+02 0.95397264505E+01 0.88547972841E+01 0.88780814613E+01
 0.96080233386E+01 0.10732750604E+02 0.11772948818E+02 0.12289556204E+02 0.12055897993E+02
 0.11125663523E+02 0.97828309870E+01 0.83583466773E+01 0.70114991055E+01 0.58351737451E+01
 0.48790704486E+01 0.41540588177E+01 0.36460816216E+01 0.33312790767E+01 0.31874231280E+01
 0.32010404475E+01 0.33706992016E+01 0.37065745351E+01 0.42267622787E+01 0.49506577181E+01
 0.58886127788E+01 0.70281440500E+01 0.83213920506E+01 0.96814713661E+01 0.10968693127E+02
 0.10760943421E+02 0.11720068438E+02 0.12166474165E+02 0.12056476389E+02 0.11568495759E+02
 0.11032968497E+02 0.10781800175E+02 0.10988129912E+02 0.11579839791E+02 0.12272925192E+02
 0.12704858504E+02 0.12597360273E+02 0.11871573553E+02 0.10670587608E+02 0.92774241695E+01
 0.78915845684E+01 0.66200801275E+01 0.55345348523E+01 0.46674311169E+01 0.40194235952E+01
 0.35727752935E+01 0.33041851920E+01 0.31939324246E+01 0.32313069294E+01 0.34166962503E+01
 0.37604997202E+01 0.42793775544E+01 0.49899684720E+01 0.58994075155E+01 0.69933854762E+01
 0.82262279788E+01 0.95192894778E+01 0.92690314637E+01 0.10454834965E+02 0.11453663798E+02
 0.12085387128E+02 0.12312642584E+02 0.12263503118E+02 0.12164481442E+02 0.12219793952E+02
 0.12499407315E+02 0.12896968520E+02 0.13180129260E+02 0.13104505430E+02 0.12531547839E+02
 0.11494728272E+02 0.10186132145E+02 0.88109556320E+01 0.74858903511E+01 0.62984208078E+01
 0.53020671101E+01 0.45161601691E+01 0.39347480228E+01 0.35387359688E+01 0.33063705317E+01
 0.32204762833E+01 0.32726197670E+01 0.34643145215E+01 0.38054784273E+01 0.43107731112E+01
 0.49939326089E+01 0.58594969587E+01 0.68928076487E+01 0.80522627865E+01 0.78075840482E+01
 0.89413667672E+01 0.10061361596E+02 0.11074187785E+02 0.11848042129E+02 0.12342074920E+02
 0.12631135569E+02 0.12848361531E+02 0.13095748687E+02 0.13373745564E+02 0.13570516037E+02
 0.13516622277E+02 0.13074383132E+02 0.12214930373E+02 0.11045268539E+02 0.97378544762E+01
 0.84109146816E+01 0.71609636569E+01 0.60592839028E+01 0.51453122735E+01 0.44294851288E+01
 0.39023366794E+01 0.35450096548E+01 0.33378721571E+01 0.32662841031E+01 0.33236171108E+01
 0.35117471465E+01 0.38394504095E+01 0.43191739429E+01 0.49620410987E+01 0.57707292650E+01
 0.67313326971E+01 0.65166552976E+01 0.75036332061E+01 0.85507375747E+01 0.96004801100E+01
 0.10595000787E+02 0.11455603447E+02 0.12134609055E+02 0.12657896142E+02 0.13082214099E+02
 0.13435098592E+02 0.13676892685E+02 0.13709066754E+02 0.13424617295E+02 0.12772134791E+02
 0.11798583199E+02 0.10625897899E+02 0.93605065200E+01 0.81012276417E+01 0.69321756741E+01
 0.59116792231E+01 0.50692297209E+01 0.44099268906E+01 0.39231359976E+01 0.35914873734E+01
 0.33978848344E+01 0.33299875656E+01 0.33823935839E+01 0.35568176304E+01 0.38606201791E+01
 0.43039913867E+01 0.48957027125E+01 0.56372930746E+01 0.54656986657E+01 0.62592396249E+01
 0.71544680041E+01 0.81139679024E+01 0.90928259633E+01 0.10047683011E+02 0.10939660038E+02
 0.11725632435E+02 0.12391981046E+02 0.12938987450E+02 0.13345304766E+02 0.13553091259E+02
 0.13485938913E+02 0.13090166321E+02 0.12375417472E+02 0.11412004531E+02 0.10283101023E+02
 0.90823167520E+01 0.79001645154E+01 0.68102108812E+01 0.58611982649E+01 0.50763059655E+01
 0.44582005400E+01 0.39968513729E+01 0.36771608647E+01 0.34847315685E+01 0.34093669448E+01
 0.34465691717E+01 0.35975036733E+01 0.38678526394E+01 0.42656597911E+01 0.47978980038E+01
 0.46735041497E+01 0.52642572712E+01 0.59709694009E+01 0.67755734108E+01 0.76499081469E+01
 0.85600320901E+01 0.94723410662E+01 0.10357635167E+02 0.11188418788E+02 0.11930382862E+02
 0.12546312533E+02 0.12986579150E+02 0.13189219843E+02 0.13100564319E+02 0.12703866844E+02
 0.12022313506E+02 0.11110889052E+02 0.10048715509E+02 0.89241547567E+01 0.78198069981E+01
 0.68010119626E+01 0.59101150478E+01 0.51668837114E+01 0.45735590446E+01 0.41219154352E+01
 0.37998141845E+01 0.35958208269E+01 0.35017360717E+01 0.35136203121E+01 0.36318826717E+01
 0.38606120400E+01 0.42059820659E+01 0.41279038963E+01 0.45283413695E+01 0.50422251102E+01
 0.56648497995E+01 0.63835586578E+01 0.71784040485E+01 0.80250644358E+01 0.88981426867E+01
 0.97720638309E+01 0.10617812100E+02 0.11396914336E+02 0.12057461685E+02 0.12537335704E+02
 0.12775883248E+02 0.12729780560E+02 0.12386128913E+02 0.11767618815E+02 0.10928681578E+02
 0.99448040136E+01 0.88985380492E+01 0.78658838401E+01 0.69062413969E+01 0.60579062445E+01
 0.53391921458E+01 0.47534394271E+01 0.42953121121E+01 0.39562060054E+01 0.37277885622E+01
 0.36038170756E+01 0.35808814008E+01 0.36586099264E+01 0.38394727831E+01 0.38054910519E+01
 0.40350968927E+01 0.43692183815E+01 0.48096320197E+01 0.53539933286E+01 0.59946671448E+01
 0.67191239622E+01 0.75113133404E+01 0.83525053543E+01 0.92198774667E+01 0.10082364020E+02
 0.10895899200E+02 0.11602308220E+02 0.12135293528E+02 0.12433048379E+02 0.12452926049E+02
 0.12182457146E+02 0.11643093988E+02 0.10886141700E+02 0.99825752473E+01 0.90097058553E+01
 0.80382927479E+01 0.71234143265E+01 0.63009119255E+01 0.55890636142E+01 0.49934525520E+01
 0.45124953039E+01 0.41417502276E+01 0.38763662107E+01 0.37121343451E+01 0.36460316595E+01
 0.36768118387E+01 0.36859447950E+01 0.37605395524E+01 0.39320011429E+01 0.42030918399E+01
 0.45760482566E+01 0.50508770851E+01 0.56244935295E+01 0.62907806405E+01 0.70406772192E+01
 0.78609754939E+01 0.87310366146E+01 0.96181333342E+01 0.10473991169E+02 0.11235907320E+02
 0.11834339061E+02 0.12205590828E+02 0.12305453880E+02 0.12119218460E+02 0.11665135572E+02
 0.10990633699E+02 0.10162485374E+02 0.92536808494E+01 0.83308165063E+01 0.74455897255E+01
 0.66321683668E+01 0.59096289065E+01 0.52868403649E+01 0.47670501511E+01 0.43507193600E+01
 0.40367259930E+01 0.38228850442E+01 0.37066123782E+01 0.37605048090E+01 0.36859810375E+01
 0.37066590037E+01 0.38228648337E+01 0.40366670925E+01 0.43507100748E+01 0.47671006149E+01
 0.52868758240E+01 0.59096134184E+01 0.66321489821E+01 0.74456045903E+01 0.83308365142E+01
 0.92536721039E+01 0.10162467953E+02 0.10990640256E+02 0.11665154837E+02 0.12119218125E+02
 0.12305432607E+02 0.12205574695E+02 0.11834340891E+02 0.11235914422E+02 0.10473988763E+02
 0.96181249627E+01 0.87310374384E+01 0.78609869159E+01 0.70406769149E+01 0.62907534690E+01
 0.56244655836E+01 0.50508858665E+01 0.45760766010E+01 0.42030795827E+01 0.39319410722E+01
 0.40351243688E+01 0.38054621021E+01 0.36767475199E+01 0.36459870066E+01 0.37121275605E+01
 0.38763739021E+01 0.41417494827E+01 0.45124880524E+01 0.49934540468E+01 0.55890773222E+01
 0.63009213018E+01 0.71234061681E+01 0.80382819089E+01 0.90097154288E+01 0.99825951210E+01
 0.10886139193E+02 0.11643068614E+02 0.12182443411E+02 0.12452931345E+02 0.12433037424E+02
 0.12135256039E+02 0.11602288240E+02 0.10895922162E+02 0.10082387421E+02 0.92198613438E+01
 0.83524829583E+01 0.75113317317E+01 0.67191543417E+01 0.59946463340E+01 0.53539315261E+01