   2   2   0   0
  0.2001288E+02  0.3839590E-09  0.3839590E-09  0.3839590E-09  0.5000000E-15
  1.000000000000000E-004
  CAR 
 unknown system                          
     17.03304697     -8.19597689  301      5.92013362      1.00000000
     -8.196  0.0000E+00  0.0000E+00
     -8.112  0.0000E+00  0.0000E+00
     -8.028  0.0000E+00  0.0000E+00
     -7.944  0.0000E+00  0.0000E+00
     -7.860  0.0000E+00  0.0000E+00
     -7.775  0.0000E+00  0.0000E+00
     -7.691  0.0000E+00  0.0000E+00
     -7.607  0.0000E+00  0.0000E+00
     -7.523  0.0000E+00  0.0000E+00
     -7.439  0.0000E+00  0.0000E+00
     -7.355  0.2415E-18  0.2031E-19
     -7.271  0.3175E-16  0.2691E-17
     -7.187  0.2633E-14  0.2241E-15
     -7.103  0.1543E-12  0.1320E-13
     -7.019  0.6395E-11  0.5510E-12
     -6.935  0.1876E-09  0.1633E-10
     -6.850  0.3911E-08  0.3452E-09
     -6.766  0.5819E-07  0.5239E-08
     -6.682  0.6238E-06  0.5770E-07
     -6.598  0.4892E-05  0.4691E-06
     -6.514  0.2876E-04  0.2888E-05
     -6.430  0.1307E-03  0.1388E-04
     -6.346  0.4724E-03  0.5361E-04
     -6.262  0.1371E-02  0.1689E-03
     -6.178  0.3160E-02  0.4347E-03
     -6.094  0.5710E-02  0.9148E-03
     -6.009  0.8184E-02  0.1603E-02
     -5.925  0.9996E-02  0.2444E-02
     -5.841  0.1191E-01  0.3446E-02
     -5.757  0.1507E-01  0.4713E-02
     -5.673  0.1878E-01  0.6293E-02
     -5.589  0.2050E-01  0.8016E-02
     -5.505  0.1895E-01  0.9610E-02
     -5.421  0.1678E-01  0.1102E-01
     -5.337  0.1814E-01  0.1255E-01
     -5.253  0.2361E-01  0.1453E-01
     -5.168  0.2914E-01  0.1698E-01
     -5.084  0.3107E-01  0.1960E-01
     -5.000  0.3014E-01  0.2213E-01
     -4.916  0.2893E-01  0.2456E-01
     -4.832  0.2779E-01  0.2690E-01
     -4.748  0.2599E-01  0.2909E-01
     -4.664  0.2541E-01  0.3122E-01
     -4.580  0.2979E-01  0.3373E-01
     -4.496  0.3892E-01  0.3700E-01
     -4.412  0.4645E-01  0.4091E-01
     -4.328  0.4743E-01  0.4490E-01
     -4.243  0.4484E-01  0.4867E-01
     -4.159  0.4355E-01  0.5233E-01
     -4.075  0.4281E-01  0.5593E-01
     -3.991  0.4073E-01  0.5935E-01
     -3.907  0.4092E-01  0.6279E-01
     -3.823  0.4848E-01  0.6687E-01
     -3.739  0.6110E-01  0.7201E-01
     -3.655  0.6905E-01  0.7782E-01
     -3.571  0.6608E-01  0.8337E-01
     -3.487  0.5700E-01  0.8817E-01
     -3.402  0.4996E-01  0.9237E-01
     -3.318  0.4493E-01  0.9615E-01
     -3.234  0.3808E-01  0.9935E-01
     -3.150  0.3272E-01  0.1021E+00
     -3.066  0.3529E-01  0.1051E+00
     -2.982  0.4408E-01  0.1088E+00
     -2.898  0.5011E-01  0.1130E+00
     -2.814  0.4742E-01  0.1170E+00
     -2.730  0.3797E-01  0.1202E+00
     -2.646  0.2799E-01  0.1225E+00
     -2.561  0.2179E-01  0.1244E+00
     -2.477  0.1939E-01  0.1260E+00
     -2.393  0.1914E-01  0.1276E+00
     -2.309  0.1969E-01  0.1293E+00
     -2.225  0.1948E-01  0.1309E+00
     -2.141  0.1755E-01  0.1324E+00
     -2.057  0.1464E-01  0.1336E+00
     -1.973  0.1213E-01  0.1346E+00
     -1.889  0.1112E-01  0.1356E+00
     -1.805  0.1207E-01  0.1366E+00
     -1.721  0.1387E-01  0.1377E+00
     -1.636  0.1490E-01  0.1390E+00
     -1.552  0.1644E-01  0.1404E+00
     -1.468  0.2251E-01  0.1423E+00
     -1.384  0.3554E-01  0.1453E+00
     -1.300  0.5366E-01  0.1498E+00
     -1.216  0.7110E-01  0.1557E+00
     -1.132  0.8036E-01  0.1625E+00
     -1.048  0.7767E-01  0.1690E+00
     -0.964  0.6780E-01  0.1747E+00
     -0.880  0.5953E-01  0.1797E+00
     -0.795  0.5622E-01  0.1845E+00
     -0.711  0.5486E-01  0.1891E+00
     -0.627  0.5268E-01  0.1935E+00
     -0.543  0.5007E-01  0.1977E+00
     -0.459  0.4786E-01  0.2018E+00
     -0.375  0.4527E-01  0.2056E+00
     -0.291  0.4165E-01  0.2091E+00
     -0.207  0.3775E-01  0.2122E+00
     -0.123  0.3308E-01  0.2150E+00
     -0.039  0.2574E-01  0.2172E+00
      0.046  0.1719E-01  0.2186E+00
      0.130  0.1319E-01  0.2197E+00
      0.214  0.1825E-01  0.2213E+00
      0.298  0.3022E-01  0.2238E+00
      0.382  0.3996E-01  0.2272E+00
      0.466  0.3927E-01  0.2305E+00
      0.550  0.2981E-01  0.2330E+00
      0.634  0.2000E-01  0.2347E+00
      0.718  0.1475E-01  0.2359E+00
      0.802  0.1341E-01  0.2370E+00
      0.886  0.1404E-01  0.2382E+00
      0.971  0.1494E-01  0.2395E+00
      1.055  0.1497E-01  0.2407E+00
      1.139  0.1531E-01  0.2420E+00
      1.223  0.1820E-01  0.2435E+00
      1.307  0.2384E-01  0.2456E+00
      1.391  0.3254E-01  0.2483E+00
      1.475  0.4761E-01  0.2523E+00
      1.559  0.6856E-01  0.2581E+00
      1.643  0.8506E-01  0.2652E+00
      1.727  0.8731E-01  0.2726E+00
      1.812  0.7891E-01  0.2792E+00
      1.896  0.7015E-01  0.2851E+00
      1.980  0.6397E-01  0.2905E+00
      2.064  0.5789E-01  0.2953E+00
      2.148  0.5360E-01  0.2998E+00
      2.232  0.5523E-01  0.3045E+00
      2.316  0.6282E-01  0.3098E+00
      2.400  0.7476E-01  0.3161E+00
      2.484  0.9071E-01  0.3237E+00
      2.568  0.1059E+00  0.3326E+00
      2.653  0.1102E+00  0.3419E+00
      2.737  0.1003E+00  0.3503E+00
      2.821  0.8545E-01  0.3575E+00
      2.905  0.7758E-01  0.3640E+00
      2.989  0.7950E-01  0.3707E+00
      3.073  0.8589E-01  0.3779E+00
      3.157  0.9147E-01  0.3856E+00
      3.241  0.9537E-01  0.3936E+00
      3.325  0.9837E-01  0.4019E+00
      3.409  0.1003E+00  0.4103E+00
      3.493  0.1021E+00  0.4189E+00
      3.578  0.1048E+00  0.4277E+00
      3.662  0.1048E+00  0.4365E+00
      3.746  0.9534E-01  0.4446E+00
      3.830  0.7726E-01  0.4511E+00
      3.914  0.6414E-01  0.4565E+00
      3.998  0.6732E-01  0.4621E+00
      4.082  0.8078E-01  0.4689E+00
      4.166  0.8835E-01  0.4763E+00
      4.250  0.8295E-01  0.4833E+00
      4.334  0.7253E-01  0.4894E+00
      4.419  0.6842E-01  0.4952E+00
      4.503  0.7163E-01  0.5012E+00
      4.587  0.7210E-01  0.5073E+00
      4.671  0.6152E-01  0.5124E+00
      4.755  0.4383E-01  0.5161E+00
      4.839  0.3042E-01  0.5187E+00
      4.923  0.2688E-01  0.5209E+00
      5.007  0.2782E-01  0.5233E+00
      5.091  0.2533E-01  0.5254E+00
      5.175  0.1899E-01  0.5270E+00
      5.260  0.1437E-01  0.5282E+00
      5.344  0.1419E-01  0.5294E+00
      5.428  0.1522E-01  0.5307E+00
      5.512  0.1351E-01  0.5318E+00
      5.596  0.9250E-02  0.5326E+00
      5.680  0.5048E-02  0.5330E+00
      5.764  0.2349E-02  0.5332E+00
      5.848  0.9808E-03  0.5333E+00
      5.932  0.4643E-03  0.5333E+00
      6.016  0.6243E-03  0.5334E+00
      6.100  0.1569E-02  0.5335E+00
      6.185  0.3455E-02  0.5338E+00
      6.269  0.6239E-02  0.5343E+00
      6.353  0.9774E-02  0.5352E+00
      6.437  0.1398E-01  0.5363E+00
      6.521  0.1859E-01  0.5379E+00
      6.605  0.2264E-01  0.5398E+00
      6.689  0.2485E-01  0.5419E+00
      6.773  0.2482E-01  0.5440E+00
      6.857  0.2358E-01  0.5460E+00
      6.941  0.2317E-01  0.5479E+00
      7.026  0.2631E-01  0.5501E+00
      7.110  0.3468E-01  0.5530E+00
      7.194  0.4674E-01  0.5570E+00
      7.278  0.5798E-01  0.5618E+00
      7.362  0.6397E-01  0.5672E+00
      7.446  0.6497E-01  0.5727E+00
      7.530  0.6706E-01  0.5783E+00
      7.614  0.7704E-01  0.5848E+00
      7.698  0.9540E-01  0.5928E+00
      7.782  0.1141E+00  0.6024E+00
      7.867  0.1220E+00  0.6127E+00
      7.951  0.1140E+00  0.6223E+00
      8.035  0.9633E-01  0.6304E+00
      8.119  0.8027E-01  0.6371E+00
      8.203  0.7319E-01  0.6433E+00
      8.287  0.7623E-01  0.6497E+00
      8.371  0.8552E-01  0.6569E+00
      8.455  0.9278E-01  0.6647E+00
      8.539  0.9080E-01  0.6723E+00
      8.623  0.8128E-01  0.6792E+00
      8.707  0.7308E-01  0.6853E+00
      8.792  0.7256E-01  0.6914E+00
      8.876  0.8010E-01  0.6981E+00
      8.960  0.9532E-01  0.7062E+00
      9.044  0.1167E+00  0.7160E+00
      9.128  0.1366E+00  0.7275E+00
      9.212  0.1456E+00  0.7397E+00
      9.296  0.1426E+00  0.7517E+00
      9.380  0.1332E+00  0.7629E+00
      9.464  0.1223E+00  0.7732E+00
      9.548  0.1111E+00  0.7825E+00
      9.633  0.9849E-01  0.7908E+00
      9.717  0.8583E-01  0.7980E+00
      9.801  0.7594E-01  0.8044E+00
      9.885  0.7037E-01  0.8103E+00
      9.969  0.6895E-01  0.8161E+00
     10.053  0.6993E-01  0.8220E+00
     10.137  0.7000E-01  0.8279E+00
     10.221  0.6815E-01  0.8336E+00
     10.305  0.6946E-01  0.8395E+00
     10.389  0.8065E-01  0.8463E+00
     10.474  0.9948E-01  0.8546E+00
     10.558  0.1123E+00  0.8641E+00
     10.642  0.1077E+00  0.8731E+00
     10.726  0.9213E-01  0.8809E+00
     10.810  0.8426E-01  0.8880E+00
     10.894  0.9242E-01  0.8957E+00
     10.978  0.1055E+00  0.9046E+00
     11.062  0.1061E+00  0.9135E+00
     11.146  0.8904E-01  0.9210E+00
     11.230  0.6517E-01  0.9265E+00
     11.314  0.4843E-01  0.9306E+00
     11.399  0.4282E-01  0.9342E+00
     11.483  0.4440E-01  0.9379E+00
     11.567  0.4931E-01  0.9420E+00
     11.651  0.5418E-01  0.9466E+00
     11.735  0.5448E-01  0.9512E+00
     11.819  0.4969E-01  0.9554E+00
     11.903  0.4621E-01  0.9592E+00
     11.987  0.5044E-01  0.9635E+00
     12.071  0.6159E-01  0.9687E+00
     12.155  0.7168E-01  0.9747E+00
     12.240  0.7269E-01  0.9808E+00
     12.324  0.6506E-01  0.9863E+00
     12.408  0.5652E-01  0.9910E+00
     12.492  0.5258E-01  0.9955E+00
     12.576  0.5398E-01  0.1000E+01
     12.660  0.6087E-01  0.1005E+01
     12.744  0.7114E-01  0.1011E+01
     12.828  0.7783E-01  0.1018E+01
     12.912  0.7659E-01  0.1024E+01
     12.996  0.7168E-01  0.1030E+01
     13.080  0.6788E-01  0.1036E+01
     13.165  0.6205E-01  0.1041E+01
     13.249  0.4950E-01  0.1045E+01
     13.333  0.3327E-01  0.1048E+01
     13.417  0.2006E-01  0.1050E+01
     13.501  0.1254E-01  0.1051E+01
     13.585  0.9981E-02  0.1052E+01
     13.669  0.1093E-01  0.1052E+01
     13.753  0.1257E-01  0.1054E+01
     13.837  0.1171E-01  0.1055E+01
     13.921  0.8009E-02  0.1055E+01
     14.006  0.3919E-02  0.1056E+01
     14.090  0.1368E-02  0.1056E+01
     14.174  0.3798E-03  0.1056E+01
     14.258  0.3270E-03  0.1056E+01
     14.342  0.1184E-02  0.1056E+01
     14.426  0.3712E-02  0.1056E+01
     14.510  0.8515E-02  0.1057E+01
     14.594  0.1447E-01  0.1058E+01
     14.678  0.1879E-01  0.1060E+01
     14.762  0.1965E-01  0.1061E+01
     14.847  0.1781E-01  0.1063E+01
     14.931  0.1505E-01  0.1064E+01
     15.015  0.1219E-01  0.1065E+01
     15.099  0.9049E-02  0.1066E+01
     15.183  0.5655E-02  0.1066E+01
     15.267  0.2765E-02  0.1067E+01
     15.351  0.1010E-02  0.1067E+01
     15.435  0.2683E-03  0.1067E+01
     15.519  0.5119E-04  0.1067E+01
     15.603  0.6961E-05  0.1067E+01
     15.687  0.6723E-06  0.1067E+01
     15.772  0.4602E-07  0.1067E+01
     15.856  0.2229E-08  0.1067E+01
     15.940  0.7634E-10  0.1067E+01
     16.024  0.1847E-11  0.1067E+01
     16.108  0.3155E-13  0.1067E+01
     16.192  0.3796E-15  0.1067E+01
     16.276  0.2898E-17  0.1067E+01
     16.360  0.0000E+00  0.1067E+01
     16.444  0.0000E+00  0.1067E+01
     16.528  0.0000E+00  0.1067E+01
     16.613  0.0000E+00  0.1067E+01
     16.697  0.0000E+00  0.1067E+01
     16.781  0.0000E+00  0.1067E+01
     16.865  0.0000E+00  0.1067E+01
     16.949  0.0000E+00  0.1067E+01
     17.033  0.0000E+00  0.1067E+01
