       N       E                     dE             d eps       ncg     rms          rms(c)
DAV:   1    -0.999180299350E+01   -0.99918E+01   -0.58482E-05    48   0.509E-02    0.472E-03
DAV:   2    -0.999180247287E+01    0.52063E-06   -0.26489E-06    48   0.127E-02
   1 F= -.99918025E+01 E0= -.99784163E+01  d E =-.999180E+01
