    2    2   15    1
  0.2001288E+02  0.3839590E-09  0.3839590E-09  0.3839590E-09  0.5000000E-15
  1.000000000000000E-004
  CAR 
 unknown system                          
      8      2      8
 
  0.2500000E+00  0.2500000E+00  0.2500000E+00  0.2500000E+00
    1       -5.397019   1.000000
    2        1.733549   1.000000
    3        4.873775   1.000000
    4        4.873775   1.000000
    5        7.563232   0.000000
    6        9.097666   0.000000
    7        9.097666   0.000000
    8       12.345562   0.000000
 
 -0.2500000E+00  0.2500000E+00  0.2500000E+00  0.7500000E+00
    1       -3.522752   1.000000
    2       -0.700567   1.000000
    3        2.158970   1.000000
    4        3.459257   1.000000
    5        7.156445   0.000000
    6       10.046176   0.000000
    7       11.250121   0.000000
    8       11.487829   0.000000
