<?xml version="1.0" encoding="ISO-8859-1"?>
<modeling>
 <generator>
  <i name="program" type="string">vasp </i>
  <i name="version" type="string">5.4.4.18Apr17-6-g9f103f2a35  </i>
  <i name="subversion" type="string">(build Dec 09 2018 21:25:21) complex            parallel </i>
  <i name="platform" type="string">IFC18.0.1.163_CrayMPICH7.7.0_MKL18.0.1.163 </i>
  <i name="date" type="string">2019 03 20 </i>
  <i name="time" type="string">09:57:33 </i>
 </generator>
 <incar>
  <i type="string" name="PREC">normal</i>
  <i type="int" name="IBRION">     2</i>
  <i name="EDIFF">      0.00040000</i>
  <i name="EDIFFG">     -0.01000000</i>
  <i type="int" name="NSW">    15</i>
  <i type="int" name="ISIF">     3</i>
  <i name="ENCUT">    300.00000000</i>
  <i type="int" name="NBANDS">     8</i>
  <i type="logical" name="LREAL"> F  </i>
  <i type="int" name="ISMEAR">     0</i>
  <i name="SIGMA">      0.20000000</i>
  <v type="int" name="KPOINT_BSE">    -1     0     0     0</v>
 </incar>
 <structure name="primitive_cell" >
  <crystal>
   <varray name="basis" >
    <v>       0.00000000       2.71500000       2.71500000 </v>
    <v>       2.71500000       0.00000000       2.71500000 </v>
    <v>       2.71500000       2.71500000       0.00000000 </v>
   </varray>
   <i name="volume">     40.02575175 </i>
   <varray name="rec_basis" >
    <v>      -0.18416206       0.18416206       0.18416206 </v>
    <v>       0.18416206      -0.18416206       0.18416206 </v>
    <v>       0.18416206       0.18416206      -0.18416206 </v>
   </varray>
  </crystal>
  <varray name="positions" >
   <v>      -0.50000000      -0.50000000      -0.50000000 </v>
   <v>      -0.25000000      -0.25000000      -0.25000000 </v>
  </varray>
 </structure>
 <varray name="primitive_index" >
  <v type="int" >        1 </v>
  <v type="int" >        2 </v>
 </varray>
 <kpoints>
  <generation param="Monkhorst-Pack">
   <v type="int" name="divisions">       2        2        2 </v>
   <v name="usershift">      0.00000000       0.00000000       0.00000000 </v>
   <v name="genvec1">      0.50000000       0.00000000      -0.00000000 </v>
   <v name="genvec2">      0.00000000       0.50000000       0.00000000 </v>
   <v name="genvec3">     -0.00000000      -0.00000000       0.50000000 </v>
   <v name="shift">      0.50000000       0.50000000       0.50000000 </v>
  </generation>
  <varray name="kpointlist" >
   <v>       0.25000000       0.25000000       0.25000000 </v>
   <v>      -0.25000000       0.25000000       0.25000000 </v>
  </varray>
  <varray name="weights" >
   <v>       0.25000000 </v>
   <v>       0.75000000 </v>
  </varray>
 </kpoints>
 <parameters>
  <separator name="general" >
   <i type="string" name="SYSTEM">unknown system</i>
   <i type="logical" name="LCOMPAT"> F  </i>
  </separator>
  <separator name="electronic" >
   <i type="string" name="PREC">normal</i>
   <i name="ENMAX">    300.00000000</i>
   <i name="ENAUG">    322.06900000</i>
   <i name="EDIFF">      0.00040000</i>
   <i type="int" name="IALGO">    38</i>
   <i type="int" name="IWAVPR">    11</i>
   <i type="int" name="NBANDS">     8</i>
   <i name="NELECT">      8.00000000</i>
   <i type="int" name="TURBO">     0</i>
   <i type="int" name="IRESTART">     0</i>
   <i type="int" name="NREBOOT">     0</i>
   <i type="int" name="NMIN">     0</i>
   <i name="EREF">      0.00000000</i>
   <separator name="electronic smearing" >
    <i type="int" name="ISMEAR">     0</i>
    <i name="SIGMA">      0.20000000</i>
    <i name="KSPACING">      0.50000000</i>
    <i type="logical" name="KGAMMA"> T  </i>
   </separator>
   <separator name="electronic projectors" >
    <i type="logical" name="LREAL"> F  </i>
    <v name="ROPT">      0.00000000</v>
    <i type="int" name="LMAXPAW">  -100</i>
    <i type="int" name="LMAXMIX">     2</i>
    <i type="logical" name="NLSPLINE"> F  </i>
   </separator>
   <separator name="electronic startup" >
    <i type="int" name="ISTART">     0</i>
    <i type="int" name="ICHARG">     2</i>
    <i type="int" name="INIWAV">     1</i>
   </separator>
   <separator name="electronic spin" >
    <i type="int" name="ISPIN">     1</i>
    <i type="logical" name="LNONCOLLINEAR"> F  </i>
    <v name="MAGMOM">      1.00000000      1.00000000</v>
    <i name="NUPDOWN">     -1.00000000</i>
    <i type="logical" name="LSORBIT"> F  </i>
    <v name="SAXIS">      0.00000000      0.00000000      1.00000000</v>
    <i type="logical" name="LSPIRAL"> F  </i>
    <v name="QSPIRAL">      0.00000000      0.00000000      0.00000000</v>
    <i type="logical" name="LZEROZ"> F  </i>
   </separator>
   <separator name="electronic exchange-correlation" >
    <i type="logical" name="LASPH"> F  </i>
    <i type="logical" name="LMETAGGA"> F  </i>
   </separator>
   <separator name="electronic convergence" >
    <i type="int" name="NELM">    60</i>
    <i type="int" name="NELMDL">    -5</i>
    <i type="int" name="NELMIN">     2</i>
    <i name="ENINI">    300.00000000</i>
    <separator name="electronic convergence detail" >
     <i type="logical" name="LDIAG"> T  </i>
     <i type="logical" name="LSUBROT"> F  </i>
     <i name="WEIMIN">      0.00100000</i>
     <i name="EBREAK">      0.00001250</i>
     <i name="DEPER">      0.30000000</i>
     <i type="int" name="NRMM">     4</i>
     <i name="TIME">      0.40000000</i>
    </separator>
   </separator>
   <separator name="electronic mixer" >
    <i name="AMIX">      0.40000000</i>
    <i name="BMIX">      1.00000000</i>
    <i name="AMIN">      0.10000000</i>
    <i name="AMIX_MAG">      1.60000000</i>
    <i name="BMIX_MAG">      1.00000000</i>
    <separator name="electronic mixer details" >
     <i type="int" name="IMIX">     4</i>
     <i type="logical" name="MIXFIRST"> F  </i>
     <i type="int" name="MAXMIX">   -45</i>
     <i name="WC">    100.00000000</i>
     <i type="int" name="INIMIX">     1</i>
     <i type="int" name="MIXPRE">     1</i>
     <i type="int" name="MREMOVE">     5</i>
    </separator>
   </separator>
   <separator name="electronic dipolcorrection" >
    <i type="logical" name="LDIPOL"> F  </i>
    <i type="logical" name="LMONO"> F  </i>
    <i type="int" name="IDIPOL">     0</i>
    <i name="EPSILON">      1.00000000</i>
    <v name="DIPOL">   -100.00000000   -100.00000000   -100.00000000</v>
    <i name="EFIELD">      0.00000000</i>
   </separator>
  </separator>
  <separator name="grids" >
   <i type="int" name="NGX">    16</i>
   <i type="int" name="NGY">    16</i>
   <i type="int" name="NGZ">    16</i>
   <i type="int" name="NGXF">    32</i>
   <i type="int" name="NGYF">    32</i>
   <i type="int" name="NGZF">    32</i>
   <i type="logical" name="ADDGRID"> F  </i>
  </separator>
  <separator name="ionic" >
   <i type="int" name="NSW">    15</i>
   <i type="int" name="IBRION">     2</i>
   <i type="int" name="MDALGO">     0</i>
   <i type="int" name="ISIF">     3</i>
   <i name="PSTRESS">      0.00000000</i>
   <i name="EDIFFG">     -0.01000000</i>
   <i type="int" name="NFREE">     1</i>
   <i name="POTIM">      0.50000000</i>
   <i name="SMASS">     -3.00000000</i>
   <i name="SCALEE">      1.00000000</i>
  </separator>
  <separator name="ionic md" >
   <i name="TEBEG">      0.00010000</i>
   <i name="TEEND">      0.00010000</i>
   <i type="int" name="NBLOCK">     1</i>
   <i type="int" name="KBLOCK">    15</i>
   <i type="int" name="NPACO">   256</i>
   <i name="APACO">     16.00000000</i>
  </separator>
  <separator name="symmetry" >
   <i type="int" name="ISYM">     2</i>
   <i name="SYMPREC">      0.00001000</i>
  </separator>
  <separator name="dos" >
   <i type="int" name="LORBIT">     0</i>
   <v name="RWIGS">     -1.00000000</v>
   <i type="int" name="NEDOS">   301</i>
   <i name="EMIN">     10.00000000</i>
   <i name="EMAX">    -10.00000000</i>
   <i name="EFERMI">      0.00000000</i>
  </separator>
  <separator name="writing" >
   <i type="int" name="NWRITE">     2</i>
   <i type="logical" name="LWAVE"> T  </i>
   <i type="logical" name="LDOWNSAMPLE"> F  </i>
   <i type="logical" name="LCHARG"> T  </i>
   <i type="logical" name="LPARD"> F  </i>
   <i type="logical" name="LVTOT"> F  </i>
   <i type="logical" name="LVHAR"> F  </i>
   <i type="logical" name="LELF"> F  </i>
   <i type="logical" name="LOPTICS"> F  </i>
   <v name="STM">      0.00000000      0.00000000      0.00000000      0.00000000      0.00000000      0.00000000      0.00000000</v>
  </separator>
  <separator name="performance" >
   <i type="int" name="NPAR">     8</i>
   <i type="int" name="NSIM">     4</i>
   <i type="int" name="NBLK">    -1</i>
   <i type="logical" name="LPLANE"> T  </i>
   <i type="logical" name="LSCALAPACK"> T  </i>
   <i type="logical" name="LSCAAWARE"> F  </i>
   <i type="logical" name="LSCALU"> F  </i>
   <i type="logical" name="LASYNC"> F  </i>
   <i type="logical" name="LORBITALREAL"> F  </i>
  </separator>
  <separator name="miscellaneous" >
   <i type="int" name="IDIOT">     3</i>
   <i type="int" name="ISPECIAL">     0</i>
   <i type="logical" name="LMUSIC"> F  </i>
   <v name="POMASS">     28.08500000</v>
   <v name="DARWINR">      0.00000000</v>
   <v name="DARWINV">      1.00000000</v>
   <i type="logical" name="LCORR"> T  </i>
  </separator>
  <i type="logical" name="GGA_COMPAT"> T  </i>
  <i type="logical" name="LBERRY"> F  </i>
  <i type="int" name="ICORELEVEL">     0</i>
  <i type="logical" name="LDAU"> F  </i>
  <i type="int" name="I_CONSTRAINED_M">     0</i>
  <separator name="electronic exchange-correlation" >
   <i type="string" name="GGA">--</i>
   <i type="int" name="VOSKOWN">     0</i>
   <i type="logical" name="LHFCALC"> F  </i>
   <i type="string" name="PRECFOCK"></i>
   <i type="logical" name="LSYMGRAD"> F  </i>
   <i type="logical" name="LHFONE"> F  </i>
   <i type="logical" name="LRHFCALC"> F  </i>
   <i type="logical" name="LTHOMAS"> F  </i>
   <i type="logical" name="LMODELHF"> F  </i>
   <i name="ENCUT4O">     -1.00000000</i>
   <i type="int" name="EXXOEP">     0</i>
   <i type="int" name="FOURORBIT">     0</i>
   <i name="AEXX">      0.00000000</i>
   <i name="HFALPHA">      0.00000000</i>
   <i name="MCALPHA">      0.00000000</i>
   <i name="ALDAX">      1.00000000</i>
   <i name="AGGAX">      1.00000000</i>
   <i name="ALDAC">      1.00000000</i>
   <i name="AGGAC">      1.00000000</i>
   <i type="int" name="NKREDX">     1</i>
   <i type="int" name="NKREDY">     1</i>
   <i type="int" name="NKREDZ">     1</i>
   <i type="logical" name="SHIFTRED"> F  </i>
   <i type="logical" name="ODDONLY"> F  </i>
   <i type="logical" name="EVENONLY"> F  </i>
   <i type="int" name="LMAXFOCK">     0</i>
   <i type="int" name="NMAXFOCKAE">     0</i>
   <i type="logical" name="LFOCKAEDFT"> F  </i>
   <i name="HFSCREEN">      0.00000000</i>
   <i name="HFSCREENC">      0.00000000</i>
   <i type="int" name="NBANDSGWLOW">     0</i>
  </separator>
  <separator name="vdW DFT" >
   <i type="logical" name="LUSE_VDW"> F  </i>
   <i name="Zab_VDW">     -0.84910000</i>
   <i name="PARAM1">      0.12340000</i>
   <i name="PARAM2">      1.00000000</i>
   <i name="PARAM3">      0.00000000</i>
  </separator>
  <separator name="model GW" >
   <i type="int" name="MODEL_GW">     0</i>
   <i name="MODEL_EPS0">     12.00772552</i>
   <i name="MODEL_ALPHA">      1.00000000</i>
  </separator>
  <separator name="linear response parameters" >
   <i type="logical" name="LEPSILON"> F  </i>
   <i type="logical" name="LRPA"> F  </i>
   <i type="logical" name="LNABLA"> F  </i>
   <i type="logical" name="LVEL"> F  </i>
   <i type="int" name="KINTER">     0</i>
   <i name="CSHIFT">      0.10000000</i>
   <i name="OMEGAMAX">     -1.00000000</i>
   <i name="DEG_THRESHOLD">      0.00200000</i>
   <i name="RTIME">     -0.10000000</i>
   <i name="WPLASMAI">      0.00000000</i>
   <v name="DFIELD">      0.00000000      0.00000000      0.00000000</v>
   <v name="WPLASMA">      0.00000000      0.00000000      0.00000000      0.00000000      0.00000000      0.00000000      0.00000000      0.00000000      0.00000000</v>
  </separator>
  <separator name="orbital magnetization" >
   <i type="logical" name="NUCIND"> F  </i>
   <v name="MAGPOS">      0.00000000      0.00000000      0.00000000</v>
   <i type="logical" name="LNICSALL"> T  </i>
   <i type="logical" name="ORBITALMAG"> F  </i>
   <i type="logical" name="LMAGBLOCH"> F  </i>
   <i type="logical" name="LCHIMAG"> F  </i>
   <i type="logical" name="LGAUGE"> T  </i>
   <i type="int" name="MAGATOM">     0</i>
   <v name="MAGDIPOL">      0.00000000      0.00000000      0.00000000</v>
   <v name="AVECCONST">      0.00000000      0.00000000      0.00000000</v>
  </separator>
  <separator name="response functions" >
   <i type="logical" name="LADDER"> F  </i>
   <i type="logical" name="LRPAFORCE"> F  </i>
   <i type="logical" name="LFXC"> F  </i>
   <i type="logical" name="LHARTREE"> T  </i>
   <i type="int" name="IBSE">     0</i>
   <v type="int" name="KPOINT">    -1     0     0     0</v>
   <i type="logical" name="LTCTE"> F  </i>
   <i type="logical" name="LTETE"> F  </i>
   <i type="logical" name="LTRIPLET"> F  </i>
   <i type="logical" name="LFXCEPS"> F  </i>
   <i type="logical" name="LFXHEG"> F  </i>
   <i type="int" name="NATURALO">     2</i>
   <i type="logical" name="L2ORDER"> F  </i>
   <i type="logical" name="LMP2LT"> F  </i>
   <i type="logical" name="LUSEW"> F  </i>
   <i name="ENCUTGW">     -2.00000000</i>
   <i name="ENCUTGWSOFT">     -2.00000000</i>
   <i name="ENCUTLF">     -1.00000000</i>
   <i type="int" name="LMAXMP2">    -1</i>
   <i name="SCISSOR">      0.00000000</i>
   <i type="int" name="NOMEGA">     0</i>
   <i type="int" name="NOMEGAR">     0</i>
   <i type="int" name="NBANDSGW">    -1</i>
   <i type="int" name="NBANDSO">    -1</i>
   <i type="int" name="NBANDSV">    -1</i>
   <i type="int" name="NELM">     1</i>
   <i type="int" name="NELMHF">     1</i>
   <i type="int" name="DIM">     3</i>
   <i type="int" name="ANTIRES">     0</i>
   <i name="OMEGAMAX">    -30.00000000</i>
   <i name="OMEGAMIN">    -30.00000000</i>
   <i name="OMEGATL">   -200.00000000</i>
   <i type="int" name="OMEGAGRID">   140</i>
   <i name="CSHIFT">     -0.10000000</i>
   <i type="logical" name="SELFENERGY"> F  </i>
   <i type="logical" name="LSPECTRAL"> F  </i>
   <i type="logical" name="LSPECTRALGW"> F  </i>
   <i type="logical" name="LSINGLES"> F  </i>
   <i type="logical" name="LFERMIGW"> F  </i>
   <i type="logical" name="ODDONLYGW"> F  </i>
   <i type="logical" name="EVENONLYGW"> F  </i>
   <i type="int" name="NKREDLFX">     1</i>
   <i type="int" name="NKREDLFY">     1</i>
   <i type="int" name="NKREDLFZ">     1</i>
   <i type="int" name="MAXMEM">  2800</i>
   <i type="int" name="TELESCOPE">     0</i>
   <i type="int" name="TAUPAR">     1</i>
   <i type="int" name="OMEGAPAR">    -1</i>
   <i name="LAMBDA">      1.00000000</i>
  </separator>
  <separator name="External order field" >
   <i name="OFIELD_KAPPA">      0.00000000</i>
   <v name="OFIELD_K">      0.00000000      0.00000000      0.00000000</v>
   <i name="OFIELD_Q6_NEAR">      0.00000000</i>
   <i name="OFIELD_Q6_FAR">      0.00000000</i>
   <i name="OFIELD_A">      0.00000000</i>
  </separator>
 </parameters>
 <atominfo>
  <atoms>       2 </atoms>
  <types>       1 </types>
  <array name="atoms" >
   <dimension dim="1">ion</dimension>
   <field type="string">element</field>
   <field type="int">atomtype</field>
   <set>
    <rc><c>Si</c><c>   1</c></rc>
    <rc><c>Si</c><c>   1</c></rc>
   </set>
  </array>
  <array name="atomtypes" >
   <dimension dim="1">type</dimension>
   <field type="int">atomspertype</field>
   <field type="string">element</field>
   <field>mass</field>
   <field>valence</field>
   <field type="string">pseudopotential</field>
   <set>
    <rc><c>   2</c><c>Si</c><c>     28.08500000</c><c>      4.00000000</c><c> PAW_PBE Si 05Jan2001                   </c></rc>
   </set>
  </array>
 </atominfo>
 <structure name="initialpos" >
  <crystal>
   <varray name="basis" >
    <v>       0.00000000       2.71500000       2.71500000 </v>
    <v>       2.71500000       0.00000000       2.71500000 </v>
    <v>       2.71500000       2.71500000       0.00000000 </v>
   </varray>
   <i name="volume">     40.02575175 </i>
   <varray name="rec_basis" >
    <v>      -0.18416206       0.18416206       0.18416206 </v>
    <v>       0.18416206      -0.18416206       0.18416206 </v>
    <v>       0.18416206       0.18416206      -0.18416206 </v>
   </varray>
  </crystal>
  <varray name="positions" >
   <v>       0.50000000       0.50000000       0.50000000 </v>
   <v>       0.75000000       0.75000000       0.75000000 </v>
  </varray>
 </structure>
 <calculation>
  <scstep>
   <time name="dav">    0.02    0.02</time>
   <time name="total">    0.06    0.07</time>
   <energy>
    <i name="alphaZ">      3.36414203 </i>
    <i name="ewald">   -228.56352493 </i>
    <i name="hartreedc">    -11.00108243 </i>
    <i name="XCdc">    -18.60181216 </i>
    <i name="pawpsdc">     65.95520812 </i>
    <i name="pawaedc">    -30.76852678 </i>
    <i name="eentropy">     -0.00000000 </i>
    <i name="bandstr">     16.61648410 </i>
    <i name="atom">    206.12968587 </i>
    <i name="e_fr_energy">      3.13057381 </i>
    <i name="e_wo_entrp">      3.13057381 </i>
    <i name="e_0_energy">      3.13057381 </i>
   </energy>
  </scstep>
  <scstep>
   <time name="dav">    0.03    0.04</time>
   <time name="total">    0.03    0.04</time>
   <energy>
    <i name="e_fr_energy">    -10.74439778 </i>
    <i name="e_wo_entrp">    -10.74439778 </i>
    <i name="e_0_energy">    -10.74439778 </i>
   </energy>
  </scstep>
  <scstep>
   <time name="dav">    0.03    0.03</time>
   <time name="total">    0.03    0.03</time>
   <energy>
    <i name="e_fr_energy">    -10.87402458 </i>
    <i name="e_wo_entrp">    -10.87402458 </i>
    <i name="e_0_energy">    -10.87402458 </i>
   </energy>
  </scstep>
  <scstep>
   <time name="dav">    0.03    0.04</time>
   <time name="total">    0.04    0.04</time>
   <energy>
    <i name="e_fr_energy">    -10.87425064 </i>
    <i name="e_wo_entrp">    -10.87425064 </i>
    <i name="e_0_energy">    -10.87425064 </i>
   </energy>
  </scstep>
  <scstep>
   <time name="dav">    0.02    0.03</time>
   <time name="total">    0.04    0.04</time>
   <energy>
    <i name="e_fr_energy">    -10.87425119 </i>
    <i name="e_wo_entrp">    -10.87425119 </i>
    <i name="e_0_energy">    -10.87425119 </i>
   </energy>
  </scstep>
  <scstep>
   <time name="dav">    0.02    0.02</time>
   <time name="total">    0.06    0.07</time>
   <energy>
    <i name="e_fr_energy">    -10.73639195 </i>
    <i name="e_wo_entrp">    -10.73639195 </i>
    <i name="e_0_energy">    -10.73639195 </i>
   </energy>
  </scstep>
  <scstep>
   <time name="dav">    0.02    0.02</time>
   <time name="total">    0.06    0.07</time>
   <energy>
    <i name="e_fr_energy">    -10.67407439 </i>
    <i name="e_wo_entrp">    -10.67407439 </i>
    <i name="e_0_energy">    -10.67407439 </i>
   </energy>
  </scstep>
  <scstep>
   <time name="dav">    0.02    0.02</time>
   <time name="total">    0.06    0.06</time>
   <energy>
    <i name="e_fr_energy">    -10.67593011 </i>
    <i name="e_wo_entrp">    -10.67593011 </i>
    <i name="e_0_energy">    -10.67593011 </i>
   </energy>
  </scstep>
  <scstep>
   <time name="dav">    0.02    0.02</time>
   <time name="total">    0.05    0.06</time>
   <energy>
    <i name="alphaZ">      3.36414203 </i>
    <i name="ewald">   -228.56352493 </i>
    <i name="hartreedc">    -15.17650244 </i>
    <i name="XCdc">    -17.92582576 </i>
    <i name="pawpsdc">     74.65297543 </i>
    <i name="pawaedc">    -39.69921860 </i>
    <i name="eentropy">     -0.00000000 </i>
    <i name="bandstr">      6.54221573 </i>
    <i name="atom">    206.12968587 </i>
    <i name="e_fr_energy">    -10.67605267 </i>
    <i name="e_wo_entrp">    -10.67605267 </i>
    <i name="e_0_energy">    -10.67605267 </i>
   </energy>
  </scstep>
  <structure>
   <crystal>
    <varray name="basis" >
     <v>       0.00000000       2.71500000       2.71500000 </v>
     <v>       2.71500000       0.00000000       2.71500000 </v>
     <v>       2.71500000       2.71500000       0.00000000 </v>
    </varray>
    <i name="volume">     40.02575175 </i>
    <varray name="rec_basis" >
     <v>      -0.18416206       0.18416206       0.18416206 </v>
     <v>       0.18416206      -0.18416206       0.18416206 </v>
     <v>       0.18416206       0.18416206      -0.18416206 </v>
    </varray>
   </crystal>
   <varray name="positions" >
    <v>       0.50000000       0.50000000       0.50000000 </v>
    <v>       0.75000000       0.75000000       0.75000000 </v>
   </varray>
  </structure>
  <varray name="forces" >
   <v>       0.00000000       0.00000000       0.00000000 </v>
   <v>      -0.00000000      -0.00000000      -0.00000000 </v>
  </varray>
  <varray name="stress" >
   <v>      23.06427959       0.00000000      -0.00000000 </v>
   <v>      -0.00000000      23.06427959       0.00000000 </v>
   <v>       0.00000000       0.00000000      23.06427959 </v>
  </varray>
  <energy>
   <i name="e_fr_energy">    -10.67605267 </i>
   <i name="e_wo_entrp">    -10.67605267 </i>
   <i name="e_0_energy">     -0.00000000 </i>
  </energy>
  <time name="totalsc">    1.24    2.24</time>
 </calculation>
 <calculation>
  <scstep>
   <time name="dav">    0.02    0.02</time>
   <time name="total">    0.06    0.07</time>
   <energy>
    <i name="alphaZ">      3.22768241 </i>
    <i name="ewald">   -225.43036602 </i>
    <i name="hartreedc">    -14.98244171 </i>
    <i name="XCdc">    -18.12851295 </i>
    <i name="pawpsdc">     74.66158599 </i>
    <i name="pawaedc">    -39.70909279 </i>
    <i name="eentropy">     -0.00000000 </i>
    <i name="bandstr">      3.54275824 </i>
    <i name="atom">    206.12968587 </i>
    <i name="e_fr_energy">    -10.68870096 </i>
    <i name="e_wo_entrp">    -10.68870096 </i>
    <i name="e_0_energy">    -10.68870096 </i>
   </energy>
  </scstep>
  <scstep>
   <time name="dav">    0.02    0.02</time>
   <time name="total">    0.06    0.06</time>
   <energy>
    <i name="e_fr_energy">    -10.68264309 </i>
    <i name="e_wo_entrp">    -10.68264309 </i>
    <i name="e_0_energy">    -10.68264309 </i>
   </energy>
  </scstep>
  <scstep>
   <time name="dav">    0.02    0.02</time>
   <time name="total">    0.06    0.07</time>
   <energy>
    <i name="e_fr_energy">    -10.67942017 </i>
    <i name="e_wo_entrp">    -10.67942017 </i>
    <i name="e_0_energy">    -10.67942017 </i>
   </energy>
  </scstep>
  <scstep>
   <time name="dav">    0.01    0.01</time>
   <time name="total">    0.04    0.05</time>
   <energy>
    <i name="alphaZ">      3.22768241 </i>
    <i name="ewald">   -225.43036602 </i>
    <i name="hartreedc">    -15.67889978 </i>
    <i name="XCdc">    -18.11367560 </i>
    <i name="pawpsdc">     73.39584121 </i>
    <i name="pawaedc">    -38.40843988 </i>
    <i name="eentropy">     -0.00000000 </i>
    <i name="bandstr">      4.19875921 </i>
    <i name="atom">    206.12968587 </i>
    <i name="e_fr_energy">    -10.67941257 </i>
    <i name="e_wo_entrp">    -10.67941257 </i>
    <i name="e_0_energy">    -10.67941257 </i>
   </energy>
  </scstep>
  <structure>
   <crystal>
    <varray name="basis" >
     <v>       0.00000000       2.75273461       2.75273461 </v>
     <v>       2.75273461       0.00000000       2.75273461 </v>
     <v>       2.75273461       2.75273461       0.00000000 </v>
    </varray>
    <i name="volume">     41.71795626 </i>
    <varray name="rec_basis" >
     <v>      -0.18163756       0.18163756       0.18163756 </v>
     <v>       0.18163756      -0.18163756       0.18163756 </v>
     <v>       0.18163756       0.18163756      -0.18163756 </v>
    </varray>
   </crystal>
   <varray name="positions" >
    <v>       0.50000000       0.50000000       0.50000000 </v>
    <v>       0.75000000       0.75000000       0.75000000 </v>
   </varray>
  </structure>
  <varray name="forces" >
   <v>       0.00000000      -0.00000000       0.00000000 </v>
   <v>      -0.00000000       0.00000000      -0.00000000 </v>
  </varray>
  <varray name="stress" >
   <v>     -14.91791796       0.00000000       0.00000000 </v>
   <v>      -0.00000000     -14.91791796      -0.00000000 </v>
   <v>       0.00000000      -0.00000000     -14.91791796 </v>
  </varray>
  <energy>
   <i name="e_fr_energy">    -10.67941257 </i>
   <i name="e_wo_entrp">    -10.67941257 </i>
   <i name="e_0_energy">     -0.00000000 </i>
  </energy>
  <time name="totalsc">    0.36    0.43</time>
 </calculation>
 <calculation>
  <scstep>
   <time name="dav">    0.02    0.02</time>
   <time name="total">    0.06    0.07</time>
   <energy>
    <i name="alphaZ">      3.28172787 </i>
    <i name="ewald">   -226.68163652 </i>
    <i name="hartreedc">    -15.76852130 </i>
    <i name="XCdc">    -18.03403571 </i>
    <i name="pawpsdc">     73.34468346 </i>
    <i name="pawaedc">    -38.35503883 </i>
    <i name="eentropy">     -0.00000000 </i>
    <i name="bandstr">      5.39878955 </i>
    <i name="atom">    206.12968587 </i>
    <i name="e_fr_energy">    -10.68434560 </i>
    <i name="e_wo_entrp">    -10.68434560 </i>
    <i name="e_0_energy">    -10.68434560 </i>
   </energy>
  </scstep>
  <scstep>
   <time name="dav">    0.02    0.02</time>
   <time name="total">    0.06    0.06</time>
   <energy>
    <i name="e_fr_energy">    -10.68334605 </i>
    <i name="e_wo_entrp">    -10.68334605 </i>
    <i name="e_0_energy">    -10.68334605 </i>
   </energy>
  </scstep>
  <scstep>
   <time name="dav">    0.02    0.02</time>
   <time name="total">    0.06    0.06</time>
   <energy>
    <i name="e_fr_energy">    -10.68282838 </i>
    <i name="e_wo_entrp">    -10.68282838 </i>
    <i name="e_0_energy">    -10.68282838 </i>
   </energy>
  </scstep>
  <scstep>
   <time name="dav">    0.01    0.01</time>
   <time name="total">    0.04    0.05</time>
   <energy>
    <i name="alphaZ">      3.28172787 </i>
    <i name="ewald">   -226.68163652 </i>
    <i name="hartreedc">    -15.48344422 </i>
    <i name="XCdc">    -18.03925674 </i>
    <i name="pawpsdc">     73.85455302 </i>
    <i name="pawaedc">    -38.87886373 </i>
    <i name="eentropy">     -0.00000000 </i>
    <i name="bandstr">      5.13440257 </i>
    <i name="atom">    206.12968587 </i>
    <i name="e_fr_energy">    -10.68283188 </i>
    <i name="e_wo_entrp">    -10.68283188 </i>
    <i name="e_0_energy">    -10.68283188 </i>
   </energy>
  </scstep>
  <structure>
   <crystal>
    <varray name="basis" >
     <v>       0.00000000       2.73753966       2.73753966 </v>
     <v>       2.73753966       0.00000000       2.73753966 </v>
     <v>       2.73753966       2.73753966       0.00000000 </v>
    </varray>
    <i name="volume">     41.03092000 </i>
    <varray name="rec_basis" >
     <v>      -0.18264576       0.18264576       0.18264576 </v>
     <v>       0.18264576      -0.18264576       0.18264576 </v>
     <v>       0.18264576       0.18264576      -0.18264576 </v>
    </varray>
   </crystal>
   <varray name="positions" >
    <v>       0.50000000       0.50000000       0.50000000 </v>
    <v>       0.75000000       0.75000000       0.75000000 </v>
   </varray>
  </structure>
  <varray name="forces" >
   <v>       0.00000000      -0.00000000       0.00000000 </v>
   <v>      -0.00000000       0.00000000      -0.00000000 </v>
  </varray>
  <varray name="stress" >
   <v>      -0.69369339       0.00000000       0.00000000 </v>
   <v>       0.00000000      -0.69369339       0.00000000 </v>
   <v>      -0.00000000       0.00000000      -0.69369339 </v>
  </varray>
  <energy>
   <i name="e_fr_energy">    -10.68283188 </i>
   <i name="e_wo_entrp">    -10.68283188 </i>
   <i name="e_0_energy">     -0.00000000 </i>
  </energy>
  <time name="totalsc">    0.35    0.48</time>
  <eigenvalues>
   <array>
    <dimension dim="1">band</dimension>
    <dimension dim="2">kpoint</dimension>
    <dimension dim="3">spin</dimension>
    <field>eigene</field>
    <field>occ</field>
    <set>
     <set comment="spin 1">
      <set comment="kpoint 1">
       <r>   -5.3970    1.0000 </r>
       <r>    1.7335    1.0000 </r>
       <r>    4.8738    1.0000 </r>
       <r>    4.8738    1.0000 </r>
       <r>    7.5632    0.0000 </r>
       <r>    9.0977    0.0000 </r>
       <r>    9.0977    0.0000 </r>
       <r>   12.3456    0.0000 </r>
      </set>
      <set comment="kpoint 2">
       <r>   -3.5228    1.0000 </r>
       <r>   -0.7006    1.0000 </r>
       <r>    2.1590    1.0000 </r>
       <r>    3.4593    1.0000 </r>
       <r>    7.1564    0.0000 </r>
       <r>   10.0462    0.0000 </r>
       <r>   11.2501    0.0000 </r>
       <r>   11.4878    0.0000 </r>
      </set>
     </set>
    </set>
   </array>
  </eigenvalues>
  <separator name="orbital magnetization" >
   <v name="MAGDIPOLOUT">      0.00000000      0.00000000      0.00000000</v>
  </separator>
  <dos>
   <i name="efermi">      5.79355067 </i>
   <total>
    <array>
     <dimension dim="1">gridpoints</dimension>
     <dimension dim="2">spin</dimension>
     <field>energy</field>
     <field>total</field>
     <field>integrated</field>
     <set>
      <set comment="spin 1">
       <r>    -7.3970     0.0000     0.0000 </r>
       <r>    -7.3245     0.0000     0.0000 </r>
       <r>    -7.2521     0.0000     0.0000 </r>
       <r>    -7.1796     0.0000     0.0000 </r>
       <r>    -7.1071     0.0000     0.0000 </r>
       <r>    -7.0346     0.0000     0.0000 </r>
       <r>    -6.9622     0.0000     0.0000 </r>
       <r>    -6.8897     0.0000     0.0000 </r>
       <r>    -6.8172     0.0000     0.0000 </r>
       <r>    -6.7447     0.0000     0.0000 </r>
       <r>    -6.6723     0.0000     0.0000 </r>
       <r>    -6.5998     0.0000     0.0000 </r>
       <r>    -6.5273     0.0000     0.0000 </r>
       <r>    -6.4548     0.0000     0.0000 </r>
       <r>    -6.3824     0.0000     0.0000 </r>
       <r>    -6.3099     0.0000     0.0000 </r>
       <r>    -6.2374     0.0000     0.0000 </r>
       <r>    -6.1649     0.0000     0.0000 </r>
       <r>    -6.0925     0.0000     0.0000 </r>
       <r>    -6.0200     0.0000     0.0000 </r>
       <r>    -5.9475     0.0003     0.0000 </r>
       <r>    -5.8750     0.0022     0.0002 </r>
       <r>    -5.8026     0.0118     0.0010 </r>
       <r>    -5.7301     0.0496     0.0046 </r>
       <r>    -5.6576     0.1616     0.0163 </r>
       <r>    -5.5851     0.4073     0.0459 </r>
       <r>    -5.5127     0.7936     0.1034 </r>
       <r>    -5.4402     1.1958     0.1900 </r>
       <r>    -5.3677     1.3936     0.2910 </r>
       <r>    -5.2952     1.2560     0.3821 </r>
       <r>    -5.2228     0.8756     0.4455 </r>
       <r>    -5.1503     0.4720     0.4797 </r>
       <r>    -5.0778     0.1968     0.4940 </r>
       <r>    -5.0053     0.0634     0.4986 </r>
       <r>    -4.9329     0.0158     0.4997 </r>
       <r>    -4.8604     0.0030     0.5000 </r>
       <r>    -4.7879     0.0005     0.5000 </r>
       <r>    -4.7154     0.0001     0.5000 </r>
       <r>    -4.6430     0.0000     0.5000 </r>
       <r>    -4.5705     0.0000     0.5000 </r>
       <r>    -4.4980     0.0000     0.5000 </r>
       <r>    -4.4255     0.0000     0.5000 </r>
       <r>    -4.3531     0.0000     0.5000 </r>
       <r>    -4.2806     0.0000     0.5000 </r>
       <r>    -4.2081     0.0000     0.5000 </r>
       <r>    -4.1356     0.0001     0.5000 </r>
       <r>    -4.0632     0.0012     0.5001 </r>
       <r>    -3.9907     0.0083     0.5007 </r>
       <r>    -3.9182     0.0438     0.5039 </r>
       <r>    -3.8457     0.1781     0.5168 </r>
       <r>    -3.7733     0.5601     0.5574 </r>
       <r>    -3.7008     1.3616     0.6561 </r>
       <r>    -3.6283     2.5597     0.8416 </r>
       <r>    -3.5558     3.7215     1.1113 </r>
       <r>    -3.4834     4.1845     1.4146 </r>
       <r>    -3.4109     3.6391     1.6783 </r>
       <r>    -3.3384     2.4476     1.8557 </r>
       <r>    -3.2659     1.2731     1.9480 </r>
       <r>    -3.1935     0.5121     1.9851 </r>
       <r>    -3.1210     0.1592     1.9966 </r>
       <r>    -3.0485     0.0383     1.9994 </r>
       <r>    -2.9760     0.0071     1.9999 </r>
       <r>    -2.9036     0.0010     2.0000 </r>
       <r>    -2.8311     0.0001     2.0000 </r>
       <r>    -2.7586     0.0000     2.0000 </r>
       <r>    -2.6861     0.0000     2.0000 </r>
       <r>    -2.6137     0.0000     2.0000 </r>
       <r>    -2.5412     0.0000     2.0000 </r>
       <r>    -2.4687     0.0000     2.0000 </r>
       <r>    -2.3962     0.0000     2.0000 </r>
       <r>    -2.3238     0.0000     2.0000 </r>
       <r>    -2.2513     0.0000     2.0000 </r>
       <r>    -2.1788     0.0000     2.0000 </r>
       <r>    -2.1063     0.0000     2.0000 </r>
       <r>    -2.0338     0.0000     2.0000 </r>
       <r>    -1.9614     0.0000     2.0000 </r>
       <r>    -1.8889     0.0000     2.0000 </r>
       <r>    -1.8164     0.0000     2.0000 </r>
       <r>    -1.7439     0.0000     2.0000 </r>
       <r>    -1.6715     0.0000     2.0000 </r>
       <r>    -1.5990     0.0000     2.0000 </r>
       <r>    -1.5265     0.0000     2.0000 </r>
       <r>    -1.4540     0.0000     2.0000 </r>
       <r>    -1.3816     0.0000     2.0000 </r>
       <r>    -1.3091     0.0002     2.0000 </r>
       <r>    -1.2366     0.0014     2.0001 </r>
       <r>    -1.1641     0.0093     2.0008 </r>
       <r>    -1.0917     0.0480     2.0043 </r>
       <r>    -1.0192     0.1922     2.0182 </r>
       <r>    -0.9467     0.5951     2.0613 </r>
       <r>    -0.8742     1.4245     2.1646 </r>
       <r>    -0.8018     2.6369     2.3557 </r>
       <r>    -0.7293     3.7751     2.6293 </r>
       <r>    -0.6568     4.1798     2.9322 </r>
       <r>    -0.5843     3.5793     3.1916 </r>
       <r>    -0.5119     2.3705     3.3634 </r>
       <r>    -0.4394     1.2141     3.4514 </r>
       <r>    -0.3669     0.4809     3.4863 </r>
       <r>    -0.2944     0.1473     3.4969 </r>
       <r>    -0.2220     0.0349     3.4995 </r>
       <r>    -0.1495     0.0064     3.4999 </r>
       <r>    -0.0770     0.0009     3.5000 </r>
       <r>    -0.0045     0.0001     3.5000 </r>
       <r>     0.0679     0.0000     3.5000 </r>
       <r>     0.1404     0.0000     3.5000 </r>
       <r>     0.2129     0.0000     3.5000 </r>
       <r>     0.2854     0.0000     3.5000 </r>
       <r>     0.3578     0.0000     3.5000 </r>
       <r>     0.4303     0.0000     3.5000 </r>
       <r>     0.5028     0.0000     3.5000 </r>
       <r>     0.5753     0.0000     3.5000 </r>
       <r>     0.6477     0.0000     3.5000 </r>
       <r>     0.7202     0.0000     3.5000 </r>
       <r>     0.7927     0.0000     3.5000 </r>
       <r>     0.8652     0.0000     3.5000 </r>
       <r>     0.9376     0.0000     3.5000 </r>
       <r>     1.0101     0.0000     3.5000 </r>
       <r>     1.0826     0.0000     3.5000 </r>
       <r>     1.1551     0.0001     3.5000 </r>
       <r>     1.2275     0.0010     3.5001 </r>
       <r>     1.3000     0.0063     3.5005 </r>
       <r>     1.3725     0.0293     3.5027 </r>
       <r>     1.4450     0.1056     3.5103 </r>
       <r>     1.5174     0.2939     3.5316 </r>
       <r>     1.5899     0.6329     3.5775 </r>
       <r>     1.6624     1.0563     3.6540 </r>
       <r>     1.7349     1.3776     3.7539 </r>
       <r>     1.8073     1.4534     3.8592 </r>
       <r>     1.8798     1.4048     3.9610 </r>
       <r>     1.9523     1.6061     4.0774 </r>
       <r>     2.0248     2.3411     4.2471 </r>
       <r>     2.0972     3.4111     4.4943 </r>
       <r>     2.1697     4.1474     4.7949 </r>
       <r>     2.2422     3.9715     5.0828 </r>
       <r>     2.3147     2.9533     5.2968 </r>
       <r>     2.3871     1.7000     5.4200 </r>
       <r>     2.4596     0.7569     5.4749 </r>
       <r>     2.5321     0.2606     5.4938 </r>
       <r>     2.6046     0.0694     5.4988 </r>
       <r>     2.6770     0.0143     5.4998 </r>
       <r>     2.7495     0.0023     5.5000 </r>
       <r>     2.8220     0.0003     5.5000 </r>
       <r>     2.8945     0.0006     5.5000 </r>
       <r>     2.9669     0.0045     5.5004 </r>
       <r>     3.0394     0.0258     5.5022 </r>
       <r>     3.1119     0.1143     5.5105 </r>
       <r>     3.1844     0.3921     5.5389 </r>
       <r>     3.2568     1.0393     5.6143 </r>
       <r>     3.3293     2.1302     5.7687 </r>
       <r>     3.4018     3.3767     6.0134 </r>
       <r>     3.4743     4.1397     6.3134 </r>
       <r>     3.5467     3.9251     6.5979 </r>
       <r>     3.6192     2.8784     6.8065 </r>
       <r>     3.6917     1.6324     6.9248 </r>
       <r>     3.7642     0.7159     6.9767 </r>
       <r>     3.8366     0.2428     6.9943 </r>
       <r>     3.9091     0.0636     6.9989 </r>
       <r>     3.9816     0.0129     6.9998 </r>
       <r>     4.0541     0.0020     7.0000 </r>
       <r>     4.1265     0.0002     7.0000 </r>
       <r>     4.1990     0.0000     7.0000 </r>
       <r>     4.2715     0.0001     7.0000 </r>
       <r>     4.3440     0.0011     7.0001 </r>
       <r>     4.4164     0.0072     7.0006 </r>
       <r>     4.4889     0.0364     7.0033 </r>
       <r>     4.5614     0.1427     7.0136 </r>
       <r>     4.6339     0.4321     7.0449 </r>
       <r>     4.7064     1.0117     7.1182 </r>
       <r>     4.7788     1.8317     7.2510 </r>
       <r>     4.8513     2.5648     7.4369 </r>
       <r>     4.9238     2.7775     7.6382 </r>
       <r>     4.9963     2.3263     7.8068 </r>
       <r>     5.0687     1.5069     7.9160 </r>
       <r>     5.1412     0.7549     7.9707 </r>
       <r>     5.2137     0.2924     7.9919 </r>
       <r>     5.2862     0.0876     7.9982 </r>
       <r>     5.3586     0.0203     7.9997 </r>
       <r>     5.4311     0.0036     8.0000 </r>
       <r>     5.5036     0.0005     8.0000 </r>
       <r>     5.5761     0.0001     8.0000 </r>
       <r>     5.6485     0.0000     8.0000 </r>
       <r>     5.7210     0.0000     8.0000 </r>
       <r>     5.7935     0.0000     8.0000 </r>
       <r>     5.8660     0.0000     8.0000 </r>
       <r>     5.9384     0.0000     8.0000 </r>
       <r>     6.0109     0.0000     8.0000 </r>
       <r>     6.0834     0.0000     8.0000 </r>
       <r>     6.1559     0.0000     8.0000 </r>
       <r>     6.2283     0.0000     8.0000 </r>
       <r>     6.3008     0.0000     8.0000 </r>
       <r>     6.3733     0.0000     8.0000 </r>
       <r>     6.4458     0.0000     8.0000 </r>
       <r>     6.5182     0.0001     8.0000 </r>
       <r>     6.5907     0.0006     8.0000 </r>
       <r>     6.6632     0.0044     8.0004 </r>
       <r>     6.7357     0.0252     8.0022 </r>
       <r>     6.8081     0.1123     8.0103 </r>
       <r>     6.8806     0.3864     8.0383 </r>
       <r>     6.9531     1.0278     8.1128 </r>
       <r>     7.0256     2.1143     8.2661 </r>
       <r>     7.0980     3.3650     8.5099 </r>
       <r>     7.1705     4.1510     8.8108 </r>
       <r>     7.2430     3.9967     9.1004 </r>
       <r>     7.3155     3.0888     9.3243 </r>
       <r>     7.3879     2.1143     9.4775 </r>
       <r>     7.4604     1.5943     9.5931 </r>
       <r>     7.5329     1.4985     9.7017 </r>
       <r>     7.6054     1.4589     9.8074 </r>
       <r>     7.6778     1.2138     9.8954 </r>
       <r>     7.7503     0.8018     9.9535 </r>
       <r>     7.8228     0.4122     9.9834 </r>
       <r>     7.8953     0.1641     9.9953 </r>
       <r>     7.9677     0.0505     9.9989 </r>
       <r>     8.0402     0.0120     9.9998 </r>
       <r>     8.1127     0.0022    10.0000 </r>
       <r>     8.1852     0.0003    10.0000 </r>
       <r>     8.2576     0.0000    10.0000 </r>
       <r>     8.3301     0.0000    10.0000 </r>
       <r>     8.4026     0.0000    10.0000 </r>
       <r>     8.4751     0.0001    10.0000 </r>
       <r>     8.5475     0.0006    10.0001 </r>
       <r>     8.6200     0.0044    10.0004 </r>
       <r>     8.6925     0.0237    10.0021 </r>
       <r>     8.7650     0.0999    10.0093 </r>
       <r>     8.8374     0.3250    10.0329 </r>
       <r>     8.9099     0.8179    10.0922 </r>
       <r>     8.9824     1.5915    10.2075 </r>
       <r>     9.0549     2.3950    10.3811 </r>
       <r>     9.1273     2.7874    10.5831 </r>
       <r>     9.1998     2.5091    10.7650 </r>
       <r>     9.2723     1.7467    10.8915 </r>
       <r>     9.3448     0.9404    10.9597 </r>
       <r>     9.4172     0.3916    10.9881 </r>
       <r>     9.4897     0.1268    10.9973 </r>
       <r>     9.5622     0.0369    11.0000 </r>
       <r>     9.6347     0.0370    11.0026 </r>
       <r>     9.7071     0.1344    11.0124 </r>
       <r>     9.7796     0.4444    11.0446 </r>
       <r>     9.8521     1.1435    11.1275 </r>
       <r>     9.9246     2.2756    11.2924 </r>
       <r>     9.9970     3.5022    11.5462 </r>
       <r>    10.0695     4.1686    11.8483 </r>
       <r>    10.1420     3.8375    12.1265 </r>
       <r>    10.2145     2.7322    12.3245 </r>
       <r>    10.2869     1.5044    12.4335 </r>
       <r>    10.3594     0.6406    12.4799 </r>
       <r>    10.4319     0.2109    12.4952 </r>
       <r>    10.5044     0.0537    12.4991 </r>
       <r>    10.5768     0.0106    12.4999 </r>
       <r>    10.6493     0.0018    12.5000 </r>
       <r>    10.7218     0.0019    12.5001 </r>
       <r>    10.7943     0.0112    12.5010 </r>
       <r>    10.8667     0.0564    12.5050 </r>
       <r>    10.9392     0.2205    12.5210 </r>
       <r>    11.0117     0.6680    12.5694 </r>
       <r>    11.0842     1.5767    12.6837 </r>
       <r>    11.1566     2.9276    12.8959 </r>
       <r>    11.2291     4.3617    13.2120 </r>
       <r>    11.3016     5.4093    13.6040 </r>
       <r>    11.3741     5.8818    14.0303 </r>
       <r>    11.4466     5.8479    14.4542 </r>
       <r>    11.5190     5.2964    14.8380 </r>
       <r>    11.5915     4.1741    15.1405 </r>
       <r>    11.6640     2.7210    15.3377 </r>
       <r>    11.7365     1.4181    15.4405 </r>
       <r>    11.8089     0.5807    15.4826 </r>
       <r>    11.8814     0.1879    15.4962 </r>
       <r>    11.9539     0.0615    15.5007 </r>
       <r>    12.0264     0.0721    15.5059 </r>
       <r>    12.0988     0.1981    15.5202 </r>
       <r>    12.1713     0.4722    15.5545 </r>
       <r>    12.2438     0.8756    15.6179 </r>
       <r>    12.3163     1.2560    15.7090 </r>
       <r>    12.3887     1.3936    15.8100 </r>
       <r>    12.4612     1.1958    15.8966 </r>
       <r>    12.5337     0.7936    15.9541 </r>
       <r>    12.6062     0.4073    15.9837 </r>
       <r>    12.6786     0.1616    15.9954 </r>
       <r>    12.7511     0.0496    15.9990 </r>
       <r>    12.8236     0.0118    15.9998 </r>
       <r>    12.8961     0.0022    16.0000 </r>
       <r>    12.9685     0.0003    16.0000 </r>
       <r>    13.0410     0.0000    16.0000 </r>
       <r>    13.1135     0.0000    16.0000 </r>
       <r>    13.1860     0.0000    16.0000 </r>
       <r>    13.2584     0.0000    16.0000 </r>
       <r>    13.3309     0.0000    16.0000 </r>
       <r>    13.4034     0.0000    16.0000 </r>
       <r>    13.4759     0.0000    16.0000 </r>
       <r>    13.5483     0.0000    16.0000 </r>
       <r>    13.6208     0.0000    16.0000 </r>
       <r>    13.6933     0.0000    16.0000 </r>
       <r>    13.7658     0.0000    16.0000 </r>
       <r>    13.8382     0.0000    16.0000 </r>
       <r>    13.9107     0.0000    16.0000 </r>
       <r>    13.9832     0.0000    16.0000 </r>
       <r>    14.0557     0.0000    16.0000 </r>
       <r>    14.1281     0.0000    16.0000 </r>
       <r>    14.2006     0.0000    16.0000 </r>
       <r>    14.2731     0.0000    16.0000 </r>
       <r>    14.3456     0.0000    16.0000 </r>
      </set>
     </set>
    </array>
   </total>
  </dos>
 </calculation>
 <structure name="finalpos" >
  <crystal>
   <varray name="basis" >
    <v>       0.00000000       2.73753966       2.73753966 </v>
    <v>       2.73753966       0.00000000       2.73753966 </v>
    <v>       2.73753966       2.73753966       0.00000000 </v>
   </varray>
   <i name="volume">     41.03092000 </i>
   <varray name="rec_basis" >
    <v>      -0.18264576       0.18264576       0.18264576 </v>
    <v>       0.18264576      -0.18264576       0.18264576 </v>
    <v>       0.18264576       0.18264576      -0.18264576 </v>
   </varray>
  </crystal>
  <varray name="positions" >
   <v>       0.50000000       0.50000000       0.50000000 </v>
   <v>       0.75000000       0.75000000       0.75000000 </v>
  </varray>
 </structure>
</modeling>
