unknown system                          
   1.00000000000000     
    -2.450000    2.450000    1.274000
     2.450000   -2.450000    1.274000
     2.450000    2.450000   -1.274000
   Si
     2
Direct
  0.250000  0.750000  0.500000
  0.000000  0.000000  0.000000
 
   24   24   24
 -5.5581     -3.5376      1.4924      7.0904      10.887      11.860      10.612      8.5858      6.7102      5.2589    
  4.2890      3.7510      3.5807      3.7511      4.2889      5.2588      6.7102      8.5859      10.612      11.860    
  10.887      7.0905      1.4924     -3.5378     -3.5378     -4.5752     -1.7862      3.3945      8.4779      11.412    
  11.629      10.027      8.0090      6.2441      4.9315      4.0898      3.6588      3.5807      3.8418      4.4805    
  5.5634      7.1240      9.0665      11.039      11.943      10.444      6.2758     0.79809      1.4924     -1.7864    
 -1.8625      1.2917      6.0195      10.036      11.788      11.187      9.3303      7.3806      5.7624      4.6062    
  3.8974      3.5714      3.5807      3.9245      4.6497      5.8200      7.4502      9.4118      11.295      11.958    
  10.272      6.2758      7.0905      3.3944      1.2915      1.9438      4.9769      8.7320      11.339      11.829    
  10.532      8.5776      6.7463      5.2993      4.3046      3.7239      3.4945      3.5806      3.9930      4.7826    
  6.0059      7.6593      9.5923      11.379      11.958      10.444      10.887      8.4780      6.0195      4.9768    
  5.9996      8.4729      10.941      12.073      11.467      9.7378      7.8221      6.1493      4.8840      4.0446    
  3.5794      3.4326      3.5805      4.0420      4.8674      6.1035      7.7313      9.5923      11.295      11.943    
  11.860      11.412      10.036      8.7319      8.4729      9.4997      11.135      12.269      12.134      10.780    
  8.9171      7.1168      5.6269      4.5395      3.8394      3.4713      3.3894      3.5804      4.0675      4.8966    
  6.1035      7.6593      9.4118      11.039      10.612      11.629      11.788      11.339      10.941      11.135    
  11.897      12.635      12.644      11.640      9.9599      8.1489      6.5115      5.2095      4.2827      3.6981    
  3.4046      3.3672      3.5804      4.0675      4.8674      6.0059      7.4502      9.0665      8.5859      10.027    
  11.187      11.829      12.073      12.269      12.635      13.024      13.017      12.281      10.876      9.1817    
  7.5023      6.0480      4.9193      4.1245      3.6261      3.3820      3.3672      3.5804      4.0420      4.7826    
  5.8200      7.1240      6.7102      8.0090      9.3303      10.532      11.467      12.134      12.644      13.017    
  13.085      12.622      11.573      10.134      8.5459      7.0360      5.7573      4.7708      4.0712      3.6261    
  3.4046      3.3894      3.5805      3.9930      4.6497      5.5634      5.2588      6.2441      7.3806      8.5777    
  9.7379      10.780      11.640      12.281      12.622      12.534      11.941      10.899      9.5609      8.1309    
  6.7921      5.6583      4.7708      4.1245      3.6981      3.4713      3.4326      3.5806      3.9245      4.4805    
  4.2889      4.9315      5.7624      6.7464      7.8222      8.9172      9.9598      10.876      11.573      11.941    
  11.881      11.358      10.433      9.2501      7.9868      6.7921      5.7573      4.9193      4.2827      3.8394    
  3.5794      3.4945      3.5807      3.8418      3.7511      4.0899      4.6061      5.2992      6.1493      7.1169    
  8.1490      9.1816      10.134      10.899      11.358      11.412      11.029      10.266      9.2501      8.1309    
  7.0360      6.0480      5.2095      4.5395      4.0446      3.7239      3.5714      3.5807      3.5807      3.6589    
  3.8974      4.3046      4.8839      5.6269      6.5116      7.5023      8.5459      9.5608      10.433      11.030    
  11.243      11.029      10.433      9.5609      8.5459      7.5023      6.5115      5.6269      4.8840      4.3046    
  3.8974      3.6588      3.7510      3.5807      3.5715      3.7240      4.0446      4.5394      5.2095      6.0480    
  7.0361      8.1309      9.2500      10.266      11.030      11.412      11.358      10.899      10.134      9.1817    
  8.1489      7.1168      6.1493      5.2993      4.6062      4.0898      4.2890      3.8418      3.5806      3.4945    
  3.5795      3.8394      4.2826      4.9193      5.7573      6.7922      7.9868      9.2500      10.433      11.358    
  11.881      11.941      11.573      10.876      9.9599      8.9171      7.8221      6.7463      5.7624      4.9315    
  5.2589      4.4806      3.9245      3.5805      3.4326      3.4714      3.6982      4.1245      4.7707      5.6584    
  6.7922      8.1309      9.5608      10.899      11.941      12.534      12.622      12.281      11.640      10.780    
  9.7378      8.5776      7.3806      6.2441      6.7102      5.5634      4.6498      3.9931      3.5804      3.3893    
  3.4047      3.6262      4.0711      4.7707      5.7573      7.0361      8.5459      10.134      11.573      12.622    
  13.085      13.017      12.644      12.134      11.467      10.532      9.3303      8.0090      8.5858      7.1239    
  5.8201      4.7827      4.0420      3.5803      3.3671      3.3821      3.6262      4.1245      4.9193      6.0480    
  7.5023      9.1816      10.876      12.281      13.017      13.024      12.635      12.269      12.073      11.829    
  11.187      10.027      10.612      9.0665      7.4501      6.0059      4.8676      4.0676      3.5803      3.3671    
  3.4047      3.6982      4.2826      5.2095      6.5116      8.1490      9.9598      11.640      12.644      12.635    
  11.897      11.135      10.941      11.339      11.788      11.629      11.860      11.039      9.4117      7.6591    
  6.1036      4.8968      4.0676      3.5803      3.3893      3.4714      3.8394      4.5394      5.6269      7.1169    
  8.9172      10.780      12.134      12.269      11.135      9.4997      8.4729      8.7320      10.036      11.412    
  10.887      11.943      11.295      9.5922      7.7311      6.1036      4.8676      4.0420      3.5804      3.4326    
  3.5795      4.0446      4.8839      6.1493      7.8222      9.7379      11.467      12.073      10.941      8.4729    
  5.9996      4.9769      6.0195      8.4779      7.0904      10.444      11.958      11.380      9.5922      7.6591    
  6.0059      4.7827      3.9931      3.5805      3.4945      3.7240      4.3046      5.2992      6.7464      8.5777    
  10.532      11.829      11.339      8.7319      4.9768      1.9438      1.2917      3.3945      1.4924      6.2756    
  10.272      11.958      11.295      9.4117      7.4501      5.8201      4.6498      3.9245      3.5806      3.5715    
  3.8974      4.6061      5.7624      7.3806      9.3303      11.187      11.788      10.036      6.0195      1.2915    
 -1.8625     -1.7862     -3.5376     0.79816      6.2756      10.444      11.943      11.039      9.0665      7.1239    
  5.5634      4.4806      3.8418      3.5807      3.6589      4.0899      4.9315      6.2441      8.0090      10.027    
  11.629      11.412      8.4780      3.3944     -1.7864     -4.5752     -3.5374     -2.1017      2.2194      7.2665    
  10.794      11.726      10.519      8.5154      6.6353      5.1610      4.1581      3.5821      3.3672      3.4810    
  3.9429      4.8130      6.1473      7.9157      9.9055      11.407      11.066      8.1317      3.3090     -1.3496    
 -2.1020     -3.5375     -1.3494      3.3091      8.1316      11.066      11.407      9.9055      7.9157      6.1473    
  4.8130      3.9429      3.4810      3.3672      3.5821      4.1581      5.1609      6.6354      8.5154      10.519    
  11.726      10.794      7.2666      2.2193      2.3606     -1.1955     -1.7861     0.86544      5.3238      9.3668    
  11.332      10.952      9.2025      7.2805      5.6575      4.4821      3.7515      3.4042      3.3894      3.7012    
  4.3830      5.5013      7.0853      9.0351      11.006      11.962      10.703      7.0645      7.6184      3.7129    
  1.1518      1.2917      3.9948      7.7322      10.583      11.401      10.337      8.4630      6.6526      5.1987    
  4.1890      3.5954      3.3563      3.4326      3.8310      4.6016      5.8074      7.4598      9.4318      11.342    
  12.161      10.894      11.342      8.7873      5.9354      4.3756      4.9769      7.3087      9.9471      11.430    
  11.154      9.5969      7.7325      6.0705      4.7977      3.9500      3.4829      3.3400      3.4944      3.9627    
  4.7973      6.0532      7.7252      9.6697      11.510      12.325      12.406      11.900      10.241      8.4741    
  7.7376      8.4729      10.114      11.506      11.709      10.600      8.8247      7.0545      5.5671      4.4752    
  3.7765      3.4195      3.3563      3.5713      4.0872      4.9542      6.2167      7.8557      9.7243      11.489    
  11.261      12.322      12.351      11.574      10.736      10.547      11.135      11.952      12.199      11.431    
  9.8658      8.0958      6.4709      5.1692      4.2458      3.6755      3.4075      3.4043      3.6587      4.1956    
  5.0592      6.2826      7.8381      9.5875      9.2688      10.824      12.001      12.495      12.435      12.267    
  12.350      12.635      12.698      12.104      10.794      9.1326      7.4690      6.0195      4.8971      4.1192    
  3.6506      3.4471      3.4811      3.7509      4.2797      5.1034      6.2446      7.6731      7.3762      8.7953    
  10.206      11.417      12.223      12.644      12.876      13.038      13.017      12.557      11.527      10.088    
  8.5052      7.0002      5.7309      4.7652      4.1004      3.7022      3.5359      3.5822      3.8418      4.3331    
  5.0831      6.1067      5.8824      6.9751      8.2075      9.4642      10.620      11.564      12.237      12.664    
  12.828      12.622      11.949      10.857      9.4977      8.0638      6.7352      5.6272      4.7816      4.1907    
  3.8280      3.6693      3.7014      3.9246      4.3514      5.0006      4.8636      5.5923      6.5056      7.5546    
  8.6587      9.7261      10.676      11.441      11.956      12.147      11.941      11.316      10.333      9.1275    
  7.8696      6.7043      5.7198      4.9482      4.3874      4.0228      3.8404      3.8312      3.9933      4.3332    
  4.2800      4.6839      5.2616      6.0065      6.8883      7.8532      8.8347      9.7632      10.565      11.156    
  11.444      11.358      10.880      10.068      9.0463      7.9565      6.9189      6.0086      5.2600      4.6833    
  4.2782      4.0401      3.9629      4.0424      4.0679      4.1959      4.4764      4.9165      5.5156      6.2574    
  7.1093      8.0259      8.9503      9.8089      10.507      10.942      11.030      10.742      10.126      9.2803    
  8.3270      7.3697      6.4807      5.7039      5.0658      4.5817      4.2566      4.0874      4.1958      4.0679    
  4.0875      4.2567      4.5816      5.0657      5.7039      6.4808      7.3698      8.3270      9.2803      10.126    
  10.742      11.030      10.942      10.507      9.8090      8.9504      8.0258      7.1092      6.2575      5.5157    
  4.9165      4.4763      4.6839      4.2799      4.0423      3.9630      4.0402      4.2782      4.6833      5.2599    
  6.0086      6.9189      7.9565      9.0462      10.068      10.880      11.358      11.444      11.156      10.565    
  9.7632      8.8347      7.8531      6.8883      6.0066      5.2617      5.5924      4.8636      4.3331      3.9932    
  3.8312      3.8405      4.0229      4.3873      4.9481      5.7198      6.7044      7.8696      9.1274      10.333    
  11.317      11.941      12.147      11.956      11.441      10.676      9.7260      8.6586      7.5545      6.5056    
  6.9751      5.8825      5.0007      4.3514      3.9245      3.7014      3.6694      3.8281      4.1907      4.7815    
  5.6273      6.7353      8.0638      9.4976      10.857      11.949      12.622      12.828      12.664      12.237    
  11.564      10.620      9.4641      8.2074      8.7952      7.3762      6.1068      5.0832      4.3331      3.8416    
  3.5821      3.5360      3.7023      4.1003      4.7651      5.7310      7.0003      8.5052      10.088      11.527    
  12.557      13.017      13.038      12.876      12.644      12.223      11.417      10.206      10.824      9.2687    
  7.6729      6.2446      5.1035      4.2798      3.7508      3.4810      3.4472      3.6507      4.1191      4.8971    
  6.0195      7.4690      9.1325      10.794      12.104      12.698      12.635      12.350      12.267      12.435    
  12.495      12.001      12.322      11.261      9.5874      7.8379      6.2826      5.0594      4.1956      3.6585    
  3.4042      3.4076      3.6756      4.2458      5.1691      6.4710      8.0959      9.8657      11.431      12.199    
  11.952      11.135      10.547      10.736      11.574      12.351      11.900      12.406      11.489      9.7242    
  7.8556      6.2167      4.9544      4.0872      3.5712      3.3563      3.4196      3.7765      4.4751      5.5671    
  7.0545      8.8247      10.599      11.709      11.506      10.115      8.4729      7.7377      8.4741      10.241    
  8.7871      11.342      12.325      11.510      9.6696      7.7250      6.0532      4.7975      3.9627      3.4943    
  3.3400      3.4830      3.9501      4.7977      6.0705      7.7325      9.5969      11.154      11.430      9.9470    
  7.3087      4.9769      4.3757      5.9354      3.7129      7.6182      10.894      12.162      11.342      9.4318    
  7.4597      5.8074      4.6018      3.8310      3.4325      3.3563      3.5955      4.1890      5.1987      6.6526    
  8.4630      10.337      11.401      10.583      7.7321      3.9947      1.2918      1.1520     -1.1953      2.3606    
  7.0643      10.702      11.962      11.006      9.0350      7.0852      5.5013      4.3831      3.7013      3.3894    
  3.4042      3.7515      4.4821      5.6575      7.2805      9.2025      10.952      11.332      9.3669      5.3237    
 0.86528     -1.7861      1.4930      2.3611      5.4746      9.1721      11.638      11.982      10.594      8.6063    
  6.7564      5.2925      4.2772      3.6692      3.4046      3.4471      3.8080      4.5393      5.6985      7.2824    
  9.1451      10.867      11.407      9.9348      6.7433      3.3093      2.2196     0.79879      2.2198      5.6918    
  9.3632      11.499      11.470      9.9021      7.9551      6.2214      4.8996      4.0217      3.5358      3.3820    
  3.5358      4.0216      4.8996      6.2214      7.9551      9.9020      11.470      11.500      9.3633      5.6916    
  5.4745      2.3608      1.4930      3.3095      6.7434      9.9348      11.406      10.867      9.1452      7.2824    
  5.6985      4.5393      3.8080      3.4471      3.4046      3.6692      4.2771      5.2925      6.7565      8.6063    
  10.594      11.982      11.638      9.1723      9.4986      6.1935      3.7131      3.3948      5.3241      8.2939    
  10.624      11.229      10.168      8.3745      6.6323      5.2207      4.2325      3.6474      3.4075      3.4714    
  3.8403      4.5594      5.6922      7.2652      9.1870      11.170      12.417      11.915      12.333      10.298    
  7.6780      5.9355      6.0197      7.7323      9.8887      11.145      10.862      9.3994      7.6327      6.0417    
  4.8138      3.9948      3.5481      3.4195      3.5795      4.0400      4.8506      6.0693      7.7059      9.6469    
  11.589      12.764      12.981      12.799      11.355      9.5395      8.4741      8.7319      9.9470      11.106    
  11.289      10.282      8.6286      6.9572      5.5401      4.4971      3.8369      3.5145      3.4831      3.7240    
  4.2566      5.1301      6.3930      8.0389      9.9414      11.808      11.794      12.998      13.149      12.355    
  11.297      10.736      10.940      11.506      11.691      11.006      9.5681      7.9136      6.3823      5.1508    
  4.2836      3.7649      3.5482      3.5956      3.8974      4.4763      5.3766      6.6349      8.2315      10.038    
  9.9218      11.531      12.750      13.217      12.996      12.532      12.267      12.269      12.198      11.622    
  10.409      8.8569      7.2991      5.9388      4.8912      4.1816      3.7813      3.6477      3.7518      4.0899    
  4.6839      5.5699      6.7725      8.2632      8.1297      9.6015      11.033      12.211      12.897      13.089    
  13.015      12.876      12.644      12.104      11.095      9.7249      8.2380      6.8310      5.6531      4.7739    
  4.1952      3.8851      3.8082      3.9432      4.2890      4.8635      5.6934      6.7924      6.6928      7.8436    
  9.1055      10.346      11.420      12.198      12.623      12.761      12.664      12.280      11.526      10.430    
  9.1263      7.7800      6.5507      5.5461      4.8068      4.3248      4.0722      4.0219      4.1584      4.4806    
  5.0006      5.7358      5.6932      6.4836      7.4325      8.4800      9.5311      10.481      11.242      11.761    
  12.007      11.956      11.573      10.857      9.8639      8.7105      7.5431      6.4903      5.6313      4.9927    
  4.5670      4.3347      4.2772      4.3833      4.6499      5.0831      5.1034      5.5697      6.1847      6.9350    
  7.7810      8.6589      9.4946      10.218      10.772      11.101      11.156      10.899      10.333      9.5149    
  8.5524      7.5690      6.6682      5.9132      5.3282      4.9134      4.6605      4.5594      4.6018      4.7828    
  4.8676      5.0593      5.3764      5.8231      6.3942      7.0671      7.8025      8.5503      9.2563      9.8617    
  10.301      10.508      10.433      10.068      9.4599      8.6952      7.8753      7.0864      6.3853      5.8019    
  5.3495      5.0327      4.8504      4.7974      4.9542      4.8968      4.9544      5.1299      5.4291      5.8531    
  6.3926      7.0272      7.7271      8.4515      9.1437      9.7292      10.126      10.266      10.126      9.7292    
  9.1438      8.4515      7.7270      7.0271      6.3926      5.8533      5.4292      5.1298      5.3763      5.0591    
  4.8676      4.7975      4.8506      5.0327      5.3494      5.8019      6.3854      7.0865      7.8753      8.6951    
  9.4599      10.068      10.433      10.507      10.301      9.8618      9.2564      8.5503      7.8023      7.0671    
  6.3944      5.8232      6.1848      5.5697      5.1032      4.7827      4.6019      4.5596      4.6605      4.9133    
  5.3281      5.9133      6.6683      7.5689      8.5523      9.5149      10.333      10.899      11.156      11.101    
  10.772      10.219      9.4945      8.6588      7.7809      6.9351      7.4326      6.4838      5.6933      5.0830    
  4.6498      4.3832      4.2774      4.3348      4.5670      4.9925      5.6313      6.4904      7.5431      8.7104    
  9.8639      10.857      11.573      11.956      12.007      11.761      11.242      10.481      9.5310      8.4799    
  9.1054      7.8436      6.6930      5.7359      5.0005      4.4805      4.1583      4.0220      4.0723      4.3248    
  4.8067      5.5461      6.5508      7.7800      9.1262      10.430      11.526      12.280      12.664      12.761    
  12.623      12.198      11.420      10.346      11.033      9.6013      8.1296      6.7925      5.6935      4.8635    
  4.2888      3.9431      3.8083      3.8852      4.1952      4.7738      5.6531      6.8311      8.2379      9.7248    
  11.095      12.104      12.644      12.876      13.015      13.089      12.898      12.211      12.750      11.531    
  9.9217      8.2631      6.7725      5.5701      4.6839      4.0897      3.7517      3.6478      3.7814      4.1816    
  4.8911      5.9388      7.2992      8.8569      10.409      11.622      12.198      12.269      12.266      12.532    
  12.996      13.217      13.149      12.998      11.795      10.038      8.2313      6.6349      5.3768      4.4764    
  3.8973      3.5956      3.5483      3.7649      4.2836      5.1507      6.3824      7.9137      9.5680      11.006    
  11.691      11.506      10.940      10.736      11.297      12.355      11.354      12.799      12.981      11.808    
  9.9413      8.0387      6.3930      5.1302      4.2566      3.7238      3.4830      3.5146      3.8369      4.4971    
  5.5401      6.9572      8.6286      10.282      11.289      11.106      9.9470      8.7320      8.4741      9.5395    
  7.6780      10.298      12.333      12.764      11.589      9.6469      7.7057      6.0692      4.8507      4.0400    
  3.5794      3.4195      3.5481      3.9948      4.8138      6.0417      7.6327      9.3995      10.862      11.145    
  9.8886      7.7322      6.0197      5.9356      3.7133      6.1935      9.4984      11.915      12.417      11.171    
  9.1869      7.2650      5.6922      4.5595      3.8404      3.4713      3.4075      3.6475      4.2325      5.2206    
  6.6323      8.3745      10.168      11.229      10.624      8.2938      5.3239      3.3949      7.0910      7.6186    
  9.4984      11.626      12.764      12.350      10.762      8.8492      7.0833      5.6691      4.6607      4.0229    
  3.6982      3.6507      3.8851      4.4429      5.3774      6.7044      8.3386      10.049      11.271      11.257    
  9.9348      8.1319      7.2668      6.2763      7.0648      9.1721      11.321      12.287      11.663      9.9927    
  8.1303      6.4769      5.2023      4.3348      3.8281      3.6263      3.7023      4.0722      4.7863      5.8966    
  7.3992      9.1658      10.885      11.803      11.236      9.3631      9.1720      7.0645      6.2763      7.2670    
  9.3632      11.236      11.803      10.885      9.1658      7.3992      5.8966      4.7863      4.0722      3.7023    
  3.6263      3.8281      4.3347      5.2023      6.4770      8.1303      9.9926      11.663      12.287      11.322    
  11.626      9.4983      7.6184      7.0909      8.1320      9.9349      11.257      11.271      10.049      8.3386    
  6.7044      5.3774      4.4429      3.8851      3.6507      3.6982      4.0229      4.6606      5.6691      7.0834    
  8.8492      10.762      12.350      12.765      13.234      12.154      10.298      8.7871      8.4782      9.3671    
  10.625      11.220      10.647      9.1987      7.5583      6.0844      4.9456      4.1879      3.7813      3.6756    
  3.8395      4.2782      5.0329      6.1577      7.6729      9.4993      11.409      12.909      13.289      13.635    
  12.791      11.354      10.241      10.036      10.584      11.145      10.987      9.9235      8.3898      6.8623    
  5.5680      4.6196      4.0311      3.7649      3.7767      4.0447      4.5817      5.4294      6.6337      8.1974    
  10.022      11.871      12.095      13.426      13.862      13.341      12.355      11.573      11.339      11.430    
  11.289      10.505      9.1565      7.6602      6.2804      5.1757      4.4111      3.9783      3.8370      3.9503    
  4.3046      4.9165      5.8234      7.0589      8.6089      10.364      10.485      12.047      13.270      13.801    
  13.595      12.996      12.434      12.073      11.709      11.006      9.8395      8.4347      7.0434      5.8370    
  4.9220      4.3274      4.0312      3.9950      4.1893      4.6062      5.2615      6.1849      7.3958      8.8666    
  8.9427      10.371      11.725      12.801      13.382      13.413      13.089      12.643      12.134      11.431    
  10.409      9.1435      7.8128      6.5731      5.5527      4.8169      4.3713      4.1879      4.2327      4.4824    
  4.9315      5.5921      6.4836      7.6124      7.6870      8.8282      10.029      11.154      12.057      12.618    
  12.783      12.623      12.237      11.640      10.794      9.7249      8.5329      7.3418      6.2815      5.4441    
  4.8669      4.5425      4.4429      4.5395      4.8133      5.2588      5.8822      6.6927      6.7920      7.6121    
  8.5346      9.4930      10.391      11.124      11.614      11.826      11.761      11.441      10.876      10.087    
  9.1263      8.0825      7.0708      6.1958      5.5235      5.0743      4.8367      4.7862      4.8997      5.1612    
  5.5634      6.1065      6.2443      6.7719      7.3953      8.0916      8.8164      9.5065      10.094      10.522    
  10.754      10.772      10.565      10.134      9.4976      8.7105      7.8582      7.0390      6.3356      5.7969    
  5.4364      5.2442      5.2022      5.2925      5.5014      5.8201      6.0060      6.2824      6.6343      7.0583    
  7.5425      8.0623      8.5818      9.0598      9.4563      9.7348      9.8619      9.8091      9.5608      9.1274    
  8.5524      7.9070      7.2704      6.7089      6.2618      5.9428      5.7486      5.6688      5.6920      5.8074    
  6.0531      6.1036      6.2166      6.3925      6.6331      6.9369      7.2953      7.6928      8.1081      8.5135    
  8.8732      9.1439      9.2804      9.2501      9.0463      8.6952      8.2490      7.7688      7.3084      6.9037    
  6.5735      6.3245      6.1573      6.0688      6.3924      6.2165      6.1036      6.0532      6.0690      6.1573    
  6.3243      6.5734      6.9038      7.3085      7.7688      8.2489      8.6952      9.0464      9.2501      9.2803    
  9.1438      8.8733      8.5135      8.1080      7.6927      7.2953      6.9371      6.6332      7.0584      6.6343    
  6.2822      6.0059      5.8075      5.6922      5.6688      5.7484      5.9428      6.2619      6.7090      7.2704    
  7.9069      8.5524      9.1275      9.5608      9.8090      9.8618      9.7349      9.4564      9.0598      8.5816    
  8.0622      7.5426      8.0917      7.3955      6.7720      6.2442      5.8199      5.5014      5.2926      5.2023    
  5.2441      5.4362      5.7970      6.3357      7.0390      7.8581      8.7105      9.4977      10.134      10.565    
  10.772      10.755      10.522      10.094      9.5064      8.8163      9.4929      8.5347      7.6122      6.7921    
  6.1064      5.5633      5.1611      4.8999      4.7863      4.8366      5.0742      5.5236      6.1959      7.0707    
  8.0824      9.1263      10.088      10.876      11.440      11.761      11.826      11.614      11.124      10.391    
  11.154      10.029      8.8282      7.6871      6.6928      5.8822      5.2586      4.8132      4.5396      4.4431    
  4.5424      4.8668      5.4442      6.2816      7.3418      8.5328      9.7249      10.794      11.640      12.237    
  12.623      12.783      12.619      12.057      12.801      11.725      10.371      8.9425      7.6124      6.4838    
  5.5922      4.9313      4.4823      4.2329      4.1880      4.3712      4.8168      5.5528      6.5732      7.8128    
  9.1434      10.409      11.431      12.134      12.643      13.089      13.413      13.382      13.801      13.270    
  12.047      10.485      8.8664      7.3958      6.1851      5.2616      4.6060      4.1892      3.9951      4.0313    
  4.3273      4.9219      5.8371      7.0435      8.4347      9.8394      11.006      11.709      12.073      12.434    
  12.996      13.595      13.341      13.862      13.427      12.095      10.363      8.6087      7.0589      5.8236    
  4.9165      4.3045      3.9502      3.8371      3.9784      4.4111      5.1756      6.2804      7.6603      9.1565    
  10.505      11.289      11.430      11.339      11.574      12.355      11.354      12.791      13.635      13.289    
  11.871      10.022      8.1971      6.6337      5.4296      4.5817      4.0446      3.7766      3.7650      4.0312    
  4.6195      5.5680      6.8623      8.3899      9.9235      10.987      11.145      10.584      10.036      10.241    
  8.7873      10.298      12.154      13.234      12.910      11.409      9.4993      7.6727      6.1577      5.0330    
  4.2782      3.8394      3.6756      3.7813      4.1879      4.9456      6.0844      7.5583      9.1987      10.647    
  11.220      10.624      9.3670      8.4783      10.887      11.342      12.333      13.233      13.358      12.469    
  10.926      9.2190      7.6306      6.3246      5.3497      4.6834      4.2827      4.1193      4.1953      4.5425    
  5.2057      6.2094      7.5136      8.9797      10.373      11.271      11.406      11.066      10.794      10.444    
  10.894      11.914      12.764      12.745      11.707      10.106      8.4263      6.9281      5.7487      4.9136    
  4.3875      4.1247      4.1006      4.3249      4.8367      5.6818      6.8727      8.3386      9.8961      11.224    
  11.803      11.499      11.638      10.702      10.272      10.703      11.638      12.287      12.022      10.827    
  9.2213      7.6258      6.2654      5.2443      4.5671      4.1908      4.0713      4.1909      4.5671      5.2443    
  6.2654      7.6258      9.2212      10.827      12.022      12.287      12.764      11.914      10.893      10.444    
  10.794      11.499      11.803      11.224      9.8962      8.3386      6.8727      5.6818      4.8367      4.3249    
  4.1006      4.1247      4.3876      4.9135      5.7487      6.9282      8.4263      10.106      11.707      12.745    
  13.358      13.233      12.333      11.342      10.887      11.066      11.406      11.271      10.373      8.9797    
  7.5136      6.2094      5.2057      4.5425      4.1953      4.1193      4.2828      4.6834      5.3496      6.3246    
  7.6307      9.2190      10.926      12.469      13.041      13.805      13.635      12.798      11.899      11.412    
  11.332      11.229      10.647      9.5049      8.1262      6.7877      5.6657      4.8554      4.3713      4.1817    
  4.2459      4.5395      5.0658      5.8533      6.9372      8.3228      9.9393      11.606      12.075      13.356    