unknown system                          
   1.00000000000000     
    -2.450000    2.450000    1.274000
     2.450000   -2.450000    1.274000
     2.450000    2.450000   -1.274000
   Si
     2
Direct
  0.250000  0.750000  0.500000
  0.000000  0.000000  0.000000
 
   24   24   24
 -.55605891218E+01 -.35397122561E+01 0.14912091007E+01 0.70899109187E+01 0.10886396136E+02
 0.11860256466E+02 0.10611260907E+02 0.85852877558E+01 0.67097693703E+01 0.52590017010E+01
 0.42898268890E+01 0.37524987236E+01 0.35823983334E+01 0.37525504406E+01 0.42898065659E+01
 0.52589358846E+01 0.67097841426E+01 0.85853184216E+01 0.10611156757E+02 0.11860112237E+02
 0.10886408459E+02 0.70899760452E+01 0.14910771918E+01 -.35399447790E+01 -.35399447790E+01
 -.45774305548E+01 -.17879264911E+01 0.33936622926E+01 0.84777592066E+01 0.11412174408E+02
 0.11628869462E+02 0.10027139960E+02 0.80085302395E+01 0.62439151930E+01 0.49319285987E+01
 0.40909232699E+01 0.36604204424E+01 0.35823906343E+01 0.38431319715E+01 0.44811381625E+01
 0.55632808042E+01 0.71234348694E+01 0.90658960110E+01 0.11038554301E+02 0.11942991374E+02
 0.10443273192E+02 0.62750300392E+01 0.79664475616E+00 0.14910771918E+01 -.17881289245E+01
 -.18640900715E+01 0.12906835578E+01 0.60193016618E+01 0.10036619403E+02 0.11788443326E+02
 0.11187382062E+02 0.93300609140E+01 0.73802413150E+01 0.57624221630E+01 0.46068236233E+01
 0.38987031135E+01 0.35731681428E+01 0.35823274616E+01 0.39257056210E+01 0.46501588101E+01
 0.58197503679E+01 0.74495492745E+01 0.94110640515E+01 0.11294261340E+02 0.11957398829E+02
 0.10271503621E+02 0.62750300392E+01 0.70899760452E+01 0.33935604539E+01 0.12905354382E+01
 0.19431076295E+01 0.49768157282E+01 0.87324307698E+01 0.11339766785E+02 0.11829480218E+02
 0.10532636602E+02 0.85774113040E+01 0.67461341801E+01 0.52995210928E+01 0.43055286921E+01
 0.37254657403E+01 0.34963095184E+01 0.35822261776E+01 0.39940855518E+01 0.47828232396E+01
 0.60054644744E+01 0.76584830899E+01 0.95915241100E+01 0.11378812546E+02 0.11957398829E+02
 0.10443273192E+02 0.10886408459E+02 0.84778146258E+01 0.60192431433E+01 0.49767366106E+01
 0.59998658876E+01 0.84737072444E+01 0.10941705196E+02 0.12074346645E+02 0.11467878089E+02
 0.97379746088E+01 0.78218709702E+01 0.61492153536E+01 0.48844135292E+01 0.40457504457E+01
 0.35811701265E+01 0.34345175852E+01 0.35820945798E+01 0.40429183645E+01 0.48675350582E+01
 0.61030440510E+01 0.77304611954E+01 0.95915241100E+01 0.11294261340E+02 0.11942991374E+02
 0.11860112237E+02 0.11412184005E+02 0.10036661473E+02 0.87324198882E+01 0.84736987457E+01
 0.95008073297E+01 0.11136268375E+02 0.12270411140E+02 0.12135095994E+02 0.10781003586E+02
 0.89171076606E+01 0.71165760070E+01 0.56269690851E+01 0.45401676194E+01 0.38407599009E+01
 0.34731919527E+01 0.33913073811E+01 0.35819688521E+01 0.40683620704E+01 0.48966750364E+01
 0.61030440510E+01 0.76584830899E+01 0.94110640515E+01 0.11038554301E+02 0.10611156757E+02
 0.11628791983E+02 0.11788448436E+02 0.11339790541E+02 0.10941735338E+02 0.11136320307E+02
 0.11898672656E+02 0.12637116481E+02 0.12645745213E+02 0.11641441160E+02 0.99602592216E+01
 0.81487399666E+01 0.65112317848E+01 0.52096755260E+01 0.42835062139E+01 0.36995708723E+01
 0.34065042288E+01 0.33691074132E+01 0.35819295973E+01 0.40683620704E+01 0.48675350582E+01
 0.60054644744E+01 0.74495492745E+01 0.90658960110E+01 0.85853184216E+01 0.10027124076E+02
 0.11187369970E+02 0.11829476334E+02 0.12074348342E+02 0.12270469566E+02 0.12637210979E+02
 0.13026037802E+02 0.13018587084E+02 0.12282156770E+02 0.10876752348E+02 0.91818049963E+01
 0.75019456108E+01 0.60477144042E+01 0.49195586921E+01 0.41254288706E+01 0.36277041028E+01
 0.33839795545E+01 0.33691074132E+01 0.35819688521E+01 0.40429183645E+01 0.47828232396E+01
 0.58197503679E+01 0.71234348694E+01 0.67097841426E+01 0.80085826631E+01 0.93301190614E+01
 0.10532677241E+02 0.11467865042E+02 0.12135076742E+02 0.12645816370E+02 0.13018702870E+02
 0.13087113767E+02 0.12623878563E+02 0.11574473095E+02 0.10134259068E+02 0.85458181536E+01
 0.70356278902E+01 0.57570612300E+01 0.47710206017E+01 0.40720950711E+01 0.36277041028E+01
 0.34065042288E+01 0.33913073811E+01 0.35820945798E+01 0.39940855518E+01 0.46501588101E+01
 0.55632808042E+01 0.52589358846E+01 0.62439107444E+01 0.73802998268E+01 0.85775190192E+01
 0.97380526550E+01 0.10780985051E+02 0.11641404807E+02 0.12282226359E+02 0.12623997077E+02
 0.12536197396E+02 0.11942725073E+02 0.10900089387E+02 0.95611817281E+01 0.81306759640E+01
 0.67917326646E+01 0.56581021526E+01 0.47710206017E+01 0.41254288706E+01 0.36995708723E+01
 0.34731919527E+01 0.34345175852E+01 0.35822261776E+01 0.39257056210E+01 0.44811381625E+01
 0.42898065659E+01 0.49318923367E+01 0.57623999797E+01 0.67461841635E+01 0.78219995978E+01
 0.89172069822E+01 0.99602415545E+01 0.10876706013E+02 0.11574531896E+02 0.11942834050E+02
 0.11882931496E+02 0.11359322349E+02 0.10433308023E+02 0.92502426714E+01 0.79865971672E+01
 0.67917326646E+01 0.57570612300E+01 0.49195586921E+01 0.42835062139E+01 0.38407599009E+01
 0.35811701265E+01 0.34963095184E+01 0.35823274616E+01 0.38431319715E+01 0.37525504406E+01
 0.40909725594E+01 0.46068219498E+01 0.52994872980E+01 0.61492427000E+01 0.71167001703E+01
 0.81488498465E+01 0.91817958886E+01 0.10134208606E+02 0.10900132800E+02 0.11359417495E+02
 0.11413604385E+02 0.11030592258E+02 0.10267040508E+02 0.92502426714E+01 0.81306759640E+01
 0.70356278902E+01 0.60477144042E+01 0.52096755260E+01 0.45401676194E+01 0.40457504457E+01
 0.37254657403E+01 0.35731681428E+01 0.35823906343E+01 0.35823983334E+01 0.36605049659E+01
 0.38988089119E+01 0.43055669911E+01 0.48843770629E+01 0.56269680897E+01 0.65113364996E+01
 0.75020583843E+01 0.85458188776E+01 0.95611291996E+01 0.10433338350E+02 0.11030678097E+02
 0.11243990904E+02 0.11030592258E+02 0.10433308023E+02 0.95611817281E+01 0.85458181536E+01
 0.75019456108E+01 0.65112317848E+01 0.56269690851E+01 0.48844135292E+01 0.43055286921E+01
 0.38987031135E+01 0.36604204424E+01 0.37524987236E+01 0.35823954322E+01 0.35732657216E+01
 0.37256153350E+01 0.40458350656E+01 0.45401390711E+01 0.52096453524E+01 0.60477914416E+01
 0.70357372912E+01 0.81306840545E+01 0.92501899318E+01 0.10267066071E+02 0.11030678097E+02
 0.11413604385E+02 0.11359322349E+02 0.10900089387E+02 0.10134259068E+02 0.91818049963E+01
 0.81487399666E+01 0.71165760070E+01 0.61492153536E+01 0.52995210928E+01 0.46068236233E+01
 0.40909232699E+01 0.42898268890E+01 0.38431297226E+01 0.35823378529E+01 0.34964081822E+01
 0.35813543781E+01 0.38408897002E+01 0.42834862324E+01 0.49195013480E+01 0.57571145650E+01
 0.67918395248E+01 0.79866085515E+01 0.92501899318E+01 0.10433338350E+02 0.11359417495E+02
 0.11882931496E+02 0.11942725073E+02 0.11574473095E+02 0.10876752348E+02 0.99602592216E+01
 0.89171076606E+01 0.78218709702E+01 0.67461341801E+01 0.57624221630E+01 0.49319285987E+01
 0.52590017010E+01 0.44812381853E+01 0.39257676186E+01 0.35822462494E+01 0.34346095886E+01
 0.34733980297E+01 0.36997330475E+01 0.41254146695E+01 0.47709481289E+01 0.56581471090E+01
 0.67918395248E+01 0.81306840545E+01 0.95611291996E+01 0.10900132800E+02 0.11942834050E+02
 0.12536197396E+02 0.12623878563E+02 0.12282156770E+02 0.11641441160E+02 0.10781003586E+02
 0.97379746088E+01 0.85774113040E+01 0.73802413150E+01 0.62439151930E+01 0.67097693703E+01
 0.55633751502E+01 0.46503427793E+01 0.39942139680E+01 0.35821214682E+01 0.33913872911E+01
 0.34067213626E+01 0.36278846968E+01 0.40720838996E+01 0.47709481289E+01 0.57571145650E+01
 0.70357372912E+01 0.85458188776E+01 0.10134208606E+02 0.11574531896E+02 0.12623997077E+02
 0.13087113767E+02 0.13018587084E+02 0.12645745213E+02 0.12135095994E+02 0.11467878089E+02
 0.10532636602E+02 0.93300609140E+01 0.80085302395E+01 0.85852877558E+01 0.71234058317E+01
 0.58198697492E+01 0.47830786060E+01 0.40430981023E+01 0.35819987794E+01 0.33691800820E+01
 0.33842011317E+01 0.36278846968E+01 0.41254146695E+01 0.49195013480E+01 0.60477914416E+01
 0.75020583843E+01 0.91817958886E+01 0.10876706013E+02 0.12282226359E+02 0.13018702870E+02
 0.13026037802E+02 0.12637116481E+02 0.12270411140E+02 0.12074346645E+02 0.11829480218E+02
 0.11187382062E+02 0.10027139960E+02 0.10611260907E+02 0.90658945627E+01 0.74495071096E+01
 0.60055991321E+01 0.48678379498E+01 0.40685712330E+01 0.35819614734E+01 0.33691800820E+01
 0.34067213626E+01 0.36997330475E+01 0.42834862324E+01 0.52096453524E+01 0.65113364996E+01
 0.81488498465E+01 0.99602415545E+01 0.11641404807E+02 0.12645816370E+02 0.12637210979E+02
 0.11898672656E+02 0.11136268375E+02 0.10941705196E+02 0.11339766785E+02 0.11788443326E+02
 0.11628869462E+02 0.11860256466E+02 0.11038739053E+02 0.94110864774E+01 0.76584311347E+01
 0.61031874015E+01 0.48969957575E+01 0.40685712330E+01 0.35819987794E+01 0.33913872911E+01
 0.34733980297E+01 0.38408897002E+01 0.45401390711E+01 0.56269680897E+01 0.71167001703E+01
 0.89172069822E+01 0.10780985051E+02 0.12135076742E+02 0.12270469566E+02 0.11136320307E+02
 0.95008073297E+01 0.84737072444E+01 0.87324307698E+01 0.10036619403E+02 0.11412174408E+02
 0.10886396136E+02 0.11943188005E+02 0.11294502014E+02 0.95915610776E+01 0.77304066360E+01
 0.61031874015E+01 0.48678379498E+01 0.40430981023E+01 0.35821214682E+01 0.34346095886E+01
 0.35813543781E+01 0.40458350656E+01 0.48843770629E+01 0.61492427000E+01 0.78219995978E+01
 0.97380526550E+01 0.11467865042E+02 0.12074348342E+02 0.10941735338E+02 0.84736987457E+01
 0.59998658876E+01 0.49768157282E+01 0.60193016618E+01 0.84777592066E+01 0.70899109187E+01
 0.10443259353E+02 0.11957625320E+02 0.11379074063E+02 0.95915610776E+01 0.76584311347E+01
 0.60055991321E+01 0.47830786060E+01 0.39942139680E+01 0.35822462494E+01 0.34964081822E+01
 0.37256153350E+01 0.43055669911E+01 0.52994872980E+01 0.67461841635E+01 0.85775190192E+01
 0.10532677241E+02 0.11829476334E+02 0.11339790541E+02 0.87324198882E+01 0.49767366106E+01
 0.19431076295E+01 0.12906835578E+01 0.33936622926E+01 0.14912091007E+01 0.62749604363E+01
 0.10271489890E+02 0.11957625320E+02 0.11294502014E+02 0.94110864774E+01 0.74495071096E+01
 0.58198697492E+01 0.46503427793E+01 0.39257676186E+01 0.35823378529E+01 0.35732657216E+01
 0.38988089119E+01 0.46068219498E+01 0.57623999797E+01 0.73802998268E+01 0.93301190614E+01
 0.11187369970E+02 0.11788448436E+02 0.10036661473E+02 0.60192431433E+01 0.12905354382E+01
 -.18640900715E+01 -.17879264911E+01 -.35397122561E+01 0.79678773538E+00 0.62749604363E+01
 0.10443259353E+02 0.11943188005E+02 0.11038739053E+02 0.90658945627E+01 0.71234058317E+01
 0.55633751502E+01 0.44812381853E+01 0.38431297226E+01 0.35823954322E+01 0.36605049659E+01
 0.40909725594E+01 0.49318923367E+01 0.62439107444E+01 0.80085826631E+01 0.10027124076E+02
 0.11628791983E+02 0.11412184005E+02 0.84778146258E+01 0.33935604539E+01 -.17881289245E+01
 -.45774305548E+01 -.35395301797E+01 -.21035829874E+01 0.22182135137E+01 0.72659342699E+01
 0.10793610403E+02 0.11725386565E+02 0.10519079148E+02 0.85149424476E+01 0.66351149454E+01
 0.51613225822E+01 0.41592265355E+01 0.35837916702E+01 0.33692038620E+01 0.34828515841E+01
 0.39441996421E+01 0.48135670525E+01 0.61472395544E+01 0.79152887391E+01 0.99051145606E+01
 0.11406652300E+02 0.11065479491E+02 0.81312265001E+01 0.33079584151E+01 -.13513399265E+01
 -.21038161515E+01 -.35395369348E+01 -.13510998031E+01 0.33081431317E+01 0.81312191066E+01
 0.11065458415E+02 0.11406748878E+02 0.99052333656E+01 0.79153436192E+01 0.61472802616E+01
 0.48136238650E+01 0.39442255084E+01 0.34828459917E+01 0.33692008317E+01 0.35837488761E+01
 0.41591063450E+01 0.51612180015E+01 0.66350985601E+01 0.85148967694E+01 0.10518903306E+02
 0.11725235461E+02 0.10793653319E+02 0.72660145498E+01 0.22180821486E+01 0.23594242033E+01
 -.11971612452E+01 -.17877562973E+01 0.86430453792E+00 0.53233579288E+01 0.93667938834E+01
 0.11331735579E+02 0.10951877261E+02 0.92023112752E+01 0.72802959047E+01 0.56577645016E+01
 0.44829735824E+01 0.37530790499E+01 0.34061872202E+01 0.33913263482E+01 0.37027400739E+01
 0.43837640691E+01 0.55012904680E+01 0.70848052152E+01 0.90344279855E+01 0.11005230966E+02
 0.11961878616E+02 0.10702132517E+02 0.70638244419E+01 0.76179561758E+01 0.37121268756E+01
 0.11507863928E+01 0.12908035722E+01 0.39944409076E+01 0.77323424257E+01 0.10583853938E+02
 0.11400839485E+02 0.10336758813E+02 0.84629109265E+01 0.66525762073E+01 0.51991808889E+01
 0.41901834023E+01 0.35971495352E+01 0.33583470481E+01 0.34344278554E+01 0.38322758084E+01
 0.46021454789E+01 0.58071234069E+01 0.74591371246E+01 0.94311415124E+01 0.11341475752E+02
 0.12160964714E+02 0.10893448914E+02 0.11342023516E+02 0.87871530365E+01 0.59351672846E+01
 0.43753031857E+01 0.49769052533E+01 0.73091478615E+01 0.99478505217E+01 0.11431146601E+02
 0.11154989281E+02 0.95970525353E+01 0.77324255231E+01 0.60706335329E+01 0.47983784176E+01
 0.39513864563E+01 0.34848296421E+01 0.33421044252E+01 0.34961199845E+01 0.39637397609E+01
 0.47975781689E+01 0.60527991190E+01 0.77243752496E+01 0.96689318040E+01 0.11509209262E+02
 0.12324966355E+02 0.12405467466E+02 0.11899862763E+02 0.10241747352E+02 0.84745549107E+01
 0.77382082874E+01 0.84737415688E+01 0.10115643968E+02 0.11507048531E+02 0.11710397671E+02
 0.10600087685E+02 0.88247971397E+01 0.70544047795E+01 0.55673512026E+01 0.44760201734E+01
 0.37779956970E+01 0.34214321233E+01 0.33583526228E+01 0.35728911635E+01 0.40880868911E+01
 0.49543123838E+01 0.62161569805E+01 0.78548826728E+01 0.97235606688E+01 0.11488200198E+02
 0.11260467259E+02 0.12321983166E+02 0.12351274783E+02 0.11574490148E+02 0.10736866424E+02
 0.10547883737E+02 0.11136243484E+02 0.11953191459E+02 0.12199995101E+02 0.11432092799E+02
 0.98662255638E+01 0.80957631173E+01 0.64708124420E+01 0.51694909927E+01 0.42467747483E+01
 0.36770834253E+01 0.34094919244E+01 0.34062100430E+01 0.36601427775E+01 0.41963373450E+01
 0.50591890501E+01 0.62819370272E+01 0.78371940015E+01 0.95867457940E+01 0.92681490707E+01
 0.10823580011E+02 0.12000859957E+02 0.12495153288E+02 0.12435711354E+02 0.12268164682E+02
 0.12352000424E+02 0.12637049569E+02 0.12699222762E+02 0.12105218965E+02 0.10794794694E+02
 0.91327842158E+01 0.74687929857E+01 0.60193336509E+01 0.48974591160E+01 0.41201618305E+01
 0.36521727205E+01 0.34490262862E+01 0.34829004033E+01 0.37522763130E+01 0.42803956829E+01
 0.51033177428E+01 0.62439866805E+01 0.76722248068E+01 0.73754478194E+01 0.87946729989E+01
 0.10205761135E+02 0.11417079210E+02 0.12223294464E+02 0.12644722466E+02 0.12877421478E+02
 0.13040144742E+02 0.13018477990E+02 0.12558578359E+02 0.11527782245E+02 0.10088256194E+02
 0.85051765368E+01 0.69998856014E+01 0.57307775532E+01 0.47655303320E+01 0.41013289998E+01
 0.37036877179E+01 0.35376851860E+01 0.35839026369E+01 0.38430476243E+01 0.43337356305E+01
 0.50830803423E+01 0.61062058346E+01 0.58819996191E+01 0.69744902186E+01 0.82069187129E+01
 0.94639252799E+01 0.10620475336E+02 0.11564283750E+02 0.12238161366E+02 0.12665483517E+02
 0.12829379089E+02 0.12623796173E+02 0.11950728337E+02 0.10858012867E+02 0.94980073380E+01
 0.80636091513E+01 0.67348443240E+01 0.56269918661E+01 0.47818365009E+01 0.41914974434E+01
 0.38293375329E+01 0.36709242252E+01 0.37030255516E+01 0.39258615542E+01 0.43520790729E+01
 0.50007030600E+01 0.48638103796E+01 0.55920794241E+01 0.65050763931E+01 0.75540681763E+01
 0.86584013677E+01 0.97260883168E+01 0.10675978876E+02 0.11441386967E+02 0.11957265082E+02
 0.12148716668E+02 0.11942672359E+02 0.11317615895E+02 0.10333489644E+02 0.91276197326E+01
 0.78693045974E+01 0.67038234518E+01 0.57194361655E+01 0.49483072693E+01 0.43880359991E+01
 0.40239486748E+01 0.38418430422E+01 0.38326498252E+01 0.39944712769E+01 0.43339628940E+01
 0.42808065573E+01 0.46843512507E+01 0.52615933840E+01 0.60062087340E+01 0.68878451857E+01
 0.78527818421E+01 0.88344938308E+01 0.97632987081E+01 0.10565556323E+02 0.11156815530E+02
 0.11445654516E+02 0.11359320340E+02 0.10880574394E+02 0.10068830505E+02 0.90463530851E+01
 0.79561698818E+01 0.69183339195E+01 0.60081235565E+01 0.52599469419E+01 0.46837461098E+01
 0.42790280455E+01 0.40412370233E+01 0.39641957210E+01 0.40434984224E+01 0.40690172698E+01
 0.41968668618E+01 0.44770563321E+01 0.49167767553E+01 0.55155097687E+01 0.62571009200E+01
 0.71088791217E+01 0.80255335618E+01 0.89501949787E+01 0.98092031774E+01 0.10508190904E+02
 0.10943118354E+02 0.11030622871E+02 0.10743337919E+02 0.10126136397E+02 0.92804441297E+01
 0.83267408573E+01 0.73692253179E+01 0.64801789354E+01 0.57036626566E+01 0.50659950416E+01
 0.45822366006E+01 0.42575134326E+01 0.40885296565E+01 0.41967249685E+01 0.40689953329E+01
 0.40886408503E+01 0.42576290000E+01 0.45822414998E+01 0.50659295052E+01 0.57036675409E+01
 0.64802967043E+01 0.73693314113E+01 0.83267291057E+01 0.92803883617E+01 0.10126164341E+02
 0.10743417711E+02 0.11030621557E+02 0.10943036453E+02 0.10508167640E+02 0.98092754158E+01
 0.89502209513E+01 0.80254189948E+01 0.71087358614E+01 0.62570837064E+01 0.55155907947E+01
 0.49167943431E+01 0.44769404624E+01 0.46842812495E+01 0.42806604503E+01 0.40434063374E+01
 0.39642485091E+01 0.40413776428E+01 0.42791052455E+01 0.46837053152E+01 0.52599088569E+01
 0.60082022487E+01 0.69184519023E+01 0.79561815716E+01 0.90462846757E+01 0.10068832329E+02
 0.10880662280E+02 0.11359352827E+02 0.11445583173E+02 0.11156769476E+02 0.10565614298E+02
 0.97633457669E+01 0.88344051531E+01 0.78526220782E+01 0.68877712465E+01 0.60062500942E+01
 0.52616311468E+01 0.55921218944E+01 0.48637696952E+01 0.43338309943E+01 0.39943587858E+01
 0.38326832195E+01 0.38420011049E+01 0.40240600652E+01 0.43880048977E+01 0.49482527814E+01
 0.57194967255E+01 0.67039232308E+01 0.78692902595E+01 0.91275381704E+01 0.10333514665E+02
 0.11317739644E+02 0.11942707619E+02 0.12148613066E+02 0.11957190518E+02 0.11441440948E+02
 0.10676028351E+02 0.97259862920E+01 0.86582096781E+01 0.75539539182E+01 0.65050898112E+01
 0.69744294399E+01 0.58820250919E+01 0.50007397884E+01 0.43520262548E+01 0.39257474182E+01
 0.37030183995E+01 0.36710870122E+01 0.38294944940E+01 0.41914821073E+01 0.47817454167E+01
 0.56270070331E+01 0.67349282213E+01 0.80636048047E+01 0.94979413094E+01 0.10858044469E+02
 0.11950846740E+02 0.12623817668E+02 0.12829252390E+02 0.12665360662E+02 0.12238142221E+02
 0.11564284250E+02 0.10620388350E+02 0.94637670792E+01 0.82067765179E+01 0.87945116415E+01
 0.73753475118E+01 0.61062527540E+01 0.50831962639E+01 0.43337429547E+01 0.38429464891E+01
 0.35839051224E+01 0.35378714478E+01 0.37038438378E+01 0.41012785781E+01 0.47654171734E+01
 0.57308064401E+01 0.69999845025E+01 0.85051630683E+01 0.10088178310E+02 0.11527814320E+02
 0.12558685037E+02 0.13018456313E+02 0.13039946555E+02 0.12877213948E+02 0.12644631467E+02
 0.12223275314E+02 0.11417032480E+02 0.10205641793E+02 0.10823562857E+02 0.92680282339E+01
 0.76720935658E+01 0.62440264712E+01 0.51035015950E+01 0.42804959319E+01 0.37522299592E+01
 0.34829096583E+01 0.34491936677E+01 0.36523087174E+01 0.41201137455E+01 0.48973684137E+01
 0.60193734362E+01 0.74688805734E+01 0.91327677712E+01 0.10794725135E+02 0.12105219386E+02
 0.12699238100E+02 0.12636937325E+02 0.12351766510E+02 0.12267932533E+02 0.12435558852E+02
 0.12495092042E+02 0.12000865777E+02 0.12322087797E+02 0.11260552302E+02 0.95866459271E+01
 0.78370479718E+01 0.62820128334E+01 0.50594513662E+01 0.41964943390E+01 0.36601193317E+01
 0.34062380658E+01 0.34096717629E+01 0.36772093524E+01 0.42467139976E+01 0.51694118952E+01
 0.64708758586E+01 0.80958614903E+01 0.98661977105E+01 0.11431978310E+02 0.12199905566E+02
 0.11953110663E+02 0.11136098147E+02 0.10547669676E+02 0.10736627973E+02 0.11574293199E+02
 0.12351220066E+02 0.11899811720E+02 0.12405619760E+02 0.11488363410E+02 0.97235235296E+01
 0.78547731822E+01 0.62162534431E+01 0.49545891092E+01 0.40882729491E+01 0.35729225779E+01
 0.33584203035E+01 0.34215902966E+01 0.37780753525E+01 0.44759655271E+01 0.55673212268E+01
 0.70544796701E+01 0.88248490204E+01 0.10600015794E+02 0.11710257589E+02 0.11506901785E+02
 0.10115481684E+02 0.84735735944E+01 0.77380610869E+01 0.84743922667E+01 0.10241569982E+02
 0.87869730802E+01 0.11341963062E+02 0.12325169720E+02 0.11509444421E+02 0.96689344350E+01
 0.77242816511E+01 0.60529126882E+01 0.47978723530E+01 0.39639404511E+01 0.34961642746E+01
 0.33421686327E+01 0.34849623467E+01 0.39514519533E+01 0.47983383010E+01 0.60706057601E+01
 0.77324581390E+01 0.95970639519E+01 0.11154922572E+02 0.11431004682E+02 0.99476380028E+01
 0.73089206561E+01 0.49767869227E+01 0.43752958135E+01 0.59350972093E+01 0.37121396534E+01
 0.76178150571E+01 0.10893400264E+02 0.12161163841E+02 0.11341705965E+02 0.94311729784E+01
 0.74591028968E+01 0.58072605846E+01 0.46023949331E+01 0.38324259749E+01 0.34344749908E+01
 0.33584258980E+01 0.35972488845E+01 0.41901959980E+01 0.51991271353E+01 0.66525547188E+01
 0.84629163707E+01 0.10336728963E+02 0.11400768295E+02 0.10583732138E+02 0.77321281807E+01
 0.39942117836E+01 0.12907404278E+01 0.11508795559E+01 -.11969660263E+01 0.23595268544E+01
 0.70637076417E+01 0.10702060037E+02 0.11962048861E+02 0.11005459953E+02 0.90344918349E+01
 0.70847971823E+01 0.55013997120E+01 0.43839506772E+01 0.37028558725E+01 0.33913689214E+01
 0.34062282589E+01 0.37531035959E+01 0.44829509958E+01 0.56577342339E+01 0.72802685710E+01
 0.92022418988E+01 0.10951795379E+02 0.11331713156E+02 0.93667530641E+01 0.53231560074E+01
 0.86404948989E+00 -.17877862363E+01 0.14918528639E+01 0.23599980784E+01 0.54738889589E+01
 0.91716945799E+01 0.11637966358E+02 0.11981696238E+02 0.10593270920E+02 0.86057402574E+01
 0.67560725219E+01 0.52927378502E+01 0.42781129137E+01 0.36707911126E+01 0.34064899488E+01
 0.34489155364E+01 0.38094028777E+01 0.45400355066E+01 0.56986060880E+01 0.72821288279E+01
 0.91447755567E+01 0.10866942926E+02 0.11406270010E+02 0.99345532267E+01 0.67427722582E+01
 0.33083557001E+01 0.22184868252E+01 0.79747095360E+00 0.22187314537E+01 0.56910677813E+01
 0.93627843069E+01 0.11499124136E+02 0.11469329501E+02 0.99016891192E+01 0.79546750756E+01
 0.62212697697E+01 0.49000958954E+01 0.40228864196E+01 0.35375664753E+01 0.33839676797E+01
 0.35375288348E+01 0.40228112114E+01 0.49000395973E+01 0.62212566079E+01 0.79546134822E+01
 0.99015398292E+01 0.11469254047E+02 0.11499237205E+02 0.93628916454E+01 0.56909276836E+01
 0.54738216480E+01 0.23597973916E+01 0.14918651679E+01 0.33086103478E+01 0.67429726969E+01
 0.99345603321E+01 0.11406243768E+02 0.10867017958E+02 0.91448874653E+01 0.72821977942E+01
 0.56986547397E+01 0.45400816908E+01 0.38094254087E+01 0.34489242470E+01 0.34064902499E+01
 0.36707290653E+01 0.42779910875E+01 0.52926738332E+01 0.67561002177E+01 0.86057033264E+01
 0.10593103013E+02 0.11981609594E+02 0.11638122820E+02 0.91718812656E+01 0.94984193808E+01
 0.61930075037E+01 0.37123940051E+01 0.33941698257E+01 0.53237158978E+01 0.82938461117E+01
 0.10624547589E+02 0.11228589734E+02 0.10168163615E+02 0.83743817468E+01 0.66322998572E+01
 0.52211006842E+01 0.42335545917E+01 0.36490997400E+01 0.34094538796E+01 0.34731762262E+01
 0.38416598089E+01 0.45600203448E+01 0.56920841050E+01 0.72645516904E+01 0.91862903957E+01
 0.11169854187E+02 0.12416267410E+02 0.11914735402E+02 0.12333310994E+02 0.10298000119E+02
 0.76779558461E+01 0.59353050615E+01 0.60196270187E+01 0.77325495504E+01 0.98891318773E+01
 0.11144979771E+02 0.10861935200E+02 0.93994882986E+01 0.76326104203E+01 0.60418223655E+01
 0.48144953562E+01 0.39961062885E+01 0.35498731600E+01 0.34214825537E+01 0.35811529719E+01
 0.40410669249E+01 0.48508507980E+01 0.60688580400E+01 0.77051419537E+01 0.96462156880E+01
 0.11588313657E+02 0.12763874134E+02 0.12980629889E+02 0.12799034061E+02 0.11355057577E+02
 0.95399600333E+01 0.84745596666E+01 0.87325371215E+01 0.99478605908E+01 0.11107127311E+02
 0.11289660340E+02 0.10282801406E+02 0.86286605635E+01 0.69571725246E+01 0.55403985191E+01
 0.44979611435E+01 0.38383205392E+01 0.35163414509E+01 0.34849678315E+01 0.37254569295E+01
 0.42573860991E+01 0.51300705257E+01 0.63923382144E+01 0.80380354909E+01 0.99406304873E+01
 0.11807828390E+02 0.11794149847E+02 0.12997760928E+02 0.13149607489E+02 0.12355870944E+02
 0.11298202156E+02 0.10736723878E+02 0.10941575411E+02 0.11506902132E+02 0.11692166513E+02
 0.11006507062E+02 0.95683985613E+01 0.79135787150E+01 0.63822882088E+01 0.51511430551E+01
 0.42845747917E+01 0.37663633860E+01 0.35500234212E+01 0.35973904141E+01 0.38987064457E+01
 0.44768529502E+01 0.53763663542E+01 0.66340980201E+01 0.82305362123E+01 0.10036972151E+02
 0.99211169803E+01 0.11530849055E+02 0.12750091578E+02 0.13217420524E+02 0.12997126052E+02
 0.12533623945E+02 0.12267931260E+02 0.12270113080E+02 0.12199720418E+02 0.11622948742E+02
 0.10409907319E+02 0.88571232155E+01 0.72990122379E+01 0.59387167718E+01 0.48915268863E+01
 0.41825465763E+01 0.37826982078E+01 0.36493734196E+01 0.37533712121E+01 0.40909628619E+01
 0.46842237849E+01 0.55695769149E+01 0.67715766330E+01 0.82622159235E+01 0.81287028289E+01
 0.96007368151E+01 0.11032963881E+02 0.12211407366E+02 0.12898223559E+02 0.13090410264E+02
 0.13016227772E+02 0.12877124875E+02 0.12645333012E+02 0.12104922121E+02 0.11095779710E+02
 0.97253479855E+01 0.82379320542E+01 0.68307540222E+01 0.56529614645E+01 0.47741510522E+01
 0.41960185761E+01 0.38863875531E+01 0.38097283114E+01 0.39445697065E+01 0.42899170188E+01
 0.48637463987E+01 0.56929125156E+01 0.67914831703E+01 0.66919559508E+01 0.78425931186E+01
 0.91047391022E+01 0.10345980676E+02 0.11420671190E+02 0.12198561985E+02 0.12624071015E+02
 0.12762604477E+02 0.12665216649E+02 0.12281782328E+02 0.11527533485E+02 0.10430334345E+02
 0.91265268650E+01 0.77797723149E+01 0.65503352383E+01 0.55458134211E+01 0.48068764663E+01
 0.43254533524E+01 0.40732634267E+01 0.40231745968E+01 0.41595601855E+01 0.44813788748E+01
 0.50007094354E+01 0.57352898342E+01 0.56928097325E+01 0.64828084590E+01 0.74315982469E+01
 0.84791558523E+01 0.95306748548E+01 0.10480587612E+02 0.11242623988E+02 0.11761339346E+02
 0.12007694555E+02 0.11957077865E+02 0.11574203559E+02 0.10857846379E+02 0.98643969287E+01
 0.87105327099E+01 0.75426783451E+01 0.64897399074E+01 0.56308358223E+01 0.49925647340E+01
 0.45674156089E+01 0.43354884974E+01 0.42782772695E+01 0.43842216225E+01 0.46505176483E+01
 0.50831724350E+01 0.51034738615E+01 0.55694036524E+01 0.61840545899E+01 0.69341312803E+01
 0.77801588304E+01 0.86583243260E+01 0.94942307259E+01 0.10218441164E+02 0.10772101412E+02
 0.11101859351E+02 0.11156723909E+02 0.10899955380E+02 0.10333417888E+02 0.95152165158E+01
 0.85522825086E+01 0.75684561973E+01 0.66675605983E+01 0.59126462060E+01 0.53278625109E+01
 0.49135529572E+01 0.46609985921E+01 0.45601842541E+01 0.46025603735E+01 0.47832545163E+01
 0.48679944575E+01 0.50594391985E+01 0.53762227942E+01 0.58226886161E+01 0.63935628303E+01
 0.70663865215E+01 0.78017315861E+01 0.85497567286E+01 0.92560596534E+01 0.98617542197E+01
 0.10301327340E+02 0.10508193264E+02 0.10433285633E+02 0.10068795212E+02 0.94601358460E+01
 0.86949992575E+01 0.78747695205E+01 0.70856779767E+01 0.63845930916E+01 0.58014443370E+01
 0.53493820114E+01 0.50328913393E+01 0.48508419204E+01 0.47978800135E+01 0.49544770966E+01
 0.48970968991E+01 0.49546121759E+01 0.51299958492E+01 0.54289931734E+01 0.58526978676E+01
 0.63919212364E+01 0.70264277716E+01 0.77263920616E+01 0.84510226345E+01 0.91435801320E+01
 0.97294387008E+01 0.10126193575E+02 0.10267040703E+02 0.10126124636E+02 0.97294311101E+01
 0.91436653763E+01 0.84510637886E+01 0.77262997110E+01 0.70263169619E+01 0.63919526243E+01
 0.58528414194E+01 0.54290617633E+01 0.51298998559E+01 0.53761149632E+01 0.50592203229E+01
 0.48678689909E+01 0.47979252630E+01 0.48509293770E+01 0.50328609162E+01 0.53492536742E+01
 0.58013891232E+01 0.63846872322E+01 0.70857884915E+01 0.78747483597E+01 0.86949037302E+01
 0.94601260895E+01 0.10068873229E+02 0.10433304358E+02 0.10508119009E+02 0.10301306139E+02
 0.98618607151E+01 0.92561508752E+01 0.85496868810E+01 0.78015888925E+01 0.70663727144E+01
 0.63936978668E+01 0.58227764225E+01 0.61841173222E+01 0.55693016255E+01 0.51032291216E+01
 0.47830387172E+01 0.46025101186E+01 0.45602546295E+01 0.46610220910E+01 0.49134647915E+01
 0.53277890711E+01 0.59127026036E+01 0.66676560910E+01 0.75684314440E+01 0.85521738859E+01
 0.95151978834E+01 0.10333508575E+02 0.10899993887E+02 0.11156655017E+02 0.11101835804E+02
 0.10772216882E+02 0.10218552180E+02 0.94941703851E+01 0.86581578840E+01 0.77800859242E+01
 0.69342030352E+01 0.74315760077E+01 0.64828433302E+01 0.56927455315E+01 0.50829408704E+01
 0.46502410655E+01 0.43841040521E+01 0.42783529419E+01 0.43355620969E+01 0.45673399267E+01
 0.49924525879E+01 0.56308546075E+01 0.64898213588E+01 0.75426402885E+01 0.87104075416E+01
 0.98643855875E+01 0.10857969513E+02 0.11574263792E+02 0.11956992115E+02 0.12007625456E+02
 0.11761414271E+02 0.11242723294E+02 0.10480533649E+02 0.95304866305E+01 0.84790026045E+01
 0.91045399421E+01 0.78424793265E+01 0.66919489448E+01 0.57352706857E+01 0.50005352152E+01
 0.44811038150E+01 0.41594166716E+01 0.40232491196E+01 0.40733511354E+01 0.43253717045E+01
 0.48067390470E+01 0.55458090903E+01 0.65503991230E+01 0.77797245517E+01 0.91264131942E+01
 0.10430348271E+02 0.11527663025E+02 0.12281809020E+02 0.12665070027E+02 0.12762457518E+02
 0.12624058958E+02 0.12198602963E+02 0.11420616977E+02 0.10345806510E+02 0.11032857647E+02
 0.96005152416E+01 0.81284998569E+01 0.67914465151E+01 0.56929648332E+01 0.48636585377E+01
 0.42896724651E+01 0.39444251257E+01 0.38098089730E+01 0.38864793500E+01 0.41959218243E+01
 0.47739953842E+01 0.56529529861E+01 0.68308244958E+01 0.82378957159E+01 0.97252425655E+01
 0.11095774575E+02 0.12104993198E+02 0.12645288295E+02 0.12876904869E+02 0.13015979127E+02
 0.13090274547E+02 0.12898199873E+02 0.12211396969E+02 0.12750139436E+02 0.11530828136E+02
 0.99209094593E+01 0.82619720753E+01 0.67715350750E+01 0.55696893657E+01 0.46842142705E+01
 0.40907794141E+01 0.37532653055E+01 0.36494615798E+01 0.37827677015E+01 0.41824339201E+01
 0.48913889577E+01 0.59387348990E+01 0.72990862341E+01 0.88570753938E+01 0.10409779229E+02
 0.11622880493E+02 0.12199685961E+02 0.12269972107E+02 0.12267651755E+02 0.12533309785E+02