   2   2   0   0
  0.1529437E+02  0.3691622E-09  0.3691622E-09  0.3691622E-09  0.5000000E-15
  1.000000000000000E-004
  CAR 
 unknown system                          
     22.92587754     -6.52379715  301      9.10879014      1.00000000
     -6.524  0.0000E+00  0.0000E+00
     -6.426  0.0000E+00  0.0000E+00
     -6.327  0.0000E+00  0.0000E+00
     -6.229  0.0000E+00  0.0000E+00
     -6.131  0.0000E+00  0.0000E+00
     -6.033  0.0000E+00  0.0000E+00
     -5.935  0.0000E+00  0.0000E+00
     -5.837  0.0000E+00  0.0000E+00
     -5.738  0.0000E+00  0.0000E+00
     -5.640  0.1532E-16  0.1503E-17
     -5.542  0.3161E-14  0.3118E-15
     -5.444  0.4046E-12  0.4002E-13
     -5.346  0.3225E-10  0.3205E-11
     -5.248  0.1602E-08  0.1605E-09
     -5.149  0.4972E-07  0.5041E-08
     -5.051  0.9642E-06  0.9970E-07
     -4.953  0.1171E-04  0.1249E-05
     -4.855  0.8919E-04  0.1000E-04
     -4.757  0.4273E-03  0.5195E-04
     -4.659  0.1296E-02  0.1792E-03
     -4.560  0.2547E-02  0.4292E-03
     -4.462  0.3550E-02  0.7777E-03
     -4.364  0.4569E-02  0.1226E-02
     -4.266  0.7092E-02  0.1922E-02
     -4.168  0.1113E-01  0.3015E-02
     -4.070  0.1406E-01  0.4395E-02
     -3.971  0.1414E-01  0.5783E-02
     -3.873  0.1242E-01  0.7002E-02
     -3.775  0.1025E-01  0.8009E-02
     -3.677  0.8944E-02  0.8887E-02
     -3.579  0.1069E-01  0.9936E-02
     -3.481  0.1585E-01  0.1149E-01
     -3.382  0.2092E-01  0.1355E-01
     -3.284  0.2191E-01  0.1570E-01
     -3.186  0.1931E-01  0.1759E-01
     -3.088  0.1651E-01  0.1921E-01
     -2.990  0.1517E-01  0.2070E-01
     -2.892  0.1635E-01  0.2231E-01
     -2.794  0.2005E-01  0.2427E-01
     -2.695  0.2262E-01  0.2649E-01
     -2.597  0.2266E-01  0.2872E-01
     -2.499  0.2397E-01  0.3107E-01
     -2.401  0.2703E-01  0.3373E-01
     -2.303  0.2661E-01  0.3634E-01
     -2.205  0.2211E-01  0.3851E-01
     -2.106  0.2032E-01  0.4050E-01
     -2.008  0.2421E-01  0.4288E-01
     -1.910  0.2802E-01  0.4563E-01
     -1.812  0.2676E-01  0.4826E-01
     -1.714  0.2238E-01  0.5045E-01
     -1.616  0.1810E-01  0.5223E-01
     -1.517  0.1522E-01  0.5372E-01
     -1.419  0.1639E-01  0.5533E-01
     -1.321  0.2299E-01  0.5759E-01
     -1.223  0.3126E-01  0.6066E-01
     -1.125  0.3681E-01  0.6427E-01
     -1.027  0.3938E-01  0.6814E-01
     -0.928  0.4016E-01  0.7208E-01
     -0.830  0.3945E-01  0.7595E-01
     -0.732  0.4021E-01  0.7990E-01
     -0.634  0.4412E-01  0.8423E-01
     -0.536  0.4362E-01  0.8851E-01
     -0.438  0.3253E-01  0.9171E-01
     -0.339  0.1809E-01  0.9348E-01
     -0.241  0.1002E-01  0.9447E-01
     -0.143  0.1025E-01  0.9547E-01
     -0.045  0.1770E-01  0.9721E-01
      0.053  0.3086E-01  0.1002E+00
      0.151  0.4373E-01  0.1045E+00
      0.250  0.4884E-01  0.1093E+00
      0.348  0.4649E-01  0.1139E+00
      0.446  0.4186E-01  0.1180E+00
      0.544  0.3610E-01  0.1215E+00
      0.642  0.3075E-01  0.1246E+00
      0.740  0.3310E-01  0.1278E+00
      0.839  0.4398E-01  0.1321E+00
      0.937  0.5074E-01  0.1371E+00
      1.035  0.4597E-01  0.1416E+00
      1.133  0.3845E-01  0.1454E+00
      1.231  0.3690E-01  0.1490E+00
      1.329  0.3939E-01  0.1529E+00
      1.428  0.4101E-01  0.1569E+00
      1.526  0.3970E-01  0.1608E+00
      1.624  0.3488E-01  0.1642E+00
      1.722  0.2773E-01  0.1670E+00
      1.820  0.2314E-01  0.1692E+00
      1.918  0.2587E-01  0.1718E+00
      2.017  0.3390E-01  0.1751E+00
      2.115  0.4133E-01  0.1791E+00
      2.213  0.4610E-01  0.1837E+00
      2.311  0.4750E-01  0.1883E+00
      2.409  0.4370E-01  0.1926E+00
      2.507  0.3813E-01  0.1964E+00
      2.606  0.3625E-01  0.1999E+00
      2.704  0.3742E-01  0.2036E+00
      2.802  0.3895E-01  0.2074E+00
      2.900  0.4093E-01  0.2114E+00
      2.998  0.4291E-01  0.2157E+00
      3.096  0.4237E-01  0.2198E+00
      3.195  0.3779E-01  0.2235E+00
      3.293  0.3214E-01  0.2267E+00
      3.391  0.3276E-01  0.2299E+00
      3.489  0.4195E-01  0.2340E+00
      3.587  0.4965E-01  0.2389E+00
      3.685  0.4495E-01  0.2433E+00
      3.784  0.3110E-01  0.2464E+00
      3.882  0.2061E-01  0.2484E+00
      3.980  0.2133E-01  0.2505E+00
      4.078  0.3232E-01  0.2536E+00
      4.176  0.4801E-01  0.2584E+00
      4.274  0.6119E-01  0.2644E+00
      4.373  0.6477E-01  0.2707E+00
      4.471  0.5753E-01  0.2764E+00
      4.569  0.4765E-01  0.2810E+00
      4.667  0.4704E-01  0.2857E+00
      4.765  0.5966E-01  0.2915E+00
      4.863  0.7282E-01  0.2987E+00
      4.962  0.6931E-01  0.3055E+00
      5.060  0.5055E-01  0.3104E+00
      5.158  0.3248E-01  0.3136E+00
      5.256  0.2596E-01  0.3162E+00
      5.354  0.3475E-01  0.3196E+00
      5.452  0.5486E-01  0.3250E+00
      5.551  0.7045E-01  0.3319E+00
      5.649  0.6867E-01  0.3386E+00
      5.747  0.5474E-01  0.3440E+00
      5.845  0.4185E-01  0.3481E+00
      5.943  0.3763E-01  0.3518E+00
      6.041  0.4423E-01  0.3561E+00
      6.140  0.5722E-01  0.3618E+00
      6.238  0.6517E-01  0.3682E+00
      6.336  0.6357E-01  0.3744E+00
      6.434  0.5944E-01  0.3802E+00
      6.532  0.5722E-01  0.3859E+00
      6.630  0.5817E-01  0.3916E+00
      6.729  0.6418E-01  0.3979E+00
      6.827  0.6911E-01  0.4046E+00
      6.925  0.6436E-01  0.4110E+00
      7.023  0.5370E-01  0.4162E+00
      7.121  0.4702E-01  0.4209E+00
      7.219  0.4578E-01  0.4253E+00
      7.318  0.4353E-01  0.4296E+00
      7.416  0.3949E-01  0.4335E+00
      7.514  0.4422E-01  0.4378E+00
      7.612  0.6385E-01  0.4441E+00
      7.710  0.8730E-01  0.4527E+00
      7.808  0.9965E-01  0.4625E+00
      7.907  0.9871E-01  0.4721E+00
      8.005  0.8966E-01  0.4809E+00
      8.103  0.7325E-01  0.4881E+00
      8.201  0.4972E-01  0.4930E+00
      8.299  0.2769E-01  0.4957E+00
      8.397  0.1639E-01  0.4973E+00
      8.496  0.1599E-01  0.4989E+00
      8.594  0.2391E-01  0.5013E+00
      8.692  0.3979E-01  0.5052E+00
      8.790  0.5798E-01  0.5109E+00
      8.888  0.6852E-01  0.5176E+00
      8.986  0.7073E-01  0.5245E+00
      9.085  0.7178E-01  0.5316E+00
      9.183  0.7161E-01  0.5386E+00
      9.281  0.6580E-01  0.5451E+00
      9.379  0.5791E-01  0.5508E+00
      9.477  0.5463E-01  0.5561E+00
      9.575  0.5548E-01  0.5616E+00
      9.674  0.5424E-01  0.5669E+00
      9.772  0.4781E-01  0.5716E+00
      9.870  0.4060E-01  0.5756E+00
      9.968  0.3634E-01  0.5791E+00
     10.066  0.3223E-01  0.5823E+00
     10.164  0.2680E-01  0.5849E+00
     10.263  0.2400E-01  0.5873E+00
     10.361  0.2504E-01  0.5897E+00
     10.459  0.2537E-01  0.5922E+00
     10.557  0.2468E-01  0.5947E+00
     10.655  0.2942E-01  0.5975E+00
     10.753  0.4186E-01  0.6017E+00
     10.852  0.5707E-01  0.6073E+00
     10.950  0.6976E-01  0.6141E+00
     11.048  0.7729E-01  0.6217E+00
     11.146  0.7654E-01  0.6292E+00
     11.244  0.6525E-01  0.6356E+00
     11.342  0.4867E-01  0.6404E+00
     11.441  0.3567E-01  0.6439E+00
     11.539  0.2987E-01  0.6468E+00
     11.637  0.3163E-01  0.6499E+00
     11.735  0.4151E-01  0.6540E+00
     11.833  0.5806E-01  0.6597E+00
     11.931  0.7814E-01  0.6674E+00
     12.029  0.9719E-01  0.6769E+00
     12.128  0.1078E+00  0.6875E+00
     12.226  0.1067E+00  0.6980E+00
     12.324  0.1018E+00  0.7080E+00
     12.422  0.9995E-01  0.7178E+00
     12.520  0.9555E-01  0.7272E+00
     12.618  0.8440E-01  0.7354E+00
     12.717  0.7048E-01  0.7424E+00
     12.815  0.5637E-01  0.7479E+00
     12.913  0.4578E-01  0.7524E+00
     13.011  0.4416E-01  0.7567E+00
     13.109  0.4733E-01  0.7614E+00
     13.207  0.4610E-01  0.7659E+00
     13.306  0.4112E-01  0.7699E+00
     13.404  0.3889E-01  0.7737E+00
     13.502  0.4188E-01  0.7779E+00
     13.600  0.5088E-01  0.7828E+00
     13.698  0.6361E-01  0.7891E+00
     13.796  0.7353E-01  0.7963E+00
     13.895  0.7989E-01  0.8042E+00
     13.993  0.8640E-01  0.8126E+00
     14.091  0.9266E-01  0.8217E+00
     14.189  0.9385E-01  0.8309E+00
     14.287  0.8469E-01  0.8393E+00
     14.385  0.6914E-01  0.8460E+00
     14.484  0.5764E-01  0.8517E+00
     14.582  0.5369E-01  0.8570E+00
     14.680  0.5398E-01  0.8623E+00
     14.778  0.5648E-01  0.8678E+00
     14.876  0.6380E-01  0.8741E+00
     14.974  0.7814E-01  0.8818E+00
     15.073  0.9352E-01  0.8909E+00
     15.171  0.9845E-01  0.9006E+00
     15.269  0.8837E-01  0.9093E+00
     15.367  0.7108E-01  0.9162E+00
     15.465  0.5573E-01  0.9217E+00
     15.563  0.4401E-01  0.9260E+00
     15.662  0.3629E-01  0.9296E+00
     15.760  0.3380E-01  0.9329E+00
     15.858  0.3512E-01  0.9364E+00
     15.956  0.3676E-01  0.9400E+00
     16.054  0.3694E-01  0.9436E+00
     16.152  0.3901E-01  0.9474E+00
     16.251  0.4783E-01  0.9521E+00
     16.349  0.6100E-01  0.9581E+00
     16.447  0.6935E-01  0.9649E+00
     16.545  0.6905E-01  0.9717E+00
     16.643  0.6344E-01  0.9779E+00
     16.741  0.5493E-01  0.9833E+00
     16.840  0.4554E-01  0.9878E+00
     16.938  0.3797E-01  0.9915E+00
     17.036  0.3194E-01  0.9947E+00
     17.134  0.2532E-01  0.9971E+00
     17.232  0.1858E-01  0.9990E+00
     17.330  0.1430E-01  0.1000E+01
     17.429  0.1419E-01  0.1002E+01
     17.527  0.1700E-01  0.1003E+01
     17.625  0.2074E-01  0.1005E+01
     17.723  0.2749E-01  0.1008E+01
     17.821  0.3851E-01  0.1012E+01
     17.919  0.4866E-01  0.1017E+01
     18.018  0.5359E-01  0.1022E+01
     18.116  0.5315E-01  0.1027E+01
     18.214  0.4773E-01  0.1032E+01
     18.312  0.3869E-01  0.1036E+01
     18.410  0.2881E-01  0.1039E+01
     18.508  0.2100E-01  0.1041E+01
     18.607  0.1669E-01  0.1042E+01
     18.705  0.1558E-01  0.1044E+01
     18.803  0.1749E-01  0.1045E+01
     18.901  0.2130E-01  0.1048E+01
     18.999  0.2389E-01  0.1050E+01
     19.097  0.2394E-01  0.1052E+01
     19.196  0.2160E-01  0.1054E+01
     19.294  0.1687E-01  0.1056E+01
     19.392  0.1197E-01  0.1057E+01
     19.490  0.9367E-02  0.1058E+01
     19.588  0.9216E-02  0.1059E+01
     19.686  0.1110E-01  0.1060E+01
     19.785  0.1293E-01  0.1061E+01
     19.883  0.1184E-01  0.1063E+01
     19.981  0.8521E-02  0.1063E+01
     20.079  0.5511E-02  0.1064E+01
     20.177  0.3500E-02  0.1064E+01
     20.275  0.2031E-02  0.1064E+01
     20.374  0.9638E-03  0.1065E+01
     20.472  0.4926E-03  0.1065E+01
     20.570  0.8291E-03  0.1065E+01
     20.668  0.2069E-02  0.1065E+01
     20.766  0.3776E-02  0.1065E+01
     20.864  0.4875E-02  0.1066E+01
     20.963  0.4548E-02  0.1066E+01
     21.061  0.3042E-02  0.1066E+01
     21.159  0.1410E-02  0.1067E+01
     21.257  0.4359E-03  0.1067E+01
     21.355  0.8746E-04  0.1067E+01
     21.453  0.1119E-04  0.1067E+01
     21.552  0.9053E-06  0.1067E+01
     21.650  0.4600E-07  0.1067E+01
     21.748  0.1464E-08  0.1067E+01
     21.846  0.2912E-10  0.1067E+01
     21.944  0.3612E-12  0.1067E+01
     22.042  0.2791E-14  0.1067E+01
     22.141  0.1355E-16  0.1067E+01
     22.239  0.0000E+00  0.1067E+01
     22.337  0.0000E+00  0.1067E+01
     22.435  0.0000E+00  0.1067E+01
     22.533  0.0000E+00  0.1067E+01
     22.631  0.0000E+00  0.1067E+01
     22.730  0.0000E+00  0.1067E+01
     22.828  0.0000E+00  0.1067E+01
     22.926  0.0000E+00  0.1067E+01
