    2    2   15    1
  0.1529437E+02  0.3691622E-09  0.3691622E-09  0.3691622E-09  0.5000000E-15
  1.000000000000000E-004
  CAR 
 unknown system                          
      8     56      8
 
  0.6250000E-01  0.6250000E-01  0.6250000E-01  0.1562500E-01
    1       -4.082890   1.000000
    2        4.407207   1.000000
    3        6.779837   1.000000
    4        8.102365   1.000000
    5       12.104483   0.000000
    6       14.619412   0.000000
    7       15.433735   0.000000
    8       16.599397   0.000000
 
  0.1875000E+00  0.6250000E-01  0.6250000E-01  0.3125000E-01
    1       -2.766640   1.000000
    2        4.294908   1.000000
    3        7.230071   1.000000
    4        9.633923   0.000102
    5       11.436328   0.000000
    6       11.922141   0.000000
    7       14.261369   0.000000
    8       14.834752   0.000000
 
  0.3125000E+00  0.6250000E-01  0.6250000E-01  0.3125000E-01
    1       -0.597189   1.000000
    2        4.929158   1.000000
    3        6.207261   1.000000
    4        7.718670   1.000000
    5        9.228018   0.199595
    6       12.490660   0.000000
    7       13.690377   0.000000
    8       13.935250   0.000000
 
  0.4375000E+00  0.6250000E-01  0.6250000E-01  0.1562500E-01
    1        2.133474   1.000000
    2        2.679922   1.000000
    3        6.392120   1.000000
    4        6.438349   1.000000
    5        9.121612   0.463881
    6       11.079975   0.000000
    7       13.618687   0.000000
    8       14.649531   0.000000
 
 -0.6250000E-01  0.6250000E-01  0.6250000E-01  0.7812500E-02
    1       -4.523797   1.000000
    2        4.922880   1.000000
    3        5.942426   1.000000
    4        7.739304   1.000000
    5       11.197731   0.000000
    6       15.172666   0.000000
    7       17.453987   0.000000
    8       18.320423   0.000000
 
  0.1875000E+00  0.1875000E+00  0.6250000E-01  0.1562500E-01
    1       -0.778042   1.000000
    2        4.841511   1.000000
    3        7.213521   1.000000
    4        7.291208   1.000000
    5        9.971053   0.000000
    6       11.929642   0.000000
    7       13.682988   0.000000
    8       13.708417   0.000000
 
  0.3125000E+00  0.1875000E+00  0.6250000E-01  0.3125000E-01
    1        1.995529   1.000000
    2        3.506813   1.000000
    3        4.848077   1.000000
    4        6.174861   1.000000
    5       10.417630   0.000000
    6       12.131409   0.000000
    7       13.072140   0.000000
    8       15.044396   0.000000
 
  0.4375000E+00  0.1875000E+00  0.6250000E-01  0.3125000E-01
    1        0.306730   1.000000
    2        3.125488   1.000000
    3        5.689916   1.000000
    4        7.873188   1.000000
    5        9.518578   0.001880
    6       12.102859   0.000000
    7       14.166808   0.000000
    8       15.129842   0.000000
 
 -0.4375000E+00  0.1875000E+00  0.6250000E-01  0.3125000E-01
    1       -2.031086   1.000000
    2        2.272984   1.000000
    3        7.854129   1.000000
    4        9.665413   0.000041
    5       11.152114   0.000000
    6       11.702888   0.000000
    7       13.068579   0.000000
    8       15.325234   0.000000
 
 -0.3125000E+00  0.1875000E+00  0.6250000E-01  0.1562500E-01
    1       -3.526531   1.000000
    2        2.233892   1.000000
    3        7.297965   1.000000
    4        9.056042   0.645420
    5       12.649643   0.000000
    6       14.280057   0.000000
    7       14.602277   0.000000
    8       15.645600   0.000000
 
 -0.1875000E+00  0.1875000E+00  0.6250000E-01  0.1562500E-01
    1       -4.152119   1.000000
    2        2.982266   1.000000
    3        6.037780   1.000000
    4        9.004657   0.769235
    5       12.925757   0.000000
    6       13.115528   0.000000
    7       15.966630   0.000000
    8       19.183678   0.000000
 
 -0.6250000E-01  0.1875000E+00  0.6250000E-01  0.1562500E-01
    1       -3.897479   1.000000
    2        4.087206   1.000000
    3        5.491154   1.000000
    4        9.616282   0.000166
    5       12.829519   0.000000
    6       13.093782   0.000000
    7       14.951034   0.000000
    8       17.027493   0.000000
 
  0.3125000E+00  0.3125000E+00  0.6250000E-01  0.1562500E-01
    1        1.545260   1.000000
    2        1.568191   1.000000
    3        5.519335   1.000000
    4        7.877850   1.000000
    5       10.114815   0.000000
    6       11.073171   0.000000
    7       15.028991   0.000000
    8       16.064772   0.000000
 
  0.4375000E+00  0.3125000E+00  0.6250000E-01  0.3125000E-01
    1       -0.935512   1.000000
    2        0.507583   1.000000
    3        8.723074   0.996808
    4        9.406338   0.017690
    5       10.330575   0.000000
    6       12.027311   0.000000
    7       12.699978   0.000000
    8       14.050753   0.000000
 
 -0.4375000E+00  0.3125000E+00  0.6250000E-01  0.1562500E-01
    1       -2.603968   1.000000
    2        0.298767   1.000000
    3        8.161179   1.000000
    4       10.044443   0.000000
    5       10.883952   0.000000
    6       12.739181   0.000000
    7       15.154170   0.000000
    8       15.168130   0.000000
 
 -0.3125000E+00  0.3125000E+00  0.6250000E-01  0.1562500E-01
    1       -3.411256   1.000000
    2        0.929847   1.000000
    3        6.719109   1.000000
    4        9.974347   0.000000
    5       10.894191   0.000000
    6       14.137598   0.000000
    7       16.121176   0.000000
    8       18.887929   0.000000
 
 -0.1875000E+00  0.3125000E+00  0.6250000E-01  0.3125000E-01
    1       -3.342521   1.000000
    2        2.345154   1.000000
    3        5.575815   1.000000
    4       10.832121   0.000000
    5       11.075866   0.000000
    6       14.147236   0.000000
    7       15.185852   0.000000
    8       16.774290   0.000000
 
 -0.6250000E-01  0.3125000E+00  0.6250000E-01  0.1562500E-01
    1       -2.399223   1.000000
    2        4.082947   1.000000
    3        5.636120   1.000000
    4        9.473623   0.004943
    5       11.507295   0.000000
    6       12.751750   0.000000
    7       14.066786   0.000000
    8       14.686968   0.000000
 
  0.4375000E+00  0.4375000E+00  0.6250000E-01  0.7812500E-02
    1       -1.324360   1.000000
    2       -1.324358   1.000000
    3        9.353401   0.041846
    4        9.353407   0.041842
    5       11.281698   0.000000
    6       11.281709   0.000000
    7       15.016335   0.000000
    8       15.016383   0.000000
 
 -0.4375000E+00  0.4375000E+00  0.6250000E-01  0.1562500E-01
    1       -2.307910   1.000000
    2       -0.853652   1.000000
    3        7.767127   1.000000
    4        9.166605   0.341340
    5       11.100275   0.000000
    6       12.489642   0.000000
    7       18.538102   0.000000
    8       18.660791   0.000000
 
 -0.3125000E+00  0.4375000E+00  0.6250000E-01  0.3125000E-01
    1       -2.422962   1.000000
    2        0.460334   1.000000
    3        6.399392   1.000000
    4        9.161059   0.355843
    5       11.829797   0.000000
    6       13.675514   0.000000
    7       15.481387   0.000000
    8       16.367977   0.000000
 
 -0.1875000E+00  0.4375000E+00  0.6250000E-01  0.3125000E-01
    1       -1.667870   1.000000
    2        2.540954   1.000000
    3        5.811335   1.000000
    4        8.896246   0.933569
    5        9.863340   0.000000
    6       13.446516   0.000000
    7       14.205709   0.000000
    8       16.344846   0.000000
 
 -0.6250000E-01  0.4375000E+00  0.6250000E-01  0.1562500E-01
    1       -0.056428   1.000000
    2        4.762273   1.000000
    3        5.507745   1.000000
    4        6.467344   1.000000
    5        9.714620   0.000009
    6       12.274362   0.000000
    7       12.430858   0.000000
    8       15.678181   0.000000
 
 -0.4375000E+00 -0.4375000E+00  0.6250000E-01  0.1562500E-01
    1       -1.150258   1.000000
    2       -1.147325   1.000000
    3        7.599890   1.000000
    4        7.624153   1.000000
    5       12.414622   0.000000
    6       13.407305   0.000000
    7       14.796797   0.000000
    8       16.300821   0.000000
 
 -0.3125000E+00 -0.4375000E+00  0.6250000E-01  0.3125000E-01
    1       -0.580735   1.000000
    2        0.842265   1.000000
    3        6.766955   1.000000
    4        8.042283   1.000000
    5        8.794523   0.986865
    6       13.247806   0.000000
    7       15.207061   0.000000
    8       16.641210   0.000000
 
 -0.1875000E+00 -0.4375000E+00  0.6250000E-01  0.3125000E-01
    1        0.835834   1.000000
    2        3.529686   1.000000
    3        4.878112   1.000000
    4        6.791726   1.000000
    5        9.055778   0.646116
    6       11.236529   0.000000
    7       13.892972   0.000000
    8       16.911663   0.000000
 
 -0.6250000E-01 -0.4375000E+00  0.6250000E-01  0.1562500E-01
    1        1.640565   1.000000
    2        3.164104   1.000000
    3        6.522160   1.000000
    4        7.690253   1.000000
    5        8.024393   1.000000
    6       10.750318   0.000000
    7       12.201914   0.000000
    8       15.845345   0.000000
 
 -0.3125000E+00 -0.3125000E+00  0.6250000E-01  0.1562500E-01
    1        2.030860   1.000000
    2        2.084791   1.000000
    3        4.680261   1.000000
    4        7.671922   1.000000
    5        8.012626   1.000000
    6       10.948612   0.000000
    7       15.717574   0.000000
    8       16.171123   0.000000
 
 -0.1875000E+00 -0.3125000E+00  0.6250000E-01  0.3125000E-01
    1        1.303895   1.000000
    2        4.170253   1.000000
    3        5.455877   1.000000
    4        7.601555   1.000000
    5        8.833903   0.974037
    6       10.681211   0.000000
    7       12.153190   0.000000
    8       14.458779   0.000000
 
 -0.6250000E-01 -0.3125000E+00  0.6250000E-01  0.1562500E-01
    1       -1.143544   1.000000
    2        6.495919   1.000000
    3        7.077060   1.000000
    4        7.741308   1.000000
    5        9.127403   0.447647
    6       11.706953   0.000000
    7       12.267024   0.000000
    8       13.733639   0.000000
 
 -0.1875000E+00 -0.1875000E+00  0.6250000E-01  0.1562500E-01
    1       -1.326073   1.000000
    2        6.866588   1.000000
    3        7.856440   1.000000
    4        7.919209   1.000000
    5        9.269146   0.128421
    6       11.034112   0.000000
    7       12.261866   0.000000
    8       12.475058   0.000000
 
 -0.6250000E-01 -0.1875000E+00  0.6250000E-01  0.1562500E-01
    1       -3.135928   1.000000
    2        6.189361   1.000000
    3        7.134852   1.000000
    4        8.783634   0.989253
    5       11.857542   0.000000
    6       12.413612   0.000000
    7       12.530017   0.000000
    8       14.915974   0.000000
 
 -0.6250000E-01 -0.6250000E-01  0.6250000E-01  0.3906250E-02
    1       -4.268850   1.000000
    2        6.530472   1.000000
    3        6.606765   1.000000
    4        6.606791   1.000000
    5       11.011423   0.000000
    6       15.844381   0.000000
    7       15.945098   0.000000
    8       17.236576   0.000000
 
  0.1875000E+00  0.1875000E+00  0.1875000E+00  0.1562500E-01
    1        0.129327   1.000000
    2        2.971783   1.000000
    3        6.794137   1.000000
    4        6.834020   1.000000
    5       10.913669   0.000000
    6       12.697567   0.000000
    7       13.958831   0.000000
    8       14.508141   0.000000
 
  0.3125000E+00  0.1875000E+00  0.1875000E+00  0.1562500E-01
    1        2.846108   1.000000
    2        3.330266   1.000000
    3        4.370945   1.000000
    4        4.743766   1.000000
    5       12.054910   0.000000
    6       13.947226   0.000000
    7       14.153604   0.000000
    8       14.434587   0.000000
 
 -0.1875000E+00  0.1875000E+00  0.1875000E+00  0.7812500E-02
    1       -3.782085   1.000000
    2        2.763582   1.000000
    3        4.364155   1.000000
    4       10.716646   0.000000
    5       11.120691   0.000000
    6       14.225807   0.000000
    7       17.871636   0.000000
    8       18.073631   0.000000
 
  0.3125000E+00  0.3125000E+00  0.1875000E+00  0.7812500E-02
    1        1.386604   1.000000
    2        1.386608   1.000000
    3        6.662343   1.000000
    4        6.662379   1.000000
    5       12.135743   0.000000
    6       12.135764   0.000000
    7       13.932016   0.000000
    8       13.932054   0.000000
 
 -0.3125000E+00  0.3125000E+00  0.1875000E+00  0.1562500E-01
    1       -3.045462   1.000000
    2        1.201712   1.000000
    3        4.541865   1.000000
    4        8.665038   0.999149
    5       12.561287   0.000000
    6       16.507962   0.000000
    7       16.731222   0.000000
    8       18.350094   0.000000
 
 -0.1875000E+00  0.3125000E+00  0.1875000E+00  0.1562500E-01
    1       -2.791993   1.000000
    2        2.276628   1.000000
    3        3.967873   1.000000
    4        8.882877   0.944917
    5       12.389788   0.000000
    6       14.384827   0.000000
    7       16.438448   0.000000
    8       17.836091   0.000000
 
 -0.4375000E+00  0.4375000E+00  0.1875000E+00  0.1562500E-01
    1       -1.950621   1.000000
    2       -0.516148   1.000000
    3        5.528698   1.000000
    4        6.920857   1.000000
    5       13.757654   0.000000
    6       15.071865   0.000000
    7       17.965842   0.000000
    8       18.076843   0.000000
 
 -0.3125000E+00  0.4375000E+00  0.1875000E+00  0.3125000E-01
    1       -1.882908   1.000000
    2        0.903459   1.000000
    3        4.283178   1.000000
    4        6.990735   1.000000
    5       12.411906   0.000000
    6       15.419844   0.000000
    7       17.815992   0.000000
    8       18.067665   0.000000
 
 -0.1875000E+00  0.4375000E+00  0.1875000E+00  0.1562500E-01
    1       -0.947394   1.000000
    2        2.639523   1.000000
    3        4.363232   1.000000
    4        7.749566   1.000000
    5        8.453445   0.999998
    6       14.690128   0.000000
    7       16.361878   0.000000
    8       16.638534   0.000000
 
 -0.4375000E+00 -0.4375000E+00  0.1875000E+00  0.1562500E-01
    1       -0.634747   1.000000
    2       -0.629087   1.000000
    3        5.433585   1.000000
    4        5.435897   1.000000
    5       12.324851   0.000000
    6       16.308387   0.000000
    7       17.054454   0.000000
    8       17.882354   0.000000
 
 -0.3125000E+00 -0.4375000E+00  0.1875000E+00  0.3125000E-01
    1        0.115171   1.000000
    2        1.460080   1.000000
    3        4.828197   1.000000
    4        6.124995   1.000000
    5        8.062845   1.000000
    6       14.985562   0.000000
    7       17.533149   0.000000
    8       18.206048   0.000000
 
 -0.1875000E+00 -0.4375000E+00  0.1875000E+00  0.1562500E-01
    1        1.696103   1.000000
    2        3.692687   1.000000
    3        4.499688   1.000000
    4        5.543244   1.000000
    5        7.593104   1.000000
    6       12.377315   0.000000
    7       13.893798   0.000000
    8       17.217371   0.000000
 
 -0.3125000E+00 -0.3125000E+00  0.1875000E+00  0.1562500E-01
    1        2.748674   1.000000
    2        2.882252   1.000000
    3        4.229939   1.000000
    4        6.153167   1.000000
    5        6.226314   1.000000
    6       12.663769   0.000000
    7       15.200437   0.000000
    8       15.892177   0.000000
 
 -0.1875000E+00 -0.3125000E+00  0.1875000E+00  0.1562500E-01
    1        0.951547   1.000000
    2        5.120268   1.000000
    3        5.917608   1.000000
    4        7.356138   1.000000
    5        8.001826   1.000000
    6       10.904040   0.000000
    7       12.030952   0.000000
    8       13.397544   0.000000
 
 -0.1875000E+00 -0.1875000E+00  0.1875000E+00  0.3906250E-02
    1       -1.509132   1.000000
    2        8.135975   1.000000
    3        8.446345   0.999999
    4        8.446377   0.999999
    5        8.747047   0.994735
    6        9.993020   0.000000
    7       11.954996   0.000000
    8       11.955028   0.000000
 
 -0.3125000E+00  0.3125000E+00  0.3125000E+00  0.7812500E-02
    1       -2.319431   1.000000
    2        1.297294   1.000000
    3        3.060216   1.000000
    4        6.594523   1.000000
    5       14.748374   0.000000
    6       16.993342   0.000000
    7       18.079407   0.000000
    8       18.390129   0.000000
 
 -0.4375000E+00  0.4375000E+00  0.3125000E+00  0.1562500E-01
    1       -1.249342   1.000000
    2        0.105096   1.000000
    3        3.531139   1.000000
    4        4.859941   1.000000
    5       15.926744   0.000000
    6       16.542735   0.000000
    7       18.240759   0.000000
    8       18.940619   0.000000
 
 -0.3125000E+00  0.4375000E+00  0.3125000E+00  0.1562500E-01
    1       -0.998758   1.000000
    2        1.175353   1.000000
    3        2.963584   1.000000
    4        5.097351   1.000000
    5       12.076898   0.000000
    6       17.782200   0.000000
    7       19.169309   0.000000
    8       19.739266   0.000000
 
 -0.4375000E+00 -0.4375000E+00  0.3125000E+00  0.1562500E-01
    1        0.167102   1.000000
    2        0.174838   1.000000
    3        3.600695   1.000000
    4        3.601599   1.000000
    5       11.941523   0.000000
    6       19.094376   0.000000
    7       19.451642   0.000000
    8       19.767223   0.000000
 
 -0.3125000E+00 -0.4375000E+00  0.3125000E+00  0.1562500E-01
    1        1.095842   1.000000
    2        1.909444   1.000000
    3        3.693278   1.000000
    4        4.491870   1.000000
    5        7.718472   1.000000
    6       16.545686   0.000000
    7       18.001793   0.000000
    8       18.881382   0.000000
 
 -0.3125000E+00 -0.3125000E+00  0.3125000E+00  0.3906250E-02
    1        3.197104   1.000000
    2        3.513406   1.000000
    3        4.272404   1.000000
    4        5.221790   1.000000
    5        5.221797   1.000000
    6       14.206373   0.000000
    7       15.016428   0.000000
    8       15.016441   0.000000
 
 -0.4375000E+00  0.4375000E+00  0.4375000E+00  0.7812500E-02
    1       -0.262998   1.000000
    2        0.557258   1.000000
    3        2.377043   1.000000
    4        3.185692   1.000000
    5       16.381427   0.000000
    6       16.477625   0.000000
    7       19.979626   0.000000
    8       20.763187   0.000000
 
 -0.4375000E+00 -0.4375000E+00  0.4375000E+00  0.3906250E-02
    1        0.799851   1.000000
    2        0.810826   1.000000
    3        2.621087   1.000000
    4        2.621094   1.000000
    5       11.799823   0.000000
    6       20.162206   0.000000
    7       20.920747   0.000000
    8       20.925878   0.000000
