    2    2   15    1
  0.1529437E+02  0.3691622E-09  0.3691622E-09  0.3691622E-09  0.5000000E-15
  1.000000000000000E-004
  CAR 
 unknown system                          
      8     56      8
 
  0.6250000E-01  0.6250000E-01  0.6250000E-01  0.1562500E-01
    1       -4.082512   1.000000
    2        4.407575   1.000000
    3        6.780173   1.000000
    4        8.102764   1.000000
    5       12.104965   0.000000
    6       14.619814   0.000000
    7       15.434115   0.000000
    8       16.599748   0.000000
 
  0.1875000E+00  0.6250000E-01  0.6250000E-01  0.3125000E-01
    1       -2.766261   1.000000
    2        4.295279   1.000000
    3        7.230434   1.000000
    4        9.634310   0.000102
    5       11.436717   0.000000
    6       11.922551   0.000000
    7       14.261810   0.000000
    8       14.835121   0.000000
 
  0.3125000E+00  0.6250000E-01  0.6250000E-01  0.3125000E-01
    1       -0.596808   1.000000
    2        4.929535   1.000000
    3        6.207642   1.000000
    4        7.719051   1.000000
    5        9.228396   0.199604
    6       12.491055   0.000000
    7       13.690793   0.000000
    8       13.935599   0.000000
 
  0.4375000E+00  0.6250000E-01  0.6250000E-01  0.1562500E-01
    1        2.133869   1.000000
    2        2.680295   1.000000
    3        6.392481   1.000000
    4        6.438739   1.000000
    5        9.122001   0.463862
    6       11.080360   0.000000
    7       13.619034   0.000000
    8       14.649980   0.000000
 
 -0.6250000E-01  0.6250000E-01  0.6250000E-01  0.7812500E-02
    1       -4.523420   1.000000
    2        4.923246   1.000000
    3        5.942775   1.000000
    4        7.739673   1.000000
    5       11.198231   0.000000
    6       15.173045   0.000000
    7       17.454297   0.000000
    8       18.320886   0.000000
 
  0.1875000E+00  0.1875000E+00  0.6250000E-01  0.1562500E-01
    1       -0.777661   1.000000
    2        4.841889   1.000000
    3        7.213902   1.000000
    4        7.291590   1.000000
    5        9.971402   0.000000
    6       11.930085   0.000000
    7       13.683339   0.000000
    8       13.708814   0.000000
 
  0.3125000E+00  0.1875000E+00  0.6250000E-01  0.3125000E-01
    1        1.995918   1.000000
    2        3.507193   1.000000
    3        4.848457   1.000000
    4        6.175236   1.000000
    5       10.418014   0.000000
    6       12.131797   0.000000
    7       13.072511   0.000000
    8       15.044784   0.000000
 
  0.4375000E+00  0.1875000E+00  0.6250000E-01  0.3125000E-01
    1        0.307111   1.000000
    2        3.125868   1.000000
    3        5.690300   1.000000
    4        7.873570   1.000000
    5        9.518957   0.001880
    6       12.103239   0.000000
    7       14.167206   0.000000
    8       15.130214   0.000000
 
 -0.4375000E+00  0.1875000E+00  0.6250000E-01  0.3125000E-01
    1       -2.030708   1.000000
    2        2.273359   1.000000
    3        7.854495   1.000000
    4        9.665803   0.000041
    5       11.152497   0.000000
    6       11.703299   0.000000
    7       13.068959   0.000000
    8       15.325605   0.000000
 
 -0.3125000E+00  0.1875000E+00  0.6250000E-01  0.1562500E-01
    1       -3.526154   1.000000
    2        2.234265   1.000000
    3        7.298304   1.000000
    4        9.056470   0.645300
    5       12.650015   0.000000
    6       14.280453   0.000000
    7       14.602711   0.000000
    8       15.645991   0.000000
 
 -0.1875000E+00  0.1875000E+00  0.6250000E-01  0.1562500E-01
    1       -4.151741   1.000000
    2        2.982634   1.000000
    3        6.038140   1.000000
    4        9.005052   0.769209
    5       12.926129   0.000000
    6       13.115990   0.000000
    7       15.967013   0.000000
    8       19.183342   0.000000
 
 -0.6250000E-01  0.1875000E+00  0.6250000E-01  0.1562500E-01
    1       -3.897102   1.000000
    2        4.087569   1.000000
    3        5.491527   1.000000
    4        9.616656   0.000166
    5       12.829995   0.000000
    6       13.094165   0.000000
    7       14.951430   0.000000
    8       17.027889   0.000000
 
  0.3125000E+00  0.3125000E+00  0.6250000E-01  0.1562500E-01
    1        1.545641   1.000000
    2        1.568572   1.000000
    3        5.519719   1.000000
    4        7.878232   1.000000
    5       10.115191   0.000000
    6       11.073554   0.000000
    7       15.029386   0.000000
    8       16.065108   0.000000
 
  0.4375000E+00  0.3125000E+00  0.6250000E-01  0.3125000E-01
    1       -0.935135   1.000000
    2        0.507959   1.000000
    3        8.723448   0.996809
    4        9.406726   0.017688
    5       10.330948   0.000000
    6       12.027676   0.000000
    7       12.700409   0.000000
    8       14.051160   0.000000
 
 -0.4375000E+00  0.3125000E+00  0.6250000E-01  0.1562500E-01
    1       -2.603591   1.000000
    2        0.299142   1.000000
    3        8.161521   1.000000
    4       10.044877   0.000000
    5       10.884308   0.000000
    6       12.739598   0.000000
    7       15.154570   0.000000
    8       15.168533   0.000000
 
 -0.3125000E+00  0.3125000E+00  0.6250000E-01  0.1562500E-01
    1       -3.410879   1.000000
    2        0.930220   1.000000
    3        6.719470   1.000000
    4        9.974760   0.000000
    5       10.894559   0.000000
    6       14.138002   0.000000
    7       16.121609   0.000000
    8       18.888377   0.000000
 
 -0.1875000E+00  0.3125000E+00  0.6250000E-01  0.3125000E-01
    1       -3.342144   1.000000
    2        2.345523   1.000000
    3        5.576192   1.000000
    4       10.832508   0.000000
    5       11.076249   0.000000
    6       14.147644   0.000000
    7       15.186290   0.000000
    8       16.774660   0.000000
 
 -0.6250000E-01  0.3125000E+00  0.6250000E-01  0.1562500E-01
    1       -2.398845   1.000000
    2        4.083310   1.000000
    3        5.636508   1.000000
    4        9.474012   0.004943
    5       11.507675   0.000000
    6       12.752134   0.000000
    7       14.067173   0.000000
    8       14.687398   0.000000
 
  0.4375000E+00  0.4375000E+00  0.6250000E-01  0.7812500E-02
    1       -1.323985   1.000000
    2       -1.323982   1.000000
    3        9.353749   0.041867
    4        9.353754   0.041864
    5       11.282129   0.000000
    6       11.282140   0.000000
    7       15.016737   0.000000
    8       15.016785   0.000000
 
 -0.4375000E+00  0.4375000E+00  0.6250000E-01  0.1562500E-01
    1       -2.307534   1.000000
    2       -0.853278   1.000000
    3        7.767489   1.000000
    4        9.166968   0.341388
    5       11.100692   0.000000
    6       12.490056   0.000000
    7       18.538534   0.000000
    8       18.661235   0.000000
 
 -0.3125000E+00  0.4375000E+00  0.6250000E-01  0.3125000E-01
    1       -2.422585   1.000000
    2        0.460708   1.000000
    3        6.399769   1.000000
    4        9.161436   0.355855
    5       11.830197   0.000000
    6       13.675918   0.000000
    7       15.481781   0.000000
    8       16.368381   0.000000
 
 -0.1875000E+00  0.4375000E+00  0.6250000E-01  0.3125000E-01
    1       -1.667492   1.000000
    2        2.541325   1.000000
    3        5.811721   1.000000
    4        8.896639   0.933560
    5        9.863717   0.000000
    6       13.446896   0.000000
    7       14.206124   0.000000
    8       16.345223   0.000000
 
 -0.6250000E-01  0.4375000E+00  0.6250000E-01  0.1562500E-01
    1       -0.056047   1.000000
    2        4.762653   1.000000
    3        5.508113   1.000000
    4        6.467741   1.000000
    5        9.715000   0.000009
    6       12.274737   0.000000
    7       12.431252   0.000000
    8       15.678610   0.000000
 
 -0.4375000E+00 -0.4375000E+00  0.6250000E-01  0.1562500E-01
    1       -1.149883   1.000000
    2       -1.146949   1.000000
    3        7.600267   1.000000
    4        7.624529   1.000000
    5       12.415021   0.000000
    6       13.407708   0.000000
    7       14.797200   0.000000
    8       16.301225   0.000000
 
 -0.3125000E+00 -0.4375000E+00  0.6250000E-01  0.3125000E-01
    1       -0.580358   1.000000
    2        0.842640   1.000000
    3        6.767340   1.000000
    4        8.042671   1.000000
    5        8.794904   0.986866
    6       13.248197   0.000000
    7       15.207464   0.000000
    8       16.641589   0.000000
 
 -0.1875000E+00 -0.4375000E+00  0.6250000E-01  0.3125000E-01
    1        0.836214   1.000000
    2        3.530063   1.000000
    3        4.878493   1.000000
    4        6.792115   1.000000
    5        9.056159   0.646118
    6       11.236915   0.000000
    7       13.893353   0.000000
    8       16.912077   0.000000
 
 -0.6250000E-01 -0.4375000E+00  0.6250000E-01  0.1562500E-01
    1        1.640953   1.000000
    2        3.164484   1.000000
    3        6.522520   1.000000
    4        7.690655   1.000000
    5        8.024770   1.000000
    6       10.750702   0.000000
    7       12.202300   0.000000
    8       15.845757   0.000000
 
 -0.3125000E+00 -0.3125000E+00  0.6250000E-01  0.1562500E-01
    1        2.031240   1.000000
    2        2.085171   1.000000
    3        4.680644   1.000000
    4        7.672308   1.000000
    5        8.013008   1.000000
    6       10.949001   0.000000
    7       15.717918   0.000000
    8       16.171539   0.000000
 
 -0.1875000E+00 -0.3125000E+00  0.6250000E-01  0.3125000E-01
    1        1.304282   1.000000
    2        4.170633   1.000000
    3        5.456251   1.000000
    4        7.601935   1.000000
    5        8.834290   0.974035
    6       10.681605   0.000000
    7       12.153558   0.000000
    8       14.459174   0.000000
 
 -0.6250000E-01 -0.3125000E+00  0.6250000E-01  0.1562500E-01
    1       -1.143163   1.000000
    2        6.496297   1.000000
    3        7.077429   1.000000
    4        7.741691   1.000000
    5        9.127776   0.447673
    6       11.707349   0.000000
    7       12.267443   0.000000
    8       13.733986   0.000000
 
 -0.1875000E+00 -0.1875000E+00  0.6250000E-01  0.1562500E-01
    1       -1.325692   1.000000
    2        6.866962   1.000000
    3        7.856816   1.000000
    4        7.919589   1.000000
    5        9.269500   0.128463
    6       11.034543   0.000000
    7       12.262259   0.000000
    8       12.475418   0.000000
 
 -0.6250000E-01 -0.1875000E+00  0.6250000E-01  0.1562500E-01
    1       -3.135549   1.000000
    2        6.189728   1.000000
    3        7.135208   1.000000
    4        8.784007   0.989255
    5       11.857919   0.000000
    6       12.414025   0.000000
    7       12.530511   0.000000
    8       14.916341   0.000000
 
 -0.6250000E-01 -0.6250000E-01  0.6250000E-01  0.3906250E-02
    1       -4.268472   1.000000
    2        6.530871   1.000000
    3        6.607101   1.000000
    4        6.607126   1.000000
    5       11.011937   0.000000
    6       15.844755   0.000000
    7       15.945580   0.000000
    8       17.236885   0.000000
 
  0.1875000E+00  0.1875000E+00  0.1875000E+00  0.1562500E-01
    1        0.129708   1.000000
    2        2.972163   1.000000
    3        6.794521   1.000000
    4        6.834405   1.000000
    5       10.914018   0.000000
    6       12.697999   0.000000
    7       13.959193   0.000000
    8       14.508508   0.000000
 
  0.3125000E+00  0.1875000E+00  0.1875000E+00  0.1562500E-01
    1        2.846505   1.000000
    2        3.330644   1.000000
    3        4.371332   1.000000
    4        4.744132   1.000000
    5       12.055291   0.000000
    6       13.947602   0.000000
    7       14.153994   0.000000
    8       14.434926   0.000000
 
 -0.1875000E+00  0.1875000E+00  0.1875000E+00  0.7812500E-02
    1       -3.781708   1.000000
    2        2.763942   1.000000
    3        4.364541   1.000000
    4       10.717024   0.000000
    5       11.121069   0.000000
    6       14.226267   0.000000
    7       17.872087   0.000000
    8       18.073945   0.000000
 
  0.3125000E+00  0.3125000E+00  0.1875000E+00  0.7812500E-02
    1        1.386984   1.000000
    2        1.386989   1.000000
    3        6.662728   1.000000
    4        6.662763   1.000000
    5       12.136098   0.000000
    6       12.136119   0.000000
    7       13.932431   0.000000
    8       13.932470   0.000000
 
 -0.3125000E+00  0.3125000E+00  0.1875000E+00  0.1562500E-01
    1       -3.045086   1.000000
    2        1.202080   1.000000
    3        4.542249   1.000000
    4        8.665418   0.999149
    5       12.561678   0.000000
    6       16.508364   0.000000
    7       16.731653   0.000000
    8       18.350487   0.000000
 
 -0.1875000E+00  0.3125000E+00  0.1875000E+00  0.1562500E-01
    1       -2.791616   1.000000
    2        2.276988   1.000000
    3        3.968268   1.000000
    4        8.883260   0.944917
    5       12.390176   0.000000
    6       14.385224   0.000000
    7       16.438886   0.000000
    8       17.836505   0.000000
 
 -0.4375000E+00  0.4375000E+00  0.1875000E+00  0.1562500E-01
    1       -1.950245   1.000000
    2       -0.515775   1.000000
    3        5.529080   1.000000
    4        6.921238   1.000000
    5       13.758052   0.000000
    6       15.072264   0.000000
    7       17.966266   0.000000
    8       18.077263   0.000000
 
 -0.3125000E+00  0.4375000E+00  0.1875000E+00  0.3125000E-01
    1       -1.882532   1.000000
    2        0.903828   1.000000
    3        4.283567   1.000000
    4        6.991120   1.000000
    5       12.412302   0.000000
    6       15.420243   0.000000
    7       17.816405   0.000000
    8       18.068037   0.000000
 
 -0.1875000E+00  0.4375000E+00  0.1875000E+00  0.1562500E-01
    1       -0.947017   1.000000
    2        2.639883   1.000000
    3        4.363632   1.000000
    4        7.749957   1.000000
    5        8.453827   0.999998
    6       14.690518   0.000000
    7       16.362267   0.000000
    8       16.638951   0.000000
 
 -0.4375000E+00 -0.4375000E+00  0.1875000E+00  0.1562500E-01
    1       -0.634374   1.000000
    2       -0.628713   1.000000
    3        5.433971   1.000000
    4        5.436283   1.000000
    5       12.325247   0.000000
    6       16.308784   0.000000
    7       17.054851   0.000000
    8       17.882770   0.000000
 
 -0.3125000E+00 -0.4375000E+00  0.1875000E+00  0.3125000E-01
    1        0.115546   1.000000
    2        1.460450   1.000000
    3        4.828590   1.000000
    4        6.125384   1.000000
    5        8.063232   1.000000
    6       14.985960   0.000000
    7       17.533549   0.000000
    8       18.206435   0.000000
 
 -0.1875000E+00 -0.4375000E+00  0.1875000E+00  0.1562500E-01
    1        1.696483   1.000000
    2        3.693066   1.000000
    3        4.500055   1.000000
    4        5.543648   1.000000
    5        7.593490   1.000000
    6       12.377704   0.000000
    7       13.894172   0.000000
    8       17.217787   0.000000
 
 -0.3125000E+00 -0.3125000E+00  0.1875000E+00  0.1562500E-01
    1        2.749055   1.000000
    2        2.882626   1.000000
    3        4.230316   1.000000
    4        6.153562   1.000000
    5        6.226703   1.000000
    6       12.664160   0.000000
    7       15.200786   0.000000
    8       15.892593   0.000000
 
 -0.1875000E+00 -0.3125000E+00  0.1875000E+00  0.1562500E-01
    1        0.951934   1.000000
    2        5.120642   1.000000
    3        5.917969   1.000000
    4        7.356543   1.000000
    5        8.002217   1.000000
    6       10.904438   0.000000
    7       12.031303   0.000000
    8       13.397916   0.000000
 
 -0.1875000E+00 -0.1875000E+00  0.1875000E+00  0.3906250E-02
    1       -1.508751   1.000000
    2        8.136342   1.000000
    3        8.446717   0.999999
    4        8.446747   0.999999
    5        8.747408   0.994737
    6        9.993456   0.000000
    7       11.955356   0.000000
    8       11.955388   0.000000
 
 -0.3125000E+00  0.3125000E+00  0.3125000E+00  0.7812500E-02
    1       -2.319055   1.000000
    2        1.297652   1.000000
    3        3.060616   1.000000
    4        6.594908   1.000000
    5       14.748765   0.000000
    6       16.993764   0.000000
    7       18.079837   0.000000
    8       18.390554   0.000000
 
 -0.4375000E+00  0.4375000E+00  0.3125000E+00  0.1562500E-01
    1       -1.248969   1.000000
    2        0.105464   1.000000
    3        3.531530   1.000000
    4        4.860328   1.000000
    5       15.927144   0.000000
    6       16.543148   0.000000
    7       18.241179   0.000000
    8       18.941009   0.000000
 
 -0.3125000E+00  0.4375000E+00  0.3125000E+00  0.1562500E-01
    1       -0.998384   1.000000
    2        1.175710   1.000000
    3        2.963986   1.000000
    4        5.097739   1.000000
    5       12.077295   0.000000
    6       17.782603   0.000000
    7       19.169763   0.000000
    8       19.739634   0.000000
 
 -0.4375000E+00 -0.4375000E+00  0.3125000E+00  0.1562500E-01
    1        0.167470   1.000000
    2        0.175207   1.000000
    3        3.601088   1.000000
    4        3.601991   1.000000
    5       11.941920   0.000000
    6       19.094778   0.000000
    7       19.452101   0.000000
    8       19.767623   0.000000
 
 -0.3125000E+00 -0.4375000E+00  0.3125000E+00  0.1562500E-01
    1        1.096211   1.000000
    2        1.909803   1.000000
    3        3.693683   1.000000
    4        4.492264   1.000000
    5        7.718860   1.000000
    6       16.546105   0.000000
    7       18.002174   0.000000
    8       18.881801   0.000000
 
 -0.3125000E+00 -0.3125000E+00  0.3125000E+00  0.3906250E-02
    1        3.197489   1.000000
    2        3.513769   1.000000
    3        4.272762   1.000000
    4        5.222198   1.000000
    5        5.222205   1.000000
    6       14.206810   0.000000
    7       15.016778   0.000000
    8       15.016791   0.000000
 
 -0.4375000E+00  0.4375000E+00  0.4375000E+00  0.7812500E-02
    1       -0.262630   1.000000
    2        0.557614   1.000000
    3        2.377446   1.000000
    4        3.186084   1.000000
    5       16.381838   0.000000
    6       16.478038   0.000000
    7       19.980049   0.000000
    8       20.763580   0.000000
 
 -0.4375000E+00 -0.4375000E+00  0.4375000E+00  0.3906250E-02
    1        0.800208   1.000000
    2        0.811183   1.000000
    3        2.621491   1.000000
    4        2.621498   1.000000
    5       11.800222   0.000000
    6       20.162699   0.000000
    7       20.921176   0.000000
    8       20.922072   0.000000
