       N       E                     dE             d eps       ncg     rms          rms(c)
DAV:   1    -0.100786525528E+02   -0.10079E+02   -0.26235E-06   496   0.144E-02    0.486E-04
DAV:   2    -0.100786525746E+02   -0.21853E-07   -0.12669E-07   496   0.264E-03
   1 F= -.10078653E+02 E0= -.10067801E+02  d E =-.100787E+02
