unknown system                          
   1.00000000000000     
     0.000000    2.816328    2.816328
     2.816328    0.000000    2.816328
     2.816328    2.816328    0.000000
   Si
     2
Direct
  0.000000  0.000000  0.000000
  0.250000  0.250000  0.250000
 
   36   36   36
 -7.9232     -6.3263     -1.9950      3.8748      9.7996      14.505      17.269      18.012      17.187      15.526    
  13.683      11.916      10.355      9.0595      8.0421      7.2857      6.7654      6.4609      6.3606      6.4609    
  6.7654      7.2857      8.0421      9.0595      10.355      11.916      13.683      15.526      17.187      18.012    
  17.269      14.505      9.7996      3.8749     -1.9950     -6.3263     -6.3263     -3.1662      2.2258      8.3749    
  13.811      17.522      19.155      18.964      17.594      15.790      13.973      12.299      10.858      9.6854    
  8.7788      8.1205      7.6916      7.4796      7.4795      7.6915      8.1205      8.7788      9.6854      10.858    
  12.299      13.973      15.790      17.594      18.964      19.155      17.521      13.811      8.3750      2.2257    
 -3.1664     -6.3264     -1.9950      2.2258      7.8488      13.378      17.604      19.915      20.336      19.366    
  17.716      15.939      14.236      12.715      11.432      10.401      9.6154      9.0620      8.7315      8.6214    
  8.7315      9.0619      9.6154      10.401      11.432      12.715      14.236      15.939      17.716      19.366    
  20.336      19.915      17.604      13.379      7.8488      2.2257     -1.9951     -3.5646      3.8748      8.3749    
  13.378      17.620      20.295      21.206      20.665      19.278      17.641      16.006      14.493      13.168    
  12.063      11.181      10.517      10.069      9.8424      9.8424      10.069      10.517      11.181      12.063    
  13.168      14.493      16.006      17.641      19.278      20.665      21.205      20.295      17.620      13.378    
  8.3750      3.8749      1.2000      1.2000      9.7996      13.811      17.604      20.295      21.503      21.352    
  20.302      18.901      17.437      16.029      14.752      13.644      12.717      11.976      11.425      11.082    
  10.965      11.082      11.425      11.976      12.717      13.644      14.752      16.029      17.437      18.901    
  20.302      21.352      21.503      20.295      17.604      13.811      9.7996      6.7230      5.5675      6.7229    
  14.505      17.522      19.915      21.206      21.352      20.658      19.574      18.370      17.164      16.029    
  15.004      14.106      13.339      12.718      12.269      12.031      12.031      12.269      12.717      13.339    
  14.106      15.004      16.029      17.164      18.370      19.574      20.658      21.352      21.206      19.915    
  17.521      14.505      11.699      10.002      10.002      11.699      17.269      19.155      20.336      20.665    
  20.302      19.574      18.695      17.768      16.860      16.006      15.218      14.497      13.857      13.332    
  12.981      12.856      12.981      13.332      13.857      14.497      15.218      16.006      16.860      17.768    
  18.695      19.574      20.302      20.665      20.336      19.155      17.269      15.159      13.493      12.860    
  13.493      15.159      18.012      18.964      19.366      19.278      18.901      18.370      17.768      17.149    
  16.539      15.939      15.343      14.753      14.203      13.760      13.508      13.508      13.760      14.203    
  14.753      15.343      15.939      16.539      17.149      17.768      18.370      18.901      19.278      19.366    
  18.964      18.013      16.699      15.421      14.630      14.630      15.421      16.699      17.187      17.594    
  17.716      17.641      17.437      17.164      16.860      16.539      16.189      15.790      15.328      14.820    
  14.326      13.953      13.813      13.953      14.326      14.820      15.328      15.790      16.190      16.539    
  16.860      17.164      17.437      17.641      17.716      17.594      17.187      16.496      15.686      15.027    
  14.773      15.027      15.685      16.496      15.526      15.790      15.939      16.006      16.029      16.029    
  16.006      15.939      15.790      15.526      15.139      14.660      14.204      13.922      13.922      14.204    
  14.661      15.138      15.526      15.790      15.939      16.006      16.029      16.029      16.006      15.939    
  15.790      15.526      15.138      14.661      14.204      13.922      13.922      14.204      14.660      15.139    
  13.683      13.973      14.236      14.493      14.752      15.004      15.218      15.343      15.328      15.139    
  14.770      14.310      13.924      13.773      13.924      14.310      14.770      15.138      15.328      15.343    
  15.218      15.004      14.752      14.493      14.236      13.973      13.683      13.350      12.988      12.645    
  12.391      12.297      12.391      12.645      12.988      13.350      11.916      12.299      12.715      13.168    
  13.644      14.106      14.497      14.753      14.820      14.660      14.310      13.911      13.649      13.649    
  13.912      14.310      14.661      14.820      14.753      14.497      14.106      13.644      13.168      12.715    
  12.299      11.916      11.555      11.210      10.896      10.647      10.508      10.508      10.647      10.896    
  11.210      11.555      10.355      10.858      11.432      12.063      12.717      13.339      13.857      14.203    
  14.326      14.204      13.924      13.649      13.536      13.649      13.924      14.204      14.326      14.203    
  13.857      13.339      12.717      12.063      11.432      10.858      10.355      9.9171      9.5370      9.2120    
  8.9530      8.7822      8.7222      8.7823      8.9530      9.2120      9.5369      9.9170      9.0595      9.6854    
  10.401      11.181      11.976      12.718      13.332      13.760      13.953      13.922      13.773      13.649    
  13.649      13.773      13.922      13.953      13.760      13.332      12.717      11.976      11.181      10.401    
  9.6854      9.0594      8.5282      8.0849      7.7206      7.4331      7.2297      7.1230      7.1230      7.2296    
  7.4331      7.7206      8.0849      8.5283      8.0421      8.7788      9.6154      10.517      11.425      12.269    
  12.981      13.508      13.813      13.922      13.924      13.912      13.924      13.922      13.813      13.508    
  12.981      12.269      11.425      10.517      9.6154      8.7788      8.0422      7.4181      6.9031      6.4864    
  6.1591      5.9189      5.7702      5.7195      5.7701      5.9189      6.1592      6.4865      6.9031      7.4181    
  7.2857      8.1205      9.0620      10.069      11.082      12.031      12.856      13.508      13.953      14.204    
  14.310      14.310      14.204      13.953      13.508      12.856      12.031      11.082      10.069      9.0619    
  8.1205      7.2857      6.5759      5.9906      5.5190      5.1482      4.8697      4.6816      4.5861      4.5861    
  4.6816      4.8698      5.1482      5.5189      5.9905      6.5758      6.7654      7.6916      8.7315      9.8424    
  10.965      12.031      12.981      13.760      14.326      14.661      14.770      14.661      14.326      13.760    
  12.981      12.031      10.965      9.8424      8.7315      7.6915      6.7653      5.9746      5.3214      4.7952    
  4.3806      4.0648      3.8403      3.7051      3.6598      3.7051      3.8403      4.0648      4.3806      4.7951    
  5.3214      5.9747      6.4609      7.4796      8.6214      9.8424      11.082      12.269      13.332      14.203    
  14.820      15.138      15.138      14.820      14.203      13.332      12.269      11.082      9.8424      8.6214    
  7.4796      6.4609      5.5885      4.8660      4.2832      3.8233      3.4700      3.2113      3.0407      2.9557    
  2.9557      3.0407      3.2113      3.4699      3.8233      4.2832      4.8661      5.5886      6.3606      7.4795    
  8.7315      10.069      11.425      12.717      13.857      14.753      15.328      15.526      15.328      14.753    
  13.857      12.717      11.425      10.069      8.7315      7.4796      6.3606      5.3997      4.6016      3.9562    
  3.4458      3.0517      2.7582      2.5545      2.4343      2.3945      2.4343      2.5545      2.7582      3.0517    
  3.4459      3.9562      4.6016      5.3997      6.4609      7.6915      9.0619      10.517      11.976      13.339    
  14.497      15.343      15.790      15.790      15.343      14.497      13.339      11.976      10.517      9.0619    
  7.6915      6.4609      5.3997      4.5149      3.7968      3.2271      2.7851      2.4524      2.2146      2.0612    
  1.9861      1.9861      2.0612      2.2146      2.4525      2.7852      3.2271      3.7967      4.5148      5.3997    
  6.7654      8.1205      9.6154      11.181      12.717      14.106      15.218      15.939      16.190      15.939    
  15.218      14.106      12.717      11.181      9.6154      8.1205      6.7653      5.5885      4.6016      3.7968    
  3.1554      2.6553      2.2756      1.9988      1.8112      1.7027      1.6672      1.7027      1.8112      1.9988    
  2.2756      2.6552      3.1553      3.7967      4.6016      5.5886      7.2857      8.7788      10.401      12.063    
  13.644      15.004      16.006      16.539      16.539      16.006      15.004      13.644      12.063      10.401    
  8.7788      7.2857      5.9746      4.8660      3.9562      3.2271      2.6553      2.2177      1.8940      1.6674    
  1.5243      1.4554      1.4554      1.5244      1.6674      1.8940      2.2176      2.6552      3.2271      3.9562    
  4.8661      5.9746      8.0421      9.6854      11.432      13.168      14.752      16.029      16.860      17.149    
  16.860      16.029      14.752      13.168      11.432      9.6854      8.0422      6.5759      5.3214      4.2832    
  3.4458      2.7851      2.2756      1.8940      1.6205      1.4384      1.3348      1.3012      1.3348      1.4384    
  1.6204      1.8940      2.2756      2.7852      3.4459      4.2832      5.3214      6.5758      9.0595      10.858    
  12.715      14.493      16.029      17.164      17.768      17.768      17.164      16.029      14.493      12.715    
  10.858      9.0594      7.4181      5.9906      4.7952      3.8233      3.0517      2.4524      1.9988      1.6674    
  1.4384      1.2957      1.2275      1.2275      1.2957      1.4384      1.6674      1.9988      2.4525      3.0517    
  3.8233      4.7951      5.9905      7.4181      10.355      12.299      14.236      16.006      17.437      18.370    
  18.695      18.370      17.437      16.006      14.236      12.299      10.355      8.5282      6.9031      5.5190    
  4.3806      3.4700      2.7582      2.2146      1.8112      1.5243      1.3348      1.2275      1.1928      1.2275    
  1.3348      1.5243      1.8112      2.2146      2.7582      3.4699      4.3805      5.5189      6.9031      8.5283    
  11.916      13.973      15.939      17.641      18.901      19.574      19.574      18.901      17.641      15.939    
  13.973      11.916      9.9171      8.0849      6.4864      5.1482      4.0648      3.2113      2.5545      2.0612    
  1.7027      1.4554      1.3012      1.2275      1.2275      1.3012      1.4554      1.7027      2.0612      2.5545    
  3.2113      4.0648      5.1482      6.4865      8.0849      9.9170      13.683      15.790      17.716      19.278    
  20.302      20.658      20.302      19.278      17.716      15.790      13.683      11.555      9.5370      7.7206    
  6.1591      4.8697      3.8403      3.0407      2.4343      1.9861      1.6672      1.4554      1.3348      1.2957    
  1.3348      1.4554      1.6672      1.9861      2.4343      3.0407      3.8403      4.8698      6.1592      7.7206    
  9.5369      11.555      15.526      17.594      19.366      20.665      21.352      21.352      20.665      19.366    
  17.594      15.526      13.350      11.210      9.2120      7.4331      5.9189      4.6816      3.7051      2.9557    
  2.3945      1.9861      1.7027      1.5244      1.4384      1.4384      1.5243      1.7027      1.9861      2.3945    
  2.9557      3.7051      4.6816      5.9189      7.4331      9.2120      11.210      13.350      17.187      18.964    
  20.336      21.205      21.503      21.206      20.336      18.964      17.187      15.138      12.988      10.896    
  8.9530      7.2297      5.7702      4.5861      3.6598      2.9557      2.4343      2.0612      1.8112      1.6674    
  1.6204      1.6674      1.8112      2.0612      2.4343      2.9557      3.6598      4.5861      5.7701      7.2297    
  8.9530      10.896      12.989      15.139      18.012      19.155      19.915      20.295      20.295      19.915    
  19.155      18.013      16.496      14.661      12.645      10.647      8.7822      7.1230      5.7195      4.5861    
  3.7051      3.0407      2.5545      2.2146      1.9988      1.8940      1.8940      1.9988      2.2146      2.5545    
  3.0407      3.7051      4.5861      5.7195      7.1231      8.7823      10.647      12.645      14.661      16.496    
  17.269      17.521      17.604      17.620      17.604      17.521      17.269      16.699      15.686      14.204    
  12.391      10.508      8.7222      7.1230      5.7701      4.6816      3.8403      3.2113      2.7582      2.4525    
  2.2756      2.2176      2.2756      2.4525      2.7582      3.2113      3.8403      4.6816      5.7701      7.1231    
  8.7222      10.508      12.391      14.204      15.685      16.699      14.505      13.811      13.379      13.378    
  13.811      14.505      15.159      15.421      15.027      13.922      12.297      10.508      8.7823      7.2296    
  5.9189      4.8698      4.0648      3.4699      3.0517      2.7852      2.6552      2.6552      2.7852      3.0517    
  3.4699      4.0648      4.8698      5.9189      7.2297      8.7823      10.508      12.297      13.922      15.027    
  15.421      15.159      9.7996      8.3750      7.8488      8.3750      9.7996      11.699      13.493      14.630    
  14.773      13.922      12.391      10.647      8.9530      7.4331      6.1592      5.1482      4.3806      3.8233    
  3.4459      3.2271      3.1553      3.2271      3.4459      3.8233      4.3805      5.1482      6.1592      7.4331    
  8.9530      10.647      12.391      13.922      14.773      14.630      13.493      11.699      3.8749      2.2257    
  2.2257      3.8749      6.7230      10.002      12.860      14.630      15.027      14.204      12.645      10.896    
  9.2120      7.7206      6.4865      5.5189      4.7951      4.2832      3.9562      3.7967      3.7967      3.9562    
  4.2832      4.7951      5.5189      6.4865      7.7206      9.2120      10.896      12.645      14.204      15.027    
  14.630      12.860      10.002      6.7229     -1.9950     -3.1664     -1.9951      1.2000      5.5675      10.002    
  13.493      15.421      15.685      14.660      12.988      11.210      9.5369      8.0849      6.9031      5.9905    
  5.3214      4.8661      4.6016      4.5148      4.6016      4.8661      5.3214      5.9905      6.9031      8.0849    
  9.5369      11.210      12.989      14.661      15.685      15.421      13.493      10.002      5.5675      1.2001    
 -6.3263     -6.3264     -3.5646      1.2000      6.7229      11.699      15.159      16.699      16.496      15.139    
  13.350      11.555      9.9170      8.5283      7.4181      6.5758      5.9747      5.5886      5.3997      5.3997    
  5.5886      5.9746      6.5758      7.4181      8.5283      9.9170      11.555      13.350      15.139      16.496    
  16.699      15.159      11.699      6.7229      1.2001     -3.5644     -6.3263     -3.1662      2.2258      8.3749    
  13.811      17.522      19.155      18.964      17.594      15.790      13.973      12.299      10.858      9.6854    
  8.7788      8.1205      7.6916      7.4796      7.4795      7.6916      8.1205      8.7788      9.6854      10.858    
  12.299      13.973      15.790      17.594      18.964      19.155      17.521      13.811      8.3750      2.2257    
 -3.1664     -6.3264     -3.1662      1.2751      7.1979      13.037      17.529      20.031      20.566      19.641    
  17.986      16.189      14.463      12.919      11.613      10.564      9.7646      9.2014      8.8651      8.7531    
  8.8651      9.2013      9.7646      10.564      11.613      12.919      14.463      16.189      17.987      19.641    
  20.566      20.031      17.529      13.037      7.1978      1.2749     -3.1664     -4.8173      2.2258      7.1979    
  12.745      17.488      20.549      21.704      21.275      19.897      18.220      16.539      14.976      13.605    
  12.458      11.541      10.851      10.386      10.150      10.150      10.386      10.851      11.541      12.458    
  13.605      14.976      16.539      18.220      19.897      21.275      21.704      20.549      17.488      12.745    
  7.1978      2.2258     -.72570     -.72566      8.3749      13.037      17.488      20.721      22.295      22.331    
  21.318      19.867      18.338      16.860      15.513      14.339      13.354      12.563      11.976      11.609    
  11.484      11.609      11.976      12.563      13.354      14.339      15.513      16.860      18.338      19.867    
  21.318      22.331      22.296      20.721      17.488      13.037      8.3750      4.8123      3.4762      4.8122    
  13.811      17.529      20.549      22.295      22.696      22.076      20.946      19.671      18.384      17.164    
  16.054      15.074      14.233      13.548      13.054      12.791      12.791      13.054      13.548      14.233    
  15.074      16.054      17.164      18.384      19.671      20.946      22.076      22.696      22.296      20.549    
  17.528      13.811      10.385      8.3217      8.3217      10.385      17.522      20.031      21.704      22.331    
  22.076      21.322      20.382      19.378      18.384      17.437      16.552      15.735      15.003      14.401    
  13.996      13.852      13.996      14.401      15.003      15.735      16.552      17.437      18.384      19.378    
  20.382      21.322      22.076      22.331      21.704      20.031      17.521      14.778      12.635      11.823    
  12.635      14.778      19.155      20.566      21.275      21.318      20.946      20.382      19.724      19.033    
  18.338      17.641      16.936      16.231      15.565      15.016      14.700      14.700      15.016      15.565    
  16.231      16.936      17.641      18.338      19.033      19.724      20.382      20.946      21.318      21.275    
  20.566      19.155      17.305      15.543      14.465      14.465      15.543      17.305      18.964      19.641    
  19.897      19.867      19.671      19.378      19.033      18.651      18.220      17.716      17.124      16.451    
  15.777      15.263      15.070      15.264      15.777      16.451      17.124      17.716      18.220      18.651    
  19.033      19.378      19.671      19.867      19.897      19.641      18.964      17.898      16.692      15.731    
  15.363      15.731      16.692      17.898      17.594      17.986      18.220      18.338      18.384      18.384    
  18.338      18.220      17.986      17.594      17.001      16.264      15.564      15.135      15.135      15.564    
  16.264      17.001      17.594      17.986      18.220      18.338      18.384      18.384      18.338      18.220    
  17.986      17.594      17.001      16.264      15.564      15.135      15.135      15.564      16.264      17.001    
  15.790      16.189      16.539      16.860      17.164      17.437      17.641      17.716      17.594      17.187    
  16.496      15.685      15.027      14.773      15.027      15.686      16.496      17.187      17.594      17.716    
  17.641      17.437      17.164      16.860      16.539      16.190      15.790      15.328      14.820      14.326    
  13.953      13.813      13.953      14.326      14.820      15.328      13.973      14.463      14.976      15.513    
  16.054      16.552      16.936      17.124      17.001      16.496      15.714      14.916      14.413      14.413    
  14.916      15.714      16.496      17.001      17.124      16.936      16.552      16.054      15.513      14.976    
  14.463      13.973      13.497      13.032      12.604      12.262      12.070      12.070      12.262      12.604    
  13.032      13.497      12.299      12.919      13.605      14.339      15.074      15.735      16.231      16.451    
  16.264      15.685      14.916      14.264      14.010      14.264      14.916      15.686      16.264      16.451    
  16.231      15.735      15.074      14.339      13.605      12.919      12.299      11.749      11.261      10.837    
  10.496      10.269      10.189      10.269      10.496      10.837      11.261      11.749      10.858      11.613    
  12.458      13.354      14.233      15.003      15.565      15.777      15.564      15.027      14.413      14.010    
  14.010      14.413      15.027      15.564      15.777      15.565      15.003      14.233      13.354      12.458    
  11.613      10.858      10.207      9.6560      9.1989      8.8351      8.5760      8.4396      8.4396      8.5760    
  8.8351      9.1988      9.6560      10.207      9.6854      10.564      11.541      12.563      13.548      14.401    
  15.016      15.263      15.135      14.773      14.413      14.264      14.413      14.773      15.135      15.263    
  15.016      14.401      13.548      12.563      11.542      10.564      9.6854      8.9301      8.3012      7.7898    
  7.3867      7.0899      6.9056      6.8428      6.9056      7.0899      7.3867      7.7899      8.3013      8.9302    
  8.7788      9.7646      10.851      11.976      13.054      13.996      14.700      15.070      15.135      15.027    
  14.916      14.916      15.027      15.135      15.070      14.700      13.996      13.054      11.976      10.851    
  9.7646      8.7788      7.9281      7.2209      6.6491      6.1992      5.8612      5.6325      5.5163      5.5163    
  5.6325      5.8612      6.1993      6.6492      7.2209      7.9281      8.1205      9.2014      10.386      11.609    
  12.791      13.852      14.700      15.264      15.564      15.686      15.714      15.686      15.564      15.263    
  14.700      13.852      12.791      11.609      10.386      9.2013      8.1205      7.1831      6.4019      5.7704    
  5.2728      4.8938      4.6242      4.4615      4.4070      4.4616      4.6242      4.8938      5.2728      5.7704    
  6.4019      7.1830      7.6916      8.8651      10.150      11.484      12.791      13.996      15.016      15.777    
  16.264      16.496      16.496      16.264      15.777      15.016      13.996      12.791      11.484      10.150    
  8.8651      7.6915      6.6703      5.8171      5.1263      4.5810      4.1620      3.8549      3.6519      3.5504    
  3.5504      3.6519      3.8549      4.1620      4.5809      5.1263      5.8171      6.6704      7.4796      8.7531    
  10.150      11.609      13.054      14.401      15.565      16.451      17.001      17.187      17.001      16.451    
  15.565      14.401      13.054      11.609      10.150      8.7531      7.4796      6.3702      5.4411      4.6874    
  4.0913      3.6311      3.2878      3.0486      2.9068      2.8597      2.9067      3.0485      3.2877      3.6311    
  4.0914      4.6875      5.4412      6.3702      7.4795      8.8651      10.386      11.976      13.548      15.003    
  16.231      17.124      17.594      17.594      17.124      16.231      15.003      13.548      11.976      10.386    
  8.8651      7.4796      6.2713      5.2571      4.4322      3.7782      3.2712      2.8891      2.6147      2.4367    
  2.3491      2.3491      2.4367      2.6147      2.8891      3.2713      3.7782      4.4322      5.2570      6.2712    
  7.6916      9.2013      10.851      12.563      14.233      15.735      16.936      17.716      17.986      17.716    
  16.936      15.735      14.233      12.563      10.851      9.2013      7.6915      6.3702      5.2571      4.3485    
  3.6253      3.0625      2.6350      2.3222      2.1088      1.9846      1.9439      1.9847      2.1089      2.3223    
  2.6350      3.0625      3.6253      4.3484      5.2570      6.3702      8.1205      9.7646      11.541      13.354    
  15.074      16.552      17.641      18.220      18.220      17.641      16.552      15.074      13.354      11.542    
  9.7646      8.1205      6.6703      5.4411      4.4322      3.6253      2.9940      2.5112      2.1532      1.9012    
  1.7411      1.6635      1.6635      1.7411      1.9012      2.1532      2.5111      2.9939      3.6253      4.4322    
  5.4412      6.6704      8.7788      10.564      12.458      14.339      16.054      17.437      18.338      18.651    
  18.338      17.437      16.054      14.339      12.458      10.564      8.7788      7.1831      5.8171      4.6874    
  3.7782      3.0625      2.5112      2.0978      1.8005      1.6015      1.4878      1.4508      1.4878      1.6015    
  1.8005      2.0978      2.5111      3.0625      3.7782      4.6875      5.8171      7.1830      9.6854      11.613    
  13.605      15.513      17.164      18.384      19.033      19.033      18.384      17.164      15.513      13.605    
  11.613      9.6854      7.9281      6.4019      5.1263      4.0913      3.2712      2.6350      2.1532      1.8005    
  1.5561      1.4033      1.3301      1.3301      1.4033      1.5561      1.8005      2.1532      2.6350      3.2713    
  4.0914      5.1263      6.4019      7.9281      10.858      12.919      14.976      16.860      18.384      19.378    
  19.724      19.378      18.384      16.860      14.976      12.919      10.858      8.9301      7.2209      5.7704    
  4.5810      3.6311      2.8891      2.3222      1.9012      1.6015      1.4033      1.2910      1.2548      1.2910    
  1.4033      1.6015      1.9012      2.3223      2.8891      3.6311      4.5809      5.7704      7.2209      8.9302    
  12.299      14.463      16.539      18.338      19.671      20.382      20.382      19.671      18.338      16.539    
  14.463      12.299      10.207      8.3012      6.6491      5.2728      4.1620      3.2878      2.6147      2.1088    
  1.7411      1.4878      1.3301      1.2548      1.2548      1.3301      1.4878      1.7411      2.1089      2.6147    
  3.2877      4.1620      5.2728      6.6492      8.3013      10.207      13.973      16.189      18.220      19.867    
  20.946      21.322      20.946      19.867      18.220      16.190      13.973      11.749      9.6560      7.7898    
  6.1992      4.8938      3.8549      3.0486      2.4367      1.9846      1.6635      1.4508      1.3301      1.2910    
  1.3301      1.4508      1.6635      1.9847      2.4367      3.0485      3.8549      4.8938      6.1993      7.7899    
  9.6560      11.749      15.790      17.987      19.897      21.318      22.076      22.076      21.318      19.897    
  17.986      15.790      13.497      11.261      9.1989      7.3867      5.8612      4.6242      3.6519      2.9068    
  2.3491      1.9439      1.6635      1.4878      1.4033      1.4033      1.4878      1.6635      1.9439      2.3491    
  2.9067      3.6519      4.6242      5.8612      7.3867      9.1988      11.261      13.497      17.594      19.641    
  21.275      22.331      22.696      22.331      21.275      19.641      17.594      15.328      13.032      10.837    
  8.8351      7.0899      5.6325      4.4615      3.5504      2.8597      2.3491      1.9847      1.7411      1.6015    
  1.5561      1.6015      1.7411      1.9847      2.3491      2.8597      3.5504      4.4616      5.6325      7.0899    
  8.8351      10.837      13.032      15.328      18.964      20.566      21.704      22.296      22.296      21.704    
  20.566      18.964      17.001      14.820      12.604      10.496      8.5760      6.9056      5.5163      4.4070    
  3.5504      2.9067      2.4367      2.1089      1.9012      1.8005      1.8005      1.9012      2.1089      2.4367    
  2.9067      3.5504      4.4070      5.5163      6.9056      8.5760      10.496      12.604      14.820      17.001    
  19.155      20.031      20.549      20.721      20.549      20.031      19.155      17.898      16.264      14.326    
  12.262      10.269      8.4396      6.8428      5.5163      4.4616      3.6519      3.0485      2.6147      2.3223    
  2.1532      2.0978      2.1532      2.3223      2.6147      3.0485      3.6519      4.4616      5.5163      6.8428    
  8.4396      10.269      12.262      14.326      16.264      17.898      17.521      17.529      17.488      17.488    
  17.528      17.521      17.305      16.692      15.564      13.953      12.070      10.189      8.4396      6.9056    
  5.6325      4.6242      3.8549      3.2877      2.8891      2.6350      2.5111      2.5111      2.6350      2.8891    
  3.2877      3.8549      4.6242      5.6325      6.9056      8.4396      10.189      12.070      13.953      15.564    
  16.692      17.305      13.811      13.037      12.745      13.037      13.811      14.778      15.543      15.731    
  15.135      13.813      12.070      10.269      8.5760      7.0899      5.8612      4.8938      4.1620      3.6311    
  3.2713      3.0625      2.9939      3.0625      3.2713      3.6311      4.1620      4.8938      5.8612      7.0899    
  8.5760      10.269      12.070      13.813      15.135      15.731      15.543      14.778      8.3750      7.1978    