unknown system                          
   1.00000000000000     
     0.000000    2.816328    2.816328
     2.816328    0.000000    2.816328
     2.816328    2.816328    0.000000
   Si
     2
Direct
  0.000000  0.000000  0.000000
  0.250000  0.250000  0.250000
 
   36   36   36
 -.79231584869E+01 -.63263226578E+01 -.19950097770E+01 0.38747957872E+01 0.97995800271E+01
 0.14505485851E+02 0.17268882307E+02 0.18012475365E+02 0.17187135604E+02 0.15525707028E+02
 0.13682518210E+02 0.11916299048E+02 0.10354635574E+02 0.90594971247E+01 0.80421123415E+01
 0.72856926179E+01 0.67654247380E+01 0.64609002893E+01 0.63605532444E+01 0.64608958909E+01
 0.67654114188E+01 0.72856820809E+01 0.80421204533E+01 0.90595096167E+01 0.10354622917E+02
 0.11916272402E+02 0.13682525807E+02 0.15525750910E+02 0.17187136979E+02 0.18012370755E+02
 0.17268729640E+02 0.14505415669E+02 0.97996404996E+01 0.38749010618E+01 -.19949602528E+01
 -.63263275393E+01 -.63263226578E+01 -.31661932175E+01 0.22258424260E+01 0.83749273586E+01
 0.13810722035E+02 0.17521521221E+02 0.19154595684E+02 0.18963612015E+02 0.17593881880E+02
 0.15790254900E+02 0.13973162381E+02 0.12299327359E+02 0.10858379404E+02 0.96853620625E+01
 0.87787730458E+01 0.81205431894E+01 0.76915638674E+01 0.74795537687E+01 0.74795489008E+01
 0.76915484245E+01 0.81205264207E+01 0.87787750434E+01 0.96853810664E+01 0.10858380902E+02
 0.12299296124E+02 0.13973138928E+02 0.15790277929E+02 0.17593912015E+02 0.18963575120E+02
 0.19154504019E+02 0.17521480648E+02 0.13810779595E+02 0.83749738657E+01 0.22257439866E+01
 -.31663951386E+01 -.63264285679E+01 -.19950097770E+01 0.22258424260E+01 0.78488467569E+01
 0.13378487854E+02 0.17604092323E+02 0.19914725775E+02 0.20336330342E+02 0.19366435960E+02
 0.17716044262E+02 0.15939349558E+02 0.14236387074E+02 0.12715397282E+02 0.11431751111E+02
 0.10400819067E+02 0.96153635404E+01 0.90619507509E+01 0.87315094325E+01 0.86213690303E+01
 0.87314932390E+01 0.90619302254E+01 0.96153596780E+01 0.10400838746E+02 0.11431768632E+02
 0.12715383632E+02 0.14236356001E+02 0.15939343418E+02 0.17716069848E+02 0.19366449973E+02
 0.20336306738E+02 0.19914700542E+02 0.17604107677E+02 0.13378513339E+02 0.78488040496E+01
 0.22257162072E+01 -.19951268580E+01 -.35646356598E+01 0.38747957872E+01 0.83749273586E+01
 0.13378487854E+02 0.17619785688E+02 0.20295069231E+02 0.21205507400E+02 0.20664836522E+02
 0.19278262660E+02 0.17640914429E+02 0.16006447729E+02 0.14492611625E+02 0.13168237160E+02
 0.12062770683E+02 0.11180559824E+02 0.10516644281E+02 0.10069056439E+02 0.98423812570E+01
 0.98423679219E+01 0.10069027346E+02 0.10516625370E+02 0.11180569801E+02 0.12062797381E+02
 0.13168249077E+02 0.14492597542E+02 0.16006429592E+02 0.17640913611E+02 0.19278273233E+02
 0.20664840598E+02 0.21205498841E+02 0.20295051891E+02 0.17619769275E+02 0.13378494927E+02
 0.83749774856E+01 0.38748679636E+01 0.11999882719E+01 0.11999531274E+01 0.97995800271E+01
 0.13810722035E+02 0.17604092323E+02 0.20295069231E+02 0.21503490168E+02 0.21352047315E+02
 0.20301688358E+02 0.18901377907E+02 0.17436853761E+02 0.16028761700E+02 0.14751845696E+02
 0.13643812211E+02 0.12717444005E+02 0.11975596942E+02 0.11425006341E+02 0.11081756217E+02
 0.10964529494E+02 0.11081721280E+02 0.11424962136E+02 0.11975577141E+02 0.12717460008E+02
 0.13643841905E+02 0.14751860498E+02 0.16028757542E+02 0.17436844450E+02 0.18901370444E+02
 0.20301681830E+02 0.21352041968E+02 0.21503479532E+02 0.20295040154E+02 0.17604054697E+02
 0.13810719308E+02 0.97996339661E+01 0.67229554588E+01 0.55674917653E+01 0.67228936609E+01
 0.14505485851E+02 0.17521521221E+02 0.19914725775E+02 0.21205507400E+02 0.21352047315E+02
 0.20658208786E+02 0.19573763388E+02 0.18370012962E+02 0.17163733336E+02 0.16028764642E+02
 0.15004318304E+02 0.14105730169E+02 0.13339169665E+02 0.12717526673E+02 0.12269159135E+02
 0.12031398067E+02 0.12031376834E+02 0.12269105288E+02 0.12717469814E+02 0.13339144796E+02
 0.14105747694E+02 0.15004353357E+02 0.16028787086E+02 0.17163737405E+02 0.18370008530E+02
 0.19573754288E+02 0.20658197726E+02 0.21352045363E+02 0.21205513548E+02 0.19914705390E+02
 0.17521429131E+02 0.14505324099E+02 0.11698696602E+02 0.10001784537E+02 0.10001852096E+02
 0.11698857388E+02 0.17268882307E+02 0.19154595684E+02 0.20336330342E+02 0.20664836522E+02
 0.20301688358E+02 0.19573763388E+02 0.18694513324E+02 0.17767694123E+02 0.16860155937E+02
 0.16006449727E+02 0.15217948623E+02 0.14497277101E+02 0.13856758906E+02 0.13332333317E+02
 0.12980627113E+02 0.12855874285E+02 0.12980601940E+02 0.13332277252E+02 0.13856693476E+02
 0.14497246693E+02 0.15217970215E+02 0.16006490788E+02 0.16860178363E+02 0.17767698098E+02
 0.18694516871E+02 0.19573764935E+02 0.20301681803E+02 0.20664842477E+02 0.20336360049E+02
 0.19154592087E+02 0.17268755011E+02 0.15158564114E+02 0.13493151653E+02 0.12860082358E+02
 0.13493357587E+02 0.15158808456E+02 0.18012475365E+02 0.18963612015E+02 0.19366435960E+02
 0.19278262660E+02 0.18901377907E+02 0.18370012962E+02 0.17767694123E+02 0.17148928106E+02
 0.16538772853E+02 0.15939344766E+02 0.15343064229E+02 0.14753010199E+02 0.14203000600E+02
 0.13760439522E+02 0.13508297461E+02 0.13508309367E+02 0.13760443618E+02 0.14202955884E+02
 0.14752941045E+02 0.15343034990E+02 0.15939372535E+02 0.16538812403E+02 0.17148943360E+02
 0.17767700867E+02 0.18370031216E+02 0.18901387984E+02 0.19278245203E+02 0.19366423962E+02
 0.18963648246E+02 0.18012536522E+02 0.16699369809E+02 0.15420537293E+02 0.14629965630E+02
 0.14629992212E+02 0.15420573187E+02 0.16699350631E+02 0.17187135604E+02 0.17593881880E+02
 0.17716044262E+02 0.17640914429E+02 0.17436853761E+02 0.17163733336E+02 0.16860155937E+02
 0.16538772853E+02 0.16189478974E+02 0.15790252494E+02 0.15327596670E+02 0.14820024188E+02
 0.14325767823E+02 0.13952868448E+02 0.13812917462E+02 0.13952940534E+02 0.14325817023E+02
 0.14819988862E+02 0.15327524081E+02 0.15790225041E+02 0.16189508437E+02 0.16538810118E+02
 0.16860172644E+02 0.17163750014E+02 0.17436883133E+02 0.17640925192E+02 0.17716006516E+02
 0.17593830065E+02 0.17187155121E+02 0.16496309523E+02 0.15685604385E+02 0.15027050580E+02
 0.14773260091E+02 0.15026896904E+02 0.15685397336E+02 0.16496171099E+02 0.15525707028E+02
 0.15790254900E+02 0.15939349558E+02 0.16006447729E+02 0.16028761700E+02 0.16028764642E+02
 0.16006449727E+02 0.15939344766E+02 0.15790252494E+02 0.15525715133E+02 0.15138516460E+02
 0.14660467274E+02 0.14203888481E+02 0.13921623946E+02 0.13921699008E+02 0.14204033571E+02
 0.14660539391E+02 0.15138471019E+02 0.15525631933E+02 0.15790220339E+02 0.15939370005E+02
 0.16006485685E+02 0.16028783825E+02 0.16028780046E+02 0.16006481935E+02 0.15939373922E+02
 0.15790224458E+02 0.15525628726E+02 0.15138467897E+02 0.14660543501E+02 0.14204036707E+02
 0.13921692920E+02 0.13921615778E+02 0.14203885984E+02 0.14660463863E+02 0.15138506145E+02
 0.13682518210E+02 0.13973162381E+02 0.14236387074E+02 0.14492611625E+02 0.14751845696E+02
 0.15004318304E+02 0.15217948623E+02 0.15343064229E+02 0.15327596670E+02 0.15138516460E+02
 0.14770338247E+02 0.14309760867E+02 0.13923644350E+02 0.13772956150E+02 0.13923806822E+02
 0.14309939201E+02 0.14770397245E+02 0.15138452115E+02 0.15327502125E+02 0.15343018728E+02
 0.15217959731E+02 0.15004344741E+02 0.14751850665E+02 0.14492606727E+02 0.14236412591E+02
 0.13973218325E+02 0.13682541854E+02 0.13350315745E+02 0.12988370219E+02 0.12644603082E+02
 0.12391436575E+02 0.12297294743E+02 0.12391472748E+02 0.12644693308E+02 0.12988484027E+02
 0.13350376592E+02 0.11916299048E+02 0.12299327359E+02 0.12715397282E+02 0.13168237160E+02
 0.13643812211E+02 0.14105730169E+02 0.14497277101E+02 0.14753010199E+02 0.14820024188E+02
 0.14660467274E+02 0.14309760867E+02 0.13911443015E+02 0.13649093985E+02 0.13649186729E+02
 0.13911646492E+02 0.14309926225E+02 0.14660505882E+02 0.14819956081E+02 0.14752915585E+02
 0.14497224370E+02 0.14105733615E+02 0.13643827533E+02 0.13168212179E+02 0.12715345896E+02
 0.12299322523E+02 0.11916373595E+02 0.11555007359E+02 0.11210200317E+02 0.10895905598E+02
 0.10647249813E+02 0.10507835756E+02 0.10507897809E+02 0.10647390785E+02 0.10896020342E+02
 0.11210205964E+02 0.11554922536E+02 0.10354635574E+02 0.10858379404E+02 0.11431751111E+02
 0.12062770683E+02 0.12717444005E+02 0.13339169665E+02 0.13856758906E+02 0.14203000600E+02
 0.14325767823E+02 0.14203888481E+02 0.13923644350E+02 0.13649093985E+02 0.13536388842E+02
 0.13649231799E+02 0.13923830065E+02 0.14204019566E+02 0.14325798545E+02 0.14202951983E+02
 0.13856690251E+02 0.13339137774E+02 0.12717462255E+02 0.12062790867E+02 0.11431715775E+02
 0.10858297672E+02 0.10354585187E+02 0.99170575912E+01 0.95370317703E+01 0.92120465704E+01
 0.89530243353E+01 0.87822432233E+01 0.87221875341E+01 0.87822832740E+01 0.89530405463E+01
 0.92119921764E+01 0.95369433487E+01 0.99170207967E+01 0.90594971247E+01 0.96853620625E+01
 0.10400819067E+02 0.11180559824E+02 0.11975596942E+02 0.12717526673E+02 0.13332333317E+02
 0.13760439522E+02 0.13952868448E+02 0.13921623946E+02 0.13772956150E+02 0.13649186729E+02
 0.13649231799E+02 0.13773069368E+02 0.13921752618E+02 0.13952959805E+02 0.13760467979E+02
 0.13332312403E+02 0.12717495647E+02 0.11975596673E+02 0.11180600731E+02 0.10400866835E+02
 0.96853654634E+01 0.90594385865E+01 0.85282229743E+01 0.80848713377E+01 0.77206061926E+01
 0.74331297501E+01 0.72296862937E+01 0.71230482280E+01 0.71230267778E+01 0.72296283715E+01
 0.74330626515E+01 0.77205763026E+01 0.80849082856E+01 0.85283020435E+01 0.80421123415E+01
 0.87787730458E+01 0.96153635404E+01 0.10516644281E+02 0.11425006341E+02 0.12269159135E+02
 0.12980627113E+02 0.13508297461E+02 0.13812917462E+02 0.13921699008E+02 0.13923806822E+02
 0.13911646492E+02 0.13923830065E+02 0.13921752618E+02 0.13812988126E+02 0.13508350026E+02
 0.12980641404E+02 0.12269146598E+02 0.11424990775E+02 0.10516644692E+02 0.96153937167E+01
 0.87788352568E+01 0.80421767754E+01 0.74181126503E+01 0.69030783238E+01 0.64864375617E+01
 0.61591391850E+01 0.59188957524E+01 0.57701548910E+01 0.57195333934E+01 0.57701147341E+01
 0.59188694278E+01 0.61591726748E+01 0.64865129695E+01 0.69031299682E+01 0.74180967389E+01
 0.72856926179E+01 0.81205431894E+01 0.90619507509E+01 0.10069056439E+02 0.11081756217E+02
 0.12031398067E+02 0.12855874285E+02 0.13508309367E+02 0.13952940534E+02 0.14204033571E+02
 0.14309939201E+02 0.14309926225E+02 0.14204019566E+02 0.13952959805E+02 0.13508350026E+02
 0.12855898076E+02 0.12031393161E+02 0.11081738414E+02 0.10069030494E+02 0.90619109225E+01
 0.81205136691E+01 0.72857191110E+01 0.65758618180E+01 0.59905827999E+01 0.55189509271E+01
 0.51481587989E+01 0.48697324079E+01 0.46815989105E+01 0.45861356715E+01 0.45861313684E+01
 0.46816065209E+01 0.48697739832E+01 0.51482030414E+01 0.55189374913E+01 0.59905018860E+01
 0.65757762558E+01 0.67654247380E+01 0.76915638674E+01 0.87315094325E+01 0.98423812570E+01
 0.10964529494E+02 0.12031376834E+02 0.12980601940E+02 0.13760443618E+02 0.14325817023E+02
 0.14660539391E+02 0.14770397245E+02 0.14660505882E+02 0.14325798545E+02 0.13760467979E+02
 0.12980641404E+02 0.12031393161E+02 0.10964523328E+02 0.98423717493E+01 0.87314861038E+01
 0.76915009438E+01 0.67653380039E+01 0.59746033608E+01 0.53214344440E+01 0.47951671149E+01
 0.43806094400E+01 0.40647922108E+01 0.38403158968E+01 0.37051004489E+01 0.36598236224E+01
 0.37051081894E+01 0.38403234029E+01 0.40647755497E+01 0.43805506966E+01 0.47950930015E+01
 0.53214067525E+01 0.59746524851E+01 0.64609002893E+01 0.74795537687E+01 0.86213690303E+01
 0.98423679219E+01 0.11081721280E+02 0.12269105288E+02 0.13332277252E+02 0.14202955884E+02
 0.14819988862E+02 0.15138471019E+02 0.15138452115E+02 0.14819956081E+02 0.14202951983E+02
 0.13332312403E+02 0.12269146598E+02 0.11081738414E+02 0.98423717493E+01 0.86213879144E+01
 0.74795797227E+01 0.64608858025E+01 0.55884800402E+01 0.48659992749E+01 0.42831567926E+01
 0.38232669551E+01 0.34699701452E+01 0.32113177006E+01 0.30407407744E+01 0.29557260147E+01
 0.29557254925E+01 0.30407284295E+01 0.32112795677E+01 0.34699221231E+01 0.38232565607E+01
 0.42832174631E+01 0.48661041550E+01 0.55885599520E+01 0.63605532444E+01 0.74795489008E+01
 0.87314932390E+01 0.10069027346E+02 0.11424962136E+02 0.12717469814E+02 0.13856693476E+02
 0.14752941045E+02 0.15327524081E+02 0.15525631933E+02 0.15327502125E+02 0.14752915585E+02
 0.13856690251E+02 0.12717495647E+02 0.11424990775E+02 0.10069030494E+02 0.87314861038E+01
 0.74795797227E+01 0.63606350127E+01 0.53997330697E+01 0.46015907341E+01 0.39561519672E+01
 0.34457718657E+01 0.30516703632E+01 0.27581918961E+01 0.25545044399E+01 0.24342902667E+01
 0.23945096490E+01 0.24342840076E+01 0.25544892129E+01 0.27581882619E+01 0.30517153785E+01
 0.34458666970E+01 0.39562353784E+01 0.46015940242E+01 0.53996582514E+01 0.64608958909E+01
 0.76915484245E+01 0.90619302254E+01 0.10516625370E+02 0.11975577141E+02 0.13339144796E+02
 0.14497246693E+02 0.15343034990E+02 0.15790225041E+02 0.15790220339E+02 0.15343018728E+02
 0.14497224370E+02 0.13339137774E+02 0.11975596673E+02 0.10516644692E+02 0.90619109225E+01
 0.76915009438E+01 0.64608858025E+01 0.53997330697E+01 0.45148994115E+01 0.37968029553E+01
 0.32270665924E+01 0.27851159973E+01 0.24524487157E+01 0.22145579583E+01 0.20612295464E+01
 0.19860907407E+01 0.19860921526E+01 0.20612362456E+01 0.22145809922E+01 0.24524983502E+01
 0.27851710023E+01 0.32270709556E+01 0.37967234476E+01 0.45147794984E+01 0.53996593518E+01
 0.67654114188E+01 0.81205264207E+01 0.96153596780E+01 0.11180569801E+02 0.12717460008E+02
 0.14105747694E+02 0.15217970215E+02 0.15939372535E+02 0.16189508437E+02 0.15939370005E+02
 0.15217959731E+02 0.14105733615E+02 0.12717462255E+02 0.11180600731E+02 0.96153937167E+01
 0.81205136691E+01 0.67653380039E+01 0.55884800402E+01 0.46015907341E+01 0.37968029553E+01
 0.31554131423E+01 0.26552992624E+01 0.22756123788E+01 0.19988182512E+01 0.18111613121E+01
 0.17026582941E+01 0.16671837633E+01 0.17026653262E+01 0.18111797070E+01 0.19988407868E+01
 0.22756093986E+01 0.26552402945E+01 0.31553118447E+01 0.37967259934E+01 0.46015982697E+01
 0.55885583391E+01 0.72856820809E+01 0.87787750434E+01 0.10400838746E+02 0.12062797381E+02
 0.13643841905E+02 0.15004353357E+02 0.16006490788E+02 0.16538812403E+02 0.16538810118E+02
 0.16006485685E+02 0.15004344741E+02 0.13643827533E+02 0.12062790867E+02 0.10400866835E+02
 0.87788352568E+01 0.72857191110E+01 0.59746033608E+01 0.48659992749E+01 0.39561519672E+01
 0.32270665924E+01 0.26552992624E+01 0.22177107698E+01 0.18940255217E+01 0.16673770187E+01
 0.15243477908E+01 0.14553579023E+01 0.14553588146E+01 0.15243520615E+01 0.16673777316E+01
 0.18939999953E+01 0.22176492960E+01 0.26552398962E+01 0.32270729225E+01 0.39562406760E+01
 0.48661066190E+01 0.59746462536E+01 0.80421204533E+01 0.96853810664E+01 0.11431768632E+02
 0.13168249077E+02 0.14751860498E+02 0.16028787086E+02 0.16860178363E+02 0.17148943360E+02
 0.16860172644E+02 0.16028783825E+02 0.14751850665E+02 0.13168212179E+02 0.11431715775E+02
 0.96853654634E+01 0.80421767754E+01 0.65758618180E+01 0.53214344440E+01 0.42831567926E+01
 0.34457718657E+01 0.27851159973E+01 0.22756123788E+01 0.18940255217E+01 0.16204645805E+01
 0.14383594928E+01 0.13347526855E+01 0.13012007921E+01 0.13347525261E+01 0.14383551593E+01
 0.16204464919E+01 0.18939969400E+01 0.22756079557E+01 0.27851727918E+01 0.34458709627E+01
 0.42832205735E+01 0.53214068243E+01 0.65757765846E+01 0.90595096167E+01 0.10858380902E+02
 0.12715383632E+02 0.14492597542E+02 0.16028757542E+02 0.17163737405E+02 0.17767698098E+02
 0.17767700867E+02 0.17163750014E+02 0.16028780046E+02 0.14492606727E+02 0.12715345896E+02
 0.10858297672E+02 0.90594385865E+01 0.74181126503E+01 0.59905827999E+01 0.47951671149E+01
 0.38232669551E+01 0.30516703632E+01 0.24524487157E+01 0.19988182512E+01 0.16673770187E+01
 0.14383594928E+01 0.12956517756E+01 0.12274626970E+01 0.12274637512E+01 0.12956512873E+01
 0.14383527179E+01 0.16673718567E+01 0.19988372219E+01 0.24525005421E+01 0.30517197094E+01
 0.38232574441E+01 0.47950903990E+01 0.59905043754E+01 0.74181070670E+01 0.10354622917E+02
 0.12299296124E+02 0.14236356001E+02 0.16006429592E+02 0.17436844450E+02 0.18370008530E+02
 0.18694516871E+02 0.18370031216E+02 0.17436883133E+02 0.16006481935E+02 0.14236412591E+02
 0.12299322523E+02 0.10354585187E+02 0.85282229743E+01 0.69030783238E+01 0.55189509271E+01
 0.43806094400E+01 0.34699701452E+01 0.27581918961E+01 0.22145579583E+01 0.18111613121E+01
 0.15243477908E+01 0.13347526855E+01 0.12274626970E+01 0.11928247534E+01 0.12274639838E+01
 0.13347511013E+01 0.15243484802E+01 0.18111767308E+01 0.22145825152E+01 0.27581919948E+01
 0.34699213000E+01 0.43805419216E+01 0.55189313026E+01 0.69031340211E+01 0.85283053368E+01
 0.11916272402E+02 0.13973138928E+02 0.15939343418E+02 0.17640913611E+02 0.18901370444E+02
 0.19573754288E+02 0.19573764935E+02 0.18901387984E+02 0.17640925192E+02 0.15939373922E+02
 0.13973218325E+02 0.11916373595E+02 0.99170575912E+01 0.80848713377E+01 0.64864375617E+01
 0.51481587989E+01 0.40647922108E+01 0.32113177006E+01 0.25545044399E+01 0.20612295464E+01
 0.17026582941E+01 0.14553579023E+01 0.13012007921E+01 0.12274637512E+01 0.12274639838E+01
 0.13012000923E+01 0.14553581451E+01 0.17026657006E+01 0.20612376200E+01 0.25544911289E+01
 0.32112789750E+01 0.40647673779E+01 0.51481914089E+01 0.64865099872E+01 0.80849078440E+01
 0.99170079306E+01 0.13682525807E+02 0.15790277929E+02 0.17716069848E+02 0.19278273233E+02
 0.20301681830E+02 0.20658197726E+02 0.20301681803E+02 0.19278245203E+02 0.17716006516E+02
 0.15790224458E+02 0.13682541854E+02 0.11555007359E+02 0.95370317703E+01 0.77206061926E+01
 0.61591391850E+01 0.48697324079E+01 0.38403158968E+01 0.30407407744E+01 0.24342902667E+01
 0.19860907407E+01 0.16671837633E+01 0.14553588146E+01 0.13347525261E+01 0.12956512873E+01
 0.13347511013E+01 0.14553581451E+01 0.16671868002E+01 0.19860934783E+01 0.24342827599E+01
 0.30407271977E+01 0.38403222122E+01 0.48697710060E+01 0.61591730445E+01 0.77205783721E+01
 0.95369391370E+01 0.11554918801E+02 0.15525750910E+02 0.17593912015E+02 0.19366449973E+02
 0.20664840598E+02 0.21352041968E+02 0.21352045363E+02 0.20664842477E+02 0.19366423962E+02
 0.17593830065E+02 0.15525628726E+02 0.13350315745E+02 0.11210200317E+02 0.92120465704E+01
 0.74331297501E+01 0.59188957524E+01 0.46815989105E+01 0.37051004489E+01 0.29557260147E+01
 0.23945096490E+01 0.19860921526E+01 0.17026653262E+01 0.15243520615E+01 0.14383551593E+01
 0.14383527179E+01 0.15243484802E+01 0.17026657006E+01 0.19860934783E+01 0.23945057421E+01
 0.29557216740E+01 0.37051084711E+01 0.46816128480E+01 0.59188827863E+01 0.74330729713E+01
 0.92119880457E+01 0.11210209681E+02 0.13350409842E+02 0.17187136979E+02 0.18963575120E+02
 0.20336306738E+02 0.21205498841E+02 0.21503479532E+02 0.21205513548E+02 0.20336360049E+02
 0.18963648246E+02 0.17187155121E+02 0.15138467897E+02 0.12988370219E+02 0.10895905598E+02
 0.89530243353E+01 0.72296862937E+01 0.57701548910E+01 0.45861356715E+01 0.36598236224E+01
 0.29557254925E+01 0.24342840076E+01 0.20612362456E+01 0.18111797070E+01 0.16673777316E+01
 0.16204464919E+01 0.16673718567E+01 0.18111767308E+01 0.20612376200E+01 0.24342827599E+01
 0.29557216740E+01 0.36598237924E+01 0.45861320143E+01 0.57701295364E+01 0.72296508913E+01
 0.89530348788E+01 0.10896001713E+02 0.12988509533E+02 0.15138553242E+02 0.18012370755E+02
 0.19154504019E+02 0.19914700542E+02 0.20295051891E+02 0.20295040154E+02 0.19914705390E+02
 0.19154592087E+02 0.18012536522E+02 0.16496309523E+02 0.14660543501E+02 0.12644603082E+02
 0.10647249813E+02 0.87822432233E+01 0.71230482280E+01 0.57195333934E+01 0.45861313684E+01
 0.37051081894E+01 0.30407284295E+01 0.25544892129E+01 0.22145809922E+01 0.19988407868E+01
 0.18939999953E+01 0.18939969400E+01 0.19988372219E+01 0.22145825152E+01 0.25544911289E+01
 0.30407271977E+01 0.37051084711E+01 0.45861320143E+01 0.57195277284E+01 0.71230517969E+01
 0.87822943685E+01 0.10647351006E+02 0.12644682266E+02 0.14660511135E+02 0.16496162218E+02
 0.17268729640E+02 0.17521480648E+02 0.17604107677E+02 0.17619769275E+02 0.17604054697E+02
 0.17521429131E+02 0.17268755011E+02 0.16699369809E+02 0.15685604385E+02 0.14204036707E+02
 0.12391436575E+02 0.10507835756E+02 0.87221875341E+01 0.71230267778E+01 0.57701147341E+01
 0.46816065209E+01 0.38403234029E+01 0.32112795677E+01 0.27581882619E+01 0.24524983502E+01
 0.22756093986E+01 0.22176492960E+01 0.22756079557E+01 0.24525005421E+01 0.27581919948E+01
 0.32112789750E+01 0.38403222122E+01 0.46816128480E+01 0.57701295364E+01 0.71230517969E+01
 0.87222295973E+01 0.10507877302E+02 0.12391421381E+02 0.14203922739E+02 0.15685432760E+02
 0.16699240241E+02 0.14505415669E+02 0.13810779595E+02 0.13378513339E+02 0.13378494927E+02
 0.13810719308E+02 0.14505324099E+02 0.15158564114E+02 0.15420537293E+02 0.15027050580E+02
 0.13921692920E+02 0.12297294743E+02 0.10507897809E+02 0.87822832740E+01 0.72296283715E+01
 0.59188694278E+01 0.48697739832E+01 0.40647755497E+01 0.34699221231E+01 0.30517153785E+01
 0.27851710023E+01 0.26552402945E+01 0.26552398962E+01 0.27851727918E+01 0.30517197094E+01
 0.34699213000E+01 0.40647673779E+01 0.48697710060E+01 0.59188827863E+01 0.72296508913E+01
 0.87822943685E+01 0.10507877302E+02 0.12297231900E+02 0.13921601475E+02 0.15026978848E+02
 0.15420536417E+02 0.15158635852E+02 0.97996404996E+01 0.83749738657E+01 0.78488040496E+01
 0.83749774856E+01 0.97996339661E+01 0.11698696602E+02 0.13493151653E+02 0.14629965630E+02
 0.14773260091E+02 0.13921615778E+02 0.12391472748E+02 0.10647390785E+02 0.89530405463E+01
 0.74330626515E+01 0.61591726748E+01 0.51482030414E+01 0.43805506966E+01 0.38232565607E+01
 0.34458666970E+01 0.32270709556E+01 0.31553118447E+01 0.32270729225E+01 0.34458709627E+01
 0.38232574441E+01 0.43805419216E+01 0.51481914089E+01 0.61591730445E+01 0.74330729713E+01
 0.89530348788E+01 0.10647351006E+02 0.12391421381E+02 0.13921601475E+02 0.14773307746E+02
 0.14630050338E+02 0.13493226236E+02 0.11698734079E+02 0.38749010618E+01 0.22257439866E+01
 0.22257162072E+01 0.38748679636E+01 0.67229554588E+01 0.10001784537E+02 0.12860082358E+02
 0.14629992212E+02 0.15026896904E+02 0.14203885984E+02 0.12644693308E+02 0.10896020342E+02
 0.92119921764E+01 0.77205763026E+01 0.64865129695E+01 0.55189374913E+01 0.47950930015E+01
 0.42832174631E+01 0.39562353784E+01 0.37967234476E+01 0.37967259934E+01 0.39562406760E+01
 0.42832205735E+01 0.47950903990E+01 0.55189313026E+01 0.64865099872E+01 0.77205783721E+01
 0.92119880457E+01 0.10896001713E+02 0.12644682266E+02 0.14203922739E+02 0.15026978848E+02
 0.14630050338E+02 0.12860056798E+02 0.10001710194E+02 0.67229232985E+01 -.19949602528E+01
 -.31663951386E+01 -.19951268580E+01 0.11999882719E+01 0.55674917653E+01 0.10001852096E+02
 0.13493357587E+02 0.15420573187E+02 0.15685397336E+02 0.14660463863E+02 0.12988484027E+02
 0.11210205964E+02 0.95369433487E+01 0.80849082856E+01 0.69031299682E+01 0.59905018860E+01
 0.53214067525E+01 0.48661041550E+01 0.46015940242E+01 0.45147794984E+01 0.46015982697E+01
 0.48661066190E+01 0.53214068243E+01 0.59905043754E+01 0.69031340211E+01 0.80849078440E+01
 0.95369391370E+01 0.11210209681E+02 0.12988509533E+02 0.14660511135E+02 0.15685432760E+02
 0.15420536417E+02 0.13493226236E+02 0.10001710194E+02 0.55674800685E+01 0.12001402702E+01
 -.63263275393E+01 -.63264285679E+01 -.35646356598E+01 0.11999531274E+01 0.67228936609E+01
 0.11698857388E+02 0.15158808456E+02 0.16699350631E+02 0.16496171099E+02 0.15138506145E+02
 0.13350376592E+02 0.11554922536E+02 0.99170207967E+01 0.85283020435E+01 0.74180967389E+01
 0.65757762558E+01 0.59746524851E+01 0.55885599520E+01 0.53996582514E+01 0.53996593518E+01
 0.55885583391E+01 0.59746462536E+01 0.65757765846E+01 0.74181070670E+01 0.85283053368E+01
 0.99170079306E+01 0.11554918801E+02 0.13350409842E+02 0.15138553242E+02 0.16496162218E+02
 0.16699240241E+02 0.15158635852E+02 0.11698734079E+02 0.67229232985E+01 0.12001402702E+01
 -.35644095480E+01 -.63263192653E+01 -.31661959202E+01 0.22258380618E+01 0.83749259271E+01
 0.13810721512E+02 0.17521519154E+02 0.19154594806E+02 0.18963613732E+02 0.17593881407E+02
 0.15790249080E+02 0.13973155592E+02 0.12299323870E+02 0.10858376809E+02 0.96853579405E+01
 0.87787708149E+01 0.81205452732E+01 0.76915661307E+01 0.74795528159E+01 0.74795480342E+01
 0.76915505440E+01 0.81205280698E+01 0.87787733923E+01 0.96853797191E+01 0.10858382804E+02
 0.12299297709E+02 0.13973137212E+02 0.15790276411E+02 0.17593913674E+02 0.18963576637E+02
 0.19154502887E+02 0.17521480941E+02 0.13810784674E+02 0.83749802469E+01 0.22257482165E+01
 -.31663906332E+01 -.63264222735E+01 -.31661959202E+01 0.12751401878E+01 0.71979347198E+01
 0.13037433313E+02 0.17528529381E+02 0.20031396733E+02 0.20566410279E+02 0.19641298168E+02
 0.17986480780E+02 0.16189482047E+02 0.14463228692E+02 0.12918673948E+02 0.11613364955E+02
 0.10564172812E+02 0.97646058875E+01 0.92013510209E+01 0.88651444127E+01 0.87531093630E+01
 0.88651295631E+01 0.92013281254E+01 0.97645949841E+01 0.10564186843E+02 0.11613382934E+02
 0.12918662932E+02 0.14463197664E+02 0.16189478400E+02 0.17986520608E+02 0.19641337600E+02
 0.20566415239E+02 0.20031400726E+02 0.17528571183E+02 0.13037455673E+02 0.71978233038E+01
 0.12748889915E+01 -.31664166588E+01 -.48172799633E+01 0.22258380618E+01 0.71979347198E+01
 0.12745390373E+02 0.17487966302E+02 0.20549013018E+02 0.21703659725E+02 0.21274704287E+02
 0.19897091581E+02 0.18219825677E+02 0.16538776275E+02 0.14976443313E+02 0.13605424156E+02
 0.12458276661E+02 0.11541496103E+02 0.10851235048E+02 0.10385941357E+02 0.10150366202E+02
 0.10150360198E+02 0.10385925634E+02 0.10851220518E+02 0.11541498721E+02 0.12458295690E+02
 0.13605435486E+02 0.14976428597E+02 0.16538750481E+02 0.18219822272E+02 0.19897127865E+02
 0.21274770221E+02 0.21703731300E+02 0.20549061433E+02 0.17487964878E+02 0.12745331741E+02
 0.71978431843E+01 0.22257583125E+01 -.72569544093E+00 -.72566445144E+00 0.83749259271E+01
 0.13037433313E+02 0.17487966302E+02 0.20720531937E+02 0.22295489257E+02 0.22330672296E+02
 0.21317713332E+02 0.19867136582E+02 0.18337815373E+02 0.16860153953E+02 0.15513378023E+02
 0.14339264942E+02 0.13354068938E+02 0.12563290382E+02 0.11975707577E+02 0.11609234188E+02
 0.11484073117E+02 0.11609231979E+02 0.11975699990E+02 0.12563283329E+02 0.13354075399E+02
 0.14339286039E+02 0.15513396819E+02 0.16860151282E+02 0.18337790738E+02 0.19867116251E+02
 0.21317735652E+02 0.22330745825E+02 0.22295565860E+02 0.20720550238E+02 0.17487936793E+02
 0.13037441458E+02 0.83750175248E+01 0.48123374198E+01 0.34761565886E+01 0.48122365961E+01
 0.13810721512E+02 0.17528529381E+02 0.20549013018E+02 0.22295489257E+02 0.22696303892E+02
 0.22076176236E+02 0.20946085052E+02 0.19670842230E+02 0.18383831662E+02 0.17163731575E+02
 0.16053903321E+02 0.15073605056E+02 0.14232778125E+02 0.13548378077E+02 0.13053625311E+02
 0.12790960176E+02 0.12790968470E+02 0.13053635763E+02 0.13548370643E+02 0.14232759987E+02
 0.15073604272E+02 0.16053931989E+02 0.17163768634E+02 0.18383842878E+02 0.19670816853E+02
 0.20946053130E+02 0.22076184513E+02 0.22696360418E+02 0.22295544145E+02 0.20549016327E+02
 0.17528498914E+02 0.13810719561E+02 0.10384828664E+02 0.83217406083E+01 0.83217143956E+01
 0.10384788747E+02 0.17521519154E+02 0.20031396733E+02 0.21703659725E+02 0.22330672296E+02
 0.22076176236E+02 0.21322202195E+02 0.20381738876E+02 0.19378200037E+02 0.18383834200E+02
 0.17436857647E+02 0.16551808509E+02 0.15734802347E+02 0.15003291940E+02 0.14401388098E+02
 0.13996141383E+02 0.13851824323E+02 0.13996178958E+02 0.14401411985E+02 0.15003270638E+02
 0.15734764368E+02 0.16551802217E+02 0.17436893061E+02 0.18383878020E+02 0.19378216588E+02
 0.20381723172E+02 0.21322179289E+02 0.22076180661E+02 0.22330716369E+02 0.21703709236E+02
 0.20031386602E+02 0.17521410410E+02 0.14778085255E+02 0.12634887164E+02 0.11823313956E+02
 0.12635014622E+02 0.14778253915E+02 0.19154594806E+02 0.20566410279E+02 0.21274704287E+02
 0.21317713332E+02 0.20946085052E+02 0.20381738876E+02 0.19724013890E+02 0.19033368104E+02
 0.18337819062E+02 0.17640918348E+02 0.16936479322E+02 0.16231489443E+02 0.15564601415E+02
 0.15015890117E+02 0.14699564060E+02 0.14699612611E+02 0.15015981514E+02 0.15564641167E+02
 0.16231455777E+02 0.16936432388E+02 0.17640912542E+02 0.18337848906E+02 0.19033399885E+02
 0.19724030657E+02 0.20381742313E+02 0.20946079778E+02 0.21317714910E+02 0.21274735085E+02
 0.20566455740E+02 0.19154588022E+02 0.17304650281E+02 0.15543170889E+02 0.14464961985E+02
 0.14465037970E+02 0.15543328654E+02 0.17304759525E+02 0.18963613732E+02 0.19641298168E+02
 0.19897091581E+02 0.19867136582E+02 0.19670842230E+02 0.19378200037E+02 0.19033368104E+02
 0.18650892862E+02 0.18219825826E+02 0.17716043063E+02 0.17124400479E+02 0.16450957580E+02
 0.15776834680E+02 0.15263403383E+02 0.15070200246E+02 0.15263541064E+02 0.15776983236E+02
 0.16451007600E+02 0.17124363318E+02 0.17716001852E+02 0.18219824678E+02 0.18650914056E+02
 0.19033388506E+02 0.19378219864E+02 0.19670860992E+02 0.19867139055E+02 0.19897076102E+02
 0.19641297653E+02 0.18963660474E+02 0.17898089726E+02 0.16692475917E+02 0.15730669615E+02
 0.15362873443E+02 0.15730620288E+02 0.16692390389E+02 0.17898003507E+02 0.17593881407E+02
 0.17986480780E+02 0.18219825677E+02 0.18337815373E+02 0.18383831662E+02 0.18383834200E+02
 0.18337819062E+02 0.18219825826E+02 0.17986479466E+02 0.17593881440E+02 0.17001137638E+02
 0.16263547110E+02 0.15564198709E+02 0.15134565344E+02 0.15134661692E+02 0.15564406808E+02
 0.16263710371E+02 0.17001177682E+02 0.17593842537E+02 0.17986446258E+02 0.18219831012E+02
 0.18337843006E+02 0.18383856786E+02 0.18383855118E+02 0.18337841354E+02 0.18219832702E+02
 0.17986447878E+02 0.17593840717E+02 0.17001175891E+02 0.16263712225E+02 0.15564409292E+02
 0.15134661776E+02 0.15134566540E+02 0.15564204177E+02 0.16263552833E+02 0.17001139267E+02
 0.15790249080E+02 0.16189482047E+02 0.16538776275E+02 0.16860153953E+02 0.17163731575E+02
 0.17436857647E+02 0.17640918348E+02 0.17716043063E+02 0.17593881440E+02 0.17187141032E+02