   2   2   0   0
  0.2233828E+02  0.3982889E-09  0.3982889E-09  0.3982889E-09  0.5000000E-15
  1.000000000000000E-004
  CAR 
 unknown system                          
     15.52944296     -8.42321880  301      5.16689626      1.00000000
     -8.423  0.0000E+00  0.0000E+00
     -8.343  0.0000E+00  0.0000E+00
     -8.264  0.0000E+00  0.0000E+00
     -8.184  0.0000E+00  0.0000E+00
     -8.104  0.0000E+00  0.0000E+00
     -8.024  0.0000E+00  0.0000E+00
     -7.944  0.0000E+00  0.0000E+00
     -7.864  0.0000E+00  0.0000E+00
     -7.784  0.0000E+00  0.0000E+00
     -7.705  0.0000E+00  0.0000E+00
     -7.625  0.0000E+00  0.0000E+00
     -7.545  0.6880E-17  0.5493E-18
     -7.465  0.5631E-15  0.4551E-16
     -7.385  0.3307E-13  0.2686E-14
     -7.305  0.1422E-11  0.1162E-12
     -7.226  0.4472E-10  0.3687E-11
     -7.146  0.1031E-08  0.8603E-10
     -7.066  0.1747E-07  0.1481E-08
     -6.986  0.2182E-06  0.1890E-07
     -6.906  0.2018E-05  0.1800E-06
     -6.826  0.1392E-04  0.1291E-05
     -6.747  0.7229E-04  0.7063E-05
     -6.667  0.2866E-03  0.2995E-04
     -6.587  0.8822E-03  0.1004E-03
     -6.507  0.2149E-02  0.2720E-03
     -6.427  0.4237E-02  0.6103E-03
     -6.347  0.6940E-02  0.1164E-02
     -6.267  0.9780E-02  0.1945E-02
     -6.188  0.1242E-01  0.2937E-02
     -6.108  0.1486E-01  0.4123E-02
     -6.028  0.1714E-01  0.5492E-02
     -5.948  0.1894E-01  0.7004E-02
     -5.868  0.2015E-01  0.8612E-02
     -5.788  0.2142E-01  0.1032E-01
     -5.709  0.2353E-01  0.1220E-01
     -5.629  0.2601E-01  0.1428E-01
     -5.549  0.2754E-01  0.1648E-01
     -5.469  0.2788E-01  0.1870E-01
     -5.389  0.2829E-01  0.2096E-01
     -5.309  0.2980E-01  0.2334E-01
     -5.230  0.3213E-01  0.2591E-01
     -5.150  0.3466E-01  0.2867E-01
     -5.070  0.3710E-01  0.3164E-01
     -4.990  0.3898E-01  0.3475E-01
     -4.910  0.3965E-01  0.3791E-01
     -4.830  0.3925E-01  0.4105E-01
     -4.750  0.3952E-01  0.4420E-01
     -4.671  0.4282E-01  0.4762E-01
     -4.591  0.4936E-01  0.5156E-01
     -4.511  0.5610E-01  0.5604E-01
     -4.431  0.5994E-01  0.6083E-01
     -4.351  0.6098E-01  0.6569E-01
     -4.271  0.6099E-01  0.7056E-01
     -4.192  0.6013E-01  0.7536E-01
     -4.112  0.5721E-01  0.7993E-01
     -4.032  0.5289E-01  0.8416E-01
     -3.952  0.5078E-01  0.8821E-01
     -3.872  0.5350E-01  0.9248E-01
     -3.792  0.5849E-01  0.9715E-01
     -3.713  0.5984E-01  0.1019E+00
     -3.633  0.5433E-01  0.1063E+00
     -3.553  0.4436E-01  0.1098E+00
     -3.473  0.3478E-01  0.1126E+00
     -3.393  0.2892E-01  0.1149E+00
     -3.313  0.2778E-01  0.1171E+00
     -3.233  0.3099E-01  0.1196E+00
     -3.154  0.3642E-01  0.1225E+00
     -3.074  0.3990E-01  0.1257E+00
     -2.994  0.3742E-01  0.1287E+00
     -2.914  0.2866E-01  0.1310E+00
     -2.834  0.1744E-01  0.1323E+00
     -2.754  0.8292E-02  0.1330E+00
     -2.675  0.3154E-02  0.1333E+00
     -2.595  0.1591E-02  0.1334E+00
     -2.515  0.3194E-02  0.1336E+00
     -2.435  0.8940E-02  0.1344E+00
     -2.355  0.1954E-01  0.1359E+00
     -2.275  0.3208E-01  0.1385E+00
     -2.196  0.4014E-01  0.1417E+00
     -2.116  0.3974E-01  0.1449E+00
     -2.036  0.3392E-01  0.1476E+00
     -1.956  0.2969E-01  0.1499E+00
     -1.876  0.3230E-01  0.1525E+00
     -1.796  0.4323E-01  0.1560E+00
     -1.716  0.6001E-01  0.1608E+00
     -1.637  0.7658E-01  0.1669E+00
     -1.557  0.8648E-01  0.1738E+00
     -1.477  0.8686E-01  0.1807E+00
     -1.397  0.7845E-01  0.1870E+00
     -1.317  0.6455E-01  0.1921E+00
     -1.237  0.5139E-01  0.1962E+00
     -1.158  0.4444E-01  0.1998E+00
     -1.078  0.4276E-01  0.2032E+00
     -0.998  0.4072E-01  0.2064E+00
     -0.918  0.3561E-01  0.2093E+00
     -0.838  0.3029E-01  0.2117E+00
     -0.758  0.2876E-01  0.2140E+00
     -0.679  0.3200E-01  0.2166E+00
     -0.599  0.3720E-01  0.2195E+00
     -0.519  0.3920E-01  0.2227E+00
     -0.439  0.3471E-01  0.2254E+00
     -0.359  0.2606E-01  0.2275E+00
     -0.279  0.1914E-01  0.2290E+00
     -0.199  0.1784E-01  0.2305E+00
     -0.120  0.2114E-01  0.2322E+00
     -0.040  0.2469E-01  0.2341E+00
      0.040  0.2467E-01  0.2361E+00
      0.120  0.2086E-01  0.2378E+00
      0.200  0.1630E-01  0.2391E+00
      0.280  0.1383E-01  0.2402E+00
      0.359  0.1392E-01  0.2413E+00
      0.439  0.1589E-01  0.2425E+00
      0.519  0.1911E-01  0.2441E+00
      0.599  0.2203E-01  0.2458E+00
      0.679  0.2261E-01  0.2476E+00
      0.759  0.2151E-01  0.2493E+00
      0.838  0.2302E-01  0.2512E+00
      0.918  0.3089E-01  0.2537E+00
      0.998  0.4454E-01  0.2572E+00
      1.078  0.6039E-01  0.2620E+00
      1.158  0.7504E-01  0.2680E+00
      1.238  0.8552E-01  0.2749E+00
      1.318  0.8892E-01  0.2820E+00
      1.397  0.8513E-01  0.2887E+00
      1.477  0.7841E-01  0.2950E+00
      1.557  0.7405E-01  0.3009E+00
      1.637  0.7371E-01  0.3068E+00
      1.717  0.7532E-01  0.3128E+00
      1.797  0.7717E-01  0.3190E+00
      1.876  0.8041E-01  0.3254E+00
      1.956  0.8682E-01  0.3323E+00
      2.036  0.9520E-01  0.3399E+00
      2.116  0.1012E+00  0.3480E+00
      2.196  0.1014E+00  0.3561E+00
      2.276  0.9861E-01  0.3640E+00
      2.355  0.9916E-01  0.3719E+00
      2.435  0.1047E+00  0.3803E+00
      2.515  0.1095E+00  0.3890E+00
      2.595  0.1082E+00  0.3976E+00
      2.675  0.1039E+00  0.4059E+00
      2.755  0.1033E+00  0.4142E+00
      2.835  0.1071E+00  0.4227E+00
      2.914  0.1078E+00  0.4313E+00
      2.994  0.9994E-01  0.4393E+00
      3.074  0.8731E-01  0.4463E+00
      3.154  0.7984E-01  0.4527E+00
      3.234  0.8322E-01  0.4593E+00
      3.314  0.9334E-01  0.4668E+00
      3.393  0.1004E+00  0.4748E+00
      3.473  0.9781E-01  0.4826E+00
      3.553  0.8647E-01  0.4895E+00
      3.633  0.7316E-01  0.4953E+00
      3.713  0.6463E-01  0.5005E+00
      3.793  0.6188E-01  0.5054E+00
      3.872  0.5957E-01  0.5102E+00
      3.952  0.5248E-01  0.5144E+00
      4.032  0.4189E-01  0.5177E+00
      4.112  0.3354E-01  0.5204E+00
      4.192  0.3031E-01  0.5228E+00
      4.272  0.2956E-01  0.5252E+00
      4.352  0.2717E-01  0.5274E+00
      4.431  0.2223E-01  0.5291E+00
      4.511  0.1678E-01  0.5305E+00
      4.591  0.1255E-01  0.5315E+00
      4.671  0.9455E-02  0.5322E+00
      4.751  0.6680E-02  0.5328E+00
      4.831  0.4053E-02  0.5331E+00
      4.910  0.1988E-02  0.5333E+00
      4.990  0.7615E-03  0.5333E+00
      5.070  0.2233E-03  0.5333E+00
      5.150  0.5260E-04  0.5333E+00
      5.230  0.3495E-04  0.5333E+00
      5.310  0.1572E-03  0.5333E+00
      5.389  0.6720E-03  0.5334E+00
      5.469  0.2146E-02  0.5336E+00
      5.549  0.5134E-02  0.5340E+00
      5.629  0.9360E-02  0.5347E+00
      5.709  0.1353E-01  0.5358E+00
      5.789  0.1689E-01  0.5372E+00
      5.869  0.2067E-01  0.5388E+00
      5.948  0.2670E-01  0.5409E+00
      6.028  0.3450E-01  0.5437E+00
      6.108  0.4189E-01  0.5470E+00
      6.188  0.4826E-01  0.5509E+00
      6.268  0.5490E-01  0.5553E+00
      6.348  0.6136E-01  0.5602E+00
      6.427  0.6505E-01  0.5654E+00
      6.507  0.6587E-01  0.5706E+00
      6.587  0.6805E-01  0.5761E+00
      6.667  0.7616E-01  0.5821E+00
      6.747  0.9078E-01  0.5894E+00
      6.827  0.1082E+00  0.5980E+00
      6.906  0.1221E+00  0.6078E+00
      6.986  0.1261E+00  0.6178E+00
      7.066  0.1176E+00  0.6272E+00
      7.146  0.1019E+00  0.6354E+00
      7.226  0.8882E-01  0.6425E+00
      7.306  0.8381E-01  0.6492E+00
      7.386  0.8472E-01  0.6559E+00
      7.465  0.8546E-01  0.6628E+00
      7.545  0.8169E-01  0.6693E+00
      7.625  0.7420E-01  0.6752E+00
      7.705  0.6832E-01  0.6807E+00
      7.785  0.7036E-01  0.6863E+00
      7.865  0.8361E-01  0.6929E+00
      7.944  0.1061E+00  0.7014E+00
      8.024  0.1309E+00  0.7119E+00
      8.104  0.1486E+00  0.7237E+00
      8.184  0.1531E+00  0.7360E+00
      8.264  0.1447E+00  0.7475E+00
      8.344  0.1288E+00  0.7578E+00
      8.423  0.1121E+00  0.7667E+00
      8.503  0.9951E-01  0.7747E+00
      8.583  0.9184E-01  0.7820E+00
      8.663  0.8707E-01  0.7890E+00
      8.743  0.8405E-01  0.7957E+00
      8.823  0.8379E-01  0.8024E+00
      8.903  0.8696E-01  0.8093E+00
      8.982  0.9209E-01  0.8167E+00
      9.062  0.9637E-01  0.8244E+00
      9.142  0.9782E-01  0.8322E+00
      9.222  0.9687E-01  0.8399E+00
      9.302  0.9620E-01  0.8476E+00
      9.382  0.9866E-01  0.8555E+00
      9.461  0.1033E+00  0.8637E+00
      9.541  0.1043E+00  0.8720E+00
      9.621  0.9692E-01  0.8798E+00
      9.701  0.8421E-01  0.8865E+00
      9.781  0.7403E-01  0.8924E+00
      9.861  0.6998E-01  0.8980E+00
      9.940  0.6938E-01  0.9035E+00
     10.020  0.7012E-01  0.9091E+00
     10.100  0.7468E-01  0.9151E+00
     10.180  0.8467E-01  0.9219E+00
     10.260  0.9583E-01  0.9295E+00
     10.340  0.1016E+00  0.9376E+00
     10.420  0.9892E-01  0.9455E+00
     10.499  0.8880E-01  0.9526E+00
     10.579  0.7502E-01  0.9586E+00
     10.659  0.6260E-01  0.9636E+00
     10.739  0.5517E-01  0.9680E+00
     10.819  0.5292E-01  0.9722E+00
     10.899  0.5266E-01  0.9764E+00
     10.978  0.5042E-01  0.9805E+00
     11.058  0.4576E-01  0.9841E+00
     11.138  0.4378E-01  0.9876E+00
     11.218  0.5084E-01  0.9917E+00
     11.298  0.6714E-01  0.9970E+00
     11.378  0.8394E-01  0.1004E+01
     11.457  0.8982E-01  0.1011E+01
     11.537  0.8033E-01  0.1017E+01
     11.617  0.6129E-01  0.1022E+01
     11.697  0.4293E-01  0.1026E+01
     11.777  0.3220E-01  0.1028E+01
     11.857  0.2951E-01  0.1031E+01
     11.937  0.3042E-01  0.1033E+01
     12.016  0.3023E-01  0.1035E+01
     12.096  0.2841E-01  0.1038E+01
     12.176  0.2820E-01  0.1040E+01
     12.256  0.3195E-01  0.1042E+01
     12.336  0.3830E-01  0.1046E+01
     12.416  0.4372E-01  0.1049E+01
     12.495  0.4492E-01  0.1053E+01
     12.575  0.3990E-01  0.1056E+01
     12.655  0.2932E-01  0.1058E+01
     12.735  0.1718E-01  0.1060E+01
     12.815  0.7947E-02  0.1060E+01
     12.895  0.3434E-02  0.1060E+01
     12.974  0.2935E-02  0.1061E+01
     13.054  0.4958E-02  0.1061E+01
     13.134  0.7678E-02  0.1062E+01
     13.214  0.9177E-02  0.1062E+01
     13.294  0.8905E-02  0.1063E+01
     13.374  0.8293E-02  0.1064E+01
     13.454  0.8663E-02  0.1064E+01
     13.533  0.9220E-02  0.1065E+01
     13.613  0.8269E-02  0.1066E+01
     13.693  0.5676E-02  0.1066E+01
     13.773  0.2893E-02  0.1067E+01
     13.853  0.1085E-02  0.1067E+01
     13.933  0.2989E-03  0.1067E+01
     14.012  0.6042E-04  0.1067E+01
     14.092  0.8954E-05  0.1067E+01
     14.172  0.9728E-06  0.1067E+01
     14.252  0.7743E-07  0.1067E+01
     14.332  0.4513E-08  0.1067E+01
     14.412  0.1926E-09  0.1067E+01
     14.491  0.6013E-11  0.1067E+01
     14.571  0.1373E-12  0.1067E+01
     14.651  0.2290E-14  0.1067E+01
     14.731  0.3042E-16  0.1067E+01
     14.811  0.0000E+00  0.1067E+01
     14.891  0.0000E+00  0.1067E+01
     14.971  0.0000E+00  0.1067E+01
     15.050  0.0000E+00  0.1067E+01
     15.130  0.0000E+00  0.1067E+01
     15.210  0.0000E+00  0.1067E+01
     15.290  0.0000E+00  0.1067E+01
     15.370  0.0000E+00  0.1067E+01
     15.450  0.0000E+00  0.1067E+01
     15.529  0.0000E+00  0.1067E+01
