       N       E                     dE             d eps       ncg     rms          rms(c)
DAV:   1     0.321843378570E+01    0.32184E+01   -0.25674E+03   960   0.550E+02
DAV:   2    -0.107047775479E+02   -0.13923E+02   -0.13640E+02  1512   0.694E+01
DAV:   3    -0.108875018009E+02   -0.18272E+00   -0.18272E+00  1216   0.993E+00
DAV:   4    -0.108883546529E+02   -0.85285E-03   -0.85285E-03  1592   0.727E-01
DAV:   5    -0.108883551678E+02   -0.51489E-06   -0.51541E-06  1304   0.150E-02    0.274E+00
DAV:   6    -0.108051902336E+02    0.83165E-01   -0.50308E-02  1192   0.117E+00    0.165E+00
DAV:   7    -0.107635986768E+02    0.41592E-01   -0.10404E-01  1200   0.181E+00    0.131E-01
DAV:   8    -0.107649452787E+02   -0.13466E-02   -0.33421E-03  1104   0.416E-01    0.255E-02
DAV:   9    -0.107650687622E+02   -0.12348E-03   -0.12529E-04   776   0.867E-02
   1 F= -.10765069E+02 E0= -.10765065E+02  d E =-.107651E+02
