 vasp.5.4.4.18Apr17-6-g9f103f2a35 (build Dec 09 2018 21:25:21) complex          
  
 executed on IFC18.0.1.163_CrayMP date 2019.04.01  16:00:57
 running on    8 total cores
 distrk:  each k-point on    8 cores,    1 groups
 distr:  one band on NCORES_PER_BAND=   1 cores,    8 groups


--------------------------------------------------------------------------------------------------------


 INCAR:
 POTCAR:   PAW_PBE Si 05Jan2001                   

 ----------------------------------------------------------------------------- 
|                                                                             |
|           W    W    AA    RRRRR   N    N  II  N    N   GGGG   !!!           |
|           W    W   A  A   R    R  NN   N  II  NN   N  G    G  !!!           |
|           W    W  A    A  R    R  N N  N  II  N N  N  G       !!!           |
|           W WW W  AAAAAA  RRRRR   N  N N  II  N  N N  G  GGG   !            |
|           WW  WW  A    A  R   R   N   NN  II  N   NN  G    G                |
|           W    W  A    A  R    R  N    N  II  N    N   GGGG   !!!           |
|                                                                             |
|      For optimal performance we recommend to set                            |
|        NCORE= 4 - approx SQRT( number of cores)                             |
|      NCORE specifies how many cores store one orbital (NPAR=cpu/NCORE).     |
|      This setting can  greatly improve the performance of VASP for DFT.     |
|      The default,   NCORE=1            might be grossly inefficient         |
|      on modern multi-core architectures or massively parallel machines.     |
|      Do your own testing !!!!                                               |
|      Unfortunately you need to use the default for GW and RPA calculations. |
|      (for HF NCORE is supported but not extensively tested yet)             |
|                                                                             |
 ----------------------------------------------------------------------------- 

 POTCAR:   PAW_PBE Si 05Jan2001                   
   VRHFIN =Si: s2p2                                                             
   LEXCH  = PE                                                                  
   EATOM  =   103.0669 eV,    7.5752 Ry                                         
                                                                                
   TITEL  = PAW_PBE Si 05Jan2001                                                
   LULTRA =        F    use ultrasoft PP ?                                      
   IUNSCR =        1    unscreen: 0-lin 1-nonlin 2-no                           
   RPACOR =    1.500    partial core radius                                     
   POMASS =   28.085; ZVAL   =    4.000    mass and valenz                      
   RCORE  =    1.900    outmost cutoff radius                                   
   RWIGS  =    2.480; RWIGS  =    1.312    wigner-seitz radius (au A)           
   ENMAX  =  245.345; ENMIN  =  184.009 eV                                      
   ICORE  =        2    local potential                                         
   LCOR   =        T    correct aug charges                                     
   LPAW   =        T    paw PP                                                  
   EAUG   =  322.069                                                            
   DEXC   =    -.007                                                            
   RMAX   =    2.944    core radius for proj-oper                               
   RAUG   =    1.300    factor for augmentation sphere                          
   RDEP   =    1.993    radius for radial grids                                 
   QCUT   =   -4.246; QGAM   =    8.493    optimization parameters              
                                                                                
   Description                                                                  
     l     E      TYP  RCUT    TYP  RCUT                                        
     0   .000     23  1.900                                                     
     0   .000     23  1.900                                                     
     1   .000     23  1.900                                                     
     1   .000     23  1.900                                                     
     2   .000      7  1.900                                                     
  local pseudopotential read in
  partial core-charges read in
  atomic valenz-charges read in
  non local Contribution for L=           0  read in
    real space projection operators read in
  non local Contribution for L=           0  read in
    real space projection operators read in
  non local Contribution for L=           1  read in
    real space projection operators read in
  non local Contribution for L=           1  read in
    real space projection operators read in
    PAW grid and wavefunctions read in
 
   number of l-projection  operators is LMAX  =           4
   number of lm-projection operators is LMMAX =           8
 
 PAW_PBE Si 05Jan2001                   :
 energy of atom  1       EATOM= -103.0669
 kinetic energy error for atom=    0.0013 (will be added to EATOM!!)
 
 
 POSCAR: Si2                                     
  positions in direct lattice
  No initial velocities read in
 exchange correlation table for  LEXCH =        8
   RHO(1)=    0.500       N(1)  =     2000
   RHO(2)=  100.500       N(2)  =     4000
 


--------------------------------------------------------------------------------------------------------


 ion  position               nearest neighbor table
   1  0.000  0.000  0.000-   2 2.44   2 2.44   2 2.44   2 2.44
   2  0.250  0.250  0.250-   1 2.44   1 2.44   1 2.44   1 2.44
 
  LATTYP: Found a face centered cubic cell.
 ALAT       =     5.6326560000
  
  Lattice vectors:
  
 A1 = (   0.0000000000,   2.8163280000,   2.8163280000)
 A2 = (   2.8163280000,   0.0000000000,   2.8163280000)
 A3 = (   2.8163280000,   2.8163280000,   0.0000000000)


Analysis of symmetry for initial positions (statically):
=====================================================================
 Subroutine PRICEL returns:
 Original cell was already a primitive cell.
 

 Routine SETGRP: Setting up the symmetry group for a 
 face centered cubic supercell.


 Subroutine GETGRP returns: Found 48 space group operations
 (whereof 24 operations were pure point group operations)
 out of a pool of 48 trial point group operations.


The static configuration has the point symmetry T_d .
 The point group associated with its full space group is O_h .


Analysis of symmetry for dynamics (positions and initial velocities):
=====================================================================
 Subroutine PRICEL returns:
 Original cell was already a primitive cell.
 

 Routine SETGRP: Setting up the symmetry group for a 
 face centered cubic supercell.


 Subroutine GETGRP returns: Found 48 space group operations
 (whereof 24 operations were pure point group operations)
 out of a pool of 48 trial point group operations.


The dynamic configuration has the point symmetry T_d .
 The point group associated with its full space group is O_h .


 Subroutine INISYM returns: Found 48 space group operations
 (whereof 24 operations are pure point group operations),
 and found     1 'primitive' translations

 
 
 KPOINTS: Automatic kpoint scheme                 

Automatic generation of k-mesh.
Space group operators:
 irot       det(A)        alpha          n_x          n_y          n_z        tau_x        tau_y        tau_z
    1     1.000000     0.000000     1.000000     0.000000     0.000000     0.000000     0.000000     0.000000
    2     1.000000   120.000000    -0.577350    -0.577350    -0.577350     0.000000     0.000000     0.000000
    3     1.000000   120.000000     0.577350     0.577350     0.577350     0.000000     0.000000     0.000000
    4    -1.000000    90.000000    -0.000000    -0.000000    -1.000000     0.000000     0.000000     0.000000
    5    -1.000000   180.000000     0.000000     0.707107     0.707107     0.000000     0.000000     0.000000
    6    -1.000000    90.000000    -0.000000     1.000000    -0.000000     0.000000     0.000000     0.000000
    7     1.000000   180.000000    -0.000000     0.000000     1.000000     0.000000     0.000000     0.000000
    8     1.000000   120.000000    -0.577350     0.577350     0.577350     0.000000     0.000000     0.000000
    9     1.000000   120.000000    -0.577350     0.577350    -0.577350     0.000000     0.000000     0.000000
   10    -1.000000    90.000000     0.000000     0.000000     1.000000     0.000000     0.000000     0.000000
   11    -1.000000    90.000000    -1.000000     0.000000    -0.000000     0.000000     0.000000     0.000000
   12    -1.000000   180.000000     0.707107     0.000000     0.707107     0.000000     0.000000     0.000000
   13     1.000000   120.000000     0.577350    -0.577350     0.577350     0.000000     0.000000     0.000000
   14     1.000000   120.000000    -0.577350    -0.577350     0.577350     0.000000     0.000000     0.000000
   15     1.000000   180.000000     1.000000     0.000000     0.000000     0.000000     0.000000     0.000000
   16    -1.000000    90.000000     0.000000    -1.000000     0.000000     0.000000     0.000000     0.000000
   17    -1.000000   180.000000     0.707107     0.707107    -0.000000     0.000000     0.000000     0.000000
   18    -1.000000    90.000000     1.000000     0.000000     0.000000     0.000000     0.000000     0.000000
   19     1.000000   120.000000     0.577350    -0.577350    -0.577350     0.000000     0.000000     0.000000
   20     1.000000   179.999999     0.000000    -1.000000    -0.000000     0.000000     0.000000     0.000000
   21     1.000000   120.000000     0.577350     0.577350    -0.577350     0.000000     0.000000     0.000000
   22    -1.000000   180.000000    -0.000000    -0.707107     0.707107     0.000000     0.000000     0.000000
   23    -1.000000   180.000000     0.707107    -0.707107    -0.000000     0.000000     0.000000     0.000000
   24    -1.000000   180.000000    -0.707107     0.000000     0.707107     0.000000     0.000000     0.000000
   25    -1.000000     0.000000     1.000000     0.000000     0.000000     0.250000     0.250000     0.250000
   26    -1.000000   120.000000    -0.577350    -0.577350    -0.577350     0.250000     0.250000     0.250000
   27    -1.000000   120.000000     0.577350     0.577350     0.577350     0.250000     0.250000     0.250000
   28     1.000000    90.000000    -0.000000    -0.000000    -1.000000     0.250000     0.250000     0.250000
   29     1.000000   180.000000     0.000000     0.707107     0.707107     0.250000     0.250000     0.250000
   30     1.000000    90.000000    -0.000000     1.000000    -0.000000     0.250000     0.250000     0.250000
   31    -1.000000   180.000000    -0.000000     0.000000     1.000000     0.250000     0.250000     0.250000
   32    -1.000000   120.000000    -0.577350     0.577350     0.577350     0.250000     0.250000     0.250000
   33    -1.000000   120.000000    -0.577350     0.577350    -0.577350     0.250000     0.250000     0.250000
   34     1.000000    90.000000     0.000000     0.000000     1.000000     0.250000     0.250000     0.250000
   35     1.000000    90.000000    -1.000000     0.000000    -0.000000     0.250000     0.250000     0.250000
   36     1.000000   180.000000     0.707107     0.000000     0.707107     0.250000     0.250000     0.250000
   37    -1.000000   120.000000     0.577350    -0.577350     0.577350     0.250000     0.250000     0.250000
   38    -1.000000   120.000000    -0.577350    -0.577350     0.577350     0.250000     0.250000     0.250000
   39    -1.000000   180.000000     1.000000     0.000000     0.000000     0.250000     0.250000     0.250000
   40     1.000000    90.000000     0.000000    -1.000000     0.000000     0.250000     0.250000     0.250000
   41     1.000000   180.000000     0.707107     0.707107    -0.000000     0.250000     0.250000     0.250000
   42     1.000000    90.000000     1.000000     0.000000     0.000000     0.250000     0.250000     0.250000
   43    -1.000000   120.000000     0.577350    -0.577350    -0.577350     0.250000     0.250000     0.250000
   44    -1.000000   179.999999     0.000000    -1.000000    -0.000000     0.250000     0.250000     0.250000
   45    -1.000000   120.000000     0.577350     0.577350    -0.577350     0.250000     0.250000     0.250000
   46     1.000000   180.000000    -0.000000    -0.707107     0.707107     0.250000     0.250000     0.250000
   47     1.000000   180.000000     0.707107    -0.707107    -0.000000     0.250000     0.250000     0.250000
   48     1.000000   180.000000    -0.707107     0.000000     0.707107     0.250000     0.250000     0.250000
 
 Subroutine IBZKPT returns following result:
 ===========================================
 
 Found     60 irreducible k-points:
 
 Following reciprocal coordinates:
            Coordinates               Weight
  0.062500  0.062500  0.062500     96.000000
  0.187500  0.062500  0.062500    288.000000
  0.312500  0.062500  0.062500    288.000000
  0.437500  0.062500  0.062500    288.000000
 -0.437500  0.062500  0.062500    288.000000
 -0.312500  0.062500  0.062500    288.000000
 -0.187500  0.062500  0.062500    288.000000
 -0.062500  0.062500  0.062500    288.000000
  0.187500  0.187500  0.062500    288.000000
  0.312500  0.187500  0.062500    576.000000
  0.437500  0.187500  0.062500    576.000000
 -0.437500  0.187500  0.062500    576.000000
 -0.312500  0.187500  0.062500    576.000000
 -0.187500  0.187500  0.062500    576.000000
 -0.062500  0.187500  0.062500    576.000000
  0.312500  0.312500  0.062500    288.000000
  0.437500  0.312500  0.062500    576.000000
 -0.437500  0.312500  0.062500    576.000000
 -0.312500  0.312500  0.062500    576.000000
 -0.187500  0.312500  0.062500    576.000000
 -0.062500  0.312500  0.062500    576.000000
  0.437500  0.437500  0.062500    288.000000
 -0.437500  0.437500  0.062500    576.000000
 -0.312500  0.437500  0.062500    576.000000
 -0.187500  0.437500  0.062500    576.000000
 -0.062500  0.437500  0.062500    576.000000
 -0.437500 -0.437500  0.062500    288.000000
 -0.312500 -0.437500  0.062500    576.000000
 -0.187500 -0.437500  0.062500    576.000000
 -0.312500 -0.312500  0.062500    288.000000
 -0.187500 -0.312500  0.062500    576.000000
 -0.187500 -0.187500  0.062500    288.000000
  0.187500  0.187500  0.187500     96.000000
  0.312500  0.187500  0.187500    288.000000
  0.437500  0.187500  0.187500    288.000000
 -0.437500  0.187500  0.187500    288.000000
 -0.312500  0.187500  0.187500    288.000000
 -0.187500  0.187500  0.187500    288.000000
  0.312500  0.312500  0.187500    288.000000
  0.437500  0.312500  0.187500    576.000000
 -0.437500  0.312500  0.187500    576.000000
 -0.312500  0.312500  0.187500    576.000000
 -0.187500  0.312500  0.187500    576.000000
  0.437500  0.437500  0.187500    288.000000
 -0.437500  0.437500  0.187500    576.000000
 -0.312500  0.437500  0.187500    576.000000
 -0.187500  0.437500  0.187500    576.000000
 -0.437500 -0.437500  0.187500    288.000000
 -0.312500 -0.437500  0.187500    576.000000
 -0.312500 -0.312500  0.187500    288.000000
  0.312500  0.312500  0.312500     96.000000
  0.437500  0.312500  0.312500    288.000000
 -0.437500  0.312500  0.312500    288.000000
 -0.312500  0.312500  0.312500    288.000000
  0.437500  0.437500  0.312500    288.000000
 -0.437500  0.437500  0.312500    576.000000
 -0.312500  0.437500  0.312500    576.000000
 -0.437500 -0.437500  0.312500    288.000000
  0.437500  0.437500  0.437500     96.000000
 -0.437500  0.437500  0.437500    288.000000
 
 Following cartesian coordinates:
            Coordinates               Weight
  0.011096  0.011096  0.011096     96.000000
 -0.011096  0.033288  0.033288    288.000000
 -0.033288  0.055480  0.055480    288.000000
 -0.055480  0.077672  0.077672    288.000000
  0.099864 -0.077672 -0.077672    288.000000
  0.077672 -0.055480 -0.055480    288.000000
  0.055480 -0.033288 -0.033288    288.000000
  0.033288 -0.011096 -0.011096    288.000000
  0.011096  0.011096  0.055480    288.000000
 -0.011096  0.033288  0.077672    576.000000
 -0.033288  0.055480  0.099864    576.000000
  0.122056 -0.099864 -0.055480    576.000000
  0.099864 -0.077672 -0.033288    576.000000
  0.077672 -0.055480 -0.011096    576.000000
  0.055480 -0.033288  0.011096    576.000000
  0.011096  0.011096  0.099864    288.000000
 -0.011096  0.033288  0.122056    576.000000
  0.144248 -0.122056 -0.033288    576.000000
  0.122056 -0.099864 -0.011096    576.000000
  0.099864 -0.077672  0.011096    576.000000
  0.077672 -0.055480  0.033288    576.000000
  0.011096  0.011096  0.144248    288.000000
  0.166440 -0.144248 -0.011096    576.000000
  0.144248 -0.122056  0.011096    576.000000
  0.122056 -0.099864  0.033288    576.000000
  0.099864 -0.077672  0.055480    576.000000
  0.011096  0.011096 -0.166440    288.000000
 -0.011096  0.033288 -0.144248    576.000000
 -0.033288  0.055480 -0.122056    576.000000
  0.011096  0.011096 -0.122056    288.000000
 -0.011096  0.033288 -0.099864    576.000000
  0.011096  0.011096 -0.077672    288.000000
  0.033288  0.033288  0.033288     96.000000
  0.011096  0.055480  0.055480    288.000000
 -0.011096  0.077672  0.077672    288.000000
  0.144248 -0.077672 -0.077672    288.000000
  0.122056 -0.055480 -0.055480    288.000000
  0.099864 -0.033288 -0.033288    288.000000
  0.033288  0.033288  0.077672    288.000000
  0.011096  0.055480  0.099864    576.000000
  0.166440 -0.099864 -0.055480    576.000000
  0.144248 -0.077672 -0.033288    576.000000
  0.122056 -0.055480 -0.011096    576.000000
  0.033288  0.033288  0.122056    288.000000
  0.188632 -0.122056 -0.033288    576.000000
  0.166440 -0.099864 -0.011096    576.000000
  0.144248 -0.077672  0.011096    576.000000
  0.033288  0.033288 -0.188632    288.000000
  0.011096  0.055480 -0.166440    576.000000
  0.033288  0.033288 -0.144248    288.000000
  0.055480  0.055480  0.055480     96.000000
  0.033288  0.077672  0.077672    288.000000
  0.188632 -0.077672 -0.077672    288.000000
  0.166440 -0.055480 -0.055480    288.000000
  0.055480  0.055480  0.099864    288.000000
  0.210824 -0.099864 -0.055480    576.000000
  0.188632 -0.077672 -0.033288    576.000000
  0.055480  0.055480 -0.210824    288.000000
  0.077672  0.077672  0.077672     96.000000
  0.233016 -0.077672 -0.077672    288.000000
 


--------------------------------------------------------------------------------------------------------




 Dimension of arrays:
   k-points           NKPTS =     60   k-points in BZ     NKDIM =     60   number of bands    NBANDS=      8
   number of dos      NEDOS =    301   number of ions     NIONS =      2
   non local maximal  LDIM  =      4   non local SUM 2l+1 LMDIM =      8
   total plane-waves  NPLWV =   5832
   max r-space proj   IRMAX =      1   max aug-charges    IRDMAX=   4564
   dimension x,y,z NGX =    18 NGY =   18 NGZ =   18
   dimension x,y,z NGXF=    36 NGYF=   36 NGZF=   36
   support grid    NGXF=    36 NGYF=   36 NGZF=   36
   ions per type =               2
   NGX,Y,Z   is equivalent  to a cutoff of   7.51,  7.51,  7.51 a.u.
   NGXF,Y,Z  is equivalent  to a cutoff of  15.03, 15.03, 15.03 a.u.

 SYSTEM =  unknown system                          
 POSCAR =  Si2                                     

 Startparameter for this run:
   NWRITE =      2    write-flag & timer
   PREC   = normal    normal or accurate (medium, high low for compatibility)
   ISTART =      0    job   : 0-new  1-cont  2-samecut
   ICHARG =      2    charge: 1-file 2-atom 10-const
   ISPIN  =      1    spin polarized calculation?
   LNONCOLLINEAR =      F non collinear calculations
   LSORBIT =      F    spin-orbit coupling
   INIWAV =      1    electr: 0-lowe 1-rand  2-diag
   LASPH  =      F    aspherical Exc in radial PAW
   METAGGA=      F    non-selfconsistent MetaGGA calc.

 Electronic Relaxation 1
   ENCUT  =  350.0 eV  25.72 Ry    5.07 a.u.   6.08  6.08  6.08*2*pi/ulx,y,z
   ENINI  =  350.0     initial cutoff
   ENAUG  =  322.1 eV  augmentation charge cutoff
   NELM   =     60;   NELMIN=  2; NELMDL= -5     # of ELM steps 
   EDIFF  = 0.4E-03   stopping-criterion for ELM
   LREAL  =      F    real-space projection
   NLSPLINE    = F    spline interpolate recip. space projectors
   LCOMPAT=      F    compatible to vasp.4.4
   GGA_COMPAT  = T    GGA compatible to vasp.4.4-vasp.4.6
   LMAXPAW     = -100 max onsite density
   LMAXMIX     =    2 max onsite mixed and CHGCAR
   VOSKOWN=      0    Vosko Wilk Nusair interpolation
   ROPT   =    0.00000
 Ionic relaxation
   EDIFFG = -.1E-01   stopping-criterion for IOM
   NSW    =     15    number of steps for IOM
   NBLOCK =      1;   KBLOCK =     15    inner block; outer block 
   IBRION =      2    ionic relax: 0-MD 1-quasi-New 2-CG
   NFREE  =      1    steps in history (QN), initial steepest desc. (CG)
   ISIF   =      2    stress and relaxation
   IWAVPR =     11    prediction:  0-non 1-charg 2-wave 3-comb
   ISYM   =      2    0-nonsym 1-usesym 2-fastsym
   LCORR  =      T    Harris-Foulkes like correction to forces

   POTIM  = 0.5000    time-step for ionic-motion
   TEIN   =    0.0    initial temperature
   TEBEG  =    0.0;   TEEND  =   0.0 temperature during run
   SMASS  =  -3.00    Nose mass-parameter (am)
   estimated Nose-frequenzy (Omega)   =  0.10E-29 period in steps =****** mass=  -0.363E-27a.u.
   SCALEE = 1.0000    scale energy and forces
   NPACO  =    256;   APACO  = 16.0  distance and # of slots for P.C.
   PSTRESS=    0.0 pullay stress

  Mass of Ions in am
   POMASS =  28.09
  Ionic Valenz
   ZVAL   =   4.00
  Atomic Wigner-Seitz radii
   RWIGS  =  -1.00
  virtual crystal weights 
   VCA    =   1.00
   NELECT =       8.0000    total number of electrons
   NUPDOWN=      -1.0000    fix difference up-down

 DOS related values:
   EMIN   =  10.00;   EMAX   =-10.00  energy-range for DOS
   EFERMI =   0.00
   ISMEAR =     0;   SIGMA  =   0.20  broadening in eV -4-tet -1-fermi 0-gaus

 Electronic relaxation 2 (details)
   IALGO  =     38    algorithm
   LDIAG  =      T    sub-space diagonalisation (order eigenvalues)
   LSUBROT=      F    optimize rotation matrix (better conditioning)
   TURBO    =      0    0=normal 1=particle mesh
   IRESTART =      0    0=no restart 2=restart with 2 vectors
   NREBOOT  =      0    no. of reboots
   NMIN     =      0    reboot dimension
   EREF     =   0.00    reference energy to select bands
   IMIX   =      4    mixing-type and parameters
     AMIX     =   0.40;   BMIX     =  1.00
     AMIX_MAG =   1.60;   BMIX_MAG =  1.00
     AMIN     =   0.10
     WC   =   100.;   INIMIX=   1;  MIXPRE=   1;  MAXMIX= -45

 Intra band minimization:
   WEIMIN = 0.0010     energy-eigenvalue tresh-hold
   EBREAK =  0.13E-04  absolut break condition
   DEPER  =   0.30     relativ break condition  

   TIME   =   0.40     timestep for ELM

  volume/ion in A,a.u.               =      22.34       150.75
  Fermi-wavevector in a.u.,A,eV,Ry     =   0.922738  1.743721 11.584610  0.851445
  Thomas-Fermi vector in A             =   2.048297
 
 Write flags
   LWAVE        =      T    write WAVECAR
   LDOWNSAMPLE  =      F    k-point downsampling of WAVECAR
   LCHARG       =      T    write CHGCAR
   LVTOT        =      F    write LOCPOT, total local potential
   LVHAR        =      F    write LOCPOT, Hartree potential only
   LELF         =      F    write electronic localiz. function (ELF)
   LORBIT       =      0    0 simple, 1 ext, 2 COOP (PROOUT), +10 PAW based schemes


 Dipole corrections
   LMONO  =      F    monopole corrections only (constant potential shift)
   LDIPOL =      F    correct potential (dipole corrections)
   IDIPOL =      0    1-x, 2-y, 3-z, 4-all directions 
   EPSILON=  1.0000000 bulk dielectric constant

 Exchange correlation treatment:
   GGA     =    --    GGA type
   LEXCH   =     8    internal setting for exchange type
   VOSKOWN=      0    Vosko Wilk Nusair interpolation
   LHFCALC =     F    Hartree Fock is set to
   LHFONE  =     F    Hartree Fock one center treatment
   AEXX    =    0.0000 exact exchange contribution

 Linear response parameters
   LEPSILON=     F    determine dielectric tensor
   LRPA    =     F    only Hartree local field effects (RPA)
   LNABLA  =     F    use nabla operator in PAW spheres
   LVEL    =     F    velocity operator in full k-point grid
   LINTERFAST=   F  fast interpolation
   KINTER  =     0    interpolate to denser k-point grid
   CSHIFT  =0.1000    complex shift for real part using Kramers Kronig
   OMEGAMAX=  -1.0    maximum frequency
   DEG_THRESHOLD= 0.2000000E-02 threshold for treating states as degnerate
   RTIME   =   -0.100 relaxation time in fs
  (WPLASMAI=    0.000 imaginary part of plasma frequency in eV, 0.658/RTIME)
   DFIELD  = 0.0000000 0.0000000 0.0000000 field for delta impulse in time
 
 Orbital magnetization related:
   ORBITALMAG=     F  switch on orbital magnetization
   LCHIMAG   =     F  perturbation theory with respect to B field
   DQ        =  0.001000  dq finite difference perturbation B field
   LLRAUG    =     F  two centre corrections for induced B field



--------------------------------------------------------------------------------------------------------


 conjugate gradient relaxation of ions
 charge density and potential will be updated during run
 non-spin polarized calculation
 Variant of blocked Davidson
 Davidson routine will perform the subspace rotation
 perform sub-space diagonalisation
    after iterative eigenvector-optimisation
 modified Broyden-mixing scheme, WC =      100.0
 initial mixing is a Kerker type mixing with AMIX =  0.4000 and BMIX =      1.0000
 Hartree-type preconditioning will be used
 using additional bands            4
 reciprocal scheme for non local part
 use partial core corrections
 calculate Harris-corrections to forces 
   (improved forces if not selfconsistent)
 use gradient corrections 
 use of overlap-Matrix (Vanderbilt PP)
 Gauss-broadening in eV      SIGMA  =   0.20


--------------------------------------------------------------------------------------------------------


  energy-cutoff  :      350.00
  volume of cell :       44.68
      direct lattice vectors                 reciprocal lattice vectors
     0.000000000  2.816328000  2.816328000    -0.177536139  0.177536139  0.177536139
     2.816328000  0.000000000  2.816328000     0.177536139 -0.177536139  0.177536139
     2.816328000  2.816328000  0.000000000     0.177536139  0.177536139 -0.177536139

  length of vectors
     3.982889254  3.982889254  3.982889254     0.307501613  0.307501613  0.307501613


 
 k-points in units of 2pi/SCALE and weight: Automatic kpoint scheme                 
   0.01109601  0.01109601  0.01109601       0.004
  -0.01109601  0.03328803  0.03328803       0.012
  -0.03328803  0.05548004  0.05548004       0.012
  -0.05548004  0.07767206  0.07767206       0.012
   0.09986408 -0.07767206 -0.07767206       0.012
   0.07767206 -0.05548004 -0.05548004       0.012
   0.05548004 -0.03328803 -0.03328803       0.012
   0.03328803 -0.01109601 -0.01109601       0.012
   0.01109601  0.01109601  0.05548004       0.012
  -0.01109601  0.03328803  0.07767206       0.023
  -0.03328803  0.05548004  0.09986408       0.023
   0.12205610 -0.09986408 -0.05548004       0.023
   0.09986408 -0.07767206 -0.03328803       0.023
   0.07767206 -0.05548004 -0.01109601       0.023
   0.05548004 -0.03328803  0.01109601       0.023
   0.01109601  0.01109601  0.09986408       0.012
  -0.01109601  0.03328803  0.12205610       0.023
   0.14424811 -0.12205610 -0.03328803       0.023
   0.12205610 -0.09986408 -0.01109601       0.023
   0.09986408 -0.07767206  0.01109601       0.023
   0.07767206 -0.05548004  0.03328803       0.023
   0.01109601  0.01109601  0.14424811       0.012
   0.16644013 -0.14424811 -0.01109601       0.023
   0.14424811 -0.12205610  0.01109601       0.023
   0.12205610 -0.09986408  0.03328803       0.023
   0.09986408 -0.07767206  0.05548004       0.023
   0.01109601  0.01109601 -0.16644013       0.012
  -0.01109601  0.03328803 -0.14424811       0.023
  -0.03328803  0.05548004 -0.12205610       0.023
   0.01109601  0.01109601 -0.12205610       0.012
  -0.01109601  0.03328803 -0.09986408       0.023
   0.01109601  0.01109601 -0.07767206       0.012
   0.03328803  0.03328803  0.03328803       0.004
   0.01109601  0.05548004  0.05548004       0.012
  -0.01109601  0.07767206  0.07767206       0.012
   0.14424811 -0.07767206 -0.07767206       0.012
   0.12205610 -0.05548004 -0.05548004       0.012
   0.09986408 -0.03328803 -0.03328803       0.012
   0.03328803  0.03328803  0.07767206       0.012
   0.01109601  0.05548004  0.09986408       0.023
   0.16644013 -0.09986408 -0.05548004       0.023
   0.14424811 -0.07767206 -0.03328803       0.023
   0.12205610 -0.05548004 -0.01109601       0.023
   0.03328803  0.03328803  0.12205610       0.012
   0.18863215 -0.12205610 -0.03328803       0.023
   0.16644013 -0.09986408 -0.01109601       0.023
   0.14424811 -0.07767206  0.01109601       0.023
   0.03328803  0.03328803 -0.18863215       0.012
   0.01109601  0.05548004 -0.16644013       0.023
   0.03328803  0.03328803 -0.14424811       0.012
   0.05548004  0.05548004  0.05548004       0.004
   0.03328803  0.07767206  0.07767206       0.012
   0.18863215 -0.07767206 -0.07767206       0.012
   0.16644013 -0.05548004 -0.05548004       0.012
   0.05548004  0.05548004  0.09986408       0.012
   0.21082417 -0.09986408 -0.05548004       0.023
   0.18863215 -0.07767206 -0.03328803       0.023
   0.05548004  0.05548004 -0.21082417       0.012
   0.07767206  0.07767206  0.07767206       0.004
   0.23301618 -0.07767206 -0.07767206       0.012
 
 k-points in reciprocal lattice and weights: Automatic kpoint scheme                 
   0.06250000  0.06250000  0.06250000       0.004
   0.18750000  0.06250000  0.06250000       0.012
   0.31250000  0.06250000  0.06250000       0.012
   0.43750000  0.06250000  0.06250000       0.012
  -0.43750000  0.06250000  0.06250000       0.012
  -0.31250000  0.06250000  0.06250000       0.012
  -0.18750000  0.06250000  0.06250000       0.012
  -0.06250000  0.06250000  0.06250000       0.012
   0.18750000  0.18750000  0.06250000       0.012
   0.31250000  0.18750000  0.06250000       0.023
   0.43750000  0.18750000  0.06250000       0.023
  -0.43750000  0.18750000  0.06250000       0.023
  -0.31250000  0.18750000  0.06250000       0.023
  -0.18750000  0.18750000  0.06250000       0.023
  -0.06250000  0.18750000  0.06250000       0.023
   0.31250000  0.31250000  0.06250000       0.012
   0.43750000  0.31250000  0.06250000       0.023
  -0.43750000  0.31250000  0.06250000       0.023
  -0.31250000  0.31250000  0.06250000       0.023
  -0.18750000  0.31250000  0.06250000       0.023
  -0.06250000  0.31250000  0.06250000       0.023
   0.43750000  0.43750000  0.06250000       0.012
  -0.43750000  0.43750000  0.06250000       0.023
  -0.31250000  0.43750000  0.06250000       0.023
  -0.18750000  0.43750000  0.06250000       0.023
  -0.06250000  0.43750000  0.06250000       0.023
  -0.43750000 -0.43750000  0.06250000       0.012
  -0.31250000 -0.43750000  0.06250000       0.023
  -0.18750000 -0.43750000  0.06250000       0.023
  -0.31250000 -0.31250000  0.06250000       0.012
  -0.18750000 -0.31250000  0.06250000       0.023
  -0.18750000 -0.18750000  0.06250000       0.012
   0.18750000  0.18750000  0.18750000       0.004
   0.31250000  0.18750000  0.18750000       0.012
   0.43750000  0.18750000  0.18750000       0.012
  -0.43750000  0.18750000  0.18750000       0.012
  -0.31250000  0.18750000  0.18750000       0.012
  -0.18750000  0.18750000  0.18750000       0.012
   0.31250000  0.31250000  0.18750000       0.012
   0.43750000  0.31250000  0.18750000       0.023
  -0.43750000  0.31250000  0.18750000       0.023
  -0.31250000  0.31250000  0.18750000       0.023
  -0.18750000  0.31250000  0.18750000       0.023
   0.43750000  0.43750000  0.18750000       0.012
  -0.43750000  0.43750000  0.18750000       0.023
  -0.31250000  0.43750000  0.18750000       0.023
  -0.18750000  0.43750000  0.18750000       0.023
  -0.43750000 -0.43750000  0.18750000       0.012
  -0.31250000 -0.43750000  0.18750000       0.023
  -0.31250000 -0.31250000  0.18750000       0.012
   0.31250000  0.31250000  0.31250000       0.004
   0.43750000  0.31250000  0.31250000       0.012
  -0.43750000  0.31250000  0.31250000       0.012
  -0.31250000  0.31250000  0.31250000       0.012
   0.43750000  0.43750000  0.31250000       0.012
  -0.43750000  0.43750000  0.31250000       0.023
  -0.31250000  0.43750000  0.31250000       0.023
  -0.43750000 -0.43750000  0.31250000       0.012
   0.43750000  0.43750000  0.43750000       0.004
  -0.43750000  0.43750000  0.43750000       0.012
 
 position of ions in fractional coordinates (direct lattice) 
   0.00000000  0.00000000  0.00000000
   0.25000000  0.25000000  0.25000000
 
 position of ions in cartesian coordinates  (Angst):
   0.00000000  0.00000000  0.00000000
   1.40816400  1.40816400  1.40816400
 


--------------------------------------------------------------------------------------------------------


 k-point  1 :   0.0625 0.0625 0.0625  plane waves:     658
 k-point  2 :   0.1875 0.0625 0.0625  plane waves:     661
 k-point  3 :   0.3125 0.0625 0.0625  plane waves:     656
 k-point  4 :   0.4375 0.0625 0.0625  plane waves:     656
 k-point  5 :  -0.4375 0.0625 0.0625  plane waves:     660
 k-point  6 :  -0.3125 0.0625 0.0625  plane waves:     658
 k-point  7 :  -0.1875 0.0625 0.0625  plane waves:     656
 k-point  8 :  -0.0625 0.0625 0.0625  plane waves:     659
 k-point  9 :   0.1875 0.1875 0.0625  plane waves:     664
 k-point 10 :   0.3125 0.1875 0.0625  plane waves:     662
 k-point 11 :   0.4375 0.1875 0.0625  plane waves:     661
 k-point 12 :  -0.4375 0.1875 0.0625  plane waves:     666
 k-point 13 :  -0.3125 0.1875 0.0625  plane waves:     664
 k-point 14 :  -0.1875 0.1875 0.0625  plane waves:     654
 k-point 15 :  -0.0625 0.1875 0.0625  plane waves:     663
 k-point 16 :   0.3125 0.3125 0.0625  plane waves:     658
 k-point 17 :   0.4375 0.3125 0.0625  plane waves:     664
 k-point 18 :  -0.4375 0.3125 0.0625  plane waves:     669
 k-point 19 :  -0.3125 0.3125 0.0625  plane waves:     671
 k-point 20 :  -0.1875 0.3125 0.0625  plane waves:     663
 k-point 21 :  -0.0625 0.3125 0.0625  plane waves:     653
 k-point 22 :   0.4375 0.4375 0.0625  plane waves:     668
 k-point 23 :  -0.4375 0.4375 0.0625  plane waves:     666
 k-point 24 :  -0.3125 0.4375 0.0625  plane waves:     673
 k-point 25 :  -0.1875 0.4375 0.0625  plane waves:     669
 k-point 26 :  -0.0625 0.4375 0.0625  plane waves:     661
 k-point 27 :  -0.4375-0.4375 0.0625  plane waves:     666
 k-point 28 :  -0.3125-0.4375 0.0625  plane waves:     668
 k-point 29 :  -0.1875-0.4375 0.0625  plane waves:     665
 k-point 30 :  -0.3125-0.3125 0.0625  plane waves:     662
 k-point 31 :  -0.1875-0.3125 0.0625  plane waves:     665
 k-point 32 :  -0.1875-0.1875 0.0625  plane waves:     662
 k-point 33 :   0.1875 0.1875 0.1875  plane waves:     655
 k-point 34 :   0.3125 0.1875 0.1875  plane waves:     658
 k-point 35 :   0.4375 0.1875 0.1875  plane waves:     660
 k-point 36 :  -0.4375 0.1875 0.1875  plane waves:     670
 k-point 37 :  -0.3125 0.1875 0.1875  plane waves:     668
 k-point 38 :  -0.1875 0.1875 0.1875  plane waves:     664
 k-point 39 :   0.3125 0.3125 0.1875  plane waves:     657
 k-point 40 :   0.4375 0.3125 0.1875  plane waves:     663
 k-point 41 :  -0.4375 0.3125 0.1875  plane waves:     666
 k-point 42 :  -0.3125 0.3125 0.1875  plane waves:     670
 k-point 43 :  -0.1875 0.3125 0.1875  plane waves:     665
 k-point 44 :   0.4375 0.4375 0.1875  plane waves:     669
 k-point 45 :  -0.4375 0.4375 0.1875  plane waves:     669
 k-point 46 :  -0.3125 0.4375 0.1875  plane waves:     675
 k-point 47 :  -0.1875 0.4375 0.1875  plane waves:     668
 k-point 48 :  -0.4375-0.4375 0.1875  plane waves:     676
 k-point 49 :  -0.3125-0.4375 0.1875  plane waves:     670
 k-point 50 :  -0.3125-0.3125 0.1875  plane waves:     668
 k-point 51 :   0.3125 0.3125 0.3125  plane waves:     652
 k-point 52 :   0.4375 0.3125 0.3125  plane waves:     657
 k-point 53 :  -0.4375 0.3125 0.3125  plane waves:     673
 k-point 54 :  -0.3125 0.3125 0.3125  plane waves:     677
 k-point 55 :   0.4375 0.4375 0.3125  plane waves:     658
 k-point 56 :  -0.4375 0.4375 0.3125  plane waves:     667
 k-point 57 :  -0.3125 0.4375 0.3125  plane waves:     671
 k-point 58 :  -0.4375-0.4375 0.3125  plane waves:     675
 k-point 59 :   0.4375 0.4375 0.4375  plane waves:     664
 k-point 60 :  -0.4375 0.4375 0.4375  plane waves:     667

 maximum and minimum number of plane-waves per node :       677      652

 maximum number of plane-waves:       677
 maximum index in each direction: 
   IXMAX=    6   IYMAX=    6   IZMAX=    6
   IXMIN=   -6   IYMIN=   -6   IZMIN=   -6


 serial   3D FFT for wavefunctions
 parallel 3D FFT for charge:
    minimum data exchange during FFTs selected (reduces bandwidth)


 total amount of memory used by VASP MPI-rank0    34114. kBytes
=======================================================================

   base      :      30000. kBytes
   nonl-proj :       2632. kBytes
   fftplans  :        247. kBytes
   grid      :        561. kBytes
   one-center:          6. kBytes
   wavefun   :        668. kBytes
 
     INWAV:  cpu time    0.0000: real time    0.0003
 Broyden mixing: mesh for mixing (old mesh)
   NGX = 13   NGY = 13   NGZ = 13
  (NGX  = 36   NGY  = 36   NGZ  = 36)
  gives a total of   2197 points

 initial charge density was supplied:
 charge density of overlapping atoms calculated
 number of electron       8.0000000 magnetization 
 keeping initial charge density in first step


--------------------------------------------------------------------------------------------------------


 Maximum index for augmentation-charges          676 (set IRDMAX)


--------------------------------------------------------------------------------------------------------


 First call to EWALD:  gamma=   0.500
 Maximum number of real-space cells 3x 3x 3
 Maximum number of reciprocal cells 3x 3x 3

    FEWALD:  cpu time    0.0080: real time    0.0055


--------------------------------------- Iteration      1(   1)  ---------------------------------------


    POTLOK:  cpu time    0.0320: real time    0.0465
    SETDIJ:  cpu time    0.0040: real time    0.0048
     EDDAV:  cpu time    0.6320: real time    0.6416
       DOS:  cpu time    0.0040: real time    0.0031
    --------------------------------------------
      LOOP:  cpu time    0.6720: real time    0.6966

 eigenvalue-minimisations  :   960
 total energy-change (2. order) : 0.3218434E+01  (-0.2567393E+03)
 number of electron       8.0000000 magnetization 
 augmentation part        8.0000000 magnetization 

 Free energy of the ion-electron system (eV)
  ---------------------------------------------------
  alpha Z        PSCENC =         3.01393669
  Ewald energy   TEWEN  =      -220.34009184
  -Hartree energ DENC   =       -12.71258349
  -exchange      EXHF   =         0.00000000
  -V(xc)+E(xc)   XCENC  =       -19.01950989
  PAW double counting   =        65.95520812      -30.76852678
  entropy T*S    EENTRO =        -0.01169799
  eigenvalues    EBANDS =        10.97044484
  atomic energy  EATOM  =       206.13125414
  Solvation  Ediel_sol  =         0.00000000
  ---------------------------------------------------
  free energy    TOTEN  =         3.21843379 eV

  energy without entropy =        3.23013178  energy(sigma->0) =        3.22428278


--------------------------------------------------------------------------------------------------------




--------------------------------------- Iteration      1(   2)  ---------------------------------------


     EDDAV:  cpu time    0.9360: real time    0.9419
       DOS:  cpu time    0.0000: real time    0.0027
    --------------------------------------------
      LOOP:  cpu time    0.9400: real time    0.9444

 eigenvalue-minimisations  :  1512
 total energy-change (2. order) :-0.1392321E+02  (-0.1364024E+02)
 number of electron       8.0000000 magnetization 
 augmentation part        8.0000000 magnetization 

 Free energy of the ion-electron system (eV)
  ---------------------------------------------------
  alpha Z        PSCENC =         3.01393669
  Ewald energy   TEWEN  =      -220.34009184
  -Hartree energ DENC   =       -12.71258349
  -exchange      EXHF   =         0.00000000
  -V(xc)+E(xc)   XCENC  =       -19.01950989
  PAW double counting   =        65.95520812      -30.76852678
  entropy T*S    EENTRO =        -0.00000055
  eigenvalues    EBANDS =        -2.96446394
  atomic energy  EATOM  =       206.13125414
  Solvation  Ediel_sol  =         0.00000000
  ---------------------------------------------------
  free energy    TOTEN  =       -10.70477755 eV

  energy without entropy =      -10.70477700  energy(sigma->0) =      -10.70477727


--------------------------------------------------------------------------------------------------------




--------------------------------------- Iteration      1(   3)  ---------------------------------------


     EDDAV:  cpu time    0.7760: real time    0.7794
       DOS:  cpu time    0.0040: real time    0.0033
    --------------------------------------------
      LOOP:  cpu time    0.7760: real time    0.7829

 eigenvalue-minimisations  :  1216
 total energy-change (2. order) :-0.1827243E+00  (-0.1827242E+00)
 number of electron       8.0000000 magnetization 
 augmentation part        8.0000000 magnetization 

 Free energy of the ion-electron system (eV)
  ---------------------------------------------------
  alpha Z        PSCENC =         3.01393669
  Ewald energy   TEWEN  =      -220.34009184
  -Hartree energ DENC   =       -12.71258349
  -exchange      EXHF   =         0.00000000
  -V(xc)+E(xc)   XCENC  =       -19.01950989
  PAW double counting   =        65.95520812      -30.76852678
  entropy T*S    EENTRO =        -0.00000033
  eigenvalues    EBANDS =        -3.14718842
  atomic energy  EATOM  =       206.13125414
  Solvation  Ediel_sol  =         0.00000000
  ---------------------------------------------------
  free energy    TOTEN  =       -10.88750180 eV

  energy without entropy =      -10.88750148  energy(sigma->0) =      -10.88750164


--------------------------------------------------------------------------------------------------------




--------------------------------------- Iteration      1(   4)  ---------------------------------------


     EDDAV:  cpu time    0.9840: real time    0.9877
       DOS:  cpu time    0.0000: real time    0.0075
    --------------------------------------------
      LOOP:  cpu time    0.9840: real time    0.9951

 eigenvalue-minimisations  :  1592
 total energy-change (2. order) :-0.8528520E-03  (-0.8528518E-03)
 number of electron       8.0000000 magnetization 
 augmentation part        8.0000000 magnetization 

 Free energy of the ion-electron system (eV)
  ---------------------------------------------------
  alpha Z        PSCENC =         3.01393669
  Ewald energy   TEWEN  =      -220.34009184
  -Hartree energ DENC   =       -12.71258349
  -exchange      EXHF   =         0.00000000
  -V(xc)+E(xc)   XCENC  =       -19.01950989
  PAW double counting   =        65.95520812      -30.76852678
  entropy T*S    EENTRO =        -0.00000032
  eigenvalues    EBANDS =        -3.14804127
  atomic energy  EATOM  =       206.13125414
  Solvation  Ediel_sol  =         0.00000000
  ---------------------------------------------------
  free energy    TOTEN  =       -10.88835465 eV

  energy without entropy =      -10.88835433  energy(sigma->0) =      -10.88835449


--------------------------------------------------------------------------------------------------------




--------------------------------------- Iteration      1(   5)  ---------------------------------------


     EDDAV:  cpu time    0.8240: real time    0.8258
       DOS:  cpu time    0.0000: real time    0.0029
    CHARGE:  cpu time    0.0560: real time    0.0561
    MIXING:  cpu time    0.0040: real time    0.0020
    --------------------------------------------
      LOOP:  cpu time    0.8840: real time    0.8869

 eigenvalue-minimisations  :  1304
 total energy-change (2. order) :-0.5148867E-06  (-0.5154120E-06)
 number of electron       8.0000007 magnetization 
 augmentation part       -0.4665956 magnetization 

 Broyden mixing:
  rms(total) = 0.27435E+00    rms(broyden)= 0.27435E+00
  rms(prec ) = 0.77180E+00
  weight for this iteration     100.00

 Free energy of the ion-electron system (eV)
  ---------------------------------------------------
  alpha Z        PSCENC =         3.01393669
  Ewald energy   TEWEN  =      -220.34009184
  -Hartree energ DENC   =       -12.71258349
  -exchange      EXHF   =         0.00000000
  -V(xc)+E(xc)   XCENC  =       -19.01950989
  PAW double counting   =        65.95520812      -30.76852678
  entropy T*S    EENTRO =        -0.00000032
  eigenvalues    EBANDS =        -3.14804178
  atomic energy  EATOM  =       206.13125414
  Solvation  Ediel_sol  =         0.00000000
  ---------------------------------------------------
  free energy    TOTEN  =       -10.88835517 eV

  energy without entropy =      -10.88835484  energy(sigma->0) =      -10.88835501


--------------------------------------------------------------------------------------------------------




--------------------------------------- Iteration      1(   6)  ---------------------------------------


    POTLOK:  cpu time    0.0240: real time    0.0299
    SETDIJ:  cpu time    0.0040: real time    0.0047
     EDDAV:  cpu time    0.7520: real time    0.7546
       DOS:  cpu time    0.0040: real time    0.0030
    CHARGE:  cpu time    0.0560: real time    0.0557
    MIXING:  cpu time    0.0000: real time    0.0017
    --------------------------------------------
      LOOP:  cpu time    0.8440: real time    0.8494

 eigenvalue-minimisations  :  1192
 total energy-change (2. order) : 0.8316493E-01  (-0.5030823E-02)
 number of electron       8.0000007 magnetization 
 augmentation part       -0.4622526 magnetization 

 Broyden mixing:
  rms(total) = 0.16521E+00    rms(broyden)= 0.16521E+00
  rms(prec ) = 0.46346E+00
  weight for this iteration     100.00

 eigenvalues of (default mixing * dielectric matrix)
  average eigenvalue GAMMA=   2.4948
  2.4948

 Free energy of the ion-electron system (eV)
  ---------------------------------------------------
  alpha Z        PSCENC =         3.01393669
  Ewald energy   TEWEN  =      -220.34009184
  -Hartree energ DENC   =       -14.02298249
  -exchange      EXHF   =         0.00000000
  -V(xc)+E(xc)   XCENC  =       -18.81526907
  PAW double counting   =        68.59952345      -33.48435610
  entropy T*S    EENTRO =        -0.00000154
  eigenvalues    EBANDS =        -1.88720348
  atomic energy  EATOM  =       206.13125414
  Solvation  Ediel_sol  =         0.00000000
  ---------------------------------------------------
  free energy    TOTEN  =       -10.80519023 eV

  energy without entropy =      -10.80518870  energy(sigma->0) =      -10.80518947


--------------------------------------------------------------------------------------------------------




--------------------------------------- Iteration      1(   7)  ---------------------------------------


    POTLOK:  cpu time    0.0240: real time    0.0282
    SETDIJ:  cpu time    0.0080: real time    0.0047
     EDDAV:  cpu time    0.7560: real time    0.7578
       DOS:  cpu time    0.0040: real time    0.0031
    CHARGE:  cpu time    0.0520: real time    0.0544
    MIXING:  cpu time    0.0040: real time    0.0016
    --------------------------------------------
      LOOP:  cpu time    0.8440: real time    0.8510

 eigenvalue-minimisations  :  1200
 total energy-change (2. order) : 0.4159156E-01  (-0.1040352E-01)
 number of electron       8.0000007 magnetization 
 augmentation part       -0.4570551 magnetization 

 Broyden mixing:
  rms(total) = 0.13065E-01    rms(broyden)= 0.13065E-01
  rms(prec ) = 0.33489E-01
  weight for this iteration     100.00

 eigenvalues of (default mixing * dielectric matrix)
  average eigenvalue GAMMA=   2.4879
  2.4879  2.4879

 Free energy of the ion-electron system (eV)
  ---------------------------------------------------
  alpha Z        PSCENC =         3.01393669
  Ewald energy   TEWEN  =      -220.34009184
  -Hartree energ DENC   =       -16.23524262
  -exchange      EXHF   =         0.00000000
  -V(xc)+E(xc)   XCENC  =       -18.46275027
  PAW double counting   =        72.01250446      -36.98723605
  entropy T*S    EENTRO =        -0.00001007
  eigenvalues    EBANDS =         0.10403688
  atomic energy  EATOM  =       206.13125414
  Solvation  Ediel_sol  =         0.00000000
  ---------------------------------------------------
  free energy    TOTEN  =       -10.76359868 eV

  energy without entropy =      -10.76358860  energy(sigma->0) =      -10.76359364


--------------------------------------------------------------------------------------------------------




--------------------------------------- Iteration      1(   8)  ---------------------------------------


    POTLOK:  cpu time    0.0240: real time    0.0335
    SETDIJ:  cpu time    0.0040: real time    0.0047
     EDDAV:  cpu time    0.7040: real time    0.7055
       DOS:  cpu time    0.0040: real time    0.0030
    CHARGE:  cpu time    0.0560: real time    0.0552
    MIXING:  cpu time    0.0000: real time    0.0017
    --------------------------------------------
      LOOP:  cpu time    0.7920: real time    0.8025

 eigenvalue-minimisations  :  1104
 total energy-change (2. order) :-0.1346602E-02  (-0.3342132E-03)
 number of electron       8.0000007 magnetization 
 augmentation part       -0.4579047 magnetization 

 Broyden mixing:
  rms(total) = 0.25527E-02    rms(broyden)= 0.25527E-02
  rms(prec ) = 0.84066E-02
  weight for this iteration     100.00

 eigenvalues of (default mixing * dielectric matrix)
  average eigenvalue GAMMA=   2.1373
  1.2838  2.8352  2.2927

 Free energy of the ion-electron system (eV)
  ---------------------------------------------------
  alpha Z        PSCENC =         3.01393669
  Ewald energy   TEWEN  =      -220.34009184
  -Hartree energ DENC   =       -16.19880406
  -exchange      EXHF   =         0.00000000
  -V(xc)+E(xc)   XCENC  =       -18.46071305
  PAW double counting   =        71.19735649      -36.14747082
  entropy T*S    EENTRO =        -0.00000777
  eigenvalues    EBANDS =         0.03959494
  atomic energy  EATOM  =       206.13125414
  Solvation  Ediel_sol  =         0.00000000
  ---------------------------------------------------
  free energy    TOTEN  =       -10.76494528 eV

  energy without entropy =      -10.76493751  energy(sigma->0) =      -10.76494140


--------------------------------------------------------------------------------------------------------




--------------------------------------- Iteration      1(   9)  ---------------------------------------


    POTLOK:  cpu time    0.0240: real time    0.0283
    SETDIJ:  cpu time    0.0040: real time    0.0047
     EDDAV:  cpu time    0.5520: real time    0.5508
       DOS:  cpu time    0.0040: real time    0.0030
    --------------------------------------------
      LOOP:  cpu time    0.5840: real time    0.5867

 eigenvalue-minimisations  :   776
 total energy-change (2. order) :-0.1234835E-03  (-0.1252948E-04)
 number of electron       8.0000007 magnetization 
 augmentation part       -0.4579047 magnetization 

 Free energy of the ion-electron system (eV)
  ---------------------------------------------------
  alpha Z        PSCENC =         3.01393669
  Ewald energy   TEWEN  =      -220.34009184
  -Hartree energ DENC   =       -16.23983464
  -exchange      EXHF   =         0.00000000
  -V(xc)+E(xc)   XCENC  =       -18.45424837
  PAW double counting   =        71.15441088      -36.10365866
  entropy T*S    EENTRO =        -0.00000761
  eigenvalues    EBANDS =         0.07317065
  atomic energy  EATOM  =       206.13125414
  Solvation  Ediel_sol  =         0.00000000
  ---------------------------------------------------
  free energy    TOTEN  =       -10.76506876 eV

  energy without entropy =      -10.76506115  energy(sigma->0) =      -10.76506496


--------------------------------------------------------------------------------------------------------




 average (electrostatic) potential at core
  the test charge radii are     0.9892
  (the norm of the test charge is              1.0000)
       1 -84.4405       2 -84.4405
 
 
 
 E-fermi :   5.1669     XC(G=0):  -8.9889     alpha+bet :-10.7370


 k-point     1 :       0.0625    0.0625    0.0625
  band No.  band energies     occupation 
      1      -6.4232      2.00000
      2       4.2166      2.00000
      3       4.6959      1.99913
      4       4.6959      1.99913
      5       7.0499      0.00000
      6       7.3965      0.00000
      7       7.3965      0.00000
      8       7.6402      0.00000

 k-point     2 :       0.1875    0.0625    0.0625
  band No.  band energies     occupation 
      1      -6.1770      2.00000
      2       2.7445      2.00000
      3       3.9667      2.00000
      4       4.5803      1.99997
      5       7.0955      0.00000
      6       7.6267      0.00000
      7       7.8472      0.00000
      8       9.1598      0.00000

 k-point     3 :       0.3125    0.0625    0.0625
  band No.  band energies     occupation 
      1      -5.5854      2.00000
      2       0.6785      2.00000
      3       3.5003      2.00000
      4       4.1534      2.00000
      5       6.6578      0.00000
      6       8.1180      0.00000
      7       8.3791      0.00000
      8      10.8448      0.00000

 k-point     4 :       0.4375    0.0625    0.0625
  band No.  band energies     occupation 
      1      -4.7722      2.00000
      2      -1.0497      2.00000
      3       3.2864      2.00000
      4       3.7779      2.00000
      5       6.3525      0.00000
      6       8.2388      0.00000
      7       8.2543      0.00000
      8      12.2580      0.00000

 k-point     5 :      -0.4375    0.0625    0.0625
  band No.  band energies     occupation 
      1      -4.3810      2.00000
      2      -1.6751      2.00000
      3       3.3229      2.00000
      4       3.5806      2.00000
      5       6.2781      0.00000
      6       8.0768      0.00000
      7       8.3234      0.00000
      8      12.4298      0.00000

 k-point     6 :      -0.3125    0.0625    0.0625
  band No.  band energies     occupation 
      1      -5.0481      2.00000
      2      -0.5425      2.00000
      3       3.5858      2.00000
      4       3.6074      2.00000
      5       6.4469      0.00000
      6       8.0460      0.00000
      7       8.5291      0.00000
      8      11.4394      0.00000

 k-point     7 :      -0.1875    0.0625    0.0625
  band No.  band energies     occupation 
      1      -5.8167      2.00000
      2       1.3539      2.00000
      3       3.8698      2.00000
      4       4.0193      2.00000
      5       6.8183      0.00000
      6       7.8160      0.00000
      7       8.5120      0.00000
      8      10.1517      0.00000

 k-point     8 :      -0.0625    0.0625    0.0625
  band No.  band energies     occupation 
      1      -6.2994      2.00000
      2       3.4557      2.00000
      3       4.3152      2.00000
      4       4.4356      2.00000
      5       7.1143      0.00000
      6       7.4165      0.00000
      7       7.9198      0.00000
      8       8.4127      0.00000

 k-point     9 :       0.1875    0.1875    0.0625
  band No.  band energies     occupation 
      1      -6.0530      2.00000
      2       2.5570      2.00000
      3       3.8087      2.00000
      4       3.8583      2.00000
      5       6.7459      0.00000
      6       8.0881      0.00000
      7       8.7075      0.00000
      8       9.0576      0.00000

 k-point    10 :       0.3125    0.1875    0.0625
  band No.  band energies     occupation 
      1      -5.5722      2.00000
      2       1.1465      2.00000
      3       2.9173      2.00000
      4       3.6229      2.00000
      5       6.8966      0.00000
      6       8.2054      0.00000
      7       9.2103      0.00000
      8       9.4594      0.00000

 k-point    11 :       0.4375    0.1875    0.0625
  band No.  band energies     occupation 
      1      -4.8048      2.00000
      2      -0.5401      2.00000
      3       2.4255      2.00000
      4       3.2585      2.00000
      5       7.0297      0.00000
      6       8.3246      0.00000
      7       9.4935      0.00000
      8       9.8727      0.00000

 k-point    12 :      -0.4375    0.1875    0.0625
  band No.  band energies     occupation 
      1      -4.1324      2.00000
      2      -1.6199      2.00000
      3       2.1481      2.00000
      4       3.1770      2.00000
      5       7.0408      0.00000
      6       8.1531      0.00000
      7       9.3879      0.00000
      8      11.6884      0.00000

 k-point    13 :      -0.3125    0.1875    0.0625
  band No.  band energies     occupation 
      1      -4.5338      2.00000
      2      -1.0072      2.00000
      3       2.0971      2.00000
      4       3.4308      2.00000
      5       7.2341      0.00000
      6       8.1257      0.00000
      7       9.3170      0.00000
      8      11.0046      0.00000

 k-point    14 :      -0.1875    0.1875    0.0625
  band No.  band energies     occupation 
      1      -5.3466      2.00000
      2       0.5547      2.00000
      3       2.4116      2.00000
      4       3.8871      2.00000
      5       7.5370      0.00000
      6       7.9353      0.00000
      7       9.1802      0.00000
      8       9.7121      0.00000

 k-point    15 :      -0.0625    0.1875    0.0625
  band No.  band energies     occupation 
      1      -5.9336      2.00000
      2       1.9532      2.00000
      3       3.4397      2.00000
      4       4.2238      2.00000
      5       7.2118      0.00000
      6       7.6539      0.00000
      7       8.5389      0.00000
      8       9.5984      0.00000

 k-point    16 :       0.3125    0.3125    0.0625
  band No.  band energies     occupation 
      1      -5.2036      2.00000
      2       0.6179      2.00000
      3       2.7885      2.00000
      4       2.8993      2.00000
      5       6.0115      0.00000
      6       7.5912      0.00000
      7      10.3986      0.00000
      8      10.5728      0.00000

 k-point    17 :       0.4375    0.3125    0.0625
  band No.  band energies     occupation 
      1      -4.5168      2.00000
      2      -0.5296      2.00000
      3       2.0785      2.00000
      4       2.5866      2.00000
      5       6.3101      0.00000
      6       7.4487      0.00000
      7      10.3700      0.00000
      8      11.4888      0.00000

 k-point    18 :      -0.4375    0.3125    0.0625
  band No.  band energies     occupation 
      1      -3.7116      2.00000
      2      -1.6092      2.00000
      3       1.3164      2.00000
      4       2.5564      2.00000
      5       6.5393      0.00000
      6       8.9924      0.00000
      7       9.9757      0.00000
      8      11.4051      0.00000

 k-point    19 :      -0.3125    0.3125    0.0625
  band No.  band energies     occupation 
      1      -3.7817      2.00000
      2      -1.5191      2.00000
      3       1.0062      2.00000
      4       2.8664      2.00000
      5       6.8888      0.00000
      6       9.6249      0.00000
      7      10.7521      0.00000
      8      11.2737      0.00000

 k-point    20 :      -0.1875    0.3125    0.0625
  band No.  band energies     occupation 
      1      -4.5885      2.00000
      2      -0.6184      2.00000
      3       1.5394      2.00000
      4       3.3931      2.00000
      5       7.3916      0.00000
      6       8.5948      0.00000
      7       9.8602      0.00000
      8      10.2308      0.00000

 k-point    21 :      -0.0625    0.3125    0.0625
  band No.  band energies     occupation 
      1      -5.2448      2.00000
      2       0.0420      2.00000
      3       2.9924      2.00000
      4       3.7938      2.00000
      5       6.9666      0.00000
      6       8.0143      0.00000
      7       8.8287      0.00000
      8      10.4411      0.00000

 k-point    22 :       0.4375    0.4375    0.0625
  band No.  band energies     occupation 
      1      -3.9150      2.00000
      2      -1.3354      2.00000
      3       2.1626      2.00000
      4       2.3509      2.00000
      5       5.6719      0.00036
      6       6.3682      0.00000
      7      12.5177      0.00000
      8      12.5823      0.00000

 k-point    23 :      -0.4375    0.4375    0.0625
  band No.  band energies     occupation 
      1      -3.0868      2.00000
      2      -2.2490      2.00000
      3       1.6718      2.00000
      4       2.1382      2.00000
      5       6.0825      0.00000
      6       6.7546      0.00000
      7      12.3251      0.00000
      8      13.1705      0.00000

 k-point    24 :      -0.3125    0.4375    0.0625
  band No.  band energies     occupation 
      1      -3.1979      2.00000
      2      -2.0811      2.00000
      3       1.0258      2.00000
      4       2.4247      2.00000
      5       6.4101      0.00000
      6       8.8395      0.00000
      7      10.9161      0.00000
      8      11.9227      0.00000

 k-point    25 :      -0.1875    0.4375    0.0625
  band No.  band energies     occupation 
      1      -3.8962      2.00000
      2      -1.6216      2.00000
      3       1.4669      2.00000
      4       2.9692      2.00000
      5       6.9771      0.00000
      6       8.8124      0.00000
      7      10.2315      0.00000
      8      11.4596      0.00000

 k-point    26 :      -0.0625    0.4375    0.0625
  band No.  band energies     occupation 
      1      -4.4485      2.00000
      2      -1.4230      2.00000
      3       2.8113      2.00000
      4       3.4928      2.00000
      5       6.7484      0.00000
      6       8.0146      0.00000
      7       8.6973      0.00000
      8      12.0093      0.00000

 k-point    27 :      -0.4375   -0.4375    0.0625
  band No.  band energies     occupation 
      1      -3.1281      2.00000
      2      -2.2611      2.00000
      3       2.0364      2.00000
      4       2.2387      2.00000
      5       5.6862      0.00024
      6       6.0234      0.00000
      7      13.5105      0.00000
      8      13.5294      0.00000

 k-point    28 :      -0.3125   -0.4375    0.0625
  band No.  band energies     occupation 
      1      -3.8406      2.00000
      2      -1.3957      2.00000
      3       1.8109      2.00000
      4       2.2856      2.00000
      5       6.1508      0.00000
      6       6.9986      0.00000
      7      11.3266      0.00000
      8      12.5432      0.00000

 k-point    29 :      -0.1875   -0.4375    0.0625
  band No.  band energies     occupation 
      1      -4.2823      2.00000
      2      -1.0823      2.00000
      3       1.8270      2.00000
      4       2.8292      2.00000
      5       6.7749      0.00000
      6       9.0795      0.00000
      7       9.3074      0.00000
      8      10.4558      0.00000

 k-point    30 :      -0.3125   -0.3125    0.0625
  band No.  band energies     occupation 
      1      -4.6105      2.00000
      2      -0.3683      2.00000
      3       2.4142      2.00000
      4       2.5730      2.00000
      5       5.7790      0.00002
      6       6.9082      0.00000
      7      11.4419      0.00000
      8      11.5687      0.00000

 k-point    31 :      -0.1875   -0.3125    0.0625
  band No.  band energies     occupation 
      1      -5.0975      2.00000
      2       0.3211      2.00000
      3       2.4548      2.00000
      4       3.0427      2.00000
      5       6.5655      0.00000
      6       8.0285      0.00000
      7       9.5084      0.00000
      8      10.4464      0.00000

 k-point    32 :      -0.1875   -0.1875    0.0625
  band No.  band energies     occupation 
      1      -5.6864      2.00000
      2       1.6008      2.00000
      3       3.2781      2.00000
      4       3.3188      2.00000
      5       6.3475      0.00000
      6       8.2444      0.00000
      7       9.4807      0.00000
      8       9.6111      0.00000

 k-point    33 :       0.1875    0.1875    0.1875
  band No.  band energies     occupation 
      1      -6.0564      2.00000
      2       2.0838      2.00000
      3       4.2917      2.00000
      4       4.2917      2.00000
      5       6.6510      0.00000
      6       7.9710      0.00000
      7       7.9710      0.00000
      8       9.7371      0.00000

 k-point    34 :       0.3125    0.1875    0.1875
  band No.  band energies     occupation 
      1      -5.6969      2.00000
      2       1.2519      2.00000
      3       2.9171      2.00000
      4       4.2958      2.00000
      5       7.3027      0.00000
      6       8.0938      0.00000
      7       8.3401      0.00000
      8      10.0765      0.00000

 k-point    35 :       0.4375    0.1875    0.1875
  band No.  band energies     occupation 
      1      -5.0153      2.00000
      2      -0.0449      2.00000
      3       1.9303      2.00000
      4       3.8365      2.00000
      5       7.2877      0.00000
      6       8.8056      0.00000
      7       8.9624      0.00000
      8      10.3739      0.00000

 k-point    36 :      -0.4375    0.1875    0.1875
  band No.  band energies     occupation 
      1      -4.2141      2.00000
      2      -1.3813      2.00000
      3       1.7561      2.00000
      4       3.3547      2.00000
      5       6.8999      0.00000
      6       8.8981      0.00000
      7       9.2280      0.00000
      8      12.1556      0.00000

 k-point    37 :      -0.3125    0.1875    0.1875
  band No.  band energies     occupation 
      1      -4.1987      2.00000
      2      -1.4082      2.00000
      3       2.0189      2.00000
      4       3.0684      2.00000
      5       6.6871      0.00000
      6       8.9183      0.00000
      7       9.5558      0.00000
      8      10.4431      0.00000

 k-point    38 :      -0.1875    0.1875    0.1875
  band No.  band energies     occupation 
      1      -4.9978      2.00000
      2      -0.0480      2.00000
      3       2.5878      2.00000
      4       3.0526      2.00000
      5       6.6416      0.00000
      6       8.5927      0.00000
      7       9.2966      0.00000
      8       9.8569      0.00000

 k-point    39 :       0.3125    0.3125    0.1875
  band No.  band energies     occupation 
      1      -5.4618      2.00000
      2       0.6442      2.00000
      3       3.3300      2.00000
      4       3.4365      2.00000
      5       6.9367      0.00000
      6       8.0874      0.00000
      7       9.1498      0.00000
      8       9.6103      0.00000

 k-point    40 :       0.4375    0.3125    0.1875
  band No.  band energies     occupation 
      1      -4.8894      2.00000
      2      -0.1295      2.00000
      3       1.9829      2.00000
      4       3.2524      2.00000
      5       7.4507      0.00000
      6       8.2837      0.00000
      7       9.0062      0.00000
      8      10.2922      0.00000

 k-point    41 :      -0.4375    0.3125    0.1875
  band No.  band energies     occupation 
      1      -4.0826      2.00000
      2      -1.1668      2.00000
      3       1.2734      2.00000
      4       2.7486      2.00000
      5       7.8602      0.00000
      6       8.3551      0.00000
      7       9.5355      0.00000
      8      11.3178      0.00000

 k-point    42 :      -0.3125    0.3125    0.1875
  band No.  band energies     occupation 
      1      -3.6495      2.00000
      2      -1.7126      2.00000
      3       1.2611      2.00000
      4       2.4708      2.00000
      5       7.4579      0.00000
      6       8.6488      0.00000
      7      10.2666      0.00000
      8      11.3716      0.00000

 k-point    43 :      -0.1875    0.3125    0.1875
  band No.  band energies     occupation 
      1      -4.3359      2.00000
      2      -0.8166      2.00000
      3       1.6574      2.00000
      4       2.6294      2.00000
      5       7.2100      0.00000
      6       8.3690      0.00000
      7       9.0894      0.00000
      8      11.4150      0.00000

 k-point    44 :       0.4375    0.4375    0.1875
  band No.  band energies     occupation 
      1      -4.4347      2.00000
      2      -0.7492      2.00000
      3       1.9489      2.00000
      4       2.7483      2.00000
      5       6.3173      0.00000
      6       8.2156      0.00000
      7      10.1657      0.00000
      8      10.6333      0.00000

 k-point    45 :      -0.4375    0.4375    0.1875
  band No.  band energies     occupation 
      1      -3.7025      2.00000
      2      -1.5228      2.00000
      3       1.4469      2.00000
      4       2.1494      2.00000
      5       7.0352      0.00000
      6       7.9987      0.00000
      7       9.9237      0.00000
      8      12.4724      0.00000

 k-point    46 :      -0.3125    0.4375    0.1875
  band No.  band energies     occupation 
      1      -2.9742      2.00000
      2      -2.2284      2.00000
      3       1.1737      2.00000
      4       1.7036      2.00000
      5       8.0921      0.00000
      6       9.0117      0.00000
      7       9.4713      0.00000
      8      10.4596      0.00000

 k-point    47 :      -0.1875    0.4375    0.1875
  band No.  band energies     occupation 
      1      -3.5242      2.00000
      2      -1.7063      2.00000
      3       1.1542      2.00000
      4       2.1304      2.00000
      5       8.1802      0.00000
      6       8.5580      0.00000
      7       9.2249      0.00000
      8      11.5503      0.00000

 k-point    48 :      -0.4375   -0.4375    0.1875
  band No.  band energies     occupation 
      1      -3.1162      2.00000
      2      -2.1959      2.00000
      3       1.2648      2.00000
      4       2.4327      2.00000
      5       5.9391      0.00000
      6       7.6953      0.00000
      7      12.2804      0.00000
      8      12.3507      0.00000

 k-point    49 :      -0.3125   -0.4375    0.1875
  band No.  band energies     occupation 
      1      -3.0234      2.00000
      2      -2.2350      2.00000
      3       1.3495      2.00000
      4       1.8875      2.00000
      5       6.9467      0.00000
      6       7.8029      0.00000
      7      10.8708      0.00000
      8      11.9045      0.00000

 k-point    50 :      -0.3125   -0.3125    0.1875
  band No.  band energies     occupation 
      1      -3.7901      2.00000
      2      -1.4781      2.00000
      3       1.4955      2.00000
      4       2.5390      2.00000
      5       6.0706      0.00000
      6       7.8707      0.00000
      7      11.2414      0.00000
      8      11.4738      0.00000

 k-point    51 :       0.3125    0.3125    0.3125
  band No.  band energies     occupation 
      1      -5.3662      2.00000
      2       0.0371      2.00000
      3       3.9050      2.00000
      4       3.9050      2.00000
      5       6.2084      0.00000
      6       8.2469      0.00000
      7       8.2469      0.00000
      8      11.8223      0.00000

 k-point    52 :       0.4375    0.3125    0.3125
  band No.  band energies     occupation 
      1      -4.9300      2.00000
      2      -0.5214      2.00000
      3       2.5466      2.00000
      4       3.8210      2.00000
      5       6.9671      0.00000
      6       8.4500      0.00000
      7       8.5046      0.00000
      8      11.3633      0.00000

 k-point    53 :      -0.4375    0.3125    0.3125
  band No.  band energies     occupation 
      1      -4.2106      2.00000
      2      -1.0885      2.00000
      3       1.1989      2.00000
      4       3.2977      2.00000
      5       6.8718      0.00000
      6       9.7621      0.00000
      7       9.8589      0.00000
      8      11.0783      0.00000

 k-point    54 :      -0.3125    0.3125    0.3125
  band No.  band energies     occupation 
      1      -3.4707      2.00000
      2      -1.8323      2.00000
      3       0.9111      2.00000
      4       2.8011      2.00000
      5       6.3516      0.00000
      6      10.0257      0.00000
      7      10.9427      0.00000
      8      11.0349      0.00000

 k-point    55 :       0.4375    0.4375    0.3125
  band No.  band energies     occupation 
      1      -4.6480      2.00000
      2      -1.0278      2.00000
      3       2.8308      2.00000
      4       3.3152      2.00000
      5       6.7939      0.00000
      6       8.1633      0.00000
      7       8.9704      0.00000
      8      10.8673      0.00000

 k-point    56 :      -0.4375    0.4375    0.3125
  band No.  band energies     occupation 
      1      -4.0870      2.00000
      2      -1.4048      2.00000
      3       1.6617      2.00000
      4       2.8960      2.00000
      5       7.5677      0.00000
      6       8.0330      0.00000
      7      10.2536      0.00000
      8      10.6706      0.00000

 k-point    57 :      -0.3125    0.4375    0.3125
  band No.  band energies     occupation 
      1      -3.3420      2.00000
      2      -1.9080      2.00000
      3       0.9956      2.00000
      4       2.2563      2.00000
      5       7.3518      0.00000
      6       9.4727      0.00000
      7      10.1506      0.00000
      8      10.6040      0.00000

 k-point    58 :      -0.4375   -0.4375    0.3125
  band No.  band energies     occupation 
      1      -3.7649      2.00000
      2      -1.6800      2.00000
      3       1.3268      2.00000
      4       2.8923      2.00000
      5       6.4777      0.00000
      6       9.9292      0.00000
      7      10.1704      0.00000
      8      10.2554      0.00000

 k-point    59 :       0.4375    0.4375    0.4375
  band No.  band energies     occupation 
      1      -4.5718      2.00000
      2      -1.4618      2.00000
      3       3.6958      2.00000
      4       3.6958      2.00000
      5       5.9603      0.00000
      6       8.1655      0.00000
      7       8.1655      0.00000
      8      12.3640      0.00000

 k-point    60 :      -0.4375    0.4375    0.4375
  band No.  band energies     occupation 
      1      -4.2576      2.00000
      2      -1.6376      2.00000
      3       2.5461      2.00000
      4       3.4568      2.00000
      5       6.7709      0.00000
      6       8.2192      0.00000
      7       8.6955      0.00000
      8      12.5614      0.00000


--------------------------------------------------------------------------------------------------------


 soft charge-density along one line, spin component           1
         0         1         2         3         4         5         6         7         8         9
 total charge-density along one line
 
 pseudopotential strength for first ion, spin component:           1
 18.535   0.000  -0.000  -0.000  -0.000   0.000   0.000   0.000
  0.000   0.006   0.000   0.000   0.000  -0.000  -0.000  -0.000
 -0.000   0.000   4.190  -0.000  -0.000  -0.004   0.000   0.000
 -0.000   0.000  -0.000   4.190  -0.000   0.000  -0.004   0.000
 -0.000   0.000  -0.000  -0.000   4.190   0.000   0.000  -0.004
  0.000  -0.000  -0.004   0.000   0.000   0.005  -0.000  -0.000
  0.000  -0.000   0.000  -0.004   0.000  -0.000   0.005  -0.000
  0.000  -0.000   0.000   0.000  -0.004  -0.000  -0.000   0.005
 total augmentation occupancy for first ion, spin component:           1
  1.517  -0.637  -0.000  -0.000   0.000   0.000   0.000   0.000
 -0.637   0.598  -0.000   0.000   0.000   0.000   0.000   0.000
 -0.000   0.000   0.959  -0.000   0.000  -0.488   0.000  -0.000
 -0.000   0.000  -0.000   0.959   0.000   0.000  -0.488  -0.000
  0.000   0.000   0.000   0.000   0.959  -0.000  -0.000  -0.488
  0.000   0.000  -0.488   0.000  -0.000   0.293  -0.000   0.000
  0.000   0.000   0.000  -0.488  -0.000  -0.000   0.293   0.000
  0.000   0.000  -0.000  -0.000  -0.488   0.000   0.000   0.293


------------------------ aborting loop because EDIFF is reached ----------------------------------------


    CHARGE:  cpu time    0.0600: real time    0.0604
    FORLOC:  cpu time    0.0000: real time    0.0008
    FORNL :  cpu time    0.0240: real time    0.0246
    STRESS:  cpu time    0.2800: real time    0.2796
    FORCOR:  cpu time    0.0200: real time    0.0195
    FORHAR:  cpu time    0.0040: real time    0.0044
    MIXING:  cpu time    0.0040: real time    0.0014
    OFIELD:  cpu time    0.0000: real time    0.0004

  FORCE on cell =-STRESS in cart. coord.  units (eV):
  Direction    XX          YY          ZZ          XY          YZ          ZX
  --------------------------------------------------------------------------------------
  Alpha Z     3.01394     3.01394     3.01394
  Ewald     -73.44673   -73.44673   -73.44673    -0.00000    -0.00000     0.00000
  Hartree     5.41725     5.41725     5.41725     0.00000     0.00000     0.00000
  E(xc)     -24.75875   -24.75875   -24.75875    -0.00000    -0.00000    -0.00000
  Local     -30.83224   -30.83224   -30.83224     0.00004     0.00004     0.00004
  n-local    75.99886    78.54029    73.84237     0.95686    -1.04715     0.04447
  augment   -11.66567   -11.66567   -11.66567    -0.00003    -0.00003    -0.00003
  Kinetic    55.59653    54.53615    52.87223     0.89116    -0.98961     0.04912
  Fock        0.00000     0.00000     0.00000     0.00000     0.00000     0.00000
  -------------------------------------------------------------------------------------
  Total      -1.81006    -1.81006    -1.81006    -0.00000     0.00000     0.00000
  in kB     -64.91169   -64.91169   -64.91169    -0.00000     0.00000     0.00000
  external pressure =      -64.91 kB  Pullay stress =        0.00 kB


 VOLUME and BASIS-vectors are now :
 -----------------------------------------------------------------------------
  energy-cutoff  :      350.00
  volume of cell :       44.68
      direct lattice vectors                 reciprocal lattice vectors
     0.000000000  2.816328000  2.816328000    -0.177536139  0.177536139  0.177536139
     2.816328000  0.000000000  2.816328000     0.177536139 -0.177536139  0.177536139
     2.816328000  2.816328000  0.000000000     0.177536139  0.177536139 -0.177536139

  length of vectors
     3.982889254  3.982889254  3.982889254     0.307501613  0.307501613  0.307501613


 FORCES acting on ions
    electron-ion (+dipol)            ewald-force                    non-local-force                 convergence-correction
 -----------------------------------------------------------------------------------------------
   0.846E-06 0.846E-06 0.114E-05   0.753E-14 -.107E-13 0.938E-14   0.115E-16 0.804E-17 -.106E-17   -.484E-08 -.484E-08 -.484E-08
   -.846E-06 -.846E-06 -.114E-05   -.766E-14 0.111E-13 -.961E-14   -.914E-17 -.567E-17 -.402E-17   0.484E-08 0.484E-08 0.484E-08
 -----------------------------------------------------------------------------------------------
   -.553E-13 -.421E-13 -.349E-13   -.121E-15 0.364E-15 -.226E-15   0.237E-17 0.237E-17 -.508E-17   0.605E-14 0.569E-14 -.951E-15
 
 
 POSITION                                       TOTAL-FORCE (eV/Angst)
 -----------------------------------------------------------------------------------
      0.00000      0.00000      0.00000        -0.000000     -0.000000     -0.000000
      1.40816      1.40816      1.40816         0.000000      0.000000      0.000000
 -----------------------------------------------------------------------------------
    total drift:                               -0.000000     -0.000000     -0.000000


--------------------------------------------------------------------------------------------------------



  FREE ENERGIE OF THE ION-ELECTRON SYSTEM (eV)
  ---------------------------------------------------
  free  energy   TOTEN  =       -10.76506876 eV

  energy  without entropy=      -10.76506115  energy(sigma->0) =      -10.76506496
 


--------------------------------------------------------------------------------------------------------


    POTLOK:  cpu time    0.0280: real time    0.0376


--------------------------------------------------------------------------------------------------------




--------------------------------------------------------------------------------------------------------


  
 reached required accuracy - stopping structural energy minimisation
 writing wavefunctions
     LOOP+:  cpu time    8.4040: real time    9.0244
    4ORBIT:  cpu time    0.0000: real time    0.0000

 total amount of memory used by VASP MPI-rank0    34114. kBytes
=======================================================================

   base      :      30000. kBytes
   nonl-proj :       2632. kBytes
   fftplans  :        247. kBytes
   grid      :        561. kBytes
   one-center:          6. kBytes
   wavefun   :        668. kBytes
 
  
  
 General timing and accounting informations for this job:
 ========================================================
  
                  Total CPU time used (sec):       13.424
                            User time (sec):       11.372
                          System time (sec):        2.052
                         Elapsed time (sec):       14.746
  
                   Maximum memory used (kb):        9864.
                   Average memory used (kb):           0.
  
                          Minor page faults:        38197
                          Major page faults:           22
                 Voluntary context switches:        40273
