 running on    8 total cores
 distrk:  each k-point on    8 cores,    1 groups
 distr:  one band on    1 cores,    8 groups
 using from now: INCAR     
 vasp.5.4.4.18Apr17-6-g9f103f2a35 (build Dec 09 2018 21:25:21) complex          
  
 POSCAR found type information on POSCAR  Si
 POSCAR found :  1 types and       2 ions
 scaLAPACK will be used

 ----------------------------------------------------------------------------- 
|                                                                             |
|           W    W    AA    RRRRR   N    N  II  N    N   GGGG   !!!           |
|           W    W   A  A   R    R  NN   N  II  NN   N  G    G  !!!           |
|           W    W  A    A  R    R  N N  N  II  N N  N  G       !!!           |
|           W WW W  AAAAAA  RRRRR   N  N N  II  N  N N  G  GGG   !            |
|           WW  WW  A    A  R   R   N   NN  II  N   NN  G    G                |
|           W    W  A    A  R    R  N    N  II  N    N   GGGG   !!!           |
|                                                                             |
|      For optimal performance we recommend to set                            |
|        NCORE= 4 - approx SQRT( number of cores)                             |
|      NCORE specifies how many cores store one orbital (NPAR=cpu/NCORE).     |
|      This setting can  greatly improve the performance of VASP for DFT.     |
|      The default,   NCORE=1            might be grossly inefficient         |
|      on modern multi-core architectures or massively parallel machines.     |
|      Do your own testing !!!!                                               |
|      Unfortunately you need to use the default for GW and RPA calculations. |
|      (for HF NCORE is supported but not extensively tested yet)             |
|                                                                             |
 ----------------------------------------------------------------------------- 

 LDA part: xc-table for Pade appr. of Perdew
 POSCAR, INCAR and KPOINTS ok, starting setup
 FFT: planning ...
 WAVECAR not read
 entering main loop
       N       E                     dE             d eps       ncg     rms          rms(c)
DAV:   1     0.321843378570E+01    0.32184E+01   -0.25674E+03   960   0.550E+02
DAV:   2    -0.107047775479E+02   -0.13923E+02   -0.13640E+02  1512   0.694E+01
DAV:   3    -0.108875018009E+02   -0.18272E+00   -0.18272E+00  1216   0.993E+00
DAV:   4    -0.108883546529E+02   -0.85285E-03   -0.85285E-03  1592   0.727E-01
DAV:   5    -0.108883551678E+02   -0.51489E-06   -0.51541E-06  1304   0.150E-02    0.274E+00
DAV:   6    -0.108051902336E+02    0.83165E-01   -0.50308E-02  1192   0.117E+00    0.165E+00
DAV:   7    -0.107635986768E+02    0.41592E-01   -0.10404E-01  1200   0.181E+00    0.131E-01
DAV:   8    -0.107649452787E+02   -0.13466E-02   -0.33421E-03  1104   0.416E-01    0.255E-02
DAV:   9    -0.107650687622E+02   -0.12348E-03   -0.12529E-04   776   0.867E-02
   1 F= -.10765069E+02 E0= -.10765065E+02  d E =-.107651E+02
 curvature:   0.00 expect dE= 0.000E+00 dE for cont linesearch  0.000E+00
 trial: gam= 0.00000 g(F)=  0.315E-46 g(S)=  0.000E+00 ort = 0.000E+00 (trialstep = 0.100E+01)
 search vector abs. value=  0.100E-09
 reached required accuracy - stopping structural energy minimisation
 writing wavefunctions
