<?xml version="1.0" encoding="ISO-8859-1"?>
<modeling>
 <generator>
  <i name="program" type="string">vasp </i>
  <i name="version" type="string">5.4.4.18Apr17-6-g9f103f2a35  </i>
  <i name="subversion" type="string">(build Dec 09 2018 21:25:21) complex            parallel </i>
  <i name="platform" type="string">IFC18.0.1.163_CrayMPICH7.7.0_MKL18.0.1.163 </i>
  <i name="date" type="string">2019 04 01 </i>
  <i name="time" type="string">16:00:57 </i>
 </generator>
 <incar>
  <i type="string" name="PREC">normal</i>
  <i type="int" name="IBRION">     2</i>
  <i name="EDIFF">      0.00040000</i>
  <i name="EDIFFG">     -0.01000000</i>
  <i type="int" name="NSW">    15</i>
  <i type="int" name="ISIF">     2</i>
  <i name="ENCUT">    350.00000000</i>
  <i type="int" name="NBANDS">     8</i>
  <i type="logical" name="LREAL"> F  </i>
  <i type="int" name="ISMEAR">     0</i>
  <i name="SIGMA">      0.20000000</i>
  <v type="int" name="KPOINT_BSE">    -1     0     0     0</v>
 </incar>
 <structure name="primitive_cell" >
  <crystal>
   <varray name="basis" >
    <v>       0.00000000       2.81632800       2.81632800 </v>
    <v>       2.81632800       0.00000000       2.81632800 </v>
    <v>       2.81632800       2.81632800       0.00000000 </v>
   </varray>
   <i name="volume">     44.67655677 </i>
   <varray name="rec_basis" >
    <v>      -0.17753614       0.17753614       0.17753614 </v>
    <v>       0.17753614      -0.17753614       0.17753614 </v>
    <v>       0.17753614       0.17753614      -0.17753614 </v>
   </varray>
  </crystal>
  <varray name="positions" >
   <v>       0.00000000       0.00000000       0.00000000 </v>
   <v>       0.25000000       0.25000000       0.25000000 </v>
  </varray>
 </structure>
 <varray name="primitive_index" >
  <v type="int" >        1 </v>
  <v type="int" >        2 </v>
 </varray>
 <kpoints>
  <generation param="Monkhorst-Pack">
   <v type="int" name="divisions">       8        8        8 </v>
   <v name="usershift">      0.00000000       0.00000000       0.00000000 </v>
   <v name="genvec1">      0.12500000       0.00000000      -0.00000000 </v>
   <v name="genvec2">      0.00000000       0.12500000       0.00000000 </v>
   <v name="genvec3">     -0.00000000      -0.00000000       0.12500000 </v>
   <v name="shift">      0.50000000       0.50000000       0.50000000 </v>
  </generation>
  <varray name="kpointlist" >
   <v>       0.06250000       0.06250000       0.06250000 </v>
   <v>       0.18750000       0.06250000       0.06250000 </v>
   <v>       0.31250000       0.06250000       0.06250000 </v>
   <v>       0.43750000       0.06250000       0.06250000 </v>
   <v>      -0.43750000       0.06250000       0.06250000 </v>
   <v>      -0.31250000       0.06250000       0.06250000 </v>
   <v>      -0.18750000       0.06250000       0.06250000 </v>
   <v>      -0.06250000       0.06250000       0.06250000 </v>
   <v>       0.18750000       0.18750000       0.06250000 </v>
   <v>       0.31250000       0.18750000       0.06250000 </v>
   <v>       0.43750000       0.18750000       0.06250000 </v>
   <v>      -0.43750000       0.18750000       0.06250000 </v>
   <v>      -0.31250000       0.18750000       0.06250000 </v>
   <v>      -0.18750000       0.18750000       0.06250000 </v>
   <v>      -0.06250000       0.18750000       0.06250000 </v>
   <v>       0.31250000       0.31250000       0.06250000 </v>
   <v>       0.43750000       0.31250000       0.06250000 </v>
   <v>      -0.43750000       0.31250000       0.06250000 </v>
   <v>      -0.31250000       0.31250000       0.06250000 </v>
   <v>      -0.18750000       0.31250000       0.06250000 </v>
   <v>      -0.06250000       0.31250000       0.06250000 </v>
   <v>       0.43750000       0.43750000       0.06250000 </v>
   <v>      -0.43750000       0.43750000       0.06250000 </v>
   <v>      -0.31250000       0.43750000       0.06250000 </v>
   <v>      -0.18750000       0.43750000       0.06250000 </v>
   <v>      -0.06250000       0.43750000       0.06250000 </v>
   <v>      -0.43750000      -0.43750000       0.06250000 </v>
   <v>      -0.31250000      -0.43750000       0.06250000 </v>
   <v>      -0.18750000      -0.43750000       0.06250000 </v>
   <v>      -0.31250000      -0.31250000       0.06250000 </v>
   <v>      -0.18750000      -0.31250000       0.06250000 </v>
   <v>      -0.18750000      -0.18750000       0.06250000 </v>
   <v>       0.18750000       0.18750000       0.18750000 </v>
   <v>       0.31250000       0.18750000       0.18750000 </v>
   <v>       0.43750000       0.18750000       0.18750000 </v>
   <v>      -0.43750000       0.18750000       0.18750000 </v>
   <v>      -0.31250000       0.18750000       0.18750000 </v>
   <v>      -0.18750000       0.18750000       0.18750000 </v>
   <v>       0.31250000       0.31250000       0.18750000 </v>
   <v>       0.43750000       0.31250000       0.18750000 </v>
   <v>      -0.43750000       0.31250000       0.18750000 </v>
   <v>      -0.31250000       0.31250000       0.18750000 </v>
   <v>      -0.18750000       0.31250000       0.18750000 </v>
   <v>       0.43750000       0.43750000       0.18750000 </v>
   <v>      -0.43750000       0.43750000       0.18750000 </v>
   <v>      -0.31250000       0.43750000       0.18750000 </v>
   <v>      -0.18750000       0.43750000       0.18750000 </v>
   <v>      -0.43750000      -0.43750000       0.18750000 </v>
   <v>      -0.31250000      -0.43750000       0.18750000 </v>
   <v>      -0.31250000      -0.31250000       0.18750000 </v>
   <v>       0.31250000       0.31250000       0.31250000 </v>
   <v>       0.43750000       0.31250000       0.31250000 </v>
   <v>      -0.43750000       0.31250000       0.31250000 </v>
   <v>      -0.31250000       0.31250000       0.31250000 </v>
   <v>       0.43750000       0.43750000       0.31250000 </v>
   <v>      -0.43750000       0.43750000       0.31250000 </v>
   <v>      -0.31250000       0.43750000       0.31250000 </v>
   <v>      -0.43750000      -0.43750000       0.31250000 </v>
   <v>       0.43750000       0.43750000       0.43750000 </v>
   <v>      -0.43750000       0.43750000       0.43750000 </v>
  </varray>
  <varray name="weights" >
   <v>       0.00390625 </v>
   <v>       0.01171875 </v>
   <v>       0.01171875 </v>
   <v>       0.01171875 </v>
   <v>       0.01171875 </v>
   <v>       0.01171875 </v>
   <v>       0.01171875 </v>
   <v>       0.01171875 </v>
   <v>       0.01171875 </v>
   <v>       0.02343750 </v>
   <v>       0.02343750 </v>
   <v>       0.02343750 </v>
   <v>       0.02343750 </v>
   <v>       0.02343750 </v>
   <v>       0.02343750 </v>
   <v>       0.01171875 </v>
   <v>       0.02343750 </v>
   <v>       0.02343750 </v>
   <v>       0.02343750 </v>
   <v>       0.02343750 </v>
   <v>       0.02343750 </v>
   <v>       0.01171875 </v>
   <v>       0.02343750 </v>
   <v>       0.02343750 </v>
   <v>       0.02343750 </v>
   <v>       0.02343750 </v>
   <v>       0.01171875 </v>
   <v>       0.02343750 </v>
   <v>       0.02343750 </v>
   <v>       0.01171875 </v>
   <v>       0.02343750 </v>
   <v>       0.01171875 </v>
   <v>       0.00390625 </v>
   <v>       0.01171875 </v>
   <v>       0.01171875 </v>
   <v>       0.01171875 </v>
   <v>       0.01171875 </v>
   <v>       0.01171875 </v>
   <v>       0.01171875 </v>
   <v>       0.02343750 </v>
   <v>       0.02343750 </v>
   <v>       0.02343750 </v>
   <v>       0.02343750 </v>
   <v>       0.01171875 </v>
   <v>       0.02343750 </v>
   <v>       0.02343750 </v>
   <v>       0.02343750 </v>
   <v>       0.01171875 </v>
   <v>       0.02343750 </v>
   <v>       0.01171875 </v>
   <v>       0.00390625 </v>
   <v>       0.01171875 </v>
   <v>       0.01171875 </v>
   <v>       0.01171875 </v>
   <v>       0.01171875 </v>
   <v>       0.02343750 </v>
   <v>       0.02343750 </v>
   <v>       0.01171875 </v>
   <v>       0.00390625 </v>
   <v>       0.01171875 </v>
  </varray>
 </kpoints>
 <parameters>
  <separator name="general" >
   <i type="string" name="SYSTEM">unknown system</i>
   <i type="logical" name="LCOMPAT"> F  </i>
  </separator>
  <separator name="electronic" >
   <i type="string" name="PREC">normal</i>
   <i name="ENMAX">    350.00000000</i>
   <i name="ENAUG">    322.06900000</i>
   <i name="EDIFF">      0.00040000</i>
   <i type="int" name="IALGO">    38</i>
   <i type="int" name="IWAVPR">    11</i>
   <i type="int" name="NBANDS">     8</i>
   <i name="NELECT">      8.00000000</i>
   <i type="int" name="TURBO">     0</i>
   <i type="int" name="IRESTART">     0</i>
   <i type="int" name="NREBOOT">     0</i>
   <i type="int" name="NMIN">     0</i>
   <i name="EREF">      0.00000000</i>
   <separator name="electronic smearing" >
    <i type="int" name="ISMEAR">     0</i>
    <i name="SIGMA">      0.20000000</i>
    <i name="KSPACING">      0.50000000</i>
    <i type="logical" name="KGAMMA"> T  </i>
   </separator>
   <separator name="electronic projectors" >
    <i type="logical" name="LREAL"> F  </i>
    <v name="ROPT">      0.00000000</v>
    <i type="int" name="LMAXPAW">  -100</i>
    <i type="int" name="LMAXMIX">     2</i>
    <i type="logical" name="NLSPLINE"> F  </i>
   </separator>
   <separator name="electronic startup" >
    <i type="int" name="ISTART">     0</i>
    <i type="int" name="ICHARG">     2</i>
    <i type="int" name="INIWAV">     1</i>
   </separator>
   <separator name="electronic spin" >
    <i type="int" name="ISPIN">     1</i>
    <i type="logical" name="LNONCOLLINEAR"> F  </i>
    <v name="MAGMOM">      1.00000000      1.00000000</v>
    <i name="NUPDOWN">     -1.00000000</i>
    <i type="logical" name="LSORBIT"> F  </i>
    <v name="SAXIS">      0.00000000      0.00000000      1.00000000</v>
    <i type="logical" name="LSPIRAL"> F  </i>
    <v name="QSPIRAL">      0.00000000      0.00000000      0.00000000</v>
    <i type="logical" name="LZEROZ"> F  </i>
   </separator>
   <separator name="electronic exchange-correlation" >
    <i type="logical" name="LASPH"> F  </i>
    <i type="logical" name="LMETAGGA"> F  </i>
   </separator>
   <separator name="electronic convergence" >
    <i type="int" name="NELM">    60</i>
    <i type="int" name="NELMDL">    -5</i>
    <i type="int" name="NELMIN">     2</i>
    <i name="ENINI">    350.00000000</i>
    <separator name="electronic convergence detail" >
     <i type="logical" name="LDIAG"> T  </i>
     <i type="logical" name="LSUBROT"> F  </i>
     <i name="WEIMIN">      0.00100000</i>
     <i name="EBREAK">      0.00001250</i>
     <i name="DEPER">      0.30000000</i>
     <i type="int" name="NRMM">     4</i>
     <i name="TIME">      0.40000000</i>
    </separator>
   </separator>
   <separator name="electronic mixer" >
    <i name="AMIX">      0.40000000</i>
    <i name="BMIX">      1.00000000</i>
    <i name="AMIN">      0.10000000</i>
    <i name="AMIX_MAG">      1.60000000</i>
    <i name="BMIX_MAG">      1.00000000</i>
    <separator name="electronic mixer details" >
     <i type="int" name="IMIX">     4</i>
     <i type="logical" name="MIXFIRST"> F  </i>
     <i type="int" name="MAXMIX">   -45</i>
     <i name="WC">    100.00000000</i>
     <i type="int" name="INIMIX">     1</i>
     <i type="int" name="MIXPRE">     1</i>
     <i type="int" name="MREMOVE">     5</i>
    </separator>
   </separator>
   <separator name="electronic dipolcorrection" >
    <i type="logical" name="LDIPOL"> F  </i>
    <i type="logical" name="LMONO"> F  </i>
    <i type="int" name="IDIPOL">     0</i>
    <i name="EPSILON">      1.00000000</i>
    <v name="DIPOL">   -100.00000000   -100.00000000   -100.00000000</v>
    <i name="EFIELD">      0.00000000</i>
   </separator>
  </separator>
  <separator name="grids" >
   <i type="int" name="NGX">    18</i>
   <i type="int" name="NGY">    18</i>
   <i type="int" name="NGZ">    18</i>
   <i type="int" name="NGXF">    36</i>
   <i type="int" name="NGYF">    36</i>
   <i type="int" name="NGZF">    36</i>
   <i type="logical" name="ADDGRID"> F  </i>
  </separator>
  <separator name="ionic" >
   <i type="int" name="NSW">    15</i>
   <i type="int" name="IBRION">     2</i>
   <i type="int" name="MDALGO">     0</i>
   <i type="int" name="ISIF">     2</i>
   <i name="PSTRESS">      0.00000000</i>
   <i name="EDIFFG">     -0.01000000</i>
   <i type="int" name="NFREE">     1</i>
   <i name="POTIM">      0.50000000</i>
   <i name="SMASS">     -3.00000000</i>
   <i name="SCALEE">      1.00000000</i>
  </separator>
  <separator name="ionic md" >
   <i name="TEBEG">      0.00010000</i>
   <i name="TEEND">      0.00010000</i>
   <i type="int" name="NBLOCK">     1</i>
   <i type="int" name="KBLOCK">    15</i>
   <i type="int" name="NPACO">   256</i>
   <i name="APACO">     16.00000000</i>
  </separator>
  <separator name="symmetry" >
   <i type="int" name="ISYM">     2</i>
   <i name="SYMPREC">      0.00001000</i>
  </separator>
  <separator name="dos" >
   <i type="int" name="LORBIT">     0</i>
   <v name="RWIGS">     -1.00000000</v>
   <i type="int" name="NEDOS">   301</i>
   <i name="EMIN">     10.00000000</i>
   <i name="EMAX">    -10.00000000</i>
   <i name="EFERMI">      0.00000000</i>
  </separator>
  <separator name="writing" >
   <i type="int" name="NWRITE">     2</i>
   <i type="logical" name="LWAVE"> T  </i>
   <i type="logical" name="LDOWNSAMPLE"> F  </i>
   <i type="logical" name="LCHARG"> T  </i>
   <i type="logical" name="LPARD"> F  </i>
   <i type="logical" name="LVTOT"> F  </i>
   <i type="logical" name="LVHAR"> F  </i>
   <i type="logical" name="LELF"> F  </i>
   <i type="logical" name="LOPTICS"> F  </i>
   <v name="STM">      0.00000000      0.00000000      0.00000000      0.00000000      0.00000000      0.00000000      0.00000000</v>
  </separator>
  <separator name="performance" >
   <i type="int" name="NPAR">     8</i>
   <i type="int" name="NSIM">     4</i>
   <i type="int" name="NBLK">    -1</i>
   <i type="logical" name="LPLANE"> T  </i>
   <i type="logical" name="LSCALAPACK"> T  </i>
   <i type="logical" name="LSCAAWARE"> F  </i>
   <i type="logical" name="LSCALU"> F  </i>
   <i type="logical" name="LASYNC"> F  </i>
   <i type="logical" name="LORBITALREAL"> F  </i>
  </separator>
  <separator name="miscellaneous" >
   <i type="int" name="IDIOT">     3</i>
   <i type="int" name="ISPECIAL">     0</i>
   <i type="logical" name="LMUSIC"> F  </i>
   <v name="POMASS">     28.08500000</v>
   <v name="DARWINR">      0.00000000</v>
   <v name="DARWINV">      1.00000000</v>
   <i type="logical" name="LCORR"> T  </i>
  </separator>
  <i type="logical" name="GGA_COMPAT"> T  </i>
  <i type="logical" name="LBERRY"> F  </i>
  <i type="int" name="ICORELEVEL">     0</i>
  <i type="logical" name="LDAU"> F  </i>
  <i type="int" name="I_CONSTRAINED_M">     0</i>
  <separator name="electronic exchange-correlation" >
   <i type="string" name="GGA">--</i>
   <i type="int" name="VOSKOWN">     0</i>
   <i type="logical" name="LHFCALC"> F  </i>
   <i type="string" name="PRECFOCK"></i>
   <i type="logical" name="LSYMGRAD"> F  </i>
   <i type="logical" name="LHFONE"> F  </i>
   <i type="logical" name="LRHFCALC"> F  </i>
   <i type="logical" name="LTHOMAS"> F  </i>
   <i type="logical" name="LMODELHF"> F  </i>
   <i name="ENCUT4O">     -1.00000000</i>
   <i type="int" name="EXXOEP">     0</i>
   <i type="int" name="FOURORBIT">     0</i>
   <i name="AEXX">      0.00000000</i>
   <i name="HFALPHA">      0.00000000</i>
   <i name="MCALPHA">      0.00000000</i>
   <i name="ALDAX">      1.00000000</i>
   <i name="AGGAX">      1.00000000</i>
   <i name="ALDAC">      1.00000000</i>
   <i name="AGGAC">      1.00000000</i>
   <i type="int" name="NKREDX">     1</i>
   <i type="int" name="NKREDY">     1</i>
   <i type="int" name="NKREDZ">     1</i>
   <i type="logical" name="SHIFTRED"> F  </i>
   <i type="logical" name="ODDONLY"> F  </i>
   <i type="logical" name="EVENONLY"> F  </i>
   <i type="int" name="LMAXFOCK">     0</i>
   <i type="int" name="NMAXFOCKAE">     0</i>
   <i type="logical" name="LFOCKAEDFT"> F  </i>
   <i name="HFSCREEN">      0.00000000</i>
   <i name="HFSCREENC">      0.00000000</i>
   <i type="int" name="NBANDSGWLOW">     0</i>
  </separator>
  <separator name="vdW DFT" >
   <i type="logical" name="LUSE_VDW"> F  </i>
   <i name="Zab_VDW">     -0.84910000</i>
   <i name="PARAM1">      0.12340000</i>
   <i name="PARAM2">      1.00000000</i>
   <i name="PARAM3">      0.00000000</i>
  </separator>
  <separator name="model GW" >
   <i type="int" name="MODEL_GW">     0</i>
   <i name="MODEL_EPS0">     13.40296703</i>
   <i name="MODEL_ALPHA">      1.00000000</i>
  </separator>
  <separator name="linear response parameters" >
   <i type="logical" name="LEPSILON"> F  </i>
   <i type="logical" name="LRPA"> F  </i>
   <i type="logical" name="LNABLA"> F  </i>
   <i type="logical" name="LVEL"> F  </i>
   <i type="int" name="KINTER">     0</i>
   <i name="CSHIFT">      0.10000000</i>
   <i name="OMEGAMAX">     -1.00000000</i>
   <i name="DEG_THRESHOLD">      0.00200000</i>
   <i name="RTIME">     -0.10000000</i>
   <i name="WPLASMAI">      0.00000000</i>
   <v name="DFIELD">      0.00000000      0.00000000      0.00000000</v>
   <v name="WPLASMA">      0.00000000      0.00000000      0.00000000      0.00000000      0.00000000      0.00000000      0.00000000      0.00000000      0.00000000</v>
  </separator>
  <separator name="orbital magnetization" >
   <i type="logical" name="NUCIND"> F  </i>
   <v name="MAGPOS">      0.00000000      0.00000000      0.00000000</v>
   <i type="logical" name="LNICSALL"> T  </i>
   <i type="logical" name="ORBITALMAG"> F  </i>
   <i type="logical" name="LMAGBLOCH"> F  </i>
   <i type="logical" name="LCHIMAG"> F  </i>
   <i type="logical" name="LGAUGE"> T  </i>
   <i type="int" name="MAGATOM">     0</i>
   <v name="MAGDIPOL">      0.00000000      0.00000000      0.00000000</v>
   <v name="AVECCONST">      0.00000000      0.00000000      0.00000000</v>
  </separator>
  <separator name="response functions" >
   <i type="logical" name="LADDER"> F  </i>
   <i type="logical" name="LRPAFORCE"> F  </i>
   <i type="logical" name="LFXC"> F  </i>
   <i type="logical" name="LHARTREE"> T  </i>
   <i type="int" name="IBSE">     0</i>
   <v type="int" name="KPOINT">    -1     0     0     0</v>
   <i type="logical" name="LTCTE"> F  </i>
   <i type="logical" name="LTETE"> F  </i>
   <i type="logical" name="LTRIPLET"> F  </i>
   <i type="logical" name="LFXCEPS"> F  </i>
   <i type="logical" name="LFXHEG"> F  </i>
   <i type="int" name="NATURALO">     2</i>
   <i type="logical" name="L2ORDER"> F  </i>
   <i type="logical" name="LMP2LT"> F  </i>
   <i type="logical" name="LUSEW"> F  </i>
   <i name="ENCUTGW">     -2.00000000</i>
   <i name="ENCUTGWSOFT">     -2.00000000</i>
   <i name="ENCUTLF">     -1.00000000</i>
   <i type="int" name="LMAXMP2">    -1</i>
   <i name="SCISSOR">      0.00000000</i>
   <i type="int" name="NOMEGA">     0</i>
   <i type="int" name="NOMEGAR">     0</i>
   <i type="int" name="NBANDSGW">    -1</i>
   <i type="int" name="NBANDSO">    -1</i>
   <i type="int" name="NBANDSV">    -1</i>
   <i type="int" name="NELM">     1</i>
   <i type="int" name="NELMHF">     1</i>
   <i type="int" name="DIM">     3</i>
   <i type="int" name="ANTIRES">     0</i>
   <i name="OMEGAMAX">    -30.00000000</i>
   <i name="OMEGAMIN">    -30.00000000</i>
   <i name="OMEGATL">   -200.00000000</i>
   <i type="int" name="OMEGAGRID">   140</i>
   <i name="CSHIFT">     -0.10000000</i>
   <i type="logical" name="SELFENERGY"> F  </i>
   <i type="logical" name="LSPECTRAL"> F  </i>
   <i type="logical" name="LSPECTRALGW"> F  </i>
   <i type="logical" name="LSINGLES"> F  </i>
   <i type="logical" name="LFERMIGW"> F  </i>
   <i type="logical" name="ODDONLYGW"> F  </i>
   <i type="logical" name="EVENONLYGW"> F  </i>
   <i type="int" name="NKREDLFX">     1</i>
   <i type="int" name="NKREDLFY">     1</i>
   <i type="int" name="NKREDLFZ">     1</i>
   <i type="int" name="MAXMEM">  2800</i>
   <i type="int" name="TELESCOPE">     0</i>
   <i type="int" name="TAUPAR">     1</i>
   <i type="int" name="OMEGAPAR">    -1</i>
   <i name="LAMBDA">      1.00000000</i>
  </separator>
  <separator name="External order field" >
   <i name="OFIELD_KAPPA">      0.00000000</i>
   <v name="OFIELD_K">      0.00000000      0.00000000      0.00000000</v>
   <i name="OFIELD_Q6_NEAR">      0.00000000</i>
   <i name="OFIELD_Q6_FAR">      0.00000000</i>
   <i name="OFIELD_A">      0.00000000</i>
  </separator>
 </parameters>
 <atominfo>
  <atoms>       2 </atoms>
  <types>       1 </types>
  <array name="atoms" >
   <dimension dim="1">ion</dimension>
   <field type="string">element</field>
   <field type="int">atomtype</field>
   <set>
    <rc><c>Si</c><c>   1</c></rc>
    <rc><c>Si</c><c>   1</c></rc>
   </set>
  </array>
  <array name="atomtypes" >
   <dimension dim="1">type</dimension>
   <field type="int">atomspertype</field>
   <field type="string">element</field>
   <field>mass</field>
   <field>valence</field>
   <field type="string">pseudopotential</field>
   <set>
    <rc><c>   2</c><c>Si</c><c>     28.08500000</c><c>      4.00000000</c><c> PAW_PBE Si 05Jan2001                   </c></rc>
   </set>
  </array>
 </atominfo>
 <structure name="initialpos" >
  <crystal>
   <varray name="basis" >
    <v>       0.00000000       2.81632800       2.81632800 </v>
    <v>       2.81632800       0.00000000       2.81632800 </v>
    <v>       2.81632800       2.81632800       0.00000000 </v>
   </varray>
   <i name="volume">     44.67655677 </i>
   <varray name="rec_basis" >
    <v>      -0.17753614       0.17753614       0.17753614 </v>
    <v>       0.17753614      -0.17753614       0.17753614 </v>
    <v>       0.17753614       0.17753614      -0.17753614 </v>
   </varray>
  </crystal>
  <varray name="positions" >
   <v>       0.00000000       0.00000000       0.00000000 </v>
   <v>       0.25000000       0.25000000       0.25000000 </v>
  </varray>
 </structure>
 <calculation>
  <scstep>
   <time name="dav">    0.63    0.64</time>
   <time name="total">    0.67    0.70</time>
   <energy>
    <i name="alphaZ">      3.01393669 </i>
    <i name="ewald">   -220.34009184 </i>
    <i name="hartreedc">    -12.71258349 </i>
    <i name="XCdc">    -19.01950989 </i>
    <i name="pawpsdc">     65.95520812 </i>
    <i name="pawaedc">    -30.76852678 </i>
    <i name="eentropy">     -0.01169799 </i>
    <i name="bandstr">     10.97044484 </i>
    <i name="atom">    206.13125414 </i>
    <i name="e_fr_energy">      3.21843379 </i>
    <i name="e_wo_entrp">      3.23013178 </i>
    <i name="e_0_energy">      3.22428278 </i>
   </energy>
  </scstep>
  <scstep>
   <time name="dav">    0.94    0.94</time>
   <time name="total">    0.94    0.94</time>
   <energy>
    <i name="e_fr_energy">    -10.70477755 </i>
    <i name="e_wo_entrp">    -10.70477700 </i>
    <i name="e_0_energy">    -10.70477727 </i>
   </energy>
  </scstep>
  <scstep>
   <time name="dav">    0.78    0.78</time>
   <time name="total">    0.78    0.78</time>
   <energy>
    <i name="e_fr_energy">    -10.88750180 </i>
    <i name="e_wo_entrp">    -10.88750148 </i>
    <i name="e_0_energy">    -10.88750164 </i>
   </energy>
  </scstep>
  <scstep>
   <time name="dav">    0.98    0.99</time>
   <time name="total">    0.98    1.00</time>
   <energy>
    <i name="e_fr_energy">    -10.88835465 </i>
    <i name="e_wo_entrp">    -10.88835433 </i>
    <i name="e_0_energy">    -10.88835449 </i>
   </energy>
  </scstep>
  <scstep>
   <time name="dav">    0.82    0.83</time>
   <time name="total">    0.88    0.89</time>
   <energy>
    <i name="e_fr_energy">    -10.88835517 </i>
    <i name="e_wo_entrp">    -10.88835484 </i>
    <i name="e_0_energy">    -10.88835501 </i>
   </energy>
  </scstep>
  <scstep>
   <time name="dav">    0.75    0.75</time>
   <time name="total">    0.84    0.85</time>
   <energy>
    <i name="e_fr_energy">    -10.80519023 </i>
    <i name="e_wo_entrp">    -10.80518870 </i>
    <i name="e_0_energy">    -10.80518947 </i>
   </energy>
  </scstep>
  <scstep>
   <time name="dav">    0.76    0.76</time>
   <time name="total">    0.84    0.85</time>
   <energy>
    <i name="e_fr_energy">    -10.76359868 </i>
    <i name="e_wo_entrp">    -10.76358860 </i>
    <i name="e_0_energy">    -10.76359364 </i>
   </energy>
  </scstep>
  <scstep>
   <time name="dav">    0.70    0.71</time>
   <time name="total">    0.79    0.80</time>
   <energy>
    <i name="e_fr_energy">    -10.76494528 </i>
    <i name="e_wo_entrp">    -10.76493751 </i>
    <i name="e_0_energy">    -10.76494140 </i>
   </energy>
  </scstep>
  <scstep>
   <time name="dav">    0.55    0.55</time>
   <time name="total">    0.58    0.59</time>
   <energy>
    <i name="alphaZ">      3.01393669 </i>
    <i name="ewald">   -220.34009184 </i>
    <i name="hartreedc">    -16.23983464 </i>
    <i name="XCdc">    -18.45424837 </i>
    <i name="pawpsdc">     71.15441088 </i>
    <i name="pawaedc">    -36.10365866 </i>
    <i name="eentropy">     -0.00000761 </i>
    <i name="bandstr">      0.07317065 </i>
    <i name="atom">    206.13125414 </i>
    <i name="e_fr_energy">    -10.76506876 </i>
    <i name="e_wo_entrp">    -10.76506115 </i>
    <i name="e_0_energy">    -10.76506496 </i>
   </energy>
  </scstep>
  <structure>
   <crystal>
    <varray name="basis" >
     <v>       0.00000000       2.81632800       2.81632800 </v>
     <v>       2.81632800       0.00000000       2.81632800 </v>
     <v>       2.81632800       2.81632800       0.00000000 </v>
    </varray>
    <i name="volume">     44.67655677 </i>
    <varray name="rec_basis" >
     <v>      -0.17753614       0.17753614       0.17753614 </v>
     <v>       0.17753614      -0.17753614       0.17753614 </v>
     <v>       0.17753614       0.17753614      -0.17753614 </v>
    </varray>
   </crystal>
   <varray name="positions" >
    <v>       0.00000000       0.00000000       0.00000000 </v>
    <v>       0.25000000       0.25000000       0.25000000 </v>
   </varray>
  </structure>
  <varray name="forces" >
   <v>      -0.00000000      -0.00000000      -0.00000000 </v>
   <v>       0.00000000       0.00000000       0.00000000 </v>
  </varray>
  <varray name="stress" >
   <v>     -64.91169425      -0.00000000       0.00000000 </v>
   <v>      -0.00000000     -64.91169425       0.00000000 </v>
   <v>       0.00000000       0.00000000     -64.91169425 </v>
  </varray>
  <energy>
   <i name="e_fr_energy">    -10.76506876 </i>
   <i name="e_wo_entrp">    -10.76506496 </i>
   <i name="e_0_energy">     -0.00000761 </i>
  </energy>
  <time name="totalsc">    8.40    9.02</time>
  <eigenvalues>
   <array>
    <dimension dim="1">band</dimension>
    <dimension dim="2">kpoint</dimension>
    <dimension dim="3">spin</dimension>
    <field>eigene</field>
    <field>occ</field>
    <set>
     <set comment="spin 1">
      <set comment="kpoint 1">
       <r>   -6.4232    1.0000 </r>
       <r>    4.2166    1.0000 </r>
       <r>    4.6959    0.9996 </r>
       <r>    4.6959    0.9996 </r>
       <r>    7.0499    0.0000 </r>
       <r>    7.3965    0.0000 </r>
       <r>    7.3965    0.0000 </r>
       <r>    7.6402    0.0000 </r>
      </set>
      <set comment="kpoint 2">
       <r>   -6.1770    1.0000 </r>
       <r>    2.7445    1.0000 </r>
       <r>    3.9667    1.0000 </r>
       <r>    4.5803    1.0000 </r>
       <r>    7.0955    0.0000 </r>
       <r>    7.6267    0.0000 </r>
       <r>    7.8472    0.0000 </r>
       <r>    9.1598    0.0000 </r>
      </set>
      <set comment="kpoint 3">
       <r>   -5.5854    1.0000 </r>
       <r>    0.6785    1.0000 </r>
       <r>    3.5003    1.0000 </r>
       <r>    4.1534    1.0000 </r>
       <r>    6.6578    0.0000 </r>
       <r>    8.1180    0.0000 </r>
       <r>    8.3791    0.0000 </r>
       <r>   10.8448    0.0000 </r>
      </set>
      <set comment="kpoint 4">
       <r>   -4.7722    1.0000 </r>
       <r>   -1.0497    1.0000 </r>
       <r>    3.2864    1.0000 </r>
       <r>    3.7779    1.0000 </r>
       <r>    6.3525    0.0000 </r>
       <r>    8.2388    0.0000 </r>
       <r>    8.2543    0.0000 </r>
       <r>   12.2580    0.0000 </r>
      </set>
      <set comment="kpoint 5">
       <r>   -4.3810    1.0000 </r>
       <r>   -1.6751    1.0000 </r>
       <r>    3.3229    1.0000 </r>
       <r>    3.5806    1.0000 </r>
       <r>    6.2781    0.0000 </r>
       <r>    8.0768    0.0000 </r>
       <r>    8.3234    0.0000 </r>
       <r>   12.4298    0.0000 </r>
      </set>
      <set comment="kpoint 6">
       <r>   -5.0481    1.0000 </r>
       <r>   -0.5425    1.0000 </r>
       <r>    3.5858    1.0000 </r>
       <r>    3.6074    1.0000 </r>
       <r>    6.4469    0.0000 </r>
       <r>    8.0460    0.0000 </r>
       <r>    8.5291    0.0000 </r>
       <r>   11.4394    0.0000 </r>
      </set>
      <set comment="kpoint 7">
       <r>   -5.8167    1.0000 </r>
       <r>    1.3539    1.0000 </r>
       <r>    3.8698    1.0000 </r>
       <r>    4.0193    1.0000 </r>
       <r>    6.8183    0.0000 </r>
       <r>    7.8160    0.0000 </r>
       <r>    8.5120    0.0000 </r>
       <r>   10.1517    0.0000 </r>
      </set>
      <set comment="kpoint 8">
       <r>   -6.2994    1.0000 </r>
       <r>    3.4557    1.0000 </r>
       <r>    4.3152    1.0000 </r>
       <r>    4.4356    1.0000 </r>
       <r>    7.1143    0.0000 </r>
       <r>    7.4165    0.0000 </r>
       <r>    7.9198    0.0000 </r>
       <r>    8.4127    0.0000 </r>
      </set>
      <set comment="kpoint 9">
       <r>   -6.0530    1.0000 </r>
       <r>    2.5570    1.0000 </r>
       <r>    3.8087    1.0000 </r>
       <r>    3.8583    1.0000 </r>
       <r>    6.7459    0.0000 </r>
       <r>    8.0881    0.0000 </r>
       <r>    8.7075    0.0000 </r>
       <r>    9.0576    0.0000 </r>
      </set>
      <set comment="kpoint 10">
       <r>   -5.5722    1.0000 </r>
       <r>    1.1465    1.0000 </r>
       <r>    2.9173    1.0000 </r>
       <r>    3.6229    1.0000 </r>
       <r>    6.8966    0.0000 </r>
       <r>    8.2054    0.0000 </r>
       <r>    9.2103    0.0000 </r>
       <r>    9.4594    0.0000 </r>
      </set>
      <set comment="kpoint 11">
       <r>   -4.8048    1.0000 </r>
       <r>   -0.5401    1.0000 </r>
       <r>    2.4255    1.0000 </r>
       <r>    3.2585    1.0000 </r>
       <r>    7.0297    0.0000 </r>
       <r>    8.3246    0.0000 </r>
       <r>    9.4935    0.0000 </r>
       <r>    9.8727    0.0000 </r>
      </set>
      <set comment="kpoint 12">
       <r>   -4.1324    1.0000 </r>
       <r>   -1.6199    1.0000 </r>
       <r>    2.1481    1.0000 </r>
       <r>    3.1770    1.0000 </r>
       <r>    7.0408    0.0000 </r>
       <r>    8.1531    0.0000 </r>
       <r>    9.3879    0.0000 </r>
       <r>   11.6884    0.0000 </r>
      </set>
      <set comment="kpoint 13">
       <r>   -4.5338    1.0000 </r>
       <r>   -1.0072    1.0000 </r>
       <r>    2.0971    1.0000 </r>
       <r>    3.4308    1.0000 </r>
       <r>    7.2341    0.0000 </r>
       <r>    8.1257    0.0000 </r>
       <r>    9.3170    0.0000 </r>
       <r>   11.0046    0.0000 </r>
      </set>
      <set comment="kpoint 14">
       <r>   -5.3466    1.0000 </r>
       <r>    0.5547    1.0000 </r>
       <r>    2.4116    1.0000 </r>
       <r>    3.8871    1.0000 </r>
       <r>    7.5370    0.0000 </r>
       <r>    7.9353    0.0000 </r>
       <r>    9.1802    0.0000 </r>
       <r>    9.7121    0.0000 </r>
      </set>
      <set comment="kpoint 15">
       <r>   -5.9336    1.0000 </r>
       <r>    1.9532    1.0000 </r>
       <r>    3.4397    1.0000 </r>
       <r>    4.2238    1.0000 </r>
       <r>    7.2118    0.0000 </r>
       <r>    7.6539    0.0000 </r>
       <r>    8.5389    0.0000 </r>
       <r>    9.5984    0.0000 </r>
      </set>
      <set comment="kpoint 16">
       <r>   -5.2036    1.0000 </r>
       <r>    0.6179    1.0000 </r>
       <r>    2.7885    1.0000 </r>
       <r>    2.8993    1.0000 </r>
       <r>    6.0115    0.0000 </r>
       <r>    7.5912    0.0000 </r>
       <r>   10.3986    0.0000 </r>
       <r>   10.5728    0.0000 </r>
      </set>
      <set comment="kpoint 17">
       <r>   -4.5168    1.0000 </r>
       <r>   -0.5296    1.0000 </r>
       <r>    2.0785    1.0000 </r>
       <r>    2.5866    1.0000 </r>
       <r>    6.3101    0.0000 </r>
       <r>    7.4487    0.0000 </r>
       <r>   10.3700    0.0000 </r>
       <r>   11.4888    0.0000 </r>
      </set>
      <set comment="kpoint 18">
       <r>   -3.7116    1.0000 </r>
       <r>   -1.6092    1.0000 </r>
       <r>    1.3164    1.0000 </r>
       <r>    2.5564    1.0000 </r>
       <r>    6.5393    0.0000 </r>
       <r>    8.9924    0.0000 </r>
       <r>    9.9757    0.0000 </r>
       <r>   11.4051    0.0000 </r>
      </set>
      <set comment="kpoint 19">
       <r>   -3.7817    1.0000 </r>
       <r>   -1.5191    1.0000 </r>
       <r>    1.0062    1.0000 </r>
       <r>    2.8664    1.0000 </r>
       <r>    6.8888    0.0000 </r>
       <r>    9.6249    0.0000 </r>
       <r>   10.7521    0.0000 </r>
       <r>   11.2737    0.0000 </r>
      </set>
      <set comment="kpoint 20">
       <r>   -4.5885    1.0000 </r>
       <r>   -0.6184    1.0000 </r>
       <r>    1.5394    1.0000 </r>
       <r>    3.3931    1.0000 </r>
       <r>    7.3916    0.0000 </r>
       <r>    8.5948    0.0000 </r>
       <r>    9.8602    0.0000 </r>
       <r>   10.2308    0.0000 </r>
      </set>
      <set comment="kpoint 21">
       <r>   -5.2448    1.0000 </r>
       <r>    0.0420    1.0000 </r>
       <r>    2.9924    1.0000 </r>
       <r>    3.7938    1.0000 </r>
       <r>    6.9666    0.0000 </r>
       <r>    8.0143    0.0000 </r>
       <r>    8.8287    0.0000 </r>
       <r>   10.4411    0.0000 </r>
      </set>
      <set comment="kpoint 22">
       <r>   -3.9150    1.0000 </r>
       <r>   -1.3354    1.0000 </r>
       <r>    2.1626    1.0000 </r>
       <r>    2.3509    1.0000 </r>
       <r>    5.6719    0.0002 </r>
       <r>    6.3682    0.0000 </r>
       <r>   12.5177    0.0000 </r>
       <r>   12.5823    0.0000 </r>
      </set>
      <set comment="kpoint 23">
       <r>   -3.0868    1.0000 </r>
       <r>   -2.2490    1.0000 </r>
       <r>    1.6718    1.0000 </r>
       <r>    2.1382    1.0000 </r>
       <r>    6.0825    0.0000 </r>
       <r>    6.7546    0.0000 </r>
       <r>   12.3251    0.0000 </r>
       <r>   13.1705    0.0000 </r>
      </set>
      <set comment="kpoint 24">
       <r>   -3.1979    1.0000 </r>
       <r>   -2.0811    1.0000 </r>
       <r>    1.0258    1.0000 </r>
       <r>    2.4247    1.0000 </r>
       <r>    6.4101    0.0000 </r>
       <r>    8.8395    0.0000 </r>
       <r>   10.9161    0.0000 </r>
       <r>   11.9227    0.0000 </r>
      </set>
      <set comment="kpoint 25">
       <r>   -3.8962    1.0000 </r>
       <r>   -1.6216    1.0000 </r>
       <r>    1.4669    1.0000 </r>
       <r>    2.9692    1.0000 </r>
       <r>    6.9771    0.0000 </r>
       <r>    8.8124    0.0000 </r>
       <r>   10.2315    0.0000 </r>
       <r>   11.4596    0.0000 </r>
      </set>
      <set comment="kpoint 26">
       <r>   -4.4485    1.0000 </r>
       <r>   -1.4230    1.0000 </r>
       <r>    2.8113    1.0000 </r>
       <r>    3.4928    1.0000 </r>
       <r>    6.7484    0.0000 </r>
       <r>    8.0146    0.0000 </r>
       <r>    8.6973    0.0000 </r>
       <r>   12.0093    0.0000 </r>
      </set>
      <set comment="kpoint 27">
       <r>   -3.1281    1.0000 </r>
       <r>   -2.2611    1.0000 </r>
       <r>    2.0364    1.0000 </r>
       <r>    2.2387    1.0000 </r>
       <r>    5.6862    0.0001 </r>
       <r>    6.0234    0.0000 </r>
       <r>   13.5105    0.0000 </r>
       <r>   13.5294    0.0000 </r>
      </set>
      <set comment="kpoint 28">
       <r>   -3.8406    1.0000 </r>
       <r>   -1.3957    1.0000 </r>
       <r>    1.8109    1.0000 </r>
       <r>    2.2856    1.0000 </r>
       <r>    6.1508    0.0000 </r>
       <r>    6.9986    0.0000 </r>
       <r>   11.3266    0.0000 </r>
       <r>   12.5432    0.0000 </r>
      </set>
      <set comment="kpoint 29">
       <r>   -4.2823    1.0000 </r>
       <r>   -1.0823    1.0000 </r>
       <r>    1.8270    1.0000 </r>
       <r>    2.8292    1.0000 </r>
       <r>    6.7749    0.0000 </r>
       <r>    9.0795    0.0000 </r>
       <r>    9.3074    0.0000 </r>
       <r>   10.4558    0.0000 </r>
      </set>
      <set comment="kpoint 30">
       <r>   -4.6105    1.0000 </r>
       <r>   -0.3683    1.0000 </r>
       <r>    2.4142    1.0000 </r>
       <r>    2.5730    1.0000 </r>
       <r>    5.7790    0.0000 </r>
       <r>    6.9082    0.0000 </r>
       <r>   11.4419    0.0000 </r>
       <r>   11.5687    0.0000 </r>
      </set>
      <set comment="kpoint 31">
       <r>   -5.0975    1.0000 </r>
       <r>    0.3211    1.0000 </r>
       <r>    2.4548    1.0000 </r>
       <r>    3.0427    1.0000 </r>
       <r>    6.5655    0.0000 </r>
       <r>    8.0285    0.0000 </r>
       <r>    9.5084    0.0000 </r>
       <r>   10.4464    0.0000 </r>
      </set>
      <set comment="kpoint 32">
       <r>   -5.6864    1.0000 </r>
       <r>    1.6008    1.0000 </r>
       <r>    3.2781    1.0000 </r>
       <r>    3.3188    1.0000 </r>
       <r>    6.3475    0.0000 </r>
       <r>    8.2444    0.0000 </r>
       <r>    9.4807    0.0000 </r>
       <r>    9.6111    0.0000 </r>
      </set>
      <set comment="kpoint 33">
       <r>   -6.0564    1.0000 </r>
       <r>    2.0838    1.0000 </r>
       <r>    4.2917    1.0000 </r>
       <r>    4.2917    1.0000 </r>
       <r>    6.6510    0.0000 </r>
       <r>    7.9710    0.0000 </r>
       <r>    7.9710    0.0000 </r>
       <r>    9.7371    0.0000 </r>
      </set>
      <set comment="kpoint 34">
       <r>   -5.6969    1.0000 </r>
       <r>    1.2519    1.0000 </r>
       <r>    2.9171    1.0000 </r>
       <r>    4.2958    1.0000 </r>
       <r>    7.3027    0.0000 </r>
       <r>    8.0938    0.0000 </r>
       <r>    8.3401    0.0000 </r>
       <r>   10.0765    0.0000 </r>
      </set>
      <set comment="kpoint 35">
       <r>   -5.0153    1.0000 </r>
       <r>   -0.0449    1.0000 </r>
       <r>    1.9303    1.0000 </r>
       <r>    3.8365    1.0000 </r>
       <r>    7.2877    0.0000 </r>
       <r>    8.8056    0.0000 </r>
       <r>    8.9624    0.0000 </r>
       <r>   10.3739    0.0000 </r>
      </set>
      <set comment="kpoint 36">
       <r>   -4.2141    1.0000 </r>
       <r>   -1.3813    1.0000 </r>
       <r>    1.7561    1.0000 </r>
       <r>    3.3547    1.0000 </r>
       <r>    6.8999    0.0000 </r>
       <r>    8.8981    0.0000 </r>
       <r>    9.2280    0.0000 </r>
       <r>   12.1556    0.0000 </r>
      </set>
      <set comment="kpoint 37">
       <r>   -4.1987    1.0000 </r>
       <r>   -1.4082    1.0000 </r>
       <r>    2.0189    1.0000 </r>
       <r>    3.0684    1.0000 </r>
       <r>    6.6871    0.0000 </r>
       <r>    8.9183    0.0000 </r>
       <r>    9.5558    0.0000 </r>
       <r>   10.4431    0.0000 </r>
      </set>
      <set comment="kpoint 38">
       <r>   -4.9978    1.0000 </r>
       <r>   -0.0480    1.0000 </r>
       <r>    2.5878    1.0000 </r>
       <r>    3.0526    1.0000 </r>
       <r>    6.6416    0.0000 </r>
       <r>    8.5927    0.0000 </r>
       <r>    9.2966    0.0000 </r>
       <r>    9.8569    0.0000 </r>
      </set>
      <set comment="kpoint 39">
       <r>   -5.4618    1.0000 </r>
       <r>    0.6442    1.0000 </r>
       <r>    3.3300    1.0000 </r>
       <r>    3.4365    1.0000 </r>
       <r>    6.9367    0.0000 </r>
       <r>    8.0874    0.0000 </r>
       <r>    9.1498    0.0000 </r>
       <r>    9.6103    0.0000 </r>
      </set>
      <set comment="kpoint 40">
       <r>   -4.8894    1.0000 </r>
       <r>   -0.1295    1.0000 </r>
       <r>    1.9829    1.0000 </r>
       <r>    3.2524    1.0000 </r>
       <r>    7.4507    0.0000 </r>
       <r>    8.2837    0.0000 </r>
       <r>    9.0062    0.0000 </r>
       <r>   10.2922    0.0000 </r>
      </set>
      <set comment="kpoint 41">
       <r>   -4.0826    1.0000 </r>
       <r>   -1.1668    1.0000 </r>
       <r>    1.2734    1.0000 </r>
       <r>    2.7486    1.0000 </r>
       <r>    7.8602    0.0000 </r>
       <r>    8.3551    0.0000 </r>
       <r>    9.5355    0.0000 </r>
       <r>   11.3178    0.0000 </r>
      </set>
      <set comment="kpoint 42">
       <r>   -3.6495    1.0000 </r>
       <r>   -1.7126    1.0000 </r>
       <r>    1.2611    1.0000 </r>
       <r>    2.4708    1.0000 </r>
       <r>    7.4579    0.0000 </r>
       <r>    8.6488    0.0000 </r>
       <r>   10.2666    0.0000 </r>
       <r>   11.3716    0.0000 </r>
      </set>
      <set comment="kpoint 43">
       <r>   -4.3359    1.0000 </r>
       <r>   -0.8166    1.0000 </r>
       <r>    1.6574    1.0000 </r>
       <r>    2.6294    1.0000 </r>
       <r>    7.2100    0.0000 </r>
       <r>    8.3690    0.0000 </r>
       <r>    9.0894    0.0000 </r>
       <r>   11.4150    0.0000 </r>
      </set>
      <set comment="kpoint 44">
       <r>   -4.4347    1.0000 </r>
       <r>   -0.7492    1.0000 </r>
       <r>    1.9489    1.0000 </r>
       <r>    2.7483    1.0000 </r>
       <r>    6.3173    0.0000 </r>
       <r>    8.2156    0.0000 </r>
       <r>   10.1657    0.0000 </r>
       <r>   10.6333    0.0000 </r>
      </set>
      <set comment="kpoint 45">
       <r>   -3.7025    1.0000 </r>
       <r>   -1.5228    1.0000 </r>
       <r>    1.4469    1.0000 </r>
       <r>    2.1494    1.0000 </r>
       <r>    7.0352    0.0000 </r>
       <r>    7.9987    0.0000 </r>
       <r>    9.9237    0.0000 </r>
       <r>   12.4724    0.0000 </r>
      </set>
      <set comment="kpoint 46">
       <r>   -2.9742    1.0000 </r>
       <r>   -2.2284    1.0000 </r>
       <r>    1.1737    1.0000 </r>
       <r>    1.7036    1.0000 </r>
       <r>    8.0921    0.0000 </r>
       <r>    9.0117    0.0000 </r>
       <r>    9.4713    0.0000 </r>
       <r>   10.4596    0.0000 </r>
      </set>
      <set comment="kpoint 47">
       <r>   -3.5242    1.0000 </r>
       <r>   -1.7063    1.0000 </r>
       <r>    1.1542    1.0000 </r>
       <r>    2.1304    1.0000 </r>
       <r>    8.1802    0.0000 </r>
       <r>    8.5580    0.0000 </r>
       <r>    9.2249    0.0000 </r>
       <r>   11.5503    0.0000 </r>
      </set>
      <set comment="kpoint 48">
       <r>   -3.1162    1.0000 </r>
       <r>   -2.1959    1.0000 </r>
       <r>    1.2648    1.0000 </r>
       <r>    2.4327    1.0000 </r>
       <r>    5.9391    0.0000 </r>
       <r>    7.6953    0.0000 </r>
       <r>   12.2804    0.0000 </r>
       <r>   12.3507    0.0000 </r>
      </set>
      <set comment="kpoint 49">
       <r>   -3.0234    1.0000 </r>
       <r>   -2.2350    1.0000 </r>
       <r>    1.3495    1.0000 </r>
       <r>    1.8875    1.0000 </r>
       <r>    6.9467    0.0000 </r>
       <r>    7.8029    0.0000 </r>
       <r>   10.8708    0.0000 </r>
       <r>   11.9045    0.0000 </r>
      </set>
      <set comment="kpoint 50">
       <r>   -3.7901    1.0000 </r>
       <r>   -1.4781    1.0000 </r>
       <r>    1.4955    1.0000 </r>
       <r>    2.5390    1.0000 </r>
       <r>    6.0706    0.0000 </r>
       <r>    7.8707    0.0000 </r>
       <r>   11.2414    0.0000 </r>
       <r>   11.4738    0.0000 </r>
      </set>
      <set comment="kpoint 51">
       <r>   -5.3662    1.0000 </r>
       <r>    0.0371    1.0000 </r>
       <r>    3.9050    1.0000 </r>
       <r>    3.9050    1.0000 </r>
       <r>    6.2084    0.0000 </r>
       <r>    8.2469    0.0000 </r>
       <r>    8.2469    0.0000 </r>
       <r>   11.8223    0.0000 </r>
      </set>
      <set comment="kpoint 52">
       <r>   -4.9300    1.0000 </r>
       <r>   -0.5214    1.0000 </r>
       <r>    2.5466    1.0000 </r>
       <r>    3.8210    1.0000 </r>
       <r>    6.9671    0.0000 </r>
       <r>    8.4500    0.0000 </r>
       <r>    8.5046    0.0000 </r>
       <r>   11.3633    0.0000 </r>
      </set>
      <set comment="kpoint 53">
       <r>   -4.2106    1.0000 </r>
       <r>   -1.0885    1.0000 </r>
       <r>    1.1989    1.0000 </r>
       <r>    3.2977    1.0000 </r>
       <r>    6.8718    0.0000 </r>
       <r>    9.7621    0.0000 </r>
       <r>    9.8589    0.0000 </r>
       <r>   11.0783    0.0000 </r>
      </set>
      <set comment="kpoint 54">
       <r>   -3.4707    1.0000 </r>
       <r>   -1.8323    1.0000 </r>
       <r>    0.9111    1.0000 </r>
       <r>    2.8011    1.0000 </r>
       <r>    6.3516    0.0000 </r>
       <r>   10.0257    0.0000 </r>
       <r>   10.9427    0.0000 </r>
       <r>   11.0349    0.0000 </r>
      </set>
      <set comment="kpoint 55">
       <r>   -4.6480    1.0000 </r>
       <r>   -1.0278    1.0000 </r>
       <r>    2.8308    1.0000 </r>
       <r>    3.3152    1.0000 </r>
       <r>    6.7939    0.0000 </r>
       <r>    8.1633    0.0000 </r>
       <r>    8.9704    0.0000 </r>
       <r>   10.8673    0.0000 </r>
      </set>
      <set comment="kpoint 56">
       <r>   -4.0870    1.0000 </r>
       <r>   -1.4048    1.0000 </r>
       <r>    1.6617    1.0000 </r>
       <r>    2.8960    1.0000 </r>
       <r>    7.5677    0.0000 </r>
       <r>    8.0330    0.0000 </r>
       <r>   10.2536    0.0000 </r>
       <r>   10.6706    0.0000 </r>
      </set>
      <set comment="kpoint 57">
       <r>   -3.3420    1.0000 </r>
       <r>   -1.9080    1.0000 </r>
       <r>    0.9956    1.0000 </r>
       <r>    2.2563    1.0000 </r>
       <r>    7.3518    0.0000 </r>
       <r>    9.4727    0.0000 </r>
       <r>   10.1506    0.0000 </r>
       <r>   10.6040    0.0000 </r>
      </set>
      <set comment="kpoint 58">
       <r>   -3.7649    1.0000 </r>
       <r>   -1.6800    1.0000 </r>
       <r>    1.3268    1.0000 </r>
       <r>    2.8923    1.0000 </r>
       <r>    6.4777    0.0000 </r>
       <r>    9.9292    0.0000 </r>
       <r>   10.1704    0.0000 </r>
       <r>   10.2554    0.0000 </r>
      </set>
      <set comment="kpoint 59">
       <r>   -4.5718    1.0000 </r>
       <r>   -1.4618    1.0000 </r>
       <r>    3.6958    1.0000 </r>
       <r>    3.6958    1.0000 </r>
       <r>    5.9603    0.0000 </r>
       <r>    8.1655    0.0000 </r>
       <r>    8.1655    0.0000 </r>
       <r>   12.3640    0.0000 </r>
      </set>
      <set comment="kpoint 60">
       <r>   -4.2576    1.0000 </r>
       <r>   -1.6376    1.0000 </r>
       <r>    2.5461    1.0000 </r>
       <r>    3.4568    1.0000 </r>
       <r>    6.7709    0.0000 </r>
       <r>    8.2192    0.0000 </r>
       <r>    8.6955    0.0000 </r>
       <r>   12.5614    0.0000 </r>
      </set>
     </set>
    </set>
   </array>
  </eigenvalues>
  <separator name="orbital magnetization" >
   <v name="MAGDIPOLOUT">      0.00000000      0.00000000      0.00000000</v>
  </separator>
  <dos>
   <i name="efermi">      5.16689626 </i>
   <total>
    <array>
     <dimension dim="1">gridpoints</dimension>
     <dimension dim="2">spin</dimension>
     <field>energy</field>
     <field>total</field>
     <field>integrated</field>
     <set>
      <set comment="spin 1">
       <r>    -8.4232     0.0000     0.0000 </r>
       <r>    -8.3434     0.0000     0.0000 </r>
       <r>    -8.2635     0.0000     0.0000 </r>
       <r>    -8.1837     0.0000     0.0000 </r>
       <r>    -8.1038     0.0000     0.0000 </r>
       <r>    -8.0240     0.0000     0.0000 </r>
       <r>    -7.9442     0.0000     0.0000 </r>
       <r>    -7.8643     0.0000     0.0000 </r>
       <r>    -7.7845     0.0000     0.0000 </r>
       <r>    -7.7046     0.0000     0.0000 </r>
       <r>    -7.6248     0.0000     0.0000 </r>
       <r>    -7.5450     0.0000     0.0000 </r>
       <r>    -7.4651     0.0000     0.0000 </r>
       <r>    -7.3853     0.0000     0.0000 </r>
       <r>    -7.3054     0.0000     0.0000 </r>
       <r>    -7.2256     0.0000     0.0000 </r>
       <r>    -7.1457     0.0000     0.0000 </r>
       <r>    -7.0659     0.0000     0.0000 </r>
       <r>    -6.9861     0.0000     0.0000 </r>
       <r>    -6.9062     0.0000     0.0000 </r>
       <r>    -6.8264     0.0002     0.0000 </r>
       <r>    -6.7465     0.0011     0.0001 </r>
       <r>    -6.6667     0.0043     0.0004 </r>
       <r>    -6.5868     0.0132     0.0015 </r>
       <r>    -6.5070     0.0322     0.0041 </r>
       <r>    -6.4272     0.0636     0.0092 </r>
       <r>    -6.3473     0.1041     0.0175 </r>
       <r>    -6.2675     0.1467     0.0292 </r>
       <r>    -6.1876     0.1863     0.0440 </r>
       <r>    -6.1078     0.2230     0.0619 </r>
       <r>    -6.0280     0.2570     0.0824 </r>
       <r>    -5.9481     0.2841     0.1051 </r>
       <r>    -5.8683     0.3022     0.1292 </r>
       <r>    -5.7884     0.3214     0.1548 </r>
       <r>    -5.7086     0.3529     0.1830 </r>
       <r>    -5.6287     0.3901     0.2142 </r>
       <r>    -5.5489     0.4132     0.2472 </r>
       <r>    -5.4691     0.4182     0.2805 </r>
       <r>    -5.3892     0.4244     0.3144 </r>
       <r>    -5.3094     0.4470     0.3501 </r>
       <r>    -5.2295     0.4819     0.3886 </r>
       <r>    -5.1497     0.5199     0.4301 </r>
       <r>    -5.0698     0.5565     0.4745 </r>
       <r>    -4.9900     0.5847     0.5212 </r>
       <r>    -4.9102     0.5947     0.5687 </r>
       <r>    -4.8303     0.5887     0.6157 </r>
       <r>    -4.7505     0.5928     0.6630 </r>
       <r>    -4.6706     0.6423     0.7143 </r>
       <r>    -4.5908     0.7404     0.7734 </r>
       <r>    -4.5110     0.8415     0.8406 </r>
       <r>    -4.4311     0.8991     0.9124 </r>
       <r>    -4.3513     0.9147     0.9854 </r>
       <r>    -4.2714     0.9148     1.0585 </r>
       <r>    -4.1916     0.9019     1.1305 </r>
       <r>    -4.1117     0.8581     1.1990 </r>
       <r>    -4.0319     0.7934     1.2623 </r>
       <r>    -3.9521     0.7617     1.3232 </r>
       <r>    -3.8722     0.8024     1.3872 </r>
       <r>    -3.7924     0.8774     1.4573 </r>
       <r>    -3.7125     0.8976     1.5289 </r>
       <r>    -3.6327     0.8149     1.5940 </r>
       <r>    -3.5528     0.6653     1.6471 </r>
       <r>    -3.4730     0.5218     1.6888 </r>
       <r>    -3.3932     0.4338     1.7234 </r>
       <r>    -3.3133     0.4168     1.7567 </r>
       <r>    -3.2335     0.4648     1.7938 </r>
       <r>    -3.1536     0.5463     1.8374 </r>
       <r>    -3.0738     0.5984     1.8852 </r>
       <r>    -2.9939     0.5613     1.9300 </r>
       <r>    -2.9141     0.4300     1.9644 </r>
       <r>    -2.8343     0.2616     1.9852 </r>
       <r>    -2.7544     0.1244     1.9952 </r>
       <r>    -2.6746     0.0473     1.9989 </r>
       <r>    -2.5947     0.0239     2.0009 </r>
       <r>    -2.5149     0.0479     2.0047 </r>
       <r>    -2.4351     0.1341     2.0154 </r>
       <r>    -2.3552     0.2931     2.0388 </r>
       <r>    -2.2754     0.4812     2.0772 </r>
       <r>    -2.1955     0.6021     2.1253 </r>
       <r>    -2.1157     0.5961     2.1729 </r>
       <r>    -2.0358     0.5088     2.2135 </r>
       <r>    -1.9560     0.4453     2.2491 </r>
       <r>    -1.8762     0.4845     2.2877 </r>
       <r>    -1.7963     0.6484     2.3395 </r>
       <r>    -1.7165     0.9002     2.4114 </r>
       <r>    -1.6366     1.1486     2.5031 </r>
       <r>    -1.5568     1.2971     2.6066 </r>
       <r>    -1.4769     1.3029     2.7107 </r>
       <r>    -1.3971     1.1767     2.8046 </r>
       <r>    -1.3173     0.9683     2.8819 </r>
       <r>    -1.2374     0.7709     2.9435 </r>
       <r>    -1.1576     0.6666     2.9967 </r>
       <r>    -1.0777     0.6414     3.0479 </r>
       <r>    -0.9979     0.6108     3.0967 </r>
       <r>    -0.9181     0.5341     3.1393 </r>
       <r>    -0.8382     0.4543     3.1756 </r>
       <r>    -0.7584     0.4314     3.2100 </r>
       <r>    -0.6785     0.4800     3.2484 </r>
       <r>    -0.5987     0.5580     3.2929 </r>
       <r>    -0.5188     0.5880     3.3399 </r>
       <r>    -0.4390     0.5207     3.3814 </r>
       <r>    -0.3592     0.3908     3.4127 </r>
       <r>    -0.2793     0.2872     3.4356 </r>
       <r>    -0.1995     0.2676     3.4569 </r>
       <r>    -0.1196     0.3171     3.4823 </r>
       <r>    -0.0398     0.3704     3.5118 </r>
       <r>     0.0401     0.3700     3.5414 </r>
       <r>     0.1199     0.3129     3.5664 </r>
       <r>     0.1997     0.2444     3.5859 </r>
       <r>     0.2796     0.2074     3.6024 </r>
       <r>     0.3594     0.2088     3.6191 </r>
       <r>     0.4393     0.2383     3.6381 </r>
       <r>     0.5191     0.2866     3.6610 </r>
       <r>     0.5990     0.3305     3.6874 </r>
       <r>     0.6788     0.3391     3.7145 </r>
       <r>     0.7586     0.3227     3.7402 </r>
       <r>     0.8385     0.3453     3.7678 </r>
       <r>     0.9183     0.4633     3.8048 </r>
       <r>     0.9982     0.6681     3.8582 </r>
       <r>     1.0780     0.9058     3.9305 </r>
       <r>     1.1578     1.1257     4.0204 </r>
       <r>     1.2377     1.2828     4.1228 </r>
       <r>     1.3175     1.3338     4.2293 </r>
       <r>     1.3974     1.2769     4.3312 </r>
       <r>     1.4772     1.1762     4.4251 </r>
       <r>     1.5571     1.1108     4.5138 </r>
       <r>     1.6369     1.1056     4.6021 </r>
       <r>     1.7167     1.1298     4.6923 </r>
       <r>     1.7966     1.1576     4.7847 </r>
       <r>     1.8764     1.2062     4.8810 </r>
       <r>     1.9563     1.3022     4.9850 </r>
       <r>     2.0361     1.4280     5.0990 </r>
       <r>     2.1160     1.5177     5.2202 </r>
       <r>     2.1958     1.5216     5.3417 </r>
       <r>     2.2756     1.4792     5.4598 </r>
       <r>     2.3555     1.4874     5.5785 </r>
       <r>     2.4353     1.5711     5.7040 </r>
       <r>     2.5152     1.6425     5.8351 </r>
       <r>     2.5950     1.6235     5.9647 </r>
       <r>     2.6748     1.5581     6.0891 </r>
       <r>     2.7547     1.5496     6.2129 </r>
       <r>     2.8345     1.6062     6.3411 </r>
       <r>     2.9144     1.6175     6.4702 </r>
       <r>     2.9942     1.4990     6.5899 </r>
       <r>     3.0741     1.3097     6.6945 </r>
       <r>     3.1539     1.1975     6.7901 </r>
       <r>     3.2337     1.2483     6.8898 </r>
       <r>     3.3136     1.4001     7.0016 </r>
       <r>     3.3934     1.5064     7.1218 </r>
       <r>     3.4733     1.4672     7.2390 </r>
       <r>     3.5531     1.2971     7.3425 </r>
       <r>     3.6330     1.0974     7.4302 </r>
       <r>     3.7128     0.9694     7.5076 </r>
       <r>     3.7926     0.9282     7.5817 </r>
       <r>     3.8725     0.8935     7.6530 </r>
       <r>     3.9523     0.7872     7.7159 </r>
       <r>     4.0322     0.6284     7.7660 </r>
       <r>     4.1120     0.5030     7.8062 </r>
       <r>     4.1918     0.4547     7.8425 </r>
       <r>     4.2717     0.4434     7.8779 </r>
       <r>     4.3515     0.4076     7.9104 </r>
       <r>     4.4314     0.3335     7.9371 </r>
       <r>     4.5112     0.2517     7.9572 </r>
       <r>     4.5911     0.1883     7.9722 </r>
       <r>     4.6709     0.1418     7.9835 </r>
       <r>     4.7507     0.1002     7.9915 </r>
       <r>     4.8306     0.0608     7.9964 </r>
       <r>     4.9104     0.0298     7.9988 </r>
       <r>     4.9903     0.0114     7.9997 </r>
       <r>     5.0701     0.0033     7.9999 </r>
       <r>     5.1500     0.0008     8.0000 </r>
       <r>     5.2298     0.0005     8.0000 </r>
       <r>     5.3096     0.0024     8.0002 </r>
       <r>     5.3895     0.0101     8.0010 </r>
       <r>     5.4693     0.0322     8.0036 </r>
       <r>     5.5492     0.0770     8.0097 </r>
       <r>     5.6290     0.1404     8.0210 </r>
       <r>     5.7089     0.2030     8.0372 </r>
       <r>     5.7887     0.2533     8.0574 </r>
       <r>     5.8685     0.3101     8.0821 </r>
       <r>     5.9484     0.4005     8.1141 </r>
       <r>     6.0282     0.5176     8.1554 </r>
       <r>     6.1081     0.6283     8.2056 </r>
       <r>     6.1879     0.7239     8.2634 </r>
       <r>     6.2677     0.8236     8.3292 </r>
       <r>     6.3476     0.9204     8.4026 </r>
       <r>     6.4274     0.9758     8.4806 </r>
       <r>     6.5073     0.9881     8.5594 </r>
       <r>     6.5871     1.0208     8.6409 </r>
       <r>     6.6670     1.1424     8.7322 </r>
       <r>     6.7468     1.3617     8.8409 </r>
       <r>     6.8266     1.6224     8.9704 </r>
       <r>     6.9065     1.8318     9.1167 </r>
       <r>     6.9863     1.8921     9.2677 </r>
       <r>     7.0662     1.7645     9.4086 </r>
       <r>     7.1460     1.5291     9.5307 </r>
       <r>     7.2259     1.3323     9.6371 </r>
       <r>     7.3057     1.2571     9.7374 </r>
       <r>     7.3855     1.2709     9.8389 </r>
       <r>     7.4654     1.2820     9.9413 </r>
       <r>     7.5452     1.2253    10.0391 </r>
       <r>     7.6251     1.1130    10.1280 </r>
       <r>     7.7049     1.0248    10.2098 </r>
       <r>     7.7847     1.0554    10.2940 </r>
       <r>     7.8646     1.2542    10.3942 </r>
       <r>     7.9444     1.5922    10.5213 </r>
       <r>     8.0243     1.9636    10.6781 </r>
       <r>     8.1041     2.2290    10.8561 </r>
       <r>     8.1840     2.2958    11.0394 </r>
       <r>     8.2638     2.1700    11.2126 </r>
       <r>     8.3436     1.9322    11.3669 </r>
       <r>     8.4235     1.6821    11.5012 </r>
       <r>     8.5033     1.4927    11.6204 </r>
       <r>     8.5832     1.3776    11.7304 </r>
       <r>     8.6630     1.3061    11.8346 </r>
       <r>     8.7429     1.2608    11.9353 </r>
       <r>     8.8227     1.2569    12.0357 </r>
       <r>     8.9025     1.3044    12.1398 </r>
       <r>     8.9824     1.3813    12.2501 </r>
       <r>     9.0622     1.4456    12.3655 </r>
       <r>     9.1421     1.4674    12.4827 </r>
       <r>     9.2219     1.4530    12.5987 </r>
       <r>     9.3018     1.4430    12.7139 </r>
       <r>     9.3816     1.4799    12.8320 </r>
       <r>     9.4614     1.5499    12.9558 </r>
       <r>     9.5413     1.5649    13.0807 </r>
       <r>     9.6211     1.4538    13.1968 </r>
       <r>     9.7010     1.2631    13.2977 </r>
       <r>     9.7808     1.1104    13.3863 </r>
       <r>     9.8606     1.0497    13.4701 </r>
       <r>     9.9405     1.0407    13.5532 </r>
       <r>    10.0203     1.0518    13.6372 </r>
       <r>    10.1002     1.1201    13.7266 </r>
       <r>    10.1800     1.2700    13.8280 </r>
       <r>    10.2599     1.4375    13.9428 </r>
       <r>    10.3397     1.5242    14.0645 </r>
       <r>    10.4195     1.4838    14.1830 </r>
       <r>    10.4994     1.3320    14.2893 </r>
       <r>    10.5792     1.1253    14.3792 </r>
       <r>    10.6591     0.9389    14.4541 </r>
       <r>    10.7389     0.8276    14.5202 </r>
       <r>    10.8188     0.7938    14.5836 </r>
       <r>    10.8986     0.7899    14.6467 </r>
       <r>    10.9784     0.7563    14.7070 </r>
       <r>    11.0583     0.6865    14.7618 </r>
       <r>    11.1381     0.6567    14.8143 </r>
       <r>    11.2180     0.7626    14.8752 </r>
       <r>    11.2978     1.0071    14.9556 </r>
       <r>    11.3776     1.2591    15.0561 </r>
       <r>    11.4575     1.3472    15.1637 </r>
       <r>    11.5373     1.2050    15.2599 </r>
       <r>    11.6172     0.9194    15.3333 </r>
       <r>    11.6970     0.6440    15.3847 </r>
       <r>    11.7769     0.4830    15.4233 </r>
       <r>    11.8567     0.4427    15.4586 </r>
       <r>    11.9365     0.4564    15.4950 </r>
       <r>    12.0164     0.4535    15.5313 </r>
       <r>    12.0962     0.4261    15.5653 </r>
       <r>    12.1761     0.4230    15.5991 </r>
       <r>    12.2559     0.4793    15.6373 </r>
       <r>    12.3358     0.5744    15.6832 </r>
       <r>    12.4156     0.6557    15.7355 </r>
       <r>    12.4954     0.6738    15.7893 </r>
       <r>    12.5753     0.5984    15.8371 </r>
       <r>    12.6551     0.4398    15.8722 </r>
       <r>    12.7350     0.2577    15.8928 </r>
       <r>    12.8148     0.1192    15.9023 </r>
       <r>    12.8947     0.0515    15.9064 </r>
       <r>    12.9745     0.0440    15.9100 </r>
       <r>    13.0543     0.0744    15.9159 </r>
       <r>    13.1342     0.1152    15.9251 </r>
       <r>    13.2140     0.1376    15.9361 </r>
       <r>    13.2939     0.1336    15.9467 </r>
       <r>    13.3737     0.1244    15.9567 </r>
       <r>    13.4535     0.1299    15.9670 </r>
       <r>    13.5334     0.1383    15.9781 </r>
       <r>    13.6132     0.1240    15.9880 </r>
       <r>    13.6931     0.0851    15.9948 </r>
       <r>    13.7729     0.0434    15.9983 </r>
       <r>    13.8528     0.0163    15.9996 </r>
       <r>    13.9326     0.0045    15.9999 </r>
       <r>    14.0124     0.0009    16.0000 </r>
       <r>    14.0923     0.0001    16.0000 </r>
       <r>    14.1721     0.0000    16.0000 </r>
       <r>    14.2520     0.0000    16.0000 </r>
       <r>    14.3318     0.0000    16.0000 </r>
       <r>    14.4117     0.0000    16.0000 </r>
       <r>    14.4915     0.0000    16.0000 </r>
       <r>    14.5713     0.0000    16.0000 </r>
       <r>    14.6512     0.0000    16.0000 </r>
       <r>    14.7310     0.0000    16.0000 </r>
       <r>    14.8109     0.0000    16.0000 </r>
       <r>    14.8907     0.0000    16.0000 </r>
       <r>    14.9705     0.0000    16.0000 </r>
       <r>    15.0504     0.0000    16.0000 </r>
       <r>    15.1302     0.0000    16.0000 </r>
       <r>    15.2101     0.0000    16.0000 </r>
       <r>    15.2899     0.0000    16.0000 </r>
       <r>    15.3698     0.0000    16.0000 </r>
       <r>    15.4496     0.0000    16.0000 </r>
       <r>    15.5294     0.0000    16.0000 </r>
      </set>
     </set>
    </array>
   </total>
  </dos>
 </calculation>
 <structure name="finalpos" >
  <crystal>
   <varray name="basis" >
    <v>       0.00000000       2.81632800       2.81632800 </v>
    <v>       2.81632800       0.00000000       2.81632800 </v>
    <v>       2.81632800       2.81632800       0.00000000 </v>
   </varray>
   <i name="volume">     44.67655677 </i>
   <varray name="rec_basis" >
    <v>      -0.17753614       0.17753614       0.17753614 </v>
    <v>       0.17753614      -0.17753614       0.17753614 </v>
    <v>       0.17753614       0.17753614      -0.17753614 </v>
   </varray>
  </crystal>
  <varray name="positions" >
   <v>       0.00000000       0.00000000       0.00000000 </v>
   <v>       0.25000000       0.25000000       0.25000000 </v>
  </varray>
 </structure>
</modeling>
