       N       E                     dE             d eps       ncg     rms          rms(c)
DAV:   1    -0.109998685838E+01   -0.11000E+01   -0.20356E+03  1840   0.376E+02
DAV:   2    -0.108852384658E+02   -0.97853E+01   -0.93133E+01  2752   0.556E+01
DAV:   3    -0.109765196251E+02   -0.91281E-01   -0.91281E-01  2152   0.682E+00
DAV:   4    -0.109767664928E+02   -0.24687E-03   -0.24687E-03  2904   0.359E-01
DAV:   5    -0.109767665330E+02   -0.40181E-07   -0.39593E-07  2120   0.442E-03    0.299E+00
DAV:   6    -0.108528073712E+02    0.12396E+00   -0.80485E-02  2064   0.147E+00    0.177E+00
DAV:   7    -0.107962210354E+02    0.56586E-01   -0.14801E-01  2272   0.212E+00    0.151E-01
DAV:   8    -0.107975028581E+02   -0.12818E-02   -0.36265E-03  2000   0.435E-01    0.247E-02
DAV:   9    -0.107975961544E+02   -0.93296E-04   -0.87101E-05  1456   0.740E-02
   1 F= -.10797596E+02 E0= -.10797569E+02  d E =-.107976E+02
       N       E                     dE             d eps       ncg     rms          rms(c)
DAV:   1    -0.108062397290E+02   -0.87369E-02   -0.23996E-01  2272   0.271E+00    0.311E-01
DAV:   2    -0.108021503573E+02    0.40894E-02   -0.32022E-03  2224   0.350E-01    0.178E-01
DAV:   3    -0.108000285819E+02    0.21218E-02   -0.42847E-03  2136   0.328E-01    0.222E-02
DAV:   4    -0.108000163607E+02    0.12221E-04   -0.39973E-05   912   0.530E-02
   2 F= -.10800016E+02 E0= -.10800001E+02  d E =-.242021E-02
       N       E                     dE             d eps       ncg     rms          rms(c)
DAV:   1    -0.108031046338E+02   -0.30761E-02   -0.38150E-02  2248   0.109E+00    0.125E-01
DAV:   2    -0.108024615263E+02    0.64311E-03   -0.50474E-04  2104   0.139E-01    0.715E-02
DAV:   3    -0.108021352251E+02    0.32630E-03   -0.66289E-04  1224   0.131E-01
   3 F= -.10802135E+02 E0= -.10802116E+02  d E =-.453907E-02
