unknown system                          
   1.00000000000000     
     0.000000    2.750746    2.750746
     2.750746   -0.000000    2.750746
     2.750746    2.750746    0.000000
   Si
     2
Direct
  0.500000  0.500000  0.500000
  0.750000  0.750000  0.750000
 
   32   32   32
 0.65214373173E+00 0.67307746188E+00 0.73739616809E+00 0.84947126413E+00 0.10160761731E+01
 0.12458499603E+01 0.15485992600E+01 0.19339707740E+01 0.24088498782E+01 0.29732003434E+01
 0.36149948700E+01 0.43059775436E+01 0.50005091625E+01 0.56391437064E+01 0.61570176231E+01
 0.64953391950E+01 0.66130321622E+01 0.64953467205E+01 0.61570273886E+01 0.56391466215E+01
 0.50004984657E+01 0.43059555067E+01 0.36149714576E+01 0.29731848470E+01 0.24088455730E+01
 0.19339762479E+01 0.15486106474E+01 0.12458614485E+01 0.10160824112E+01 0.84947131010E+00
 0.73739342240E+00 0.67307544406E+00 0.67307746188E+00 0.70943268474E+00 0.78461409680E+00
 0.90314085943E+00 0.10709536285E+01 0.12948235339E+01 0.15816870724E+01 0.19374066896E+01
 0.23643789583E+01 0.28579030299E+01 0.34021816931E+01 0.39677174002E+01 0.45119806634E+01
 0.49842570839E+01 0.53339493578E+01 0.55202031760E+01 0.55202085075E+01 0.53339586589E+01
 0.49842563192E+01 0.45119622016E+01 0.39676895659E+01 0.34021630348E+01 0.28579047496E+01
 0.23643940612E+01 0.19374187353E+01 0.15816881302E+01 0.12948197965E+01 0.10709538290E+01
 0.90314460572E+00 0.78461492092E+00 0.70942903110E+00 0.67307494877E+00 0.73739616809E+00
 0.78461409680E+00 0.86643961504E+00 0.98695054585E+00 0.11509309683E+01 0.13633596044E+01
 0.16287640822E+01 0.19499659759E+01 0.23258245025E+01 0.27481726037E+01 0.31989910911E+01
 0.36494076702E+01 0.40618061550E+01 0.43951817370E+01 0.46125022918E+01 0.46880151832E+01
 0.46125036471E+01 0.43951839514E+01 0.40618077074E+01 0.36494064794E+01 0.31989864071E+01
 0.27481662624E+01 0.23258195143E+01 0.19499638068E+01 0.16287640035E+01 0.13633605544E+01
 0.11509326826E+01 0.98695236992E+00 0.86643982732E+00 0.78461194414E+00 0.73739368386E+00
 0.72198956164E+00 0.84947126413E+00 0.90314085943E+00 0.98695054585E+00 0.11042740144E+01
 0.12588406970E+01 0.14542631232E+01 0.16932794531E+01 0.19763749526E+01 0.22996760614E+01
 0.26525841753E+01 0.30162148073E+01 0.33638395693E+01 0.36639242147E+01 0.38852743452E+01
 0.40028892018E+01 0.40028875945E+01 0.38852711538E+01 0.36639241551E+01 0.33638471254E+01
 0.30162272439E+01 0.26525898424E+01 0.22996647196E+01 0.19763504195E+01 0.16932580612E+01
 0.14542578496E+01 0.12588492920E+01 0.11042841403E+01 0.98695356954E+00 0.90313774529E+00
 0.84946728224E+00 0.82334532352E+00 0.82334688727E+00 0.10160761731E+01 0.10709536285E+01
 0.11509309683E+01 0.12588406970E+01 0.13977816451E+01 0.15705298650E+01 0.17785495892E+01
 0.20204997958E+01 0.22904271004E+01 0.25762713904E+01 0.28595686812E+01 0.31170084296E+01
 0.33237941352E+01 0.34579660552E+01 0.35044715810E+01 0.34579651953E+01 0.33237921496E+01
 0.31170055126E+01 0.28595654330E+01 0.25762678095E+01 0.22904223953E+01 0.20204937404E+01
 0.17785434685E+01 0.15705252635E+01 0.13977785792E+01 0.12588378552E+01 0.11509278056E+01
 0.10709512064E+01 0.10160754814E+01 0.98408277165E+00 0.97357645185E+00 0.98408242194E+00
 0.12458499603E+01 0.12948235339E+01 0.13633596044E+01 0.14542631232E+01 0.15705298650E+01
 0.17145017580E+01 0.18866580198E+01 0.20841798549E+01 0.22996767964E+01 0.25206770147E+01
 0.27304153086E+01 0.29100110299E+01 0.30415302959E+01 0.31110655932E+01 0.31110646194E+01
 0.30415290087E+01 0.29100106574E+01 0.27304124829E+01 0.25206679959E+01 0.22996653001E+01
 0.20841759001E+01 0.18866667030E+01 0.17145155245E+01 0.15705347053E+01 0.14542523988E+01
 0.13633404923E+01 0.12948097681E+01 0.12458489349E+01 0.12143045360E+01 0.11988339961E+01
 0.11988298573E+01 0.12142975769E+01 0.15485992600E+01 0.15816870724E+01 0.16287640822E+01
 0.16932794531E+01 0.17785495892E+01 0.18866580198E+01 0.20172189557E+01 0.21662876040E+01
 0.23258245025E+01 0.24841142049E+01 0.26272564736E+01 0.27413824668E+01 0.28149200216E+01
 0.28403047316E+01 0.28149215093E+01 0.27413853582E+01 0.26272606114E+01 0.24841193334E+01
 0.23258298297E+01 0.21662911155E+01 0.20172177986E+01 0.18866505949E+01 0.17785375042E+01
 0.16932669718E+01 0.16287554880E+01 0.15816844788E+01 0.15486020887E+01 0.15267012188E+01
 0.15141585169E+01 0.15100621724E+01 0.15141543341E+01 0.15266957692E+01 0.19339707740E+01
 0.19374066896E+01 0.19499659759E+01 0.19763749526E+01 0.20204997958E+01 0.20841798549E+01
 0.21662876040E+01 0.22622647745E+01 0.23643782233E+01 0.24628007951E+01 0.25472931537E+01
 0.26089397397E+01 0.26413849126E+01 0.26413887015E+01 0.26089483999E+01 0.25473022179E+01
 0.24628096887E+01 0.23643893728E+01 0.22622764595E+01 0.21662902830E+01 0.20841632402E+01
 0.20204653605E+01 0.19763398447E+01 0.19499508758E+01 0.19374175828E+01 0.19339939035E+01
 0.19352155649E+01 0.19376984282E+01 0.19393915139E+01 0.19393920925E+01 0.19376943414E+01
 0.19351990331E+01 0.24088498782E+01 0.23643789583E+01 0.23258245025E+01 0.22996760614E+01
 0.22904271004E+01 0.22996767964E+01 0.23258245025E+01 0.23643782233E+01 0.24088498782E+01
 0.24520859168E+01 0.24876555216E+01 0.25108178965E+01 0.25188320160E+01 0.25108239027E+01
 0.24876661325E+01 0.24520989277E+01 0.24088612537E+01 0.23643816902E+01 0.23258155296E+01
 0.22996574111E+01 0.22904047611E+01 0.22996581462E+01 0.23258155296E+01 0.23643809551E+01
 0.24088612537E+01 0.24520996628E+01 0.24876661325E+01 0.25108231676E+01 0.25188320160E+01
 0.25108186316E+01 0.24876555216E+01 0.24520851817E+01 0.29732003434E+01 0.28579030299E+01
 0.27481726037E+01 0.26525841753E+01 0.25762713904E+01 0.25206770147E+01 0.24841142049E+01
 0.24628007951E+01 0.24520859168E+01 0.24476194932E+01 0.24461651045E+01 0.24458339637E+01
 0.24458372231E+01 0.24461727772E+01 0.24476292543E+01 0.24520975959E+01 0.24628096364E+01
 0.24841094402E+01 0.25206558855E+01 0.25762492473E+01 0.26525804125E+01 0.27481882668E+01
 0.28579208879E+01 0.29732064155E+01 0.30832725910E+01 0.31770450535E+01 0.32450569158E+01
 0.32807086972E+01 0.32807067159E+01 0.32450545106E+01 0.31770470931E+01 0.30832757031E+01
 0.36149948700E+01 0.34021816931E+01 0.31989910911E+01 0.30162148073E+01 0.28595686812E+01
 0.27304153086E+01 0.26272564736E+01 0.25472931537E+01 0.24876555216E+01 0.24461651045E+01
 0.24215859673E+01 0.24134307862E+01 0.24215933121E+01 0.24461740034E+01 0.24876634105E+01
 0.25473016546E+01 0.26272636280E+01 0.27304160097E+01 0.28595641920E+01 0.30162134898E+01
 0.31989975102E+01 0.34021918575E+01 0.36150036508E+01 0.38222742958E+01 0.40066721069E+01
 0.41516596289E+01 0.42441142983E+01 0.42758498099E+01 0.42441157067E+01 0.41516590667E+01
 0.40066681029E+01 0.38222678537E+01 0.43059775436E+01 0.39677174002E+01 0.36494076702E+01
 0.33638395693E+01 0.31170084296E+01 0.29100110299E+01 0.27413824668E+01 0.26089397397E+01
 0.25108178965E+01 0.24458339637E+01 0.24134307862E+01 0.24134327174E+01 0.24458395529E+01
 0.25108263839E+01 0.26089488246E+01 0.27413885634E+01 0.29100138623E+01 0.31170139369E+01
 0.33638524584E+01 0.36494220840E+01 0.39677229932E+01 0.43059750665E+01 0.46443321666E+01
 0.49578910840E+01 0.52205816497E+01 0.54095057972E+01 0.55081947959E+01 0.55081956801E+01
 0.54095036261E+01 0.52205721128E+01 0.49578814468E+01 0.46443310406E+01 0.50005091625E+01
 0.45119806634E+01 0.40618061550E+01 0.36639242147E+01 0.33237941352E+01 0.30415302959E+01
 0.28149200216E+01 0.26413849126E+01 0.25188320160E+01 0.24458372231E+01 0.24215933121E+01
 0.24458395529E+01 0.25188361244E+01 0.26413904832E+01 0.28149253450E+01 0.30415317297E+01
 0.33237915940E+01 0.36639257504E+01 0.40618213882E+01 0.45120091679E+01 0.50005394520E+01
 0.55033403377E+01 0.59874280633E+01 0.64151827647E+01 0.67503842869E+01 0.69638565322E+01
 0.70371107711E+01 0.69638714350E+01 0.67504034328E+01 0.64151939918E+01 0.59874243820E+01
 0.55033205869E+01 0.56391437064E+01 0.49842570839E+01 0.43951817370E+01 0.38852743452E+01
 0.34579660552E+01 0.31110655932E+01 0.28403047316E+01 0.26413887015E+01 0.25108239027E+01
 0.24461727772E+01 0.24461740034E+01 0.25108263839E+01 0.26413904832E+01 0.28403052768E+01
 0.31110652254E+01 0.34579650109E+01 0.38852753261E+01 0.43951929747E+01 0.49842882499E+01
 0.56391945583E+01 0.63333137091E+01 0.70265212208E+01 0.76689080665E+01 0.82078752769E+01
 0.85963647703E+01 0.87997041294E+01 0.87997225537E+01 0.85964080303E+01 0.82079147205E+01
 0.76689165934E+01 0.70264909962E+01 0.63332602810E+01 0.61570176231E+01 0.53339493578E+01
 0.46125022918E+01 0.40028892018E+01 0.35044715810E+01 0.31110646194E+01 0.28149215093E+01
 0.26089483999E+01 0.24876661325E+01 0.24476292543E+01 0.24876634105E+01 0.26089488246E+01
 0.28149253450E+01 0.31110652254E+01 0.35044683756E+01 0.40028937783E+01 0.46125273069E+01
 0.53339956228E+01 0.61570735035E+01 0.70557274240E+01 0.79857453460E+01 0.88867096050E+01
 0.96886385112E+01 0.10321905320E+02 0.10727876441E+02 0.10867719698E+02 0.10727887236E+02
 0.10321924269E+02 0.96886553145E+01 0.88867089561E+01 0.79857184058E+01 0.70556787780E+01
 0.64953391950E+01 0.55202031760E+01 0.46880151832E+01 0.40028875945E+01 0.34579651953E+01
 0.30415290087E+01 0.27413853582E+01 0.25473022179E+01 0.24520989277E+01 0.24520975959E+01
 0.25473016546E+01 0.27413885634E+01 0.30415317297E+01 0.34579650109E+01 0.40028937783E+01
 0.46880412611E+01 0.55202525846E+01 0.64954012079E+01 0.75920027903E+01 0.87666807617E+01
 0.99534555123E+01 0.11067951500E+02 0.12016557949E+02 0.12709516430E+02 0.13075697834E+02
 0.13075683944E+02 0.12709494164E+02 0.12016557427E+02 0.11067971056E+02 0.99534642088E+01
 0.87666556154E+01 0.75919486182E+01 0.66130321622E+01 0.55202085075E+01 0.46125036471E+01
 0.38852711538E+01 0.33237921496E+01 0.29100106574E+01 0.26272606114E+01 0.24628096887E+01
 0.24088612537E+01 0.24628096364E+01 0.26272636280E+01 0.29100138623E+01 0.33237915940E+01
 0.38852753261E+01 0.46125273069E+01 0.55202525846E+01 0.66130826757E+01 0.78781206625E+01
 0.92786006909E+01 0.10750338130E+02 0.12202085356E+02 0.13520851730E+02 0.14583673967E+02
 0.15276481565E+02 0.15517211258E+02 0.15276477069E+02 0.14583676507E+02 0.13520861413E+02
 0.12202086340E+02 0.10750319369E+02 0.92785655682E+01 0.78780754449E+01 0.64953467205E+01
 0.53339586589E+01 0.43951839514E+01 0.36639241551E+01 0.31170055126E+01 0.27304124829E+01
 0.24841193334E+01 0.23643893728E+01 0.23643816902E+01 0.24841094402E+01 0.27304160097E+01
 0.31170139369E+01 0.36639257504E+01 0.43951929747E+01 0.53339956228E+01 0.64954012079E+01
 0.78781206625E+01 0.94570194047E+01 0.11177482304E+02 0.12951874441E+02 0.14658897143E+02
 0.16148527224E+02 0.17254085450E+02 0.17841627145E+02 0.17841638774E+02 0.17254106246E+02
 0.16148530834E+02 0.14658875450E+02 0.12951845644E+02 0.11177463027E+02 0.94569989310E+01
 0.78780791666E+01 0.61570273886E+01 0.49842563192E+01 0.40618077074E+01 0.33638471254E+01
 0.28595654330E+01 0.25206679959E+01 0.23258298297E+01 0.22622764595E+01 0.23258155296E+01
 0.25206558855E+01 0.28595641920E+01 0.33638524584E+01 0.40618213882E+01 0.49842882499E+01
 0.61570735035E+01 0.75920027903E+01 0.92786006909E+01 0.11177482304E+02 0.13214482917E+02
 0.15274454081E+02 0.17192082999E+02 0.18752319932E+02 0.19769007254E+02 0.20121802579E+02
 0.19768999754E+02 0.18752302719E+02 0.17192055875E+02 0.15274425102E+02 0.13214464192E+02
 0.11177473129E+02 0.92785831053E+01 0.75919645087E+01 0.56391466215E+01 0.45119622016E+01
 0.36494064794E+01 0.30162272439E+01 0.25762678095E+01 0.22996653001E+01 0.21662911155E+01
 0.21662902830E+01 0.22996574111E+01 0.25762492473E+01 0.30162134898E+01 0.36494220840E+01
 0.45120091679E+01 0.56391945583E+01 0.70557274240E+01 0.87666807617E+01 0.10750338130E+02
 0.12951874441E+02 0.15274454081E+02 0.17558600393E+02 0.19560686184E+02 0.21045734948E+02
 0.21836474784E+02 0.21836453673E+02 0.21045688218E+02 0.19560641834E+02 0.17558567600E+02
 0.15274429163E+02 0.12951862106E+02 0.10750343941E+02 0.87666886201E+01 0.70557091686E+01
 0.50004984657E+01 0.39676895659E+01 0.31989864071E+01 0.26525898424E+01 0.22904223953E+01
 0.20841759001E+01 0.20172177986E+01 0.20841632402E+01 0.22904047611E+01 0.26525804125E+01
 0.31989975102E+01 0.39677229932E+01 0.50005394520E+01 0.63333137091E+01 0.79857453460E+01
 0.99534555123E+01 0.12202085356E+02 0.14658897143E+02 0.17192082999E+02 0.19560686184E+02
 0.21492985959E+02 0.22758610246E+02 0.23199448821E+02 0.22758576067E+02 0.21492925689E+02
 0.19560620146E+02 0.17192039526E+02 0.14658895085E+02 0.12202117557E+02 0.99534919007E+01
 0.79857557492E+01 0.63332900984E+01 0.43059555067E+01 0.34021630348E+01 0.27481662624E+01
 0.22996647196E+01 0.20204937404E+01 0.18866667030E+01 0.18866505949E+01 0.20204653605E+01
 0.22996581462E+01 0.27481882668E+01 0.34021918575E+01 0.43059750665E+01 0.55033403377E+01
 0.70265212208E+01 0.88867096050E+01 0.11067951500E+02 0.13520851730E+02 0.16148527224E+02
 0.18752319932E+02 0.21045734948E+02 0.22758610246E+02 0.23675970582E+02 0.23675956543E+02
 0.22758559583E+02 0.21045650601E+02 0.18752247167E+02 0.16148518009E+02 0.13520903480E+02
 0.11068010372E+02 0.88867340848E+01 0.70265163033E+01 0.55033268454E+01 0.36149714576E+01
 0.28579047496E+01 0.23258195143E+01 0.19763504195E+01 0.17785434685E+01 0.17145155245E+01
 0.17785375042E+01 0.19763398447E+01 0.23258155296E+01 0.28579208879E+01 0.36150036508E+01
 0.46443321666E+01 0.59874280633E+01 0.76689080665E+01 0.96886385112E+01 0.12016557949E+02
 0.14583673967E+02 0.17254085450E+02 0.19769007254E+02 0.21836474784E+02 0.23199448821E+02
 0.23675956543E+02 0.23199415039E+02 0.21836412282E+02 0.19768940548E+02 0.17254051110E+02
 0.14583689564E+02 0.12016608017E+02 0.96886926411E+01 0.76689421381E+01 0.59874304653E+01
 0.46443068510E+01 0.29731848470E+01 0.23643940612E+01 0.19499638068E+01 0.16932580612E+01
 0.15705252635E+01 0.15705347053E+01 0.16932669718E+01 0.19499508758E+01 0.23643809551E+01
 0.29732064155E+01 0.38222742958E+01 0.49578910840E+01 0.64151827647E+01 0.82078752769E+01
 0.10321905320E+02 0.12709516430E+02 0.15276481565E+02 0.17841627145E+02 0.20121802579E+02
 0.21836453673E+02 0.22758576067E+02 0.22758559583E+02 0.21836412282E+02 0.20121755413E+02
 0.17841592931E+02 0.15276471721E+02 0.12709538114E+02 0.10321959864E+02 0.82079428228E+01
 0.64152212870E+01 0.49578747896E+01 0.38222297800E+01 0.24088455730E+01 0.19374187353E+01
 0.16287640035E+01 0.14542578496E+01 0.13977785792E+01 0.14542523988E+01 0.16287554880E+01
 0.19374175828E+01 0.24088612537E+01 0.30832725910E+01 0.40066721069E+01 0.52205816497E+01
 0.67503842869E+01 0.85963647703E+01 0.10727876441E+02 0.13075697834E+02 0.15517211258E+02
 0.17841638774E+02 0.19768999754E+02 0.21045688218E+02 0.21492925689E+02 0.21045650601E+02
 0.19768940548E+02 0.17841592931E+02 0.15517212769E+02 0.13075748620E+02 0.10727946592E+02
 0.85964241127E+01 0.67504206888E+01 0.52205923164E+01 0.40066583954E+01 0.30832477434E+01
 0.19339762479E+01 0.15816881302E+01 0.13633605544E+01 0.12588492920E+01 0.12588378552E+01
 0.13633404923E+01 0.15816844788E+01 0.19339939035E+01 0.24520996628E+01 0.31770450535E+01
 0.41516596289E+01 0.54095057972E+01 0.69638565322E+01 0.87997041294E+01 0.10867719698E+02
 0.13075683944E+02 0.15276477069E+02 0.17254106246E+02 0.18752302719E+02 0.19560641834E+02
 0.19560620146E+02 0.18752247167E+02 0.17254051110E+02 0.15276471721E+02 0.13075748620E+02
 0.10867817384E+02 0.87997771299E+01 0.69638849934E+01 0.54095117987E+01 0.41516624671E+01
 0.31770393695E+01 0.24520800642E+01 0.15486106474E+01 0.12948197965E+01 0.11509326826E+01
 0.11042841403E+01 0.11509278056E+01 0.12948097681E+01 0.15486020887E+01 0.19352155649E+01
 0.24876661325E+01 0.32450569158E+01 0.42441142983E+01 0.55081947959E+01 0.70371107711E+01
 0.87997225537E+01 0.10727887236E+02 0.12709494164E+02 0.14583676507E+02 0.16148530834E+02
 0.17192055875E+02 0.17558567600E+02 0.17192039526E+02 0.16148518009E+02 0.14583689564E+02
 0.12709538114E+02 0.10727946592E+02 0.87997771299E+01 0.70371503412E+01 0.55082172715E+01
 0.42441185404E+01 0.32450459905E+01 0.24876525902E+01 0.19352127694E+01 0.12458614485E+01
 0.10709538290E+01 0.98695236992E+00 0.98695356954E+00 0.10709512064E+01 0.12458489349E+01
 0.15267012188E+01 0.19376984282E+01 0.25108231676E+01 0.32807086972E+01 0.42758498099E+01
 0.55081956801E+01 0.69638714350E+01 0.85964080303E+01 0.10321924269E+02 0.12016557427E+02
 0.13520861413E+02 0.14658875450E+02 0.15274425102E+02 0.15274429163E+02 0.14658895085E+02
 0.13520903480E+02 0.12016608017E+02 0.10321959864E+02 0.85964241127E+01 0.69638849934E+01
 0.55082172715E+01 0.42758678536E+01 0.32807093195E+01 0.25108136879E+01 0.19376980376E+01
 0.15267141948E+01 0.10160824112E+01 0.90314460572E+00 0.86643982732E+00 0.90313774529E+00
 0.10160754814E+01 0.12143045360E+01 0.15141585169E+01 0.19393915139E+01 0.25188320160E+01
 0.32807067159E+01 0.42441157067E+01 0.54095036261E+01 0.67504034328E+01 0.82079147205E+01
 0.96886553145E+01 0.11067971056E+02 0.12202086340E+02 0.12951845644E+02 0.13214464192E+02
 0.12951862106E+02 0.12202117557E+02 0.11068010372E+02 0.96886926411E+01 0.82079428228E+01
 0.67504206888E+01 0.54095117987E+01 0.42441185404E+01 0.32807093195E+01 0.25188371134E+01
 0.19393968701E+01 0.15141616588E+01 0.12143079870E+01 0.84947131010E+00 0.78461492092E+00
 0.78461194414E+00 0.84946728224E+00 0.98408277165E+00 0.11988339961E+01 0.15100621724E+01
 0.19393920925E+01 0.25108186316E+01 0.32450545106E+01 0.41516590667E+01 0.52205721128E+01
 0.64151939918E+01 0.76689165934E+01 0.88867089561E+01 0.99534642088E+01 0.10750319369E+02
 0.11177463027E+02 0.11177473129E+02 0.10750343941E+02 0.99534919007E+01 0.88867340848E+01
 0.76689421381E+01 0.64152212870E+01 0.52205923164E+01 0.41516624671E+01 0.32450459905E+01
 0.25108136879E+01 0.19393968701E+01 0.15100681305E+01 0.11988344706E+01 0.98408268601E+00
 0.73739342240E+00 0.70942903110E+00 0.73739368386E+00 0.82334532352E+00 0.97357645185E+00
 0.11988298573E+01 0.15141543341E+01 0.19376943414E+01 0.24876555216E+01 0.31770470931E+01
 0.40066681029E+01 0.49578814468E+01 0.59874243820E+01 0.70264909962E+01 0.79857184058E+01
 0.87666556154E+01 0.92785655682E+01 0.94569989310E+01 0.92785831053E+01 0.87666886201E+01
 0.79857557492E+01 0.70265163033E+01 0.59874304653E+01 0.49578747896E+01 0.40066583954E+01
 0.31770393695E+01 0.24876525902E+01 0.19376980376E+01 0.15141616588E+01 0.11988344706E+01
 0.97357631166E+00 0.82334392191E+00 0.67307544406E+00 0.67307494877E+00 0.72198956164E+00
 0.82334688727E+00 0.98408242194E+00 0.12142975769E+01 0.15266957692E+01 0.19351990331E+01
 0.24520851817E+01 0.30832757031E+01 0.38222678537E+01 0.46443310406E+01 0.55033205869E+01
 0.63332602810E+01 0.70556787780E+01 0.75919486182E+01 0.78780754449E+01 0.78780791666E+01
 0.75919645087E+01 0.70557091686E+01 0.63332900984E+01 0.55033268454E+01 0.46443068510E+01
 0.38222297800E+01 0.30832477434E+01 0.24520800642E+01 0.19352127694E+01 0.15267141948E+01
 0.12143079870E+01 0.98408268601E+00 0.82334392191E+00 0.72198892736E+00 0.67307841504E+00
 0.70943312027E+00 0.78461416033E+00 0.90314102549E+00 0.10709538366E+01 0.12948233997E+01
 0.15816867306E+01 0.19374066162E+01 0.23643791764E+01 0.28579032980E+01 0.34021822496E+01
 0.39677186896E+01 0.45119825246E+01 0.49842590001E+01 0.53339512794E+01 0.55202052802E+01
 0.55202103724E+01 0.53339595174E+01 0.49842559668E+01 0.45119609051E+01 0.39676873488E+01
 0.34021598900E+01 0.28579013215E+01 0.23643912454E+01 0.19374167396E+01 0.15816866690E+01
 0.12948189513E+01 0.10709538963E+01 0.90314533113E+00 0.78461573025E+00 0.70942983892E+00
 0.67307595987E+00 0.70943312027E+00 0.75522716052E+00 0.83478676041E+00 0.95228532043E+00
 0.11125314200E+01 0.13204113325E+01 0.15802500610E+01 0.18946298238E+01 0.22622659451E+01
 0.26750921581E+01 0.31155328193E+01 0.35554914048E+01 0.39583335378E+01 0.42840493361E+01
 0.44964279145E+01 0.45702383146E+01 0.44964337280E+01 0.42840469014E+01 0.39583136087E+01
 0.35554633590E+01 0.31155163163E+01 0.26750968029E+01 0.22622821102E+01 0.18946396256E+01
 0.15802454906E+01 0.13204003619E+01 0.11125268205E+01 0.95228980549E+00 0.83479172801E+00
 0.75522543694E+00 0.70942829415E+00 0.69451253084E+00 0.78461416033E+00 0.83478676041E+00
 0.91367269983E+00 0.10248434977E+01 0.11720509943E+01 0.13587032475E+01 0.15871844243E+01
 0.18576735298E+01 0.21662876675E+01 0.25029135198E+01 0.28496940781E+01 0.31813262513E+01
 0.34678135328E+01 0.36793081751E+01 0.37917587626E+01 0.37917587719E+01 0.36793063071E+01
 0.34678073753E+01 0.31813174795E+01 0.28496871899E+01 0.25029107089E+01 0.21662870514E+01
 0.18576722256E+01 0.15871818114E+01 0.13587011885E+01 0.11720517150E+01 0.10248470411E+01
 0.91367616922E+00 0.83478699962E+00 0.78461158801E+00 0.76031527562E+00 0.76031689195E+00
 0.90314102549E+00 0.95228532043E+00 0.10248434977E+01 0.11239021494E+01 0.12525462630E+01
 0.14132666755E+01 0.16071460997E+01 0.18326646279E+01 0.20841792858E+01 0.23505613155E+01
 0.26148035797E+01 0.28552893568E+01 0.30487961472E+01 0.31745454517E+01 0.32181702579E+01
 0.31745419187E+01 0.30487885925E+01 0.28552818661E+01 0.26148021280E+01 0.23505635838E+01
 0.20841742773E+01 0.18326474965E+01 0.16071281586E+01 0.14132637255E+01 0.12525592693E+01
 0.11239165982E+01 0.10248477473E+01 0.95228231842E+00 0.90313954910E+00 0.87481274324E+00
 0.86557055319E+00 0.87481128395E+00 0.10709538366E+01 0.11125314200E+01 0.11720509943E+01
 0.12525462630E+01 0.13569462856E+01 0.14873074106E+01 0.16438479122E+01 0.18238279337E+01
 0.20205000039E+01 0.22226013332E+01 0.24149099820E+01 0.25800713179E+01 0.27013569925E+01
 0.27656102430E+01 0.27656089021E+01 0.27013505945E+01 0.25800580265E+01 0.24148950684E+01
 0.22225926347E+01 0.20204979602E+01 0.18238257762E+01 0.16438423894E+01 0.14873037492E+01
 0.13569497452E+01 0.12525534591E+01 0.11720544067E+01 0.11125298754E+01 0.10709528553E+01
 0.10447413083E+01 0.10320879554E+01 0.10320861300E+01 0.10447389722E+01 0.12948233997E+01
 0.13204113325E+01 0.13587032475E+01 0.14132666755E+01 0.14873074106E+01 0.15827085646E+01
 0.16990326943E+01 0.18326650628E+01 0.19763755535E+01 0.21196246976E+01 0.22497739361E+01
 0.23539995292E+01 0.24213931527E+01 0.24447003685E+01 0.24213879770E+01 0.23539909751E+01
 0.22497636543E+01 0.21196140963E+01 0.19763678308E+01 0.18326646740E+01 0.16990405882E+01
 0.15827189978E+01 0.14873119979E+01 0.14132622141E+01 0.13586943862E+01 0.13204052995E+01
 0.12948233082E+01 0.12787909529E+01 0.12700284506E+01 0.12672421182E+01 0.12700253489E+01
 0.12787873779E+01 0.15816867306E+01 0.15802500610E+01 0.15871844243E+01 0.16071460997E+01
 0.16438479122E+01 0.16990326943E+01 0.17716867532E+01 0.18576731245E+01 0.19499656342E+01
 0.20395740885E+01 0.21169995888E+01 0.21737979438E+01 0.22038009502E+01 0.22037994190E+01
 0.21737947288E+01 0.21169982137E+01 0.20395776639E+01 0.19499731600E+01 0.18576789613E+01
 0.17716854107E+01 0.16990241367E+01 0.16438372132E+01 0.16071383317E+01 0.15871810469E+01
 0.15802497972E+01 0.15816880579E+01 0.15869474967E+01 0.15923926994E+01 0.15956673500E+01
 0.15956665969E+01 0.15923908661E+01 0.15869454963E+01 0.19374066162E+01 0.18946298238E+01
 0.18576735298E+01 0.18326646279E+01 0.18238279337E+01 0.18326650628E+01 0.18576731245E+01
 0.18946285798E+01 0.19374058811E+01 0.19791879488E+01 0.20137402661E+01 0.20363444512E+01
 0.20441855284E+01 0.20363456616E+01 0.20137449476E+01 0.19791997088E+01 0.19374240710E+01
 0.18946430267E+01 0.18576697436E+01 0.18326398782E+01 0.18237931596E+01 0.18326387650E+01
 0.18576666679E+01 0.18946386172E+01 0.19374202104E+01 0.19791968784E+01 0.20137421808E+01
 0.20363430776E+01 0.20441843926E+01 0.20363447062E+01 0.20137405175E+01 0.19791879567E+01
 0.23643791764E+01 0.22622659451E+01 0.21662876675E+01 0.20841792858E+01 0.20205000039E+01
 0.19763755535E+01 0.19499656342E+01 0.19374058811E+01 0.19339709920E+01 0.19352000364E+01
 0.19376948978E+01 0.19393926469E+01 0.19393933751E+01 0.19377010794E+01 0.19352174865E+01
 0.19339952726E+01 0.19374194477E+01 0.19499524694E+01 0.19763394924E+01 0.20204633289E+01
 0.20841610231E+01 0.21662878732E+01 0.22622730313E+01 0.23643858220E+01 0.24628076930E+01
 0.25473014918E+01 0.26089475547E+01 0.26413880337E+01 0.26413856380E+01 0.26089412841E+01
 0.25472939616E+01 0.24628010711E+01 0.28579032980E+01 0.26750921581E+01 0.25029135198E+01
 0.23505613155E+01 0.22226013332E+01 0.21196246976E+01 0.20395740885E+01 0.19791879488E+01
 0.19352000364E+01 0.19051125361E+01 0.18874609594E+01 0.18816271262E+01 0.18874687051E+01
 0.19051319601E+01 0.19352277892E+01 0.19792057466E+01 0.20395607188E+01 0.21195812741E+01
 0.22225586337E+01 0.23505522007E+01 0.25029389800E+01 0.26751228901E+01 0.28579143931E+01
 0.30380510276E+01 0.31999731104E+01 0.33283937855E+01 0.34108016336E+01 0.34391776219E+01
 0.34107904200E+01 0.33283844573E+01 0.31999753505E+01 0.30380562236E+01 0.34021822496E+01
 0.31155328193E+01 0.28496940781E+01 0.26148035797E+01 0.24149099820E+01 0.22497739361E+01
 0.21169995888E+01 0.20137402661E+01 0.19376948978E+01 0.18874609594E+01 0.18624275095E+01
 0.18624347773E+01 0.18874830355E+01 0.19377259518E+01 0.20137611020E+01 0.21169892837E+01
 0.22497345129E+01 0.24148727347E+01 0.26148013685E+01 0.28497282469E+01 0.31155748378E+01
 0.34022067180E+01 0.36929260524E+01 0.39658808212E+01 0.41972560827E+01 0.43652519293E+01
 0.44535595181E+01 0.44535571397E+01 0.43652459282E+01 0.41972504085E+01 0.39658782508E+01
 0.36929194231E+01 0.39677186896E+01 0.35554914048E+01 0.31813262513E+01 0.28552893568E+01
 0.25800713179E+01 0.23539995292E+01 0.21737979438E+01 0.20363444512E+01 0.19393926469E+01
 0.18816271262E+01 0.18624347773E+01 0.18816475825E+01 0.19394263175E+01 0.20363689678E+01
 0.21737876840E+01 0.23539571003E+01 0.25800362361E+01 0.28553005342E+01 0.31813791391E+01
 0.35555450410E+01 0.39677434376E+01 0.43986268445E+01 0.48199060138E+01 0.51975630971E+01
 0.54971955107E+01 0.56897785555E+01 0.57561883177E+01 0.56897808305E+01 0.54971921268E+01
 0.51975549207E+01 0.48199022919E+01 0.43986233595E+01 0.45119825246E+01 0.39583335378E+01
 0.34678135328E+01 0.30487961472E+01 0.27013569925E+01 0.24213931527E+01 0.22038009502E+01
 0.20441855284E+01 0.19393933751E+01 0.18874687051E+01 0.18874830355E+01 0.19394263175E+01
 0.20442102171E+01 0.22037907049E+01 0.24213500144E+01 0.27013202666E+01 0.30488089989E+01
 0.34678787399E+01 0.39584106642E+01 0.45120295560E+01 0.51084618079E+01 0.57141561787E+01
 0.62845508039E+01 0.67700228637E+01 0.71239616734E+01 0.73105828251E+01 0.73105880674E+01
 0.71239735394E+01 0.67700358981E+01 0.62845644741E+01 0.57141670645E+01 0.51084530837E+01
 0.49842590001E+01 0.42840493361E+01 0.36793081751E+01 0.31745454517E+01 0.27656102430E+01
 0.24447003685E+01 0.22037994190E+01 0.20363456616E+01 0.19377010794E+01 0.19051319601E+01
 0.19377259518E+01 0.20363689678E+01 0.22037907049E+01 0.24446586946E+01 0.27655755142E+01
 0.31745640369E+01 0.36793843134E+01 0.42841402516E+01 0.49843190726E+01 0.57614699885E+01
 0.65795921501E+01 0.73853551535E+01 0.81132612242E+01 0.86950917844E+01 0.90713164813E+01
 0.92014994695E+01 0.90713387949E+01 0.86951241731E+01 0.81132904561E+01 0.73853758234E+01
 0.65796004093E+01 0.57614518679E+01 0.53339512794E+01 0.44964279145E+01 0.37917587626E+01
 0.32181702579E+01 0.27656089021E+01 0.24213879770E+01 0.21737947288E+01 0.20137449476E+01
 0.19352174865E+01 0.19352277892E+01 0.20137611020E+01 0.21737876840E+01 0.24213500144E+01
 0.27655755142E+01 0.32181930192E+01 0.37918483564E+01 0.44965359529E+01 0.53340180719E+01
 0.62911088162E+01 0.73337356146E+01 0.84042154408E+01 0.94238361239E+01 0.10301584627E+02
 0.10948002611E+02 0.11291247995E+02 0.11291254110E+02 0.10948018843E+02 0.10301606025E+02
 0.94238598766E+01 0.84042424573E+01 0.73337581438E+01 0.62910995363E+01 0.55202052802E+01
 0.45702383146E+01 0.37917587719E+01 0.31745419187E+01 0.27013505945E+01 0.23539909751E+01
 0.21169982137E+01 0.19791997088E+01 0.19339952726E+01 0.19792057466E+01 0.21169892837E+01
 0.23539571003E+01 0.27013202666E+01 0.31745640369E+01 0.37918483564E+01 0.45703506500E+01
 0.55202768376E+01 0.66371518816E+01 0.78939348468E+01 0.92351536657E+01 0.10575476126E+02
 0.11804925758E+02 0.12802073926E+02 0.13454399240E+02 0.13681574029E+02 0.13454389792E+02
 0.12802072440E+02 0.11804944199E+02 0.10575511610E+02 0.92351969855E+01 0.78939687441E+01
 0.66371446252E+01 0.55202103724E+01 0.44964337280E+01 0.36793063071E+01 0.30487885925E+01
 0.25800580265E+01 0.22497636543E+01 0.20395776639E+01 0.19374240710E+01 0.19374194477E+01
 0.20395607188E+01 0.22497345129E+01 0.25800362361E+01 0.30488089989E+01 0.36793843134E+01
 0.44965359529E+01 0.55202768376E+01 0.67575303798E+01 0.81929358883E+01 0.97804206994E+01
 0.11437448362E+02 0.13044533240E+02 0.14453578117E+02 0.15508118333E+02 0.16074333481E+02
 0.16074336814E+02 0.15508129718E+02 0.14453596845E+02 0.13044555510E+02 0.11437477324E+02
 0.97804627417E+01 0.81929761476E+01 0.67575290956E+01 0.53339595174E+01 0.42840469014E+01
 0.34678073753E+01 0.28552818661E+01 0.24148950684E+01 0.21196140963E+01 0.19499731600E+01
 0.18946430267E+01 0.19499524694E+01 0.21195812741E+01 0.24148727347E+01 0.28553005342E+01
 0.34678787399E+01 0.42841402516E+01 0.53340180719E+01 0.66371518816E+01 0.81929358883E+01
 0.99705649202E+01 0.11899974508E+02 0.13865275593E+02 0.15704944018E+02 0.17225795699E+02
 0.18235744707E+02 0.18590390265E+02 0.18235764973E+02 0.17225823314E+02 0.15704962600E+02
 0.13865284113E+02 0.11899993717E+02 0.99706108287E+01 0.81929868915E+01 0.66371597095E+01
 0.49842559668E+01 0.39583136087E+01 0.31813174795E+01 0.26148021280E+01 0.22225926347E+01
 0.19763678308E+01 0.18576789613E+01 0.18576697436E+01 0.19763394924E+01 0.22225586337E+01
 0.26148013685E+01 0.31813791391E+01 0.39584106642E+01 0.49843190726E+01 0.62911088162E+01
 0.78939348468E+01 0.97804206994E+01 0.11899974508E+02 0.14152921936E+02 0.16382157651E+02
 0.18375973308E+02 0.19892992744E+02 0.20714725709E+02 0.20714718209E+02 0.19892981921E+02
 0.18375975387E+02 0.16382170174E+02 0.14152937116E+02 0.11900003487E+02 0.97804775895E+01