    2    2   15    1
  0.2001288E+02  0.3839590E-09  0.3839590E-09  0.3839590E-09  0.5000000E-15
  1.000000000000000E-004
  CAR 
 unknown system                          
      8      4      8
 
  0.0000000E+00  0.0000000E+00  0.0000000E+00  0.3703704E-01
    1       -6.168095   1.000000
    2        5.557392   0.994431
    3        5.557409   0.994429
    4        5.557409   0.994429
    5        8.065598   0.000000
    6        8.065615   0.000000
    7        8.065615   0.000000
    8        8.486079   0.000000
 
  0.3333333E+00  0.6723763E-17  0.1473614E-18  0.2962963E+00
    1       -4.838014   1.000000
    2        0.310821   1.000000
    3        4.573406   1.000000
    4        4.573421   1.000000
    5        7.172638   0.000000
    6        9.021066   0.000000
    7        9.021099   0.000000
    8       13.245347   0.000000
 
  0.3333333E+00  0.3333333E+00  0.1682863E-16  0.2222222E+00
    1       -4.324272   1.000000
    2        0.566946   1.000000
    3        3.200715   1.000000
    4        3.200725   1.000000
    5        6.308396   0.002785
    6        7.572041   0.000000
    7       12.650365   0.000000
    8       12.650380   0.000000
 
 -0.3333333E+00  0.3333333E+00  0.1344753E-16  0.4444444E+00
    1       -3.020269   1.000000
    2       -1.133258   1.000000
    3        1.287830   1.000000
    4        3.495075   1.000000
    5        7.130674   0.000000
    6       11.316356   0.000000
    7       11.872559   0.000000
    8       12.444229   0.000000
