   2   2   0   0
  0.1636800E+02  0.3705141E-09  0.3705141E-09  0.3705141E-09  0.5000000E-15
  1.000000000000000E-004
  CAR 
 unknown system                          
     22.16416554     -6.76385995  301      8.23482464      1.00000000
     -6.764  0.0000E+00  0.0000E+00
     -6.667  0.0000E+00  0.0000E+00
     -6.571  0.0000E+00  0.0000E+00
     -6.475  0.0000E+00  0.0000E+00
     -6.378  0.0000E+00  0.0000E+00
     -6.282  0.0000E+00  0.0000E+00
     -6.185  0.0000E+00  0.0000E+00
     -6.089  0.0000E+00  0.0000E+00
     -5.992  0.0000E+00  0.0000E+00
     -5.896  0.6596E-17  0.6361E-18
     -5.800  0.1296E-14  0.1256E-15
     -5.703  0.1660E-12  0.1613E-13
     -5.607  0.1345E-10  0.1313E-11
     -5.510  0.6911E-09  0.6795E-10
     -5.414  0.2252E-07  0.2240E-08
     -5.317  0.4663E-06  0.4721E-07
     -5.221  0.6145E-05  0.6397E-06
     -5.125  0.5164E-04  0.5619E-05
     -5.028  0.2778E-03  0.3240E-04
     -4.932  0.9638E-03  0.1253E-03
     -4.835  0.2202E-02  0.3376E-03
     -4.739  0.3525E-02  0.6776E-03
     -4.642  0.4723E-02  0.1133E-02
     -4.546  0.6887E-02  0.1797E-02
     -4.450  0.1077E-01  0.2835E-02
     -4.353  0.1433E-01  0.4217E-02
     -4.257  0.1485E-01  0.5649E-02
     -4.160  0.1261E-01  0.6865E-02
     -4.064  0.9950E-02  0.7824E-02
     -3.967  0.8814E-02  0.8674E-02
     -3.871  0.1061E-01  0.9698E-02
     -3.775  0.1605E-01  0.1125E-01
     -3.678  0.2312E-01  0.1347E-01
     -3.582  0.2613E-01  0.1599E-01
     -3.485  0.2220E-01  0.1813E-01
     -3.389  0.1739E-01  0.1981E-01
     -3.292  0.1804E-01  0.2155E-01
     -3.196  0.2103E-01  0.2358E-01
     -3.100  0.2080E-01  0.2558E-01
     -3.003  0.1863E-01  0.2738E-01
     -2.907  0.1854E-01  0.2917E-01
     -2.810  0.2076E-01  0.3117E-01
     -2.714  0.2345E-01  0.3343E-01
     -2.618  0.2607E-01  0.3594E-01
     -2.521  0.2772E-01  0.3862E-01
     -2.425  0.2633E-01  0.4116E-01
     -2.328  0.2416E-01  0.4349E-01
     -2.232  0.2776E-01  0.4616E-01
     -2.135  0.3565E-01  0.4960E-01
     -2.039  0.3688E-01  0.5316E-01
     -1.943  0.2777E-01  0.5584E-01
     -1.846  0.1644E-01  0.5742E-01
     -1.750  0.1068E-01  0.5845E-01
     -1.653  0.1360E-01  0.5976E-01
     -1.557  0.2578E-01  0.6225E-01
     -1.460  0.4320E-01  0.6641E-01
     -1.364  0.5482E-01  0.7170E-01
     -1.268  0.5121E-01  0.7664E-01
     -1.171  0.3821E-01  0.8032E-01
     -1.075  0.2995E-01  0.8321E-01
     -0.978  0.3006E-01  0.8611E-01
     -0.882  0.3184E-01  0.8918E-01
     -0.785  0.3051E-01  0.9212E-01
     -0.689  0.2704E-01  0.9473E-01
     -0.593  0.2468E-01  0.9711E-01
     -0.496  0.2563E-01  0.9958E-01
     -0.400  0.2893E-01  0.1024E+00
     -0.303  0.3096E-01  0.1054E+00
     -0.207  0.3114E-01  0.1084E+00
     -0.110  0.3573E-01  0.1118E+00
     -0.014  0.4856E-01  0.1165E+00
      0.082  0.6016E-01  0.1223E+00
      0.179  0.5866E-01  0.1279E+00
      0.275  0.4739E-01  0.1325E+00
      0.372  0.3798E-01  0.1362E+00
      0.468  0.3565E-01  0.1396E+00
      0.565  0.4150E-01  0.1436E+00
      0.661  0.5430E-01  0.1488E+00
      0.757  0.6380E-01  0.1550E+00
      0.854  0.6003E-01  0.1608E+00
      0.950  0.4897E-01  0.1655E+00
      1.047  0.4145E-01  0.1695E+00
      1.143  0.3623E-01  0.1730E+00
      1.240  0.2896E-01  0.1758E+00
      1.336  0.2357E-01  0.1781E+00
      1.432  0.2328E-01  0.1803E+00
      1.529  0.2353E-01  0.1826E+00
      1.625  0.2040E-01  0.1845E+00
      1.722  0.1726E-01  0.1862E+00
      1.818  0.1912E-01  0.1881E+00
      1.915  0.2576E-01  0.1905E+00
      2.011  0.3612E-01  0.1940E+00
      2.107  0.5224E-01  0.1991E+00
      2.204  0.6975E-01  0.2058E+00
      2.300  0.7646E-01  0.2132E+00
      2.397  0.6893E-01  0.2198E+00
      2.493  0.5630E-01  0.2252E+00
      2.590  0.4472E-01  0.2295E+00
      2.686  0.3343E-01  0.2328E+00
      2.782  0.2376E-01  0.2351E+00
      2.879  0.1843E-01  0.2368E+00
      2.975  0.1746E-01  0.2385E+00
      3.072  0.2119E-01  0.2406E+00
      3.168  0.3094E-01  0.2435E+00
      3.265  0.4317E-01  0.2477E+00
      3.361  0.4913E-01  0.2524E+00
      3.457  0.4382E-01  0.2567E+00
      3.554  0.3302E-01  0.2599E+00
      3.650  0.2906E-01  0.2627E+00
      3.747  0.4027E-01  0.2665E+00
      3.843  0.6368E-01  0.2727E+00
      3.940  0.8476E-01  0.2809E+00
      4.036  0.8873E-01  0.2894E+00
      4.132  0.7740E-01  0.2969E+00
      4.229  0.6531E-01  0.3032E+00
      4.325  0.5824E-01  0.3088E+00
      4.422  0.5061E-01  0.3137E+00
      4.518  0.4077E-01  0.3176E+00
      4.614  0.3296E-01  0.3208E+00
      4.711  0.2819E-01  0.3235E+00
      4.807  0.2496E-01  0.3259E+00
      4.904  0.2504E-01  0.3283E+00
      5.000  0.3317E-01  0.3315E+00
      5.097  0.5179E-01  0.3365E+00
      5.193  0.7473E-01  0.3437E+00
      5.289  0.8973E-01  0.3524E+00
      5.386  0.9051E-01  0.3611E+00
      5.482  0.7996E-01  0.3688E+00
      5.579  0.6348E-01  0.3749E+00
      5.675  0.4818E-01  0.3796E+00
      5.772  0.4332E-01  0.3838E+00
      5.868  0.5134E-01  0.3887E+00
      5.964  0.6296E-01  0.3948E+00
      6.061  0.6765E-01  0.4013E+00
      6.157  0.6253E-01  0.4073E+00
      6.254  0.5207E-01  0.4123E+00
      6.350  0.4630E-01  0.4168E+00
      6.447  0.5244E-01  0.4219E+00
      6.543  0.6834E-01  0.4285E+00
      6.639  0.8717E-01  0.4369E+00
      6.736  0.1011E+00  0.4466E+00
      6.832  0.1027E+00  0.4565E+00
      6.929  0.9259E-01  0.4654E+00
      7.025  0.7945E-01  0.4731E+00
      7.122  0.6847E-01  0.4797E+00
      7.218  0.5927E-01  0.4854E+00
      7.314  0.5139E-01  0.4904E+00
      7.411  0.4381E-01  0.4946E+00
      7.507  0.3594E-01  0.4981E+00
      7.604  0.3191E-01  0.5011E+00
      7.700  0.3541E-01  0.5046E+00
      7.797  0.4278E-01  0.5087E+00
      7.893  0.4821E-01  0.5133E+00
      7.989  0.5256E-01  0.5184E+00
      8.086  0.5885E-01  0.5241E+00
      8.182  0.6296E-01  0.5302E+00
      8.279  0.5848E-01  0.5358E+00
      8.375  0.4815E-01  0.5404E+00
      8.472  0.4193E-01  0.5445E+00
      8.568  0.4403E-01  0.5487E+00
      8.664  0.4878E-01  0.5534E+00
      8.761  0.4942E-01  0.5582E+00
      8.857  0.4510E-01  0.5625E+00
      8.954  0.3834E-01  0.5662E+00
      9.050  0.3106E-01  0.5692E+00
      9.147  0.2602E-01  0.5717E+00
      9.243  0.2762E-01  0.5744E+00
      9.339  0.3720E-01  0.5780E+00
      9.436  0.5064E-01  0.5829E+00
      9.532  0.6245E-01  0.5889E+00
      9.629  0.6824E-01  0.5955E+00
      9.725  0.6527E-01  0.6018E+00
      9.822  0.5782E-01  0.6073E+00
      9.918  0.5599E-01  0.6127E+00
     10.014  0.6441E-01  0.6190E+00
     10.111  0.7674E-01  0.6264E+00
     10.207  0.8158E-01  0.6342E+00
     10.304  0.7452E-01  0.6414E+00
     10.400  0.6290E-01  0.6475E+00
     10.497  0.5468E-01  0.6527E+00
     10.593  0.4987E-01  0.6576E+00
     10.689  0.4754E-01  0.6621E+00
     10.786  0.5050E-01  0.6670E+00
     10.882  0.6041E-01  0.6728E+00
     10.979  0.7604E-01  0.6802E+00
     11.075  0.9384E-01  0.6892E+00
     11.172  0.1068E+00  0.6995E+00
     11.268  0.1085E+00  0.7100E+00
     11.364  0.9790E-01  0.7194E+00
     11.461  0.7904E-01  0.7270E+00
     11.557  0.5786E-01  0.7326E+00
     11.654  0.4116E-01  0.7366E+00
     11.750  0.3131E-01  0.7396E+00
     11.847  0.2523E-01  0.7420E+00
     11.943  0.2267E-01  0.7442E+00
     12.039  0.2830E-01  0.7470E+00
     12.136  0.4507E-01  0.7513E+00
     12.232  0.6967E-01  0.7580E+00
     12.329  0.9234E-01  0.7669E+00
     12.425  0.1030E+00  0.7769E+00
     12.521  0.9970E-01  0.7865E+00
     12.618  0.8721E-01  0.7949E+00
     12.714  0.7174E-01  0.8018E+00
     12.811  0.6135E-01  0.8077E+00
     12.907  0.6423E-01  0.8139E+00
     13.004  0.7979E-01  0.8216E+00
     13.100  0.9666E-01  0.8309E+00
     13.196  0.1032E+00  0.8409E+00
     13.293  0.9646E-01  0.8502E+00
     13.389  0.8160E-01  0.8580E+00
     13.486  0.6972E-01  0.8648E+00
     13.582  0.6999E-01  0.8715E+00
     13.679  0.7995E-01  0.8792E+00
     13.775  0.8943E-01  0.8879E+00
     13.871  0.9187E-01  0.8967E+00
     13.968  0.8551E-01  0.9050E+00
     14.064  0.7167E-01  0.9119E+00
     14.161  0.5684E-01  0.9173E+00
     14.257  0.4899E-01  0.9221E+00
     14.354  0.4915E-01  0.9268E+00
     14.450  0.5239E-01  0.9319E+00
     14.546  0.5468E-01  0.9371E+00
     14.643  0.5469E-01  0.9424E+00
     14.739  0.5566E-01  0.9478E+00
     14.836  0.6295E-01  0.9538E+00
     14.932  0.7349E-01  0.9609E+00
     15.029  0.7710E-01  0.9684E+00
     15.125  0.6923E-01  0.9750E+00
     15.221  0.5595E-01  0.9804E+00
     15.318  0.4646E-01  0.9849E+00
     15.414  0.4372E-01  0.9891E+00
     15.511  0.4336E-01  0.9933E+00
     15.607  0.4035E-01  0.9972E+00
     15.704  0.3708E-01  0.1001E+01
     15.800  0.4140E-01  0.1005E+01
     15.896  0.5348E-01  0.1010E+01
     15.993  0.6185E-01  0.1016E+01
     16.089  0.5784E-01  0.1021E+01
     16.186  0.4599E-01  0.1026E+01
     16.282  0.3545E-01  0.1029E+01
     16.379  0.2892E-01  0.1032E+01
     16.475  0.2346E-01  0.1034E+01
     16.571  0.1781E-01  0.1036E+01
     16.668  0.1370E-01  0.1037E+01
     16.764  0.1075E-01  0.1038E+01
     16.861  0.7284E-02  0.1039E+01
     16.957  0.4689E-02  0.1040E+01
     17.054  0.6845E-02  0.1040E+01
     17.150  0.1639E-01  0.1042E+01
     17.246  0.2927E-01  0.1045E+01
     17.343  0.3448E-01  0.1048E+01
     17.439  0.2734E-01  0.1051E+01
     17.536  0.1652E-01  0.1052E+01
     17.632  0.1035E-01  0.1053E+01
     17.729  0.8224E-02  0.1054E+01
     17.825  0.7418E-02  0.1055E+01
     17.921  0.7375E-02  0.1055E+01
     18.018  0.7516E-02  0.1056E+01
     18.114  0.6750E-02  0.1057E+01
     18.211  0.5679E-02  0.1057E+01
     18.307  0.6128E-02  0.1058E+01
     18.404  0.8054E-02  0.1059E+01
     18.500  0.9790E-02  0.1060E+01
     18.596  0.1054E-01  0.1061E+01
     18.693  0.1033E-01  0.1062E+01
     18.789  0.8861E-02  0.1063E+01
     18.886  0.6081E-02  0.1063E+01
     18.982  0.3095E-02  0.1063E+01
     19.079  0.1391E-02  0.1064E+01
     19.175  0.1391E-02  0.1064E+01
     19.271  0.2451E-02  0.1064E+01
     19.368  0.3499E-02  0.1064E+01
     19.464  0.3935E-02  0.1065E+01
     19.561  0.3856E-02  0.1065E+01
     19.657  0.3201E-02  0.1065E+01
     19.753  0.1997E-02  0.1066E+01
     19.850  0.9536E-03  0.1066E+01
     19.946  0.7530E-03  0.1066E+01
     20.043  0.1483E-02  0.1066E+01
     20.139  0.2539E-02  0.1066E+01
     20.236  0.2846E-02  0.1066E+01
     20.332  0.2043E-02  0.1067E+01
     20.428  0.9373E-03  0.1067E+01
     20.525  0.2748E-03  0.1067E+01
     20.621  0.5142E-04  0.1067E+01
     20.718  0.6134E-05  0.1067E+01
     20.814  0.4660E-06  0.1067E+01
     20.911  0.2252E-07  0.1067E+01
     21.007  0.6910E-09  0.1067E+01
     21.103  0.1345E-10  0.1067E+01
     21.200  0.1660E-12  0.1067E+01
     21.296  0.1295E-14  0.1067E+01
     21.393  0.7196E-17  0.1067E+01
     21.489  0.0000E+00  0.1067E+01
     21.586  0.0000E+00  0.1067E+01
     21.682  0.0000E+00  0.1067E+01
     21.778  0.0000E+00  0.1067E+01
     21.875  0.0000E+00  0.1067E+01
     21.971  0.0000E+00  0.1067E+01
     22.068  0.0000E+00  0.1067E+01
     22.164  0.0000E+00  0.1067E+01
