    2    2   15    1
  0.1636800E+02  0.3705141E-09  0.3705141E-09  0.3705141E-09  0.5000000E-15
  1.000000000000000E-004
  CAR 
 unknown system                          
      8     56      8
 
  0.6250000E-01  0.6250000E-01  0.6250000E-01  0.1562500E-01
    1       -4.379133   1.000000
    2        4.274830   1.000000
    3        6.483927   1.000000
    4        8.098473   0.832515
    5       11.615245   0.000000
    6       12.829939   0.000000
    7       13.330383   0.000000
    8       15.561812   0.000000
 
  0.1875000E+00  0.6250000E-01  0.6250000E-01  0.3125000E-01
    1       -3.232702   1.000000
    2        3.947616   1.000000
    3        6.676715   1.000000
    4        8.621010   0.003160
    5       10.148892   0.000000
    6       10.412018   0.000000
    7       13.095653   0.000000
    8       13.972397   0.000000
 
  0.3125000E+00  0.6250000E-01  0.6250000E-01  0.3125000E-01
    1       -1.357884   1.000000
    2        3.956540   1.000000
    3        5.146250   1.000000
    4        6.856076   1.000000
    5        8.119416   0.792767
    6       11.221466   0.000000
    7       12.587001   0.000000
    8       13.262211   0.000000
 
  0.4375000E+00  0.6250000E-01  0.6250000E-01  0.1562500E-01
    1        0.720972   1.000000
    2        1.867062   1.000000
    3        5.261206   1.000000
    4        5.913783   1.000000
    5        7.980840   0.963748
    6       10.219154   0.000000
    7       12.584019   0.000000
    8       13.574598   0.000000
 
 -0.6250000E-01  0.6250000E-01  0.6250000E-01  0.7812500E-02
    1       -4.763860   1.000000
    2        4.914448   1.000000
    3        5.715682   1.000000
    4        7.774449   0.999434
    5       10.803912   0.000000
    6       14.323247   0.000000
    7       16.151489   0.000000
    8       16.602222   0.000000
 
  0.1875000E+00  0.1875000E+00  0.6250000E-01  0.1562500E-01
    1       -1.539390   1.000000
    2        4.043339   1.000000
    3        5.855122   1.000000
    4        6.172004   1.000000
    5        9.202557   0.000000
    6       11.113107   0.000000
    7       12.335634   0.000000
    8       12.604880   0.000000
 
  0.3125000E+00  0.1875000E+00  0.6250000E-01  0.3125000E-01
    1        0.707799   1.000000
    2        2.522618   1.000000
    3        3.882827   1.000000
    4        5.466503   1.000000
    5        9.352540   0.000000
    6       11.112308   0.000000
    7       12.190033   0.000000
    8       14.225698   0.000000
 
  0.4375000E+00  0.1875000E+00  0.6250000E-01  0.3125000E-01
    1       -0.449967   1.000000
    2        2.337027   1.000000
    3        4.389063   1.000000
    4        6.764935   1.000000
    5        8.707764   0.000413
    6       11.389331   0.000000
    7       13.197133   0.000000
    8       14.006355   0.000000
 
 -0.4375000E+00  0.1875000E+00  0.6250000E-01  0.3125000E-01
    1       -2.485138   1.000000
    2        1.887246   1.000000
    3        7.108708   1.000000
    4        8.205944   0.580909
    5        9.693062   0.000000
    6       11.198583   0.000000
    7       12.363465   0.000000
    8       14.575587   0.000000
 
 -0.3125000E+00  0.1875000E+00  0.6250000E-01  0.1562500E-01
    1       -3.813019   1.000000
    2        2.053368   1.000000
    3        6.978826   1.000000
    4        9.023060   0.000000
    5       11.479341   0.000000
    6       12.775265   0.000000
    7       13.838771   0.000000
    8       14.452891   0.000000
 
 -0.1875000E+00  0.1875000E+00  0.6250000E-01  0.1562500E-01
    1       -4.385352   1.000000
    2        2.892743   1.000000
    3        5.839757   1.000000
    4        9.002888   0.000000
    5       12.461355   0.000000
    6       12.750649   0.000000
    7       15.441466   0.000000
    8       15.824975   0.000000
 
 -0.6250000E-01  0.1875000E+00  0.6250000E-01  0.1562500E-01
    1       -4.190376   1.000000
    2        4.003266   1.000000
    3        5.176874   1.000000
    4        9.534303   0.000000
    5       11.997950   0.000000
    6       12.340261   0.000000
    7       13.064329   0.000000
    8       14.822235   0.000000
 
  0.3125000E+00  0.3125000E+00  0.6250000E-01  0.1562500E-01
    1        0.741961   1.000000
    2        0.856349   1.000000
    3        4.175333   1.000000
    4        6.680264   1.000000
    5        9.517959   0.000000
    6       10.264714   0.000000
    7       14.300193   0.000000
    8       14.999949   0.000000
 
  0.4375000E+00  0.3125000E+00  0.6250000E-01  0.3125000E-01
    1       -1.372260   1.000000
    2        0.093464   1.000000
    3        7.355518   1.000000
    4        8.160495   0.700413
    5        9.653437   0.000000
    6       10.950758   0.000000
    7       12.231672   0.000000
    8       13.593709   0.000000
 
 -0.4375000E+00  0.3125000E+00  0.6250000E-01  0.1562500E-01
    1       -2.874425   1.000000
    2        0.080481   1.000000
    3        7.788641   0.999197
    4        9.952919   0.000000
    5       10.233782   0.000000
    6       12.311497   0.000000
    7       12.994836   0.000000
    8       13.022179   0.000000
 
 -0.3125000E+00  0.3125000E+00  0.6250000E-01  0.1562500E-01
    1       -3.631238   1.000000
    2        0.791723   1.000000
    3        6.519367   1.000000
    4        9.932633   0.000000
    5       10.571321   0.000000
    6       13.905183   0.000000
    7       15.295263   0.000000
    8       15.781290   0.000000
 
 -0.1875000E+00  0.3125000E+00  0.6250000E-01  0.3125000E-01
    1       -3.625616   1.000000
    2        2.179743   1.000000
    3        5.305946   1.000000
    4       10.225571   0.000000
    5       10.849764   0.000000
    6       12.223758   0.000000
    7       14.078202   0.000000
    8       14.947662   0.000000
 
 -0.6250000E-01  0.3125000E+00  0.6250000E-01  0.1562500E-01
    1       -2.859338   1.000000
    2        3.771717   1.000000
    3        5.110276   1.000000
    4        7.743826   0.999742
    5       10.588113   0.000000
    6       12.382771   0.000000
    7       12.703797   0.000000
    8       12.924356   0.000000
 
  0.4375000E+00  0.4375000E+00  0.6250000E-01  0.7812500E-02
    1       -1.571697   1.000000
    2       -1.571697   1.000000
    3        8.877755   0.000003
    4        8.877755   0.000003
    5       11.232539   0.000000
    6       11.232540   0.000000
    7       12.601470   0.000000
    8       12.601471   0.000000
 
 -0.4375000E+00  0.4375000E+00  0.6250000E-01  0.1562500E-01
    1       -2.507824   1.000000
    2       -1.026362   1.000000
    3        7.551331   0.999999
    4        8.911958   0.000001
    5       11.030699   0.000000
    6       12.374214   0.000000
    7       15.285969   0.000000
    8       15.420614   0.000000
 
 -0.3125000E+00  0.4375000E+00  0.6250000E-01  0.3125000E-01
    1       -2.689706   1.000000
    2        0.248263   1.000000
    3        6.132567   1.000000
    4        8.790214   0.000043
    5       10.783985   0.000000
    6       12.429079   0.000000
    7       13.838498   0.000000
    8       15.067578   0.000000
 
 -0.1875000E+00  0.4375000E+00  0.6250000E-01  0.3125000E-01
    1       -2.116295   1.000000
    2        2.168523   1.000000
    3        5.297095   1.000000
    4        7.098473   1.000000
    5        9.410679   0.000000
    6       11.753184   0.000000
    7       13.692783   0.000000
    8       14.559107   0.000000
 
 -0.6250000E-01  0.4375000E+00  0.6250000E-01  0.1562500E-01
    1       -0.817376   1.000000
    2        3.415412   1.000000
    3        4.989422   1.000000
    4        5.600672   1.000000
    5        8.638802   0.002141
    6       10.987163   0.000000
    7       11.475717   0.000000
    8       14.597321   0.000000
 
 -0.4375000E+00 -0.4375000E+00  0.6250000E-01  0.1562500E-01
    1       -1.397593   1.000000
    2       -1.386654   1.000000
    3        7.284493   1.000000
    4        7.350950   1.000000
    5       10.705977   0.000000
    6       13.014853   0.000000
    7       13.868138   0.000000
    8       13.997972   0.000000
 
 -0.3125000E+00 -0.4375000E+00  0.6250000E-01  0.3125000E-01
    1       -1.012391   1.000000
    2        0.434978   1.000000
    3        6.026935   1.000000
    4        6.871385   1.000000
    5        8.006829   0.946538
    6       11.349105   0.000000
    7       14.823933   0.000000
    8       15.937810   0.000000
 
 -0.1875000E+00 -0.4375000E+00  0.6250000E-01  0.3125000E-01
    1        0.065566   1.000000
    2        2.539148   1.000000
    3        3.823826   1.000000
    4        6.098927   1.000000
    5        8.268856   0.404919
    6       10.084067   0.000000
    7       12.522812   0.000000
    8       15.973890   0.000000
 
 -0.6250000E-01 -0.4375000E+00  0.6250000E-01  0.1562500E-01
    1        0.363087   1.000000
    2        2.233871   1.000000
    3        5.895733   1.000000
    4        6.415462   1.000000
    5        7.188754   1.000000
    6        9.817195   0.000000
    7       11.130130   0.000000
    8       14.913324   0.000000
 
 -0.3125000E+00 -0.3125000E+00  0.6250000E-01  0.1562500E-01
    1        1.107854   1.000000
    2        1.412646   1.000000
    3        3.427144   1.000000
    4        6.941120   1.000000
    5        7.412847   1.000000
    6        9.652778   0.000000
    7       14.390224   0.000000
    8       15.080642   0.000000
 
 -0.1875000E+00 -0.3125000E+00  0.6250000E-01  0.3125000E-01
    1        0.072650   1.000000
    2        3.204915   1.000000
    3        4.568099   1.000000
    4        6.771536   1.000000
    5        7.811913   0.998607
    6        9.584022   0.000000
    7       11.283956   0.000000
    8       13.679521   0.000000
 
 -0.6250000E-01 -0.3125000E+00  0.6250000E-01  0.1562500E-01
    1       -1.908102   1.000000
    2        5.185754   1.000000
    3        6.637193   1.000000
    4        6.736605   1.000000
    5        7.871664   0.994885
    6       10.429735   0.000000
    7       11.027267   0.000000
    8       13.011270   0.000000
 
 -0.1875000E+00 -0.1875000E+00  0.6250000E-01  0.1562500E-01
    1       -2.092276   1.000000
    2        5.913390   1.000000
    3        6.546988   1.000000
    4        7.093405   1.000000
    5        8.327831   0.255380
    6        9.808952   0.000000
    7       11.248831   0.000000
    8       11.426516   0.000000
 
 -0.6250000E-01 -0.1875000E+00  0.6250000E-01  0.1562500E-01
    1       -3.608015   1.000000
    2        5.903086   1.000000
    3        6.587255   1.000000
    4        8.519285   0.022139
    5       10.102585   0.000000
    6       10.494614   0.000000
    7       11.743527   0.000000
    8       13.167892   0.000000
 
 -0.6250000E-01 -0.6250000E-01  0.6250000E-01  0.3906250E-02
    1       -4.568320   1.000000
    2        6.317806   1.000000
    3        6.317806   1.000000
    4        6.726556   1.000000
    5       10.542040   0.000000
    6       13.451524   0.000000
    7       13.674970   0.000000
    8       15.661080   0.000000
 
  0.1875000E+00  0.1875000E+00  0.1875000E+00  0.1562500E-01
    1       -0.625223   1.000000
    2        2.216377   1.000000
    3        5.430162   1.000000
    4        5.568824   1.000000
    5       10.235172   0.000000
    6       12.055235   0.000000
    7       13.301207   0.000000
    8       13.648825   0.000000
 
  0.3125000E+00  0.1875000E+00  0.1875000E+00  0.1562500E-01
    1        1.415700   1.000000
    2        2.267496   1.000000
    3        3.424641   1.000000
    4        4.185506   1.000000
    5       11.024987   0.000000
    6       12.979768   0.000000
    7       13.343699   0.000000
    8       13.373268   0.000000
 
 -0.1875000E+00  0.1875000E+00  0.1875000E+00  0.7812500E-02
    1       -4.008615   1.000000
    2        2.726232   1.000000
    3        4.101297   1.000000
    4       10.447116   0.000000
    5       11.090277   0.000000
    6       13.810842   0.000000
    7       15.103791   0.000000
    8       15.428444   0.000000
 
  0.3125000E+00  0.3125000E+00  0.1875000E+00  0.7812500E-02
    1        0.636395   1.000000
    2        0.636395   1.000000
    3        5.326311   1.000000
    4        5.326312   1.000000
    5       11.508010   0.000000
    6       11.508012   0.000000
    7       13.246914   0.000000
    8       13.246919   0.000000
 
 -0.3125000E+00  0.3125000E+00  0.1875000E+00  0.1562500E-01
    1       -3.258501   1.000000
    2        1.084162   1.000000
    3        4.331358   1.000000
    4        8.455621   0.059230
    5       12.339070   0.000000
    6       14.396002   0.000000
    7       15.024597   0.000000
    8       16.409794   0.000000
 
 -0.1875000E+00  0.3125000E+00  0.1875000E+00  0.1562500E-01
    1       -3.065354   1.000000
    2        2.164049   1.000000
    3        3.634407   1.000000
    4        8.538756   0.015812
    5       10.571355   0.000000
    6       13.725064   0.000000
    7       15.246715   0.000000
    8       15.594862   0.000000
 
 -0.4375000E+00  0.4375000E+00  0.1875000E+00  0.1562500E-01
    1       -2.142880   1.000000
    2       -0.678493   1.000000
    3        5.338970   1.000000
    4        6.731934   1.000000
    5       13.180199   0.000000
    6       13.809890   0.000000
    7       15.150967   0.000000
    8       15.880641   0.000000
 
 -0.3125000E+00  0.4375000E+00  0.1875000E+00  0.3125000E-01
    1       -2.138755   1.000000
    2        0.715891   1.000000
    3        4.002921   1.000000
    4        6.718416   1.000000
    5       10.092108   0.000000
    6       14.900066   0.000000
    7       15.520704   0.000000
    8       17.298616   0.000000
 
 -0.1875000E+00  0.4375000E+00  0.1875000E+00  0.1562500E-01
    1       -1.384155   1.000000
    2        2.301075   1.000000
    3        3.840658   1.000000
    4        6.297896   1.000000
    5        7.680773   0.999955
    6       12.950044   0.000000
    7       14.344683   0.000000
    8       16.158168   0.000000
 
 -0.4375000E+00 -0.4375000E+00  0.1875000E+00  0.1562500E-01
    1       -0.873144   1.000000
    2       -0.849655   1.000000
    3        5.146084   1.000000
    4        5.199986   1.000000
    5        9.925121   0.000000
    6       15.021945   0.000000
    7       16.361559   0.000000
    8       16.716344   0.000000
 
 -0.3125000E+00 -0.4375000E+00  0.1875000E+00  0.3125000E-01
    1       -0.305208   1.000000
    2        1.071442   1.000000
    3        4.312389   1.000000
    4        5.473801   1.000000
    5        6.504750   1.000000
    6       13.109410   0.000000
    7       15.934856   0.000000
    8       17.259099   0.000000
 
 -0.1875000E+00 -0.4375000E+00  0.1875000E+00  0.1562500E-01
    1        0.863467   1.000000
    2        2.424832   1.000000
    3        3.946278   1.000000
    4        4.709640   1.000000
    5        6.959720   1.000000
    6       11.123760   0.000000
    7       12.451545   0.000000
    8       16.106816   0.000000
 
 -0.3125000E+00 -0.3125000E+00  0.1875000E+00  0.1562500E-01
    1        1.499929   1.000000
    2        2.271718   1.000000
    3        3.317555   1.000000
    4        5.431828   1.000000
    5        5.595256   1.000000
    6       11.366701   0.000000
    7       13.856974   0.000000
    8       14.637872   0.000000
 
 -0.1875000E+00 -0.3125000E+00  0.1875000E+00  0.1562500E-01
    1       -0.264358   1.000000
    2        4.210421   1.000000
    3        5.212596   1.000000
    4        6.107243   1.000000
    5        6.982434   1.000000
    6       10.019126   0.000000
    7       11.151922   0.000000
    8       12.634195   0.000000
 
 -0.1875000E+00 -0.1875000E+00  0.1875000E+00  0.3906250E-02
    1       -2.277226   1.000000
    2        7.256286   1.000000
    3        7.256286   1.000000
    4        7.438971   1.000000
    5        7.603548   0.999996
    6        8.972808   0.000000
    7       10.959437   0.000000
    8       10.959440   0.000000
 
 -0.3125000E+00  0.3125000E+00  0.3125000E+00  0.7812500E-02
    1       -2.518004   1.000000
    2        1.235867   1.000000
    3        2.780603   1.000000
    4        6.411460   1.000000
    5       13.395400   0.000000
    6       13.868691   0.000000
    7       16.029181   0.000000
    8       17.819783   0.000000
 
 -0.4375000E+00  0.4375000E+00  0.3125000E+00  0.1562500E-01
    1       -1.424019   1.000000
    2       -0.026977   1.000000
    3        3.310654   1.000000
    4        4.667655   1.000000
    5       13.406002   0.000000
    6       13.512767   0.000000
    7       17.310370   0.000000
    8       18.378195   0.000000
 
 -0.3125000E+00  0.4375000E+00  0.3125000E+00  0.1562500E-01
    1       -1.234583   1.000000
    2        1.042068   1.000000
    3        2.621994   1.000000
    4        4.835935   1.000000
    5        9.589495   0.000000
    6       16.229375   0.000000
    7       17.618398   0.000000
    8       18.019170   0.000000
 
 -0.4375000E+00 -0.4375000E+00  0.3125000E+00  0.1562500E-01
    1       -0.048065   1.000000
    2       -0.006349   1.000000
    3        3.300476   1.000000
    4        3.330654   1.000000
    5        9.418368   0.000000
    6       16.398733   0.000000
    7       18.571949   0.000000
    8       18.759302   0.000000
 
 -0.3125000E+00 -0.4375000E+00  0.3125000E+00  0.1562500E-01
    1        0.692662   1.000000
    2        1.563921   1.000000
    3        3.169381   1.000000
    4        3.984904   1.000000
    5        5.938889   1.000000
    6       14.784993   0.000000
    7       16.026769   0.000000
    8       17.256618   0.000000
 
 -0.3125000E+00 -0.3125000E+00  0.3125000E+00  0.3906250E-02
    1        1.618435   1.000000
    2        3.013925   1.000000
    3        3.884580   1.000000
    4        4.392735   1.000000
    5        4.392735   1.000000
    6       13.078923   0.000000
    7       13.674560   0.000000
    8       13.674567   0.000000
 
 -0.4375000E+00  0.4375000E+00  0.4375000E+00  0.7812500E-02
    1       -0.400662   1.000000
    2        0.482198   1.000000
    3        2.092148   1.000000
    4        2.961900   1.000000
    5       13.199344   0.000000
    6       13.224148   0.000000
    7       19.573100   0.000000
    8       20.164166   0.000000
 
 -0.4375000E+00 -0.4375000E+00  0.4375000E+00  0.3906250E-02
    1        0.630389   1.000000
    2        0.700053   1.000000
    3        2.276874   1.000000
    4        2.276874   1.000000
    5        9.246619   0.000000
    6       16.729207   0.000000
    7       19.323115   0.000000
    8       19.323127   0.000000
