 running on    8 total cores
 distrk:  each k-point on    8 cores,    1 groups
 distr:  one band on    1 cores,    8 groups
 using from now: INCAR     
 vasp.5.4.4.18Apr17-6-g9f103f2a35 (build Dec 09 2018 21:25:21) complex          
  
 POSCAR found type information on POSCAR  Si
 POSCAR found :  1 types and       2 ions
 scaLAPACK will be used

 ----------------------------------------------------------------------------- 
|                                                                             |
|           W    W    AA    RRRRR   N    N  II  N    N   GGGG   !!!           |
|           W    W   A  A   R    R  NN   N  II  NN   N  G    G  !!!           |
|           W    W  A    A  R    R  N N  N  II  N N  N  G       !!!           |
|           W WW W  AAAAAA  RRRRR   N  N N  II  N  N N  G  GGG   !            |
|           WW  WW  A    A  R   R   N   NN  II  N   NN  G    G                |
|           W    W  A    A  R    R  N    N  II  N    N   GGGG   !!!           |
|                                                                             |
|      For optimal performance we recommend to set                            |
|        NCORE= 4 - approx SQRT( number of cores)                             |
|      NCORE specifies how many cores store one orbital (NPAR=cpu/NCORE).     |
|      This setting can  greatly improve the performance of VASP for DFT.     |
|      The default,   NCORE=1            might be grossly inefficient         |
|      on modern multi-core architectures or massively parallel machines.     |
|      Do your own testing !!!!                                               |
|      Unfortunately you need to use the default for GW and RPA calculations. |
|      (for HF NCORE is supported but not extensively tested yet)             |
|                                                                             |
 ----------------------------------------------------------------------------- 

 LDA part: xc-table for Pade appr. of Perdew
 POSCAR, INCAR and KPOINTS ok, starting setup
 FFT: planning ...
 WAVECAR not read
 entering main loop
       N       E                     dE             d eps       ncg     rms          rms(c)
DAV:   1     0.169638352730E+01    0.16964E+01   -0.27986E+03   904   0.581E+02
DAV:   2    -0.101108622523E+02   -0.11807E+02   -0.11475E+02  1344   0.668E+01
DAV:   3    -0.102514500601E+02   -0.14059E+00   -0.14007E+00  1184   0.873E+00
DAV:   4    -0.102519083991E+02   -0.45834E-03   -0.45833E-03  1432   0.483E-01
DAV:   5    -0.102519087193E+02   -0.32011E-06   -0.31958E-06  1224   0.947E-03    0.157E+00
DAV:   6    -0.102429380356E+02    0.89707E-02   -0.58531E-03  1224   0.474E-01    0.972E-01
DAV:   7    -0.102374152828E+02    0.55228E-02   -0.14281E-02  1184   0.773E-01    0.613E-02
DAV:   8    -0.102373553409E+02    0.59942E-04   -0.62340E-04   680   0.179E-01
   1 F= -.10237355E+02 E0= -.10228603E+02  d E =-.102374E+02
 curvature:   0.00 expect dE= 0.000E+00 dE for cont linesearch  0.000E+00
 trial: gam= 0.00000 g(F)=  0.128E-47 g(S)=  0.000E+00 ort = 0.000E+00 (trialstep = 0.100E+01)
 search vector abs. value=  0.100E-09
 reached required accuracy - stopping structural energy minimisation
 writing wavefunctions
