<?xml version="1.0" encoding="ISO-8859-1"?>
<modeling>
 <generator>
  <i name="program" type="string">vasp </i>
  <i name="version" type="string">5.4.4.18Apr17-6-g9f103f2a35  </i>
  <i name="subversion" type="string">(build Dec 09 2018 21:25:21) complex            parallel </i>
  <i name="platform" type="string">IFC18.0.1.163_CrayMPICH7.7.0_MKL18.0.1.163 </i>
  <i name="date" type="string">2019 04 01 </i>
  <i name="time" type="string">15:53:00 </i>
 </generator>
 <incar>
  <i type="string" name="PREC">normal</i>
  <i type="int" name="IBRION">     2</i>
  <i name="EDIFF">      0.00040000</i>
  <i name="EDIFFG">     -0.01000000</i>
  <i type="int" name="NSW">    15</i>
  <i type="int" name="ISIF">     2</i>
  <i name="ENCUT">    350.00000000</i>
  <i type="int" name="NBANDS">     8</i>
  <i type="logical" name="LREAL"> F  </i>
  <i type="int" name="ISMEAR">     0</i>
  <i name="SIGMA">      0.20000000</i>
  <v type="int" name="KPOINT_BSE">    -1     0     0     0</v>
 </incar>
 <structure name="primitive_cell" >
  <crystal>
   <varray name="basis" >
    <v>      -2.42959800       2.42959800       1.38642600 </v>
    <v>       2.42959800      -2.42959800       1.38642600 </v>
    <v>       2.42959800       2.42959800      -1.38642600 </v>
   </varray>
   <i name="volume">     32.73599369 </i>
   <varray name="rec_basis" >
    <v>       0.00000000       0.20579536       0.36063951 </v>
    <v>       0.20579536       0.00000000       0.36063951 </v>
    <v>       0.20579536       0.20579536       0.00000000 </v>
   </varray>
  </crystal>
  <varray name="positions" >
   <v>       0.00000000       0.00000000       0.00000000 </v>
   <v>       0.25000000      -0.25000000      -0.50000000 </v>
  </varray>
 </structure>
 <varray name="primitive_index" >
  <v type="int" >        1 </v>
  <v type="int" >        2 </v>
 </varray>
 <kpoints>
  <generation param="Monkhorst-Pack">
   <v type="int" name="divisions">       8        8        8 </v>
   <v name="usershift">      0.00000000       0.00000000       0.00000000 </v>
   <v name="genvec1">      0.12500000       0.00000000      -0.00000000 </v>
   <v name="genvec2">      0.00000000       0.12500000       0.00000000 </v>
   <v name="genvec3">     -0.00000000       0.00000000       0.12500000 </v>
   <v name="shift">      0.50000000       0.50000000       0.50000000 </v>
  </generation>
  <varray name="kpointlist" >
   <v>       0.06250000       0.06250000       0.06250000 </v>
   <v>       0.18750000       0.06250000       0.06250000 </v>
   <v>       0.31250000       0.06250000       0.06250000 </v>
   <v>       0.43750000       0.06250000       0.06250000 </v>
   <v>      -0.06250000       0.06250000       0.06250000 </v>
   <v>       0.18750000       0.18750000       0.06250000 </v>
   <v>       0.31250000       0.18750000       0.06250000 </v>
   <v>       0.43750000       0.18750000       0.06250000 </v>
   <v>      -0.43750000       0.18750000       0.06250000 </v>
   <v>      -0.31250000       0.18750000       0.06250000 </v>
   <v>      -0.18750000       0.18750000       0.06250000 </v>
   <v>      -0.06250000       0.18750000       0.06250000 </v>
   <v>       0.31250000       0.31250000       0.06250000 </v>
   <v>       0.43750000       0.31250000       0.06250000 </v>
   <v>      -0.43750000       0.31250000       0.06250000 </v>
   <v>      -0.31250000       0.31250000       0.06250000 </v>
   <v>      -0.18750000       0.31250000       0.06250000 </v>
   <v>      -0.06250000       0.31250000       0.06250000 </v>
   <v>       0.43750000       0.43750000       0.06250000 </v>
   <v>      -0.43750000       0.43750000       0.06250000 </v>
   <v>      -0.31250000       0.43750000       0.06250000 </v>
   <v>      -0.18750000       0.43750000       0.06250000 </v>
   <v>      -0.06250000       0.43750000       0.06250000 </v>
   <v>      -0.43750000      -0.43750000       0.06250000 </v>
   <v>      -0.31250000      -0.43750000       0.06250000 </v>
   <v>      -0.18750000      -0.43750000       0.06250000 </v>
   <v>      -0.06250000      -0.43750000       0.06250000 </v>
   <v>      -0.31250000      -0.31250000       0.06250000 </v>
   <v>      -0.18750000      -0.31250000       0.06250000 </v>
   <v>      -0.06250000      -0.31250000       0.06250000 </v>
   <v>      -0.18750000      -0.18750000       0.06250000 </v>
   <v>      -0.06250000      -0.18750000       0.06250000 </v>
   <v>      -0.06250000      -0.06250000       0.06250000 </v>
   <v>       0.18750000       0.18750000       0.18750000 </v>
   <v>       0.31250000       0.18750000       0.18750000 </v>
   <v>      -0.18750000       0.18750000       0.18750000 </v>
   <v>       0.31250000       0.31250000       0.18750000 </v>
   <v>      -0.31250000       0.31250000       0.18750000 </v>
   <v>      -0.18750000       0.31250000       0.18750000 </v>
   <v>      -0.43750000       0.43750000       0.18750000 </v>
   <v>      -0.31250000       0.43750000       0.18750000 </v>
   <v>      -0.18750000       0.43750000       0.18750000 </v>
   <v>      -0.43750000      -0.43750000       0.18750000 </v>
   <v>      -0.31250000      -0.43750000       0.18750000 </v>
   <v>      -0.18750000      -0.43750000       0.18750000 </v>
   <v>      -0.31250000      -0.31250000       0.18750000 </v>
   <v>      -0.18750000      -0.31250000       0.18750000 </v>
   <v>      -0.18750000      -0.18750000       0.18750000 </v>
   <v>      -0.31250000       0.31250000       0.31250000 </v>
   <v>      -0.43750000       0.43750000       0.31250000 </v>
   <v>      -0.31250000       0.43750000       0.31250000 </v>
   <v>      -0.43750000      -0.43750000       0.31250000 </v>
   <v>      -0.31250000      -0.43750000       0.31250000 </v>
   <v>      -0.31250000      -0.31250000       0.31250000 </v>
   <v>      -0.43750000       0.43750000       0.43750000 </v>
   <v>      -0.43750000      -0.43750000       0.43750000 </v>
  </varray>
  <varray name="weights" >
   <v>       0.01562500 </v>
   <v>       0.03125000 </v>
   <v>       0.03125000 </v>
   <v>       0.01562500 </v>
   <v>       0.00781250 </v>
   <v>       0.01562500 </v>
   <v>       0.03125000 </v>
   <v>       0.03125000 </v>
   <v>       0.03125000 </v>
   <v>       0.01562500 </v>
   <v>       0.01562500 </v>
   <v>       0.01562500 </v>
   <v>       0.01562500 </v>
   <v>       0.03125000 </v>
   <v>       0.01562500 </v>
   <v>       0.01562500 </v>
   <v>       0.03125000 </v>
   <v>       0.01562500 </v>
   <v>       0.00781250 </v>
   <v>       0.01562500 </v>
   <v>       0.03125000 </v>
   <v>       0.03125000 </v>
   <v>       0.01562500 </v>
   <v>       0.01562500 </v>
   <v>       0.03125000 </v>
   <v>       0.03125000 </v>
   <v>       0.01562500 </v>
   <v>       0.01562500 </v>
   <v>       0.03125000 </v>
   <v>       0.01562500 </v>
   <v>       0.01562500 </v>
   <v>       0.01562500 </v>
   <v>       0.00390625 </v>
   <v>       0.01562500 </v>
   <v>       0.01562500 </v>
   <v>       0.00781250 </v>
   <v>       0.00781250 </v>
   <v>       0.01562500 </v>
   <v>       0.01562500 </v>
   <v>       0.01562500 </v>
   <v>       0.03125000 </v>
   <v>       0.01562500 </v>
   <v>       0.01562500 </v>
   <v>       0.03125000 </v>
   <v>       0.01562500 </v>
   <v>       0.01562500 </v>
   <v>       0.01562500 </v>
   <v>       0.00390625 </v>
   <v>       0.00781250 </v>
   <v>       0.01562500 </v>
   <v>       0.01562500 </v>
   <v>       0.01562500 </v>
   <v>       0.01562500 </v>
   <v>       0.00390625 </v>
   <v>       0.00781250 </v>
   <v>       0.00390625 </v>
  </varray>
 </kpoints>
 <parameters>
  <separator name="general" >
   <i type="string" name="SYSTEM">unknown system</i>
   <i type="logical" name="LCOMPAT"> F  </i>
  </separator>
  <separator name="electronic" >
   <i type="string" name="PREC">normal</i>
   <i name="ENMAX">    350.00000000</i>
   <i name="ENAUG">    322.06900000</i>
   <i name="EDIFF">      0.00040000</i>
   <i type="int" name="IALGO">    38</i>
   <i type="int" name="IWAVPR">    11</i>
   <i type="int" name="NBANDS">     8</i>
   <i name="NELECT">      8.00000000</i>
   <i type="int" name="TURBO">     0</i>
   <i type="int" name="IRESTART">     0</i>
   <i type="int" name="NREBOOT">     0</i>
   <i type="int" name="NMIN">     0</i>
   <i name="EREF">      0.00000000</i>
   <separator name="electronic smearing" >
    <i type="int" name="ISMEAR">     0</i>
    <i name="SIGMA">      0.20000000</i>
    <i name="KSPACING">      0.50000000</i>
    <i type="logical" name="KGAMMA"> T  </i>
   </separator>
   <separator name="electronic projectors" >
    <i type="logical" name="LREAL"> F  </i>
    <v name="ROPT">      0.00000000</v>
    <i type="int" name="LMAXPAW">  -100</i>
    <i type="int" name="LMAXMIX">     2</i>
    <i type="logical" name="NLSPLINE"> F  </i>
   </separator>
   <separator name="electronic startup" >
    <i type="int" name="ISTART">     0</i>
    <i type="int" name="ICHARG">     2</i>
    <i type="int" name="INIWAV">     1</i>
   </separator>
   <separator name="electronic spin" >
    <i type="int" name="ISPIN">     1</i>
    <i type="logical" name="LNONCOLLINEAR"> F  </i>
    <v name="MAGMOM">      1.00000000      1.00000000</v>
    <i name="NUPDOWN">     -1.00000000</i>
    <i type="logical" name="LSORBIT"> F  </i>
    <v name="SAXIS">      0.00000000      0.00000000      1.00000000</v>
    <i type="logical" name="LSPIRAL"> F  </i>
    <v name="QSPIRAL">      0.00000000      0.00000000      0.00000000</v>
    <i type="logical" name="LZEROZ"> F  </i>
   </separator>
   <separator name="electronic exchange-correlation" >
    <i type="logical" name="LASPH"> F  </i>
    <i type="logical" name="LMETAGGA"> F  </i>
   </separator>
   <separator name="electronic convergence" >
    <i type="int" name="NELM">    60</i>
    <i type="int" name="NELMDL">    -5</i>
    <i type="int" name="NELMIN">     2</i>
    <i name="ENINI">    350.00000000</i>
    <separator name="electronic convergence detail" >
     <i type="logical" name="LDIAG"> T  </i>
     <i type="logical" name="LSUBROT"> F  </i>
     <i name="WEIMIN">      0.00100000</i>
     <i name="EBREAK">      0.00001250</i>
     <i name="DEPER">      0.30000000</i>
     <i type="int" name="NRMM">     4</i>
     <i name="TIME">      0.40000000</i>
    </separator>
   </separator>
   <separator name="electronic mixer" >
    <i name="AMIX">      0.40000000</i>
    <i name="BMIX">      1.00000000</i>
    <i name="AMIN">      0.10000000</i>
    <i name="AMIX_MAG">      1.60000000</i>
    <i name="BMIX_MAG">      1.00000000</i>
    <separator name="electronic mixer details" >
     <i type="int" name="IMIX">     4</i>
     <i type="logical" name="MIXFIRST"> F  </i>
     <i type="int" name="MAXMIX">   -45</i>
     <i name="WC">    100.00000000</i>
     <i type="int" name="INIMIX">     1</i>
     <i type="int" name="MIXPRE">     1</i>
     <i type="int" name="MREMOVE">     5</i>
    </separator>
   </separator>
   <separator name="electronic dipolcorrection" >
    <i type="logical" name="LDIPOL"> F  </i>
    <i type="logical" name="LMONO"> F  </i>
    <i type="int" name="IDIPOL">     0</i>
    <i name="EPSILON">      1.00000000</i>
    <v name="DIPOL">   -100.00000000   -100.00000000   -100.00000000</v>
    <i name="EFIELD">      0.00000000</i>
   </separator>
  </separator>
  <separator name="grids" >
   <i type="int" name="NGX">    18</i>
   <i type="int" name="NGY">    18</i>
   <i type="int" name="NGZ">    18</i>
   <i type="int" name="NGXF">    36</i>
   <i type="int" name="NGYF">    36</i>
   <i type="int" name="NGZF">    36</i>
   <i type="logical" name="ADDGRID"> F  </i>
  </separator>
  <separator name="ionic" >
   <i type="int" name="NSW">    15</i>
   <i type="int" name="IBRION">     2</i>
   <i type="int" name="MDALGO">     0</i>
   <i type="int" name="ISIF">     2</i>
   <i name="PSTRESS">      0.00000000</i>
   <i name="EDIFFG">     -0.01000000</i>
   <i type="int" name="NFREE">     1</i>
   <i name="POTIM">      0.50000000</i>
   <i name="SMASS">     -3.00000000</i>
   <i name="SCALEE">      1.00000000</i>
  </separator>
  <separator name="ionic md" >
   <i name="TEBEG">      0.00010000</i>
   <i name="TEEND">      0.00010000</i>
   <i type="int" name="NBLOCK">     1</i>
   <i type="int" name="KBLOCK">    15</i>
   <i type="int" name="NPACO">   256</i>
   <i name="APACO">     16.00000000</i>
  </separator>
  <separator name="symmetry" >
   <i type="int" name="ISYM">     2</i>
   <i name="SYMPREC">      0.00001000</i>
  </separator>
  <separator name="dos" >
   <i type="int" name="LORBIT">     0</i>
   <v name="RWIGS">     -1.00000000</v>
   <i type="int" name="NEDOS">   301</i>
   <i name="EMIN">     10.00000000</i>
   <i name="EMAX">    -10.00000000</i>
   <i name="EFERMI">      0.00000000</i>
  </separator>
  <separator name="writing" >
   <i type="int" name="NWRITE">     2</i>
   <i type="logical" name="LWAVE"> T  </i>
   <i type="logical" name="LDOWNSAMPLE"> F  </i>
   <i type="logical" name="LCHARG"> T  </i>
   <i type="logical" name="LPARD"> F  </i>
   <i type="logical" name="LVTOT"> F  </i>
   <i type="logical" name="LVHAR"> F  </i>
   <i type="logical" name="LELF"> F  </i>
   <i type="logical" name="LOPTICS"> F  </i>
   <v name="STM">      0.00000000      0.00000000      0.00000000      0.00000000      0.00000000      0.00000000      0.00000000</v>
  </separator>
  <separator name="performance" >
   <i type="int" name="NPAR">     8</i>
   <i type="int" name="NSIM">     4</i>
   <i type="int" name="NBLK">    -1</i>
   <i type="logical" name="LPLANE"> T  </i>
   <i type="logical" name="LSCALAPACK"> T  </i>
   <i type="logical" name="LSCAAWARE"> F  </i>
   <i type="logical" name="LSCALU"> F  </i>
   <i type="logical" name="LASYNC"> F  </i>
   <i type="logical" name="LORBITALREAL"> F  </i>
  </separator>
  <separator name="miscellaneous" >
   <i type="int" name="IDIOT">     3</i>
   <i type="int" name="ISPECIAL">     0</i>
   <i type="logical" name="LMUSIC"> F  </i>
   <v name="POMASS">     28.08500000</v>
   <v name="DARWINR">      0.00000000</v>
   <v name="DARWINV">      1.00000000</v>
   <i type="logical" name="LCORR"> T  </i>
  </separator>
  <i type="logical" name="GGA_COMPAT"> T  </i>
  <i type="logical" name="LBERRY"> F  </i>
  <i type="int" name="ICORELEVEL">     0</i>
  <i type="logical" name="LDAU"> F  </i>
  <i type="int" name="I_CONSTRAINED_M">     0</i>
  <separator name="electronic exchange-correlation" >
   <i type="string" name="GGA">--</i>
   <i type="int" name="VOSKOWN">     0</i>
   <i type="logical" name="LHFCALC"> F  </i>
   <i type="string" name="PRECFOCK"></i>
   <i type="logical" name="LSYMGRAD"> F  </i>
   <i type="logical" name="LHFONE"> F  </i>
   <i type="logical" name="LRHFCALC"> F  </i>
   <i type="logical" name="LTHOMAS"> F  </i>
   <i type="logical" name="LMODELHF"> F  </i>
   <i name="ENCUT4O">     -1.00000000</i>
   <i type="int" name="EXXOEP">     0</i>
   <i type="int" name="FOURORBIT">     0</i>
   <i name="AEXX">      0.00000000</i>
   <i name="HFALPHA">      0.00000000</i>
   <i name="MCALPHA">      0.00000000</i>
   <i name="ALDAX">      1.00000000</i>
   <i name="AGGAX">      1.00000000</i>
   <i name="ALDAC">      1.00000000</i>
   <i name="AGGAC">      1.00000000</i>
   <i type="int" name="NKREDX">     1</i>
   <i type="int" name="NKREDY">     1</i>
   <i type="int" name="NKREDZ">     1</i>
   <i type="logical" name="SHIFTRED"> F  </i>
   <i type="logical" name="ODDONLY"> F  </i>
   <i type="logical" name="EVENONLY"> F  </i>
   <i type="int" name="LMAXFOCK">     0</i>
   <i type="int" name="NMAXFOCKAE">     0</i>
   <i type="logical" name="LFOCKAEDFT"> F  </i>
   <i name="HFSCREEN">      0.00000000</i>
   <i name="HFSCREENC">      0.00000000</i>
   <i type="int" name="NBANDSGWLOW">     0</i>
  </separator>
  <separator name="vdW DFT" >
   <i type="logical" name="LUSE_VDW"> F  </i>
   <i name="Zab_VDW">     -0.84910000</i>
   <i name="PARAM1">      0.12340000</i>
   <i name="PARAM2">      1.00000000</i>
   <i name="PARAM3">      0.00000000</i>
  </separator>
  <separator name="model GW" >
   <i type="int" name="MODEL_GW">     0</i>
   <i name="MODEL_EPS0">      9.82079811</i>
   <i name="MODEL_ALPHA">      1.00000000</i>
  </separator>
  <separator name="linear response parameters" >
   <i type="logical" name="LEPSILON"> F  </i>
   <i type="logical" name="LRPA"> F  </i>
   <i type="logical" name="LNABLA"> F  </i>
   <i type="logical" name="LVEL"> F  </i>
   <i type="int" name="KINTER">     0</i>
   <i name="CSHIFT">      0.10000000</i>
   <i name="OMEGAMAX">     -1.00000000</i>
   <i name="DEG_THRESHOLD">      0.00200000</i>
   <i name="RTIME">     -0.10000000</i>
   <i name="WPLASMAI">      0.00000000</i>
   <v name="DFIELD">      0.00000000      0.00000000      0.00000000</v>
   <v name="WPLASMA">      0.00000000      0.00000000      0.00000000      0.00000000      0.00000000      0.00000000      0.00000000      0.00000000      0.00000000</v>
  </separator>
  <separator name="orbital magnetization" >
   <i type="logical" name="NUCIND"> F  </i>
   <v name="MAGPOS">      0.00000000      0.00000000      0.00000000</v>
   <i type="logical" name="LNICSALL"> T  </i>
   <i type="logical" name="ORBITALMAG"> F  </i>
   <i type="logical" name="LMAGBLOCH"> F  </i>
   <i type="logical" name="LCHIMAG"> F  </i>
   <i type="logical" name="LGAUGE"> T  </i>
   <i type="int" name="MAGATOM">     0</i>
   <v name="MAGDIPOL">      0.00000000      0.00000000      0.00000000</v>
   <v name="AVECCONST">      0.00000000      0.00000000      0.00000000</v>
  </separator>
  <separator name="response functions" >
   <i type="logical" name="LADDER"> F  </i>
   <i type="logical" name="LRPAFORCE"> F  </i>
   <i type="logical" name="LFXC"> F  </i>
   <i type="logical" name="LHARTREE"> T  </i>
   <i type="int" name="IBSE">     0</i>
   <v type="int" name="KPOINT">    -1     0     0     0</v>
   <i type="logical" name="LTCTE"> F  </i>
   <i type="logical" name="LTETE"> F  </i>
   <i type="logical" name="LTRIPLET"> F  </i>
   <i type="logical" name="LFXCEPS"> F  </i>
   <i type="logical" name="LFXHEG"> F  </i>
   <i type="int" name="NATURALO">     2</i>
   <i type="logical" name="L2ORDER"> F  </i>
   <i type="logical" name="LMP2LT"> F  </i>
   <i type="logical" name="LUSEW"> F  </i>
   <i name="ENCUTGW">     -2.00000000</i>
   <i name="ENCUTGWSOFT">     -2.00000000</i>
   <i name="ENCUTLF">     -1.00000000</i>
   <i type="int" name="LMAXMP2">    -1</i>
   <i name="SCISSOR">      0.00000000</i>
   <i type="int" name="NOMEGA">     0</i>
   <i type="int" name="NOMEGAR">     0</i>
   <i type="int" name="NBANDSGW">    -1</i>
   <i type="int" name="NBANDSO">    -1</i>
   <i type="int" name="NBANDSV">    -1</i>
   <i type="int" name="NELM">     1</i>
   <i type="int" name="NELMHF">     1</i>
   <i type="int" name="DIM">     3</i>
   <i type="int" name="ANTIRES">     0</i>
   <i name="OMEGAMAX">    -30.00000000</i>
   <i name="OMEGAMIN">    -30.00000000</i>
   <i name="OMEGATL">   -200.00000000</i>
   <i type="int" name="OMEGAGRID">   140</i>
   <i name="CSHIFT">     -0.10000000</i>
   <i type="logical" name="SELFENERGY"> F  </i>
   <i type="logical" name="LSPECTRAL"> F  </i>
   <i type="logical" name="LSPECTRALGW"> F  </i>
   <i type="logical" name="LSINGLES"> F  </i>
   <i type="logical" name="LFERMIGW"> F  </i>
   <i type="logical" name="ODDONLYGW"> F  </i>
   <i type="logical" name="EVENONLYGW"> F  </i>
   <i type="int" name="NKREDLFX">     1</i>
   <i type="int" name="NKREDLFY">     1</i>
   <i type="int" name="NKREDLFZ">     1</i>
   <i type="int" name="MAXMEM">  2800</i>
   <i type="int" name="TELESCOPE">     0</i>
   <i type="int" name="TAUPAR">     1</i>
   <i type="int" name="OMEGAPAR">    -1</i>
   <i name="LAMBDA">      1.00000000</i>
  </separator>
  <separator name="External order field" >
   <i name="OFIELD_KAPPA">      0.00000000</i>
   <v name="OFIELD_K">      0.00000000      0.00000000      0.00000000</v>
   <i name="OFIELD_Q6_NEAR">      0.00000000</i>
   <i name="OFIELD_Q6_FAR">      0.00000000</i>
   <i name="OFIELD_A">      0.00000000</i>
  </separator>
 </parameters>
 <atominfo>
  <atoms>       2 </atoms>
  <types>       1 </types>
  <array name="atoms" >
   <dimension dim="1">ion</dimension>
   <field type="string">element</field>
   <field type="int">atomtype</field>
   <set>
    <rc><c>Si</c><c>   1</c></rc>
    <rc><c>Si</c><c>   1</c></rc>
   </set>
  </array>
  <array name="atomtypes" >
   <dimension dim="1">type</dimension>
   <field type="int">atomspertype</field>
   <field type="string">element</field>
   <field>mass</field>
   <field>valence</field>
   <field type="string">pseudopotential</field>
   <set>
    <rc><c>   2</c><c>Si</c><c>     28.08500000</c><c>      4.00000000</c><c> PAW_PBE Si 05Jan2001                   </c></rc>
   </set>
  </array>
 </atominfo>
 <structure name="initialpos" >
  <crystal>
   <varray name="basis" >
    <v>      -2.42959800       2.42959800       1.38642600 </v>
    <v>       2.42959800      -2.42959800       1.38642600 </v>
    <v>       2.42959800       2.42959800      -1.38642600 </v>
   </varray>
   <i name="volume">     32.73599369 </i>
   <varray name="rec_basis" >
    <v>       0.00000000       0.20579536       0.36063951 </v>
    <v>       0.20579536       0.00000000       0.36063951 </v>
    <v>       0.20579536       0.20579536       0.00000000 </v>
   </varray>
  </crystal>
  <varray name="positions" >
   <v>       0.00000000       0.00000000       0.00000000 </v>
   <v>       0.25000000       0.75000000       0.50000000 </v>
  </varray>
 </structure>
 <calculation>
  <scstep>
   <time name="dav">    0.64    0.65</time>
   <time name="total">    0.69    0.70</time>
   <energy>
    <i name="alphaZ">      4.11328017 </i>
    <i name="ewald">   -259.25533781 </i>
    <i name="hartreedc">     -2.69581329 </i>
    <i name="XCdc">    -18.15205242 </i>
    <i name="pawpsdc">     65.95520812 </i>
    <i name="pawaedc">    -30.76852678 </i>
    <i name="eentropy">     -0.01063485 </i>
    <i name="bandstr">     36.37900625 </i>
    <i name="atom">    206.13125414 </i>
    <i name="e_fr_energy">      1.69638353 </i>
    <i name="e_wo_entrp">      1.70701838 </i>
    <i name="e_0_energy">      1.70170095 </i>
   </energy>
  </scstep>
  <scstep>
   <time name="dav">    0.95    0.95</time>
   <time name="total">    0.95    0.96</time>
   <energy>
    <i name="e_fr_energy">    -10.11086225 </i>
    <i name="e_wo_entrp">    -10.09419802 </i>
    <i name="e_0_energy">    -10.10253014 </i>
   </energy>
  </scstep>
  <scstep>
   <time name="dav">    0.84    0.84</time>
   <time name="total">    0.84    0.85</time>
   <energy>
    <i name="e_fr_energy">    -10.25145006 </i>
    <i name="e_wo_entrp">    -10.23376159 </i>
    <i name="e_0_energy">    -10.24260583 </i>
   </energy>
  </scstep>
  <scstep>
   <time name="dav">    1.01    1.01</time>
   <time name="total">    1.02    1.02</time>
   <energy>
    <i name="e_fr_energy">    -10.25190840 </i>
    <i name="e_wo_entrp">    -10.23421886 </i>
    <i name="e_0_energy">    -10.24306363 </i>
   </energy>
  </scstep>
  <scstep>
   <time name="dav">    0.87    0.88</time>
   <time name="total">    0.93    0.94</time>
   <energy>
    <i name="e_fr_energy">    -10.25190872 </i>
    <i name="e_wo_entrp">    -10.23421918 </i>
    <i name="e_0_energy">    -10.24306395 </i>
   </energy>
  </scstep>
  <scstep>
   <time name="dav">    0.87    0.87</time>
   <time name="total">    0.96    0.96</time>
   <energy>
    <i name="e_fr_energy">    -10.24293804 </i>
    <i name="e_wo_entrp">    -10.22534362 </i>
    <i name="e_0_energy">    -10.23414083 </i>
   </energy>
  </scstep>
  <scstep>
   <time name="dav">    0.83    0.83</time>
   <time name="total">    0.93    0.93</time>
   <energy>
    <i name="e_fr_energy">    -10.23741528 </i>
    <i name="e_wo_entrp">    -10.21993912 </i>
    <i name="e_0_energy">    -10.22867720 </i>
   </energy>
  </scstep>
  <scstep>
   <time name="dav">    0.53    0.53</time>
   <time name="total">    0.56    0.57</time>
   <energy>
    <i name="alphaZ">      4.11328017 </i>
    <i name="ewald">   -259.25533781 </i>
    <i name="hartreedc">     -2.85234321 </i>
    <i name="XCdc">    -17.94777973 </i>
    <i name="pawpsdc">     68.95913680 </i>
    <i name="pawaedc">    -33.83766100 </i>
    <i name="eentropy">     -0.01750460 </i>
    <i name="bandstr">     24.46959990 </i>
    <i name="atom">    206.13125414 </i>
    <i name="e_fr_energy">    -10.23735534 </i>
    <i name="e_wo_entrp">    -10.21985074 </i>
    <i name="e_0_energy">    -10.22860304 </i>
   </energy>
  </scstep>
  <structure>
   <crystal>
    <varray name="basis" >
     <v>      -2.42959800       2.42959800       1.38642600 </v>
     <v>       2.42959800      -2.42959800       1.38642600 </v>
     <v>       2.42959800       2.42959800      -1.38642600 </v>
    </varray>
    <i name="volume">     32.73599369 </i>
    <varray name="rec_basis" >
     <v>       0.00000000       0.20579536       0.36063951 </v>
     <v>       0.20579536       0.00000000       0.36063951 </v>
     <v>       0.20579536       0.20579536       0.00000000 </v>
    </varray>
   </crystal>
   <varray name="positions" >
    <v>       0.00000000       0.00000000       0.00000000 </v>
    <v>       0.25000000       0.75000000       0.50000000 </v>
   </varray>
  </structure>
  <varray name="forces" >
   <v>      -0.00000000      -0.00000000       0.00000000 </v>
   <v>       0.00000000       0.00000000      -0.00000000 </v>
  </varray>
  <varray name="stress" >
   <v>     -55.65458433      -0.00000000      -0.00000000 </v>
   <v>      -0.00000000     -55.65458433       0.00000000 </v>
   <v>      -0.00000000       0.00000000     -58.03500265 </v>
  </varray>
  <energy>
   <i name="e_fr_energy">    -10.23735534 </i>
   <i name="e_wo_entrp">    -10.22860304 </i>
   <i name="e_0_energy">     -0.01750460 </i>
  </energy>
  <time name="totalsc">    8.40    8.96</time>
  <eigenvalues>
   <array>
    <dimension dim="1">band</dimension>
    <dimension dim="2">kpoint</dimension>
    <dimension dim="3">spin</dimension>
    <field>eigene</field>
    <field>occ</field>
    <set>
     <set comment="spin 1">
      <set comment="kpoint 1">
       <r>   -4.3791    1.0000 </r>
       <r>    4.2748    1.0000 </r>
       <r>    6.4839    1.0000 </r>
       <r>    8.0985    0.8325 </r>
       <r>   11.6152    0.0000 </r>
       <r>   12.8299    0.0000 </r>
       <r>   13.3304    0.0000 </r>
       <r>   15.5618    0.0000 </r>
      </set>
      <set comment="kpoint 2">
       <r>   -3.2327    1.0000 </r>
       <r>    3.9476    1.0000 </r>
       <r>    6.6767    1.0000 </r>
       <r>    8.6210    0.0032 </r>
       <r>   10.1489    0.0000 </r>
       <r>   10.4120    0.0000 </r>
       <r>   13.0957    0.0000 </r>
       <r>   13.9724    0.0000 </r>
      </set>
      <set comment="kpoint 3">
       <r>   -1.3579    1.0000 </r>
       <r>    3.9565    1.0000 </r>
       <r>    5.1463    1.0000 </r>
       <r>    6.8561    1.0000 </r>
       <r>    8.1194    0.7928 </r>
       <r>   11.2215    0.0000 </r>
       <r>   12.5870    0.0000 </r>
       <r>   13.2622    0.0000 </r>
      </set>
      <set comment="kpoint 4">
       <r>    0.7210    1.0000 </r>
       <r>    1.8671    1.0000 </r>
       <r>    5.2612    1.0000 </r>
       <r>    5.9138    1.0000 </r>
       <r>    7.9808    0.9637 </r>
       <r>   10.2192    0.0000 </r>
       <r>   12.5840    0.0000 </r>
       <r>   13.5746    0.0000 </r>
      </set>
      <set comment="kpoint 5">
       <r>   -4.7639    1.0000 </r>
       <r>    4.9144    1.0000 </r>
       <r>    5.7157    1.0000 </r>
       <r>    7.7744    0.9994 </r>
       <r>   10.8039    0.0000 </r>
       <r>   14.3232    0.0000 </r>
       <r>   16.1515    0.0000 </r>
       <r>   16.6022    0.0000 </r>
      </set>
      <set comment="kpoint 6">
       <r>   -1.5394    1.0000 </r>
       <r>    4.0433    1.0000 </r>
       <r>    5.8551    1.0000 </r>
       <r>    6.1720    1.0000 </r>
       <r>    9.2026    0.0000 </r>
       <r>   11.1131    0.0000 </r>
       <r>   12.3356    0.0000 </r>
       <r>   12.6049    0.0000 </r>
      </set>
      <set comment="kpoint 7">
       <r>    0.7078    1.0000 </r>
       <r>    2.5226    1.0000 </r>
       <r>    3.8828    1.0000 </r>
       <r>    5.4665    1.0000 </r>
       <r>    9.3525    0.0000 </r>
       <r>   11.1123    0.0000 </r>
       <r>   12.1900    0.0000 </r>
       <r>   14.2257    0.0000 </r>
      </set>
      <set comment="kpoint 8">
       <r>   -0.4500    1.0000 </r>
       <r>    2.3370    1.0000 </r>
       <r>    4.3891    1.0000 </r>
       <r>    6.7649    1.0000 </r>
       <r>    8.7078    0.0004 </r>
       <r>   11.3893    0.0000 </r>
       <r>   13.1971    0.0000 </r>
       <r>   14.0064    0.0000 </r>
      </set>
      <set comment="kpoint 9">
       <r>   -2.4851    1.0000 </r>
       <r>    1.8872    1.0000 </r>
       <r>    7.1087    1.0000 </r>
       <r>    8.2059    0.5809 </r>
       <r>    9.6931    0.0000 </r>
       <r>   11.1986    0.0000 </r>
       <r>   12.3635    0.0000 </r>
       <r>   14.5756    0.0000 </r>
      </set>
      <set comment="kpoint 10">
       <r>   -3.8130    1.0000 </r>
       <r>    2.0534    1.0000 </r>
       <r>    6.9788    1.0000 </r>
       <r>    9.0231    0.0000 </r>
       <r>   11.4793    0.0000 </r>
       <r>   12.7753    0.0000 </r>
       <r>   13.8388    0.0000 </r>
       <r>   14.4529    0.0000 </r>
      </set>
      <set comment="kpoint 11">
       <r>   -4.3854    1.0000 </r>
       <r>    2.8927    1.0000 </r>
       <r>    5.8398    1.0000 </r>
       <r>    9.0029    0.0000 </r>
       <r>   12.4614    0.0000 </r>
       <r>   12.7506    0.0000 </r>
       <r>   15.4415    0.0000 </r>
       <r>   15.8250    0.0000 </r>
      </set>
      <set comment="kpoint 12">
       <r>   -4.1904    1.0000 </r>
       <r>    4.0033    1.0000 </r>
       <r>    5.1769    1.0000 </r>
       <r>    9.5343    0.0000 </r>
       <r>   11.9980    0.0000 </r>
       <r>   12.3403    0.0000 </r>
       <r>   13.0643    0.0000 </r>
       <r>   14.8222    0.0000 </r>
      </set>
      <set comment="kpoint 13">
       <r>    0.7420    1.0000 </r>
       <r>    0.8563    1.0000 </r>
       <r>    4.1753    1.0000 </r>
       <r>    6.6803    1.0000 </r>
       <r>    9.5180    0.0000 </r>
       <r>   10.2647    0.0000 </r>
       <r>   14.3002    0.0000 </r>
       <r>   14.9999    0.0000 </r>
      </set>
      <set comment="kpoint 14">
       <r>   -1.3723    1.0000 </r>
       <r>    0.0935    1.0000 </r>
       <r>    7.3555    1.0000 </r>
       <r>    8.1605    0.7004 </r>
       <r>    9.6534    0.0000 </r>
       <r>   10.9508    0.0000 </r>
       <r>   12.2317    0.0000 </r>
       <r>   13.5937    0.0000 </r>
      </set>
      <set comment="kpoint 15">
       <r>   -2.8744    1.0000 </r>
       <r>    0.0805    1.0000 </r>
       <r>    7.7886    0.9992 </r>
       <r>    9.9529    0.0000 </r>
       <r>   10.2338    0.0000 </r>
       <r>   12.3115    0.0000 </r>
       <r>   12.9948    0.0000 </r>
       <r>   13.0222    0.0000 </r>
      </set>
      <set comment="kpoint 16">
       <r>   -3.6312    1.0000 </r>
       <r>    0.7917    1.0000 </r>
       <r>    6.5194    1.0000 </r>
       <r>    9.9326    0.0000 </r>
       <r>   10.5713    0.0000 </r>
       <r>   13.9052    0.0000 </r>
       <r>   15.2953    0.0000 </r>
       <r>   15.7813    0.0000 </r>
      </set>
      <set comment="kpoint 17">
       <r>   -3.6256    1.0000 </r>
       <r>    2.1797    1.0000 </r>
       <r>    5.3059    1.0000 </r>
       <r>   10.2256    0.0000 </r>
       <r>   10.8498    0.0000 </r>
       <r>   12.2238    0.0000 </r>
       <r>   14.0782    0.0000 </r>
       <r>   14.9477    0.0000 </r>
      </set>
      <set comment="kpoint 18">
       <r>   -2.8593    1.0000 </r>
       <r>    3.7717    1.0000 </r>
       <r>    5.1103    1.0000 </r>
       <r>    7.7438    0.9997 </r>
       <r>   10.5881    0.0000 </r>
       <r>   12.3828    0.0000 </r>
       <r>   12.7038    0.0000 </r>
       <r>   12.9244    0.0000 </r>
      </set>
      <set comment="kpoint 19">
       <r>   -1.5717    1.0000 </r>
       <r>   -1.5717    1.0000 </r>
       <r>    8.8778    0.0000 </r>
       <r>    8.8778    0.0000 </r>
       <r>   11.2325    0.0000 </r>
       <r>   11.2325    0.0000 </r>
       <r>   12.6015    0.0000 </r>
       <r>   12.6015    0.0000 </r>
      </set>
      <set comment="kpoint 20">
       <r>   -2.5078    1.0000 </r>
       <r>   -1.0264    1.0000 </r>
       <r>    7.5513    1.0000 </r>
       <r>    8.9120    0.0000 </r>
       <r>   11.0307    0.0000 </r>
       <r>   12.3742    0.0000 </r>
       <r>   15.2860    0.0000 </r>
       <r>   15.4206    0.0000 </r>
      </set>
      <set comment="kpoint 21">
       <r>   -2.6897    1.0000 </r>
       <r>    0.2483    1.0000 </r>
       <r>    6.1326    1.0000 </r>
       <r>    8.7902    0.0000 </r>
       <r>   10.7840    0.0000 </r>
       <r>   12.4291    0.0000 </r>
       <r>   13.8385    0.0000 </r>
       <r>   15.0676    0.0000 </r>
      </set>
      <set comment="kpoint 22">
       <r>   -2.1163    1.0000 </r>
       <r>    2.1685    1.0000 </r>
       <r>    5.2971    1.0000 </r>
       <r>    7.0985    1.0000 </r>
       <r>    9.4107    0.0000 </r>
       <r>   11.7532    0.0000 </r>
       <r>   13.6928    0.0000 </r>
       <r>   14.5591    0.0000 </r>
      </set>
      <set comment="kpoint 23">
       <r>   -0.8174    1.0000 </r>
       <r>    3.4154    1.0000 </r>
       <r>    4.9894    1.0000 </r>
       <r>    5.6007    1.0000 </r>
       <r>    8.6388    0.0021 </r>
       <r>   10.9872    0.0000 </r>
       <r>   11.4757    0.0000 </r>
       <r>   14.5973    0.0000 </r>
      </set>
      <set comment="kpoint 24">
       <r>   -1.3976    1.0000 </r>
       <r>   -1.3867    1.0000 </r>
       <r>    7.2845    1.0000 </r>
       <r>    7.3509    1.0000 </r>
       <r>   10.7060    0.0000 </r>
       <r>   13.0149    0.0000 </r>
       <r>   13.8681    0.0000 </r>
       <r>   13.9980    0.0000 </r>
      </set>
      <set comment="kpoint 25">
       <r>   -1.0124    1.0000 </r>
       <r>    0.4350    1.0000 </r>
       <r>    6.0269    1.0000 </r>
       <r>    6.8714    1.0000 </r>
       <r>    8.0068    0.9465 </r>
       <r>   11.3491    0.0000 </r>
       <r>   14.8239    0.0000 </r>
       <r>   15.9378    0.0000 </r>
      </set>
      <set comment="kpoint 26">
       <r>    0.0656    1.0000 </r>
       <r>    2.5391    1.0000 </r>
       <r>    3.8238    1.0000 </r>
       <r>    6.0989    1.0000 </r>
       <r>    8.2689    0.4049 </r>
       <r>   10.0841    0.0000 </r>
       <r>   12.5228    0.0000 </r>
       <r>   15.9739    0.0000 </r>
      </set>
      <set comment="kpoint 27">
       <r>    0.3631    1.0000 </r>
       <r>    2.2339    1.0000 </r>
       <r>    5.8957    1.0000 </r>
       <r>    6.4155    1.0000 </r>
       <r>    7.1888    1.0000 </r>
       <r>    9.8172    0.0000 </r>
       <r>   11.1301    0.0000 </r>
       <r>   14.9133    0.0000 </r>
      </set>
      <set comment="kpoint 28">
       <r>    1.1079    1.0000 </r>
       <r>    1.4126    1.0000 </r>
       <r>    3.4271    1.0000 </r>
       <r>    6.9411    1.0000 </r>
       <r>    7.4128    1.0000 </r>
       <r>    9.6528    0.0000 </r>
       <r>   14.3902    0.0000 </r>
       <r>   15.0806    0.0000 </r>
      </set>
      <set comment="kpoint 29">
       <r>    0.0726    1.0000 </r>
       <r>    3.2049    1.0000 </r>
       <r>    4.5681    1.0000 </r>
       <r>    6.7715    1.0000 </r>
       <r>    7.8119    0.9986 </r>
       <r>    9.5840    0.0000 </r>
       <r>   11.2840    0.0000 </r>
       <r>   13.6795    0.0000 </r>
      </set>
      <set comment="kpoint 30">
       <r>   -1.9081    1.0000 </r>
       <r>    5.1858    1.0000 </r>
       <r>    6.6372    1.0000 </r>
       <r>    6.7366    1.0000 </r>
       <r>    7.8717    0.9949 </r>
       <r>   10.4297    0.0000 </r>
       <r>   11.0273    0.0000 </r>
       <r>   13.0113    0.0000 </r>
      </set>
      <set comment="kpoint 31">
       <r>   -2.0923    1.0000 </r>
       <r>    5.9134    1.0000 </r>
       <r>    6.5470    1.0000 </r>
       <r>    7.0934    1.0000 </r>
       <r>    8.3278    0.2554 </r>
       <r>    9.8090    0.0000 </r>
       <r>   11.2488    0.0000 </r>
       <r>   11.4265    0.0000 </r>
      </set>
      <set comment="kpoint 32">
       <r>   -3.6080    1.0000 </r>
       <r>    5.9031    1.0000 </r>
       <r>    6.5873    1.0000 </r>
       <r>    8.5193    0.0221 </r>
       <r>   10.1026    0.0000 </r>
       <r>   10.4946    0.0000 </r>
       <r>   11.7435    0.0000 </r>
       <r>   13.1679    0.0000 </r>
      </set>
      <set comment="kpoint 33">
       <r>   -4.5683    1.0000 </r>
       <r>    6.3178    1.0000 </r>
       <r>    6.3178    1.0000 </r>
       <r>    6.7266    1.0000 </r>
       <r>   10.5420    0.0000 </r>
       <r>   13.4515    0.0000 </r>
       <r>   13.6750    0.0000 </r>
       <r>   15.6611    0.0000 </r>
      </set>
      <set comment="kpoint 34">
       <r>   -0.6252    1.0000 </r>
       <r>    2.2164    1.0000 </r>
       <r>    5.4302    1.0000 </r>
       <r>    5.5688    1.0000 </r>
       <r>   10.2352    0.0000 </r>
       <r>   12.0552    0.0000 </r>
       <r>   13.3012    0.0000 </r>
       <r>   13.6488    0.0000 </r>
      </set>
      <set comment="kpoint 35">
       <r>    1.4157    1.0000 </r>
       <r>    2.2675    1.0000 </r>
       <r>    3.4246    1.0000 </r>
       <r>    4.1855    1.0000 </r>
       <r>   11.0250    0.0000 </r>
       <r>   12.9798    0.0000 </r>
       <r>   13.3437    0.0000 </r>
       <r>   13.3733    0.0000 </r>
      </set>
      <set comment="kpoint 36">
       <r>   -4.0086    1.0000 </r>
       <r>    2.7262    1.0000 </r>
       <r>    4.1013    1.0000 </r>
       <r>   10.4471    0.0000 </r>
       <r>   11.0903    0.0000 </r>
       <r>   13.8108    0.0000 </r>
       <r>   15.1038    0.0000 </r>
       <r>   15.4284    0.0000 </r>
      </set>
      <set comment="kpoint 37">
       <r>    0.6364    1.0000 </r>
       <r>    0.6364    1.0000 </r>
       <r>    5.3263    1.0000 </r>
       <r>    5.3263    1.0000 </r>
       <r>   11.5080    0.0000 </r>
       <r>   11.5080    0.0000 </r>
       <r>   13.2469    0.0000 </r>
       <r>   13.2469    0.0000 </r>
      </set>
      <set comment="kpoint 38">
       <r>   -3.2585    1.0000 </r>
       <r>    1.0842    1.0000 </r>
       <r>    4.3314    1.0000 </r>
       <r>    8.4556    0.0592 </r>
       <r>   12.3391    0.0000 </r>
       <r>   14.3960    0.0000 </r>
       <r>   15.0246    0.0000 </r>
       <r>   16.4098    0.0000 </r>
      </set>
      <set comment="kpoint 39">
       <r>   -3.0654    1.0000 </r>
       <r>    2.1640    1.0000 </r>
       <r>    3.6344    1.0000 </r>
       <r>    8.5388    0.0158 </r>
       <r>   10.5714    0.0000 </r>
       <r>   13.7251    0.0000 </r>
       <r>   15.2467    0.0000 </r>
       <r>   15.5949    0.0000 </r>
      </set>
      <set comment="kpoint 40">
       <r>   -2.1429    1.0000 </r>
       <r>   -0.6785    1.0000 </r>
       <r>    5.3390    1.0000 </r>
       <r>    6.7319    1.0000 </r>
       <r>   13.1802    0.0000 </r>
       <r>   13.8099    0.0000 </r>
       <r>   15.1510    0.0000 </r>
       <r>   15.8806    0.0000 </r>
      </set>
      <set comment="kpoint 41">
       <r>   -2.1388    1.0000 </r>
       <r>    0.7159    1.0000 </r>
       <r>    4.0029    1.0000 </r>
       <r>    6.7184    1.0000 </r>
       <r>   10.0921    0.0000 </r>
       <r>   14.9001    0.0000 </r>
       <r>   15.5207    0.0000 </r>
       <r>   17.2986    0.0000 </r>
      </set>
      <set comment="kpoint 42">
       <r>   -1.3842    1.0000 </r>
       <r>    2.3011    1.0000 </r>
       <r>    3.8407    1.0000 </r>
       <r>    6.2979    1.0000 </r>
       <r>    7.6808    1.0000 </r>
       <r>   12.9500    0.0000 </r>
       <r>   14.3447    0.0000 </r>
       <r>   16.1582    0.0000 </r>
      </set>
      <set comment="kpoint 43">
       <r>   -0.8731    1.0000 </r>
       <r>   -0.8497    1.0000 </r>
       <r>    5.1461    1.0000 </r>
       <r>    5.2000    1.0000 </r>
       <r>    9.9251    0.0000 </r>
       <r>   15.0219    0.0000 </r>
       <r>   16.3616    0.0000 </r>
       <r>   16.7163    0.0000 </r>
      </set>
      <set comment="kpoint 44">
       <r>   -0.3052    1.0000 </r>
       <r>    1.0714    1.0000 </r>
       <r>    4.3124    1.0000 </r>
       <r>    5.4738    1.0000 </r>
       <r>    6.5048    1.0000 </r>
       <r>   13.1094    0.0000 </r>
       <r>   15.9349    0.0000 </r>
       <r>   17.2591    0.0000 </r>
      </set>
      <set comment="kpoint 45">
       <r>    0.8635    1.0000 </r>
       <r>    2.4248    1.0000 </r>
       <r>    3.9463    1.0000 </r>
       <r>    4.7096    1.0000 </r>
       <r>    6.9597    1.0000 </r>
       <r>   11.1238    0.0000 </r>
       <r>   12.4515    0.0000 </r>
       <r>   16.1068    0.0000 </r>
      </set>
      <set comment="kpoint 46">
       <r>    1.4999    1.0000 </r>
       <r>    2.2717    1.0000 </r>
       <r>    3.3176    1.0000 </r>
       <r>    5.4318    1.0000 </r>
       <r>    5.5953    1.0000 </r>
       <r>   11.3667    0.0000 </r>
       <r>   13.8570    0.0000 </r>
       <r>   14.6379    0.0000 </r>
      </set>
      <set comment="kpoint 47">
       <r>   -0.2644    1.0000 </r>
       <r>    4.2104    1.0000 </r>
       <r>    5.2126    1.0000 </r>
       <r>    6.1072    1.0000 </r>
       <r>    6.9824    1.0000 </r>
       <r>   10.0191    0.0000 </r>
       <r>   11.1519    0.0000 </r>
       <r>   12.6342    0.0000 </r>
      </set>
      <set comment="kpoint 48">
       <r>   -2.2772    1.0000 </r>
       <r>    7.2563    1.0000 </r>
       <r>    7.2563    1.0000 </r>
       <r>    7.4390    1.0000 </r>
       <r>    7.6035    1.0000 </r>
       <r>    8.9728    0.0000 </r>
       <r>   10.9594    0.0000 </r>
       <r>   10.9594    0.0000 </r>
      </set>
      <set comment="kpoint 49">
       <r>   -2.5180    1.0000 </r>
       <r>    1.2359    1.0000 </r>
       <r>    2.7806    1.0000 </r>
       <r>    6.4115    1.0000 </r>
       <r>   13.3954    0.0000 </r>
       <r>   13.8687    0.0000 </r>
       <r>   16.0292    0.0000 </r>
       <r>   17.8198    0.0000 </r>
      </set>
      <set comment="kpoint 50">
       <r>   -1.4240    1.0000 </r>
       <r>   -0.0270    1.0000 </r>
       <r>    3.3107    1.0000 </r>
       <r>    4.6677    1.0000 </r>
       <r>   13.4060    0.0000 </r>
       <r>   13.5128    0.0000 </r>
       <r>   17.3104    0.0000 </r>
       <r>   18.3782    0.0000 </r>
      </set>
      <set comment="kpoint 51">
       <r>   -1.2346    1.0000 </r>
       <r>    1.0421    1.0000 </r>
       <r>    2.6220    1.0000 </r>
       <r>    4.8359    1.0000 </r>
       <r>    9.5895    0.0000 </r>
       <r>   16.2294    0.0000 </r>
       <r>   17.6184    0.0000 </r>
       <r>   18.0192    0.0000 </r>
      </set>
      <set comment="kpoint 52">
       <r>   -0.0481    1.0000 </r>
       <r>   -0.0063    1.0000 </r>
       <r>    3.3005    1.0000 </r>
       <r>    3.3307    1.0000 </r>
       <r>    9.4184    0.0000 </r>
       <r>   16.3987    0.0000 </r>
       <r>   18.5719    0.0000 </r>
       <r>   18.7593    0.0000 </r>
      </set>
      <set comment="kpoint 53">
       <r>    0.6927    1.0000 </r>
       <r>    1.5639    1.0000 </r>
       <r>    3.1694    1.0000 </r>
       <r>    3.9849    1.0000 </r>
       <r>    5.9389    1.0000 </r>
       <r>   14.7850    0.0000 </r>
       <r>   16.0268    0.0000 </r>
       <r>   17.2566    0.0000 </r>
      </set>
      <set comment="kpoint 54">
       <r>    1.6184    1.0000 </r>
       <r>    3.0139    1.0000 </r>
       <r>    3.8846    1.0000 </r>
       <r>    4.3927    1.0000 </r>
       <r>    4.3927    1.0000 </r>
       <r>   13.0789    0.0000 </r>
       <r>   13.6746    0.0000 </r>
       <r>   13.6746    0.0000 </r>
      </set>
      <set comment="kpoint 55">
       <r>   -0.4007    1.0000 </r>
       <r>    0.4822    1.0000 </r>
       <r>    2.0921    1.0000 </r>
       <r>    2.9619    1.0000 </r>
       <r>   13.1993    0.0000 </r>
       <r>   13.2241    0.0000 </r>
       <r>   19.5731    0.0000 </r>
       <r>   20.1642    0.0000 </r>
      </set>
      <set comment="kpoint 56">
       <r>    0.6304    1.0000 </r>
       <r>    0.7001    1.0000 </r>
       <r>    2.2769    1.0000 </r>
       <r>    2.2769    1.0000 </r>
       <r>    9.2466    0.0000 </r>
       <r>   16.7292    0.0000 </r>
       <r>   19.3231    0.0000 </r>
       <r>   19.3231    0.0000 </r>
      </set>
     </set>
    </set>
   </array>
  </eigenvalues>
  <separator name="orbital magnetization" >
   <v name="MAGDIPOLOUT">      0.00000000      0.00000000      0.00000000</v>
  </separator>
  <dos>
   <i name="efermi">      8.23482464 </i>
   <total>
    <array>
     <dimension dim="1">gridpoints</dimension>
     <dimension dim="2">spin</dimension>
     <field>energy</field>
     <field>total</field>
     <field>integrated</field>
     <set>
      <set comment="spin 1">
       <r>    -6.7639     0.0000     0.0000 </r>
       <r>    -6.6674     0.0000     0.0000 </r>
       <r>    -6.5710     0.0000     0.0000 </r>
       <r>    -6.4746     0.0000     0.0000 </r>
       <r>    -6.3782     0.0000     0.0000 </r>
       <r>    -6.2817     0.0000     0.0000 </r>
       <r>    -6.1853     0.0000     0.0000 </r>
       <r>    -6.0889     0.0000     0.0000 </r>
       <r>    -5.9924     0.0000     0.0000 </r>
       <r>    -5.8960     0.0000     0.0000 </r>
       <r>    -5.7996     0.0000     0.0000 </r>
       <r>    -5.7032     0.0000     0.0000 </r>
       <r>    -5.6067     0.0000     0.0000 </r>
       <r>    -5.5103     0.0000     0.0000 </r>
       <r>    -5.4139     0.0000     0.0000 </r>
       <r>    -5.3175     0.0000     0.0000 </r>
       <r>    -5.2210     0.0001     0.0000 </r>
       <r>    -5.1246     0.0008     0.0001 </r>
       <r>    -5.0282     0.0042     0.0005 </r>
       <r>    -4.9318     0.0145     0.0019 </r>
       <r>    -4.8353     0.0330     0.0051 </r>
       <r>    -4.7389     0.0529     0.0102 </r>
       <r>    -4.6425     0.0708     0.0170 </r>
       <r>    -4.5460     0.1033     0.0270 </r>
       <r>    -4.4496     0.1615     0.0425 </r>
       <r>    -4.3532     0.2150     0.0633 </r>
       <r>    -4.2568     0.2227     0.0847 </r>
       <r>    -4.1603     0.1891     0.1030 </r>
       <r>    -4.0639     0.1493     0.1174 </r>
       <r>    -3.9675     0.1322     0.1301 </r>
       <r>    -3.8711     0.1592     0.1455 </r>
       <r>    -3.7746     0.2408     0.1687 </r>
       <r>    -3.6782     0.3467     0.2021 </r>
       <r>    -3.5818     0.3919     0.2399 </r>
       <r>    -3.4854     0.3329     0.2720 </r>
       <r>    -3.3889     0.2609     0.2972 </r>
       <r>    -3.2925     0.2707     0.3233 </r>
       <r>    -3.1961     0.3154     0.3537 </r>
       <r>    -3.0996     0.3119     0.3838 </r>
       <r>    -3.0032     0.2794     0.4107 </r>
       <r>    -2.9068     0.2782     0.4375 </r>
       <r>    -2.8104     0.3114     0.4676 </r>
       <r>    -2.7139     0.3517     0.5015 </r>
       <r>    -2.6175     0.3910     0.5392 </r>
       <r>    -2.5211     0.4158     0.5793 </r>
       <r>    -2.4247     0.3949     0.6173 </r>
       <r>    -2.3282     0.3624     0.6523 </r>
       <r>    -2.2318     0.4164     0.6924 </r>
       <r>    -2.1354     0.5348     0.7440 </r>
       <r>    -2.0389     0.5532     0.7974 </r>
       <r>    -1.9425     0.4166     0.8375 </r>
       <r>    -1.8461     0.2466     0.8613 </r>
       <r>    -1.7497     0.1601     0.8767 </r>
       <r>    -1.6532     0.2040     0.8964 </r>
       <r>    -1.5568     0.3868     0.9337 </r>
       <r>    -1.4604     0.6479     0.9962 </r>
       <r>    -1.3640     0.8222     1.0755 </r>
       <r>    -1.2675     0.7682     1.1495 </r>
       <r>    -1.1711     0.5731     1.2048 </r>
       <r>    -1.0747     0.4492     1.2481 </r>
       <r>    -0.9783     0.4509     1.2916 </r>
       <r>    -0.8818     0.4776     1.3377 </r>
       <r>    -0.7854     0.4577     1.3818 </r>
       <r>    -0.6890     0.4056     1.4209 </r>
       <r>    -0.5925     0.3702     1.4566 </r>
       <r>    -0.4961     0.3844     1.4937 </r>
       <r>    -0.3997     0.4339     1.5355 </r>
       <r>    -0.3033     0.4643     1.5803 </r>
       <r>    -0.2068     0.4670     1.6253 </r>
       <r>    -0.1104     0.5359     1.6770 </r>
       <r>    -0.0140     0.7284     1.7472 </r>
       <r>     0.0824     0.9024     1.8342 </r>
       <r>     0.1789     0.8799     1.9191 </r>
       <r>     0.2753     0.7109     1.9876 </r>
       <r>     0.3717     0.5697     2.0426 </r>
       <r>     0.4681     0.5348     2.0941 </r>
       <r>     0.5646     0.6225     2.1542 </r>
       <r>     0.6610     0.8144     2.2327 </r>
       <r>     0.7574     0.9570     2.3250 </r>
       <r>     0.8539     0.9005     2.4118 </r>
       <r>     0.9503     0.7346     2.4827 </r>
       <r>     1.0467     0.6217     2.5426 </r>
       <r>     1.1431     0.5434     2.5950 </r>
       <r>     1.2396     0.4344     2.6369 </r>
       <r>     1.3360     0.3535     2.6710 </r>
       <r>     1.4324     0.3492     2.7046 </r>
       <r>     1.5288     0.3529     2.7387 </r>
       <r>     1.6253     0.3060     2.7682 </r>
       <r>     1.7217     0.2589     2.7932 </r>
       <r>     1.8181     0.2868     2.8208 </r>
       <r>     1.9145     0.3864     2.8581 </r>
       <r>     2.0110     0.5419     2.9103 </r>
       <r>     2.1074     0.7836     2.9859 </r>
       <r>     2.2038     1.0463     3.0868 </r>
       <r>     2.3003     1.1469     3.1974 </r>
       <r>     2.3967     1.0340     3.2971 </r>
       <r>     2.4931     0.8446     3.3785 </r>
       <r>     2.5895     0.6708     3.4432 </r>
       <r>     2.6860     0.5015     3.4915 </r>
       <r>     2.7824     0.3564     3.5259 </r>
       <r>     2.8788     0.2765     3.5526 </r>
       <r>     2.9752     0.2619     3.5778 </r>
       <r>     3.0717     0.3179     3.6085 </r>
       <r>     3.1681     0.4640     3.6532 </r>
       <r>     3.2645     0.6475     3.7157 </r>
       <r>     3.3609     0.7369     3.7867 </r>
       <r>     3.4574     0.6573     3.8501 </r>
       <r>     3.5538     0.4952     3.8979 </r>
       <r>     3.6502     0.4359     3.9399 </r>
       <r>     3.7467     0.6040     3.9981 </r>
       <r>     3.8431     0.9553     4.0902 </r>
       <r>     3.9395     1.2715     4.2128 </r>
       <r>     4.0359     1.3310     4.3412 </r>
       <r>     4.1324     1.1611     4.4531 </r>
       <r>     4.2288     0.9797     4.5476 </r>
       <r>     4.3252     0.8737     4.6319 </r>
       <r>     4.4216     0.7592     4.7051 </r>
       <r>     4.5181     0.6116     4.7640 </r>
       <r>     4.6145     0.4944     4.8117 </r>
       <r>     4.7109     0.4229     4.8525 </r>
       <r>     4.8074     0.3744     4.8886 </r>
       <r>     4.9038     0.3756     4.9248 </r>
       <r>     5.0002     0.4975     4.9728 </r>
       <r>     5.0966     0.7769     5.0477 </r>
       <r>     5.1931     1.1210     5.1558 </r>
       <r>     5.2895     1.3459     5.2856 </r>
       <r>     5.3859     1.3576     5.4165 </r>
       <r>     5.4823     1.1994     5.5321 </r>
       <r>     5.5788     0.9521     5.6240 </r>
       <r>     5.6752     0.7227     5.6936 </r>
       <r>     5.7716     0.6498     5.7563 </r>
       <r>     5.8680     0.7701     5.8306 </r>
       <r>     5.9645     0.9443     5.9216 </r>
       <r>     6.0609     1.0148     6.0195 </r>
       <r>     6.1573     0.9379     6.1099 </r>
       <r>     6.2538     0.7811     6.1852 </r>
       <r>     6.3502     0.6945     6.2522 </r>
       <r>     6.4466     0.7866     6.3281 </r>
       <r>     6.5430     1.0251     6.4269 </r>
       <r>     6.6395     1.3075     6.5530 </r>
       <r>     6.7359     1.5167     6.6992 </r>
       <r>     6.8323     1.5405     6.8478 </r>
       <r>     6.9287     1.3889     6.9817 </r>
       <r>     7.0252     1.1918     7.0966 </r>
       <r>     7.1216     1.0271     7.1957 </r>
       <r>     7.2180     0.8890     7.2814 </r>
       <r>     7.3144     0.7709     7.3557 </r>
       <r>     7.4109     0.6572     7.4191 </r>
       <r>     7.5073     0.5391     7.4711 </r>
       <r>     7.6037     0.4786     7.5172 </r>
       <r>     7.7002     0.5312     7.5684 </r>
       <r>     7.7966     0.6417     7.6303 </r>
       <r>     7.8930     0.7232     7.7001 </r>
       <r>     7.9894     0.7884     7.7761 </r>
       <r>     8.0859     0.8827     7.8612 </r>
       <r>     8.1823     0.9444     7.9523 </r>
       <r>     8.2787     0.8772     8.0369 </r>
       <r>     8.3751     0.7222     8.1065 </r>
       <r>     8.4716     0.6289     8.1671 </r>
       <r>     8.5680     0.6605     8.2308 </r>
       <r>     8.6644     0.7317     8.3014 </r>
       <r>     8.7608     0.7414     8.3729 </r>
       <r>     8.8573     0.6766     8.4381 </r>
       <r>     8.9537     0.5751     8.4936 </r>
       <r>     9.0501     0.4659     8.5385 </r>
       <r>     9.1466     0.3903     8.5761 </r>
       <r>     9.2430     0.4142     8.6161 </r>
       <r>     9.3394     0.5580     8.6699 </r>
       <r>     9.4358     0.7596     8.7431 </r>
       <r>     9.5323     0.9367     8.8335 </r>
       <r>     9.6287     1.0236     8.9322 </r>
       <r>     9.7251     0.9790     9.0266 </r>
       <r>     9.8215     0.8673     9.1102 </r>
       <r>     9.9180     0.8399     9.1912 </r>
       <r>    10.0144     0.9662     9.2843 </r>
       <r>    10.1108     1.1510     9.3953 </r>
       <r>    10.2072     1.2237     9.5133 </r>
       <r>    10.3037     1.1178     9.6211 </r>
       <r>    10.4001     0.9435     9.7121 </r>
       <r>    10.4965     0.8203     9.7912 </r>
       <r>    10.5930     0.7481     9.8633 </r>
       <r>    10.6894     0.7131     9.9321 </r>
       <r>    10.7858     0.7575    10.0051 </r>
       <r>    10.8822     0.9061    10.0925 </r>
       <r>    10.9787     1.1406    10.2025 </r>
       <r>    11.0751     1.4076    10.3382 </r>
       <r>    11.1715     1.6027    10.4928 </r>
       <r>    11.2679     1.6270    10.6497 </r>
       <r>    11.3644     1.4685    10.7913 </r>
       <r>    11.4608     1.1856    10.9056 </r>
       <r>    11.5572     0.8679    10.9893 </r>
       <r>    11.6536     0.6174    11.0488 </r>
       <r>    11.7501     0.4696    11.0941 </r>
       <r>    11.8465     0.3785    11.1306 </r>
       <r>    11.9429     0.3401    11.1634 </r>
       <r>    12.0394     0.4246    11.2043 </r>
       <r>    12.1358     0.6760    11.2695 </r>
       <r>    12.2322     1.0451    11.3703 </r>
       <r>    12.3286     1.3851    11.5038 </r>
       <r>    12.4251     1.5455    11.6529 </r>
       <r>    12.5215     1.4956    11.7971 </r>
       <r>    12.6179     1.3082    11.9232 </r>
       <r>    12.7143     1.0761    12.0270 </r>
       <r>    12.8108     0.9202    12.1157 </r>
       <r>    12.9072     0.9634    12.2086 </r>
       <r>    13.0036     1.1969    12.3240 </r>
       <r>    13.1001     1.4499    12.4638 </r>
       <r>    13.1965     1.5487    12.6132 </r>
       <r>    13.2929     1.4469    12.7527 </r>
       <r>    13.3893     1.2240    12.8707 </r>
       <r>    13.4858     1.0458    12.9716 </r>
       <r>    13.5822     1.0498    13.0728 </r>
       <r>    13.6786     1.1992    13.1884 </r>
       <r>    13.7750     1.3415    13.3178 </r>
       <r>    13.8715     1.3781    13.4507 </r>
       <r>    13.9679     1.2827    13.5743 </r>
       <r>    14.0643     1.0751    13.6780 </r>
       <r>    14.1607     0.8526    13.7602 </r>
       <r>    14.2572     0.7348    13.8311 </r>
       <r>    14.3536     0.7372    13.9022 </r>
       <r>    14.4500     0.7858    13.9780 </r>
       <r>    14.5465     0.8202    14.0570 </r>
       <r>    14.6429     0.8203    14.1361 </r>
       <r>    14.7393     0.8349    14.2167 </r>
       <r>    14.8357     0.9442    14.3077 </r>
       <r>    14.9322     1.1023    14.4140 </r>
       <r>    15.0286     1.1565    14.5255 </r>
       <r>    15.1250     1.0385    14.6256 </r>
       <r>    15.2214     0.8393    14.7066 </r>
       <r>    15.3179     0.6969    14.7738 </r>
       <r>    15.4143     0.6557    14.8370 </r>
       <r>    15.5107     0.6504    14.8997 </r>
       <r>    15.6071     0.6053    14.9581 </r>
       <r>    15.7036     0.5561    15.0117 </r>
       <r>    15.8000     0.6211    15.0716 </r>
       <r>    15.8964     0.8022    15.1490 </r>
       <r>    15.9929     0.9277    15.2384 </r>
       <r>    16.0893     0.8676    15.3221 </r>
       <r>    16.1857     0.6899    15.3886 </r>
       <r>    16.2821     0.5318    15.4399 </r>
       <r>    16.3786     0.4339    15.4817 </r>
       <r>    16.4750     0.3520    15.5156 </r>
       <r>    16.5714     0.2672    15.5414 </r>
       <r>    16.6678     0.2055    15.5612 </r>
       <r>    16.7643     0.1612    15.5768 </r>
       <r>    16.8607     0.1093    15.5873 </r>
       <r>    16.9571     0.0703    15.5941 </r>
       <r>    17.0535     0.1027    15.6040 </r>
       <r>    17.1500     0.2458    15.6277 </r>
       <r>    17.2464     0.4391    15.6700 </r>
       <r>    17.3428     0.5172    15.7199 </r>
       <r>    17.4393     0.4100    15.7594 </r>
       <r>    17.5357     0.2477    15.7833 </r>
       <r>    17.6321     0.1552    15.7983 </r>
       <r>    17.7285     0.1234    15.8102 </r>
       <r>    17.8250     0.1113    15.8209 </r>
       <r>    17.9214     0.1106    15.8316 </r>
       <r>    18.0178     0.1127    15.8425 </r>
       <r>    18.1142     0.1012    15.8522 </r>
       <r>    18.2107     0.0852    15.8604 </r>
       <r>    18.3071     0.0919    15.8693 </r>
       <r>    18.4035     0.1208    15.8810 </r>
       <r>    18.4999     0.1469    15.8951 </r>
       <r>    18.5964     0.1582    15.9104 </r>
       <r>    18.6928     0.1549    15.9253 </r>
       <r>    18.7892     0.1329    15.9381 </r>
       <r>    18.8857     0.0912    15.9469 </r>
       <r>    18.9821     0.0464    15.9514 </r>
       <r>    19.0785     0.0209    15.9534 </r>
       <r>    19.1749     0.0209    15.9554 </r>
       <r>    19.2714     0.0368    15.9590 </r>
       <r>    19.3678     0.0525    15.9640 </r>
       <r>    19.4642     0.0590    15.9697 </r>
       <r>    19.5606     0.0578    15.9753 </r>
       <r>    19.6571     0.0480    15.9799 </r>
       <r>    19.7535     0.0300    15.9828 </r>
       <r>    19.8499     0.0143    15.9842 </r>
       <r>    19.9464     0.0113    15.9853 </r>
       <r>    20.0428     0.0222    15.9874 </r>
       <r>    20.1392     0.0381    15.9911 </r>
       <r>    20.2356     0.0427    15.9952 </r>
       <r>    20.3321     0.0306    15.9982 </r>
       <r>    20.4285     0.0141    15.9995 </r>
       <r>    20.5249     0.0041    15.9999 </r>
       <r>    20.6213     0.0008    16.0000 </r>
       <r>    20.7178     0.0001    16.0000 </r>
       <r>    20.8142     0.0000    16.0000 </r>
       <r>    20.9106     0.0000    16.0000 </r>
       <r>    21.0070     0.0000    16.0000 </r>
       <r>    21.1035     0.0000    16.0000 </r>
       <r>    21.1999     0.0000    16.0000 </r>
       <r>    21.2963     0.0000    16.0000 </r>
       <r>    21.3928     0.0000    16.0000 </r>
       <r>    21.4892     0.0000    16.0000 </r>
       <r>    21.5856     0.0000    16.0000 </r>
       <r>    21.6820     0.0000    16.0000 </r>
       <r>    21.7785     0.0000    16.0000 </r>
       <r>    21.8749     0.0000    16.0000 </r>
       <r>    21.9713     0.0000    16.0000 </r>
       <r>    22.0677     0.0000    16.0000 </r>
       <r>    22.1642     0.0000    16.0000 </r>
      </set>
     </set>
    </array>
   </total>
  </dos>
 </calculation>
 <structure name="finalpos" >
  <crystal>
   <varray name="basis" >
    <v>      -2.42959800       2.42959800       1.38642600 </v>
    <v>       2.42959800      -2.42959800       1.38642600 </v>
    <v>       2.42959800       2.42959800      -1.38642600 </v>
   </varray>
   <i name="volume">     32.73599369 </i>
   <varray name="rec_basis" >
    <v>       0.00000000       0.20579536       0.36063951 </v>
    <v>       0.20579536       0.00000000       0.36063951 </v>
    <v>       0.20579536       0.20579536       0.00000000 </v>
   </varray>
  </crystal>
  <varray name="positions" >
   <v>       0.00000000       0.00000000       0.00000000 </v>
   <v>       0.25000000       0.75000000       0.50000000 </v>
  </varray>
 </structure>
</modeling>
