    2    2   15    1
  0.1529437E+02  0.3691622E-09  0.3691622E-09  0.3691622E-09  0.5000000E-15
  1.000000000000000E-004
  CAR 
 unknown system                          
      8     18      8
 
  0.0000000E+00  0.0000000E+00  0.0000000E+00  0.8000000E-02
    1       -4.617276   1.000000
    2        6.179031   1.000000
    3        6.297409   1.000000
    4        6.297415   1.000000
    5       10.526514   0.000000
    6       16.771713   0.000000
    7       17.365315   0.000000
    8       17.365322   0.000000
 
  0.2000000E+00  0.1244391E-16 -0.1244391E-16  0.6400000E-01
    1       -3.490447   1.000000
    2        5.021611   1.000000
    3        6.274741   1.000000
    4        9.297701   0.147159
    5       12.618035   0.000000
    6       12.811220   0.000000
    7       13.401707   0.000000
    8       15.505181   0.000000
 
  0.4000000E+00  0.2488782E-16 -0.2488782E-16  0.6400000E-01
    1       -0.160164   1.000000
    2        5.172953   1.000000
    3        6.003123   1.000000
    4        7.251823   1.000000
    5        8.947581   0.923213
    6       11.375157   0.000000
    7       13.661984   0.000000
    8       14.287487   0.000000
 
  0.2000000E+00  0.2000000E+00 -0.2488782E-16  0.6400000E-01
    1       -0.622279   1.000000
    2        5.996926   1.000000
    3        6.890164   1.000000
    4        6.926711   1.000000
    5        9.732406   0.000019
    6       11.861114   0.000000
    7       12.386392   0.000000
    8       12.666451   0.000000
 
  0.4000000E+00  0.2000000E+00 -0.9576153E-17  0.1280000E+00
    1        1.209328   1.000000
    2        3.389622   1.000000
    3        4.466509   1.000000
    4        7.704626   1.000000
    5        9.037224   0.786155
    6       11.018366   0.000000
    7       13.854976   0.000000
    8       16.241602   0.000000
 
 -0.4000000E+00  0.2000000E+00  0.2251918E-16  0.1280000E+00
    1       -2.546810   1.000000
    2        2.031268   1.000000
    3        6.742470   1.000000
    4       10.430762   0.000000
    5       11.080948   0.000000
    6       12.282488   0.000000
    7       13.975894   0.000000
    8       15.884161   0.000000
 
 -0.2000000E+00  0.2000000E+00  0.2101777E-17  0.3200000E-01
    1       -4.141285   1.000000
    2        2.739883   1.000000
    3        6.738453   1.000000
    4        8.350933   1.000000
    5       13.155073   0.000000
    6       13.279259   0.000000
    7       15.010216   0.000000
    8       19.268931   0.000000
 
  0.4000000E+00  0.4000000E+00 -0.4977564E-16  0.6400000E-01
    1       -0.684236   1.000000
    2       -0.680514   1.000000
    3        8.412414   1.000000
    4        8.479424   0.999999
    5       10.666142   0.000000
    6       13.184538   0.000000
    7       13.588625   0.000000
    8       14.047091   0.000000
 
 -0.4000000E+00  0.4000000E+00  0.4203554E-17  0.3200000E-01
    1       -2.723168   1.000000
    2       -0.397216   1.000000
    3        8.059246   1.000000
    4        9.941643   0.000000
    5       10.249162   0.000000
    6       12.173518   0.000000
    7       18.061859   0.000000
    8       18.851780   0.000000
 
  0.2000000E+00  0.2000000E+00  0.2000000E+00  0.6400000E-01
    1        0.763844   1.000000
    2        3.023685   1.000000
    3        6.119174   1.000000
    4        6.140367   1.000000
    5       11.344646   0.000000
    6       13.066101   0.000000
    7       13.975975   0.000000
    8       14.455637   0.000000
 
 -0.2000000E+00  0.2000000E+00  0.2000000E+00  0.3200000E-01
    1       -3.668496   1.000000
    2        2.571037   1.000000
    3        4.194646   1.000000
    4       10.212936   0.000000
    5       11.434202   0.000000
    6       14.453025   0.000000
    7       17.594078   0.000000
    8       18.143197   0.000000
 
 -0.4000000E+00  0.4000000E+00  0.2000000E+00  0.6400000E-01
    1       -2.262686   1.000000
    2        0.017073   1.000000
    3        4.948230   1.000000
    4        7.151288   1.000000
    5       13.575815   0.000000
    6       15.606893   0.000000
    7       17.805548   0.000000
    8       18.061431   0.000000
 
 -0.2000000E+00  0.4000000E+00  0.2000000E+00  0.6400000E-01
    1       -1.618727   1.000000
    2        2.260414   1.000000
    3        3.982745   1.000000
    4        7.721511   1.000000
    5        9.982884   0.000000
    6       15.451484   0.000000
    7       16.301313   0.000000
    8       17.204937   0.000000
 
 -0.4000000E+00 -0.4000000E+00  0.2000000E+00  0.6400000E-01
    1        0.180810   1.000000
    2        0.192524   1.000000
    3        5.126285   1.000000
    4        5.127880   1.000000
    5        9.586975   0.000987
    6       16.168576   0.000000
    7       17.596573   0.000000
    8       18.453065   0.000000
 
 -0.2000000E+00 -0.4000000E+00  0.2000000E+00  0.6400000E-01
    1        2.466680   1.000000
    2        3.424892   1.000000
    3        4.292153   1.000000
    4        5.784022   1.000000
    5        7.296120   1.000000
    6       12.120854   0.000000
    7       13.478121   0.000000
    8       16.135270   0.000000
 
 -0.2000000E+00 -0.2000000E+00  0.2000000E+00  0.1600000E-01
    1       -1.088596   1.000000
    2        7.763385   1.000000
    3        8.101235   1.000000
    4        8.443223   1.000000
    5        8.443228   1.000000
    6       10.089733   0.000000
    7       11.550281   0.000000
    8       11.550286   0.000000
 
 -0.4000000E+00  0.4000000E+00  0.4000000E+00  0.3200000E-01
    1       -0.920449   1.000000
    2        0.687135   1.000000
    3        2.503363   1.000000
    4        4.085030   1.000000
    5       16.099104   0.000000
    6       16.438115   0.000000
    7       18.983514   0.000000
    8       20.286574   0.000000
 
 -0.4000000E+00 -0.4000000E+00  0.4000000E+00  0.1600000E-01
    1        1.309062   1.000000
    2        1.331979   1.000000
    3        3.122873   1.000000
    4        3.122873   1.000000
    5        9.176044   0.425260
    6       18.371324   0.000000
    7       19.555565   0.000000
    8       19.555571   0.000000
