       N       E                     dE             d eps       ncg     rms          rms(c)
DAV:   1    -0.309328190502E+01   -0.30933E+01   -0.20870E+03   480   0.377E+02
DAV:   2    -0.101952476147E+02   -0.71020E+01   -0.68190E+01   688   0.470E+01
DAV:   3    -0.102515874913E+02   -0.56340E-01   -0.56339E-01   584   0.510E+00
DAV:   4    -0.102516823197E+02   -0.94828E-04   -0.94828E-04   704   0.186E-01
DAV:   5    -0.102516823428E+02   -0.23066E-07   -0.23803E-07   576   0.189E-03    0.151E+00
DAV:   6    -0.102453855174E+02    0.62968E-02   -0.18195E-03   504   0.308E-01    0.948E-01
DAV:   7    -0.102404420742E+02    0.49434E-02   -0.53985E-03   504   0.548E-01    0.341E-02
DAV:   8    -0.102404250469E+02    0.17027E-04   -0.74663E-05   280   0.657E-02
   1 F= -.10240425E+02 E0= -.10234728E+02  d E =-.102404E+02
       N       E                     dE             d eps       ncg     rms          rms(c)
DAV:   1    -0.102410202554E+02   -0.57818E-03   -0.28132E-02   624   0.965E-01    0.103E-01
DAV:   2    -0.102407267381E+02    0.29352E-03   -0.58524E-04   440   0.182E-01
   2 F= -.10240727E+02 E0= -.10234878E+02  d E =-.301691E-03
       N       E                     dE             d eps       ncg     rms          rms(c)
DAV:   1    -0.102407241331E+02    0.29612E-03   -0.25498E-03   568   0.285E-01    0.227E-02
DAV:   2    -0.102407136886E+02    0.10444E-04   -0.68388E-05   224   0.651E-02
   3 F= -.10240714E+02 E0= -.10234904E+02  d E =-.288642E-03
       N       E                     dE             d eps       ncg     rms          rms(c)
DAV:   1    -0.102407911580E+02   -0.67025E-04   -0.17997E-03   608   0.244E-01    0.273E-02
DAV:   2    -0.102407696484E+02    0.21510E-04   -0.37439E-05   256   0.461E-02
   4 F= -.10240770E+02 E0= -.10235003E+02  d E =-.344601E-03
