<?xml version="1.0" encoding="ISO-8859-1"?>
<modeling>
 <generator>
  <i name="program" type="string">vasp </i>
  <i name="version" type="string">5.4.4.18Apr17-6-g9f103f2a35  </i>
  <i name="subversion" type="string">(build Dec 09 2018 21:25:21) complex            parallel </i>
  <i name="platform" type="string">IFC18.0.1.163_CrayMPICH7.7.0_MKL18.0.1.163 </i>
  <i name="date" type="string">2019 03 20 </i>
  <i name="time" type="string">09:15:12 </i>
 </generator>
 <incar>
  <i type="string" name="PREC">normal</i>
  <i type="int" name="IBRION">     2</i>
  <i name="EDIFF">      0.00040000</i>
  <i name="EDIFFG">     -0.01000000</i>
  <i type="int" name="NSW">    15</i>
  <i type="int" name="ISIF">     3</i>
  <i name="ENCUT">    200.00000000</i>
  <i type="int" name="NBANDS">     8</i>
  <i type="logical" name="LREAL"> F  </i>
  <i type="int" name="ISMEAR">     0</i>
  <i name="SIGMA">      0.20000000</i>
  <v type="int" name="KPOINT_BSE">    -1     0     0     0</v>
 </incar>
 <structure name="primitive_cell" >
  <crystal>
   <varray name="basis" >
    <v>      -2.45000000       2.45000000       1.27400000 </v>
    <v>       2.45000000      -2.45000000       1.27400000 </v>
    <v>       2.45000000       2.45000000      -1.27400000 </v>
   </varray>
   <i name="volume">     30.58874000 </i>
   <varray name="rec_basis" >
    <v>       0.00000000       0.20408163       0.39246468 </v>
    <v>       0.20408163       0.00000000       0.39246468 </v>
    <v>       0.20408163       0.20408163      -0.00000000 </v>
   </varray>
  </crystal>
  <varray name="positions" >
   <v>       0.25000000      -0.25000000      -0.50000000 </v>
   <v>       0.00000000       0.00000000       0.00000000 </v>
  </varray>
 </structure>
 <varray name="primitive_index" >
  <v type="int" >        1 </v>
  <v type="int" >        2 </v>
 </varray>
 <kpoints>
  <generation param="Monkhorst-Pack">
   <v type="int" name="divisions">       6        6        6 </v>
   <v name="usershift">      0.00000000       0.00000000       0.00000000 </v>
   <v name="genvec1">      0.16666667      -0.00000000       0.00000000 </v>
   <v name="genvec2">     -0.00000000       0.16666667       0.00000000 </v>
   <v name="genvec3">     -0.00000000      -0.00000000       0.16666667 </v>
   <v name="shift">      0.50000000       0.50000000       0.50000000 </v>
  </generation>
  <varray name="kpointlist" >
   <v>       0.08333333       0.08333333       0.08333333 </v>
   <v>       0.25000000       0.08333333       0.08333333 </v>
   <v>       0.41666667       0.08333333       0.08333333 </v>
   <v>      -0.08333333       0.08333333       0.08333333 </v>
   <v>       0.25000000       0.25000000       0.08333333 </v>
   <v>       0.41666667       0.25000000       0.08333333 </v>
   <v>      -0.41666667       0.25000000       0.08333333 </v>
   <v>      -0.25000000       0.25000000       0.08333333 </v>
   <v>      -0.08333333       0.25000000       0.08333333 </v>
   <v>       0.41666667       0.41666667       0.08333333 </v>
   <v>      -0.41666667       0.41666667       0.08333333 </v>
   <v>      -0.25000000       0.41666667       0.08333333 </v>
   <v>      -0.08333333       0.41666667       0.08333333 </v>
   <v>      -0.41666667      -0.41666667       0.08333333 </v>
   <v>      -0.25000000      -0.41666667       0.08333333 </v>
   <v>      -0.08333333      -0.41666667       0.08333333 </v>
   <v>      -0.25000000      -0.25000000       0.08333333 </v>
   <v>      -0.08333333      -0.25000000       0.08333333 </v>
   <v>      -0.08333333      -0.08333333       0.08333333 </v>
   <v>       0.25000000       0.25000000       0.25000000 </v>
   <v>      -0.25000000       0.25000000       0.25000000 </v>
   <v>      -0.41666667       0.41666667       0.25000000 </v>
   <v>      -0.25000000       0.41666667       0.25000000 </v>
   <v>      -0.41666667      -0.41666667       0.25000000 </v>
   <v>      -0.25000000      -0.41666667       0.25000000 </v>
   <v>      -0.25000000      -0.25000000       0.25000000 </v>
   <v>      -0.41666667       0.41666667       0.41666667 </v>
   <v>      -0.41666667      -0.41666667       0.41666667 </v>
  </varray>
  <varray name="weights" >
   <v>       0.03703704 </v>
   <v>       0.07407407 </v>
   <v>       0.03703704 </v>
   <v>       0.01851852 </v>
   <v>       0.03703704 </v>
   <v>       0.07407407 </v>
   <v>       0.03703704 </v>
   <v>       0.03703704 </v>
   <v>       0.03703704 </v>
   <v>       0.01851852 </v>
   <v>       0.03703704 </v>
   <v>       0.07407407 </v>
   <v>       0.03703704 </v>
   <v>       0.03703704 </v>
   <v>       0.07407407 </v>
   <v>       0.03703704 </v>
   <v>       0.03703704 </v>
   <v>       0.03703704 </v>
   <v>       0.00925926 </v>
   <v>       0.00925926 </v>
   <v>       0.01851852 </v>
   <v>       0.03703704 </v>
   <v>       0.03703704 </v>
   <v>       0.03703704 </v>
   <v>       0.03703704 </v>
   <v>       0.00925926 </v>
   <v>       0.01851852 </v>
   <v>       0.00925926 </v>
  </varray>
 </kpoints>
 <parameters>
  <separator name="general" >
   <i type="string" name="SYSTEM">unknown system</i>
   <i type="logical" name="LCOMPAT"> F  </i>
  </separator>
  <separator name="electronic" >
   <i type="string" name="PREC">normal</i>
   <i name="ENMAX">    200.00000000</i>
   <i name="ENAUG">    322.06900000</i>
   <i name="EDIFF">      0.00040000</i>
   <i type="int" name="IALGO">    38</i>
   <i type="int" name="IWAVPR">    11</i>
   <i type="int" name="NBANDS">     8</i>
   <i name="NELECT">      8.00000000</i>
   <i type="int" name="TURBO">     0</i>
   <i type="int" name="IRESTART">     0</i>
   <i type="int" name="NREBOOT">     0</i>
   <i type="int" name="NMIN">     0</i>
   <i name="EREF">      0.00000000</i>
   <separator name="electronic smearing" >
    <i type="int" name="ISMEAR">     0</i>
    <i name="SIGMA">      0.20000000</i>
    <i name="KSPACING">      0.50000000</i>
    <i type="logical" name="KGAMMA"> T  </i>
   </separator>
   <separator name="electronic projectors" >
    <i type="logical" name="LREAL"> F  </i>
    <v name="ROPT">      0.00000000</v>
    <i type="int" name="LMAXPAW">  -100</i>
    <i type="int" name="LMAXMIX">     2</i>
    <i type="logical" name="NLSPLINE"> F  </i>
   </separator>
   <separator name="electronic startup" >
    <i type="int" name="ISTART">     0</i>
    <i type="int" name="ICHARG">     2</i>
    <i type="int" name="INIWAV">     1</i>
   </separator>
   <separator name="electronic spin" >
    <i type="int" name="ISPIN">     1</i>
    <i type="logical" name="LNONCOLLINEAR"> F  </i>
    <v name="MAGMOM">      1.00000000      1.00000000</v>
    <i name="NUPDOWN">     -1.00000000</i>
    <i type="logical" name="LSORBIT"> F  </i>
    <v name="SAXIS">      0.00000000      0.00000000      1.00000000</v>
    <i type="logical" name="LSPIRAL"> F  </i>
    <v name="QSPIRAL">      0.00000000      0.00000000      0.00000000</v>
    <i type="logical" name="LZEROZ"> F  </i>
   </separator>
   <separator name="electronic exchange-correlation" >
    <i type="logical" name="LASPH"> F  </i>
    <i type="logical" name="LMETAGGA"> F  </i>
   </separator>
   <separator name="electronic convergence" >
    <i type="int" name="NELM">    60</i>
    <i type="int" name="NELMDL">    -5</i>
    <i type="int" name="NELMIN">     2</i>
    <i name="ENINI">    200.00000000</i>
    <separator name="electronic convergence detail" >
     <i type="logical" name="LDIAG"> T  </i>
     <i type="logical" name="LSUBROT"> F  </i>
     <i name="WEIMIN">      0.00100000</i>
     <i name="EBREAK">      0.00001250</i>
     <i name="DEPER">      0.30000000</i>
     <i type="int" name="NRMM">     4</i>
     <i name="TIME">      0.40000000</i>
    </separator>
   </separator>
   <separator name="electronic mixer" >
    <i name="AMIX">      0.40000000</i>
    <i name="BMIX">      1.00000000</i>
    <i name="AMIN">      0.10000000</i>
    <i name="AMIX_MAG">      1.60000000</i>
    <i name="BMIX_MAG">      1.00000000</i>
    <separator name="electronic mixer details" >
     <i type="int" name="IMIX">     4</i>
     <i type="logical" name="MIXFIRST"> F  </i>
     <i type="int" name="MAXMIX">   -45</i>
     <i name="WC">    100.00000000</i>
     <i type="int" name="INIMIX">     1</i>
     <i type="int" name="MIXPRE">     1</i>
     <i type="int" name="MREMOVE">     5</i>
    </separator>
   </separator>
   <separator name="electronic dipolcorrection" >
    <i type="logical" name="LDIPOL"> F  </i>
    <i type="logical" name="LMONO"> F  </i>
    <i type="int" name="IDIPOL">     0</i>
    <i name="EPSILON">      1.00000000</i>
    <v name="DIPOL">   -100.00000000   -100.00000000   -100.00000000</v>
    <i name="EFIELD">      0.00000000</i>
   </separator>
  </separator>
  <separator name="grids" >
   <i type="int" name="NGX">    14</i>
   <i type="int" name="NGY">    14</i>
   <i type="int" name="NGZ">    14</i>
   <i type="int" name="NGXF">    28</i>
   <i type="int" name="NGYF">    28</i>
   <i type="int" name="NGZF">    28</i>
   <i type="logical" name="ADDGRID"> F  </i>
  </separator>
  <separator name="ionic" >
   <i type="int" name="NSW">    15</i>
   <i type="int" name="IBRION">     2</i>
   <i type="int" name="MDALGO">     0</i>
   <i type="int" name="ISIF">     3</i>
   <i name="PSTRESS">      0.00000000</i>
   <i name="EDIFFG">     -0.01000000</i>
   <i type="int" name="NFREE">     1</i>
   <i name="POTIM">      0.50000000</i>
   <i name="SMASS">     -3.00000000</i>
   <i name="SCALEE">      1.00000000</i>
  </separator>
  <separator name="ionic md" >
   <i name="TEBEG">      0.00010000</i>
   <i name="TEEND">      0.00010000</i>
   <i type="int" name="NBLOCK">     1</i>
   <i type="int" name="KBLOCK">    15</i>
   <i type="int" name="NPACO">   256</i>
   <i name="APACO">     16.00000000</i>
  </separator>
  <separator name="symmetry" >
   <i type="int" name="ISYM">     2</i>
   <i name="SYMPREC">      0.00001000</i>
  </separator>
  <separator name="dos" >
   <i type="int" name="LORBIT">     0</i>
   <v name="RWIGS">     -1.00000000</v>
   <i type="int" name="NEDOS">   301</i>
   <i name="EMIN">     10.00000000</i>
   <i name="EMAX">    -10.00000000</i>
   <i name="EFERMI">      0.00000000</i>
  </separator>
  <separator name="writing" >
   <i type="int" name="NWRITE">     2</i>
   <i type="logical" name="LWAVE"> T  </i>
   <i type="logical" name="LDOWNSAMPLE"> F  </i>
   <i type="logical" name="LCHARG"> T  </i>
   <i type="logical" name="LPARD"> F  </i>
   <i type="logical" name="LVTOT"> F  </i>
   <i type="logical" name="LVHAR"> F  </i>
   <i type="logical" name="LELF"> F  </i>
   <i type="logical" name="LOPTICS"> F  </i>
   <v name="STM">      0.00000000      0.00000000      0.00000000      0.00000000      0.00000000      0.00000000      0.00000000</v>
  </separator>
  <separator name="performance" >
   <i type="int" name="NPAR">     8</i>
   <i type="int" name="NSIM">     4</i>
   <i type="int" name="NBLK">    -1</i>
   <i type="logical" name="LPLANE"> T  </i>
   <i type="logical" name="LSCALAPACK"> T  </i>
   <i type="logical" name="LSCAAWARE"> F  </i>
   <i type="logical" name="LSCALU"> F  </i>
   <i type="logical" name="LASYNC"> F  </i>
   <i type="logical" name="LORBITALREAL"> F  </i>
  </separator>
  <separator name="miscellaneous" >
   <i type="int" name="IDIOT">     3</i>
   <i type="int" name="ISPECIAL">     0</i>
   <i type="logical" name="LMUSIC"> F  </i>
   <v name="POMASS">     28.08500000</v>
   <v name="DARWINR">      0.00000000</v>
   <v name="DARWINV">      1.00000000</v>
   <i type="logical" name="LCORR"> T  </i>
  </separator>
  <i type="logical" name="GGA_COMPAT"> T  </i>
  <i type="logical" name="LBERRY"> F  </i>
  <i type="int" name="ICORELEVEL">     0</i>
  <i type="logical" name="LDAU"> F  </i>
  <i type="int" name="I_CONSTRAINED_M">     0</i>
  <separator name="electronic exchange-correlation" >
   <i type="string" name="GGA">--</i>
   <i type="int" name="VOSKOWN">     0</i>
   <i type="logical" name="LHFCALC"> F  </i>
   <i type="string" name="PRECFOCK"></i>
   <i type="logical" name="LSYMGRAD"> F  </i>
   <i type="logical" name="LHFONE"> F  </i>
   <i type="logical" name="LRHFCALC"> F  </i>
   <i type="logical" name="LTHOMAS"> F  </i>
   <i type="logical" name="LMODELHF"> F  </i>
   <i name="ENCUT4O">     -1.00000000</i>
   <i type="int" name="EXXOEP">     0</i>
   <i type="int" name="FOURORBIT">     0</i>
   <i name="AEXX">      0.00000000</i>
   <i name="HFALPHA">      0.00000000</i>
   <i name="MCALPHA">      0.00000000</i>
   <i name="ALDAX">      1.00000000</i>
   <i name="AGGAX">      1.00000000</i>
   <i name="ALDAC">      1.00000000</i>
   <i name="AGGAC">      1.00000000</i>
   <i type="int" name="NKREDX">     1</i>
   <i type="int" name="NKREDY">     1</i>
   <i type="int" name="NKREDZ">     1</i>
   <i type="logical" name="SHIFTRED"> F  </i>
   <i type="logical" name="ODDONLY"> F  </i>
   <i type="logical" name="EVENONLY"> F  </i>
   <i type="int" name="LMAXFOCK">     0</i>
   <i type="int" name="NMAXFOCKAE">     0</i>
   <i type="logical" name="LFOCKAEDFT"> F  </i>
   <i name="HFSCREEN">      0.00000000</i>
   <i name="HFSCREENC">      0.00000000</i>
   <i type="int" name="NBANDSGWLOW">     0</i>
  </separator>
  <separator name="vdW DFT" >
   <i type="logical" name="LUSE_VDW"> F  </i>
   <i name="Zab_VDW">     -0.84910000</i>
   <i name="PARAM1">      0.12340000</i>
   <i name="PARAM2">      1.00000000</i>
   <i name="PARAM3">      0.00000000</i>
  </separator>
  <separator name="model GW" >
   <i type="int" name="MODEL_GW">     0</i>
   <i name="MODEL_EPS0">      9.17662200</i>
   <i name="MODEL_ALPHA">      1.00000000</i>
  </separator>
  <separator name="linear response parameters" >
   <i type="logical" name="LEPSILON"> F  </i>
   <i type="logical" name="LRPA"> F  </i>
   <i type="logical" name="LNABLA"> F  </i>
   <i type="logical" name="LVEL"> F  </i>
   <i type="int" name="KINTER">     0</i>
   <i name="CSHIFT">      0.10000000</i>
   <i name="OMEGAMAX">     -1.00000000</i>
   <i name="DEG_THRESHOLD">      0.00200000</i>
   <i name="RTIME">     -0.10000000</i>
   <i name="WPLASMAI">      0.00000000</i>
   <v name="DFIELD">      0.00000000      0.00000000      0.00000000</v>
   <v name="WPLASMA">      0.00000000      0.00000000      0.00000000      0.00000000      0.00000000      0.00000000      0.00000000      0.00000000      0.00000000</v>
  </separator>
  <separator name="orbital magnetization" >
   <i type="logical" name="NUCIND"> F  </i>
   <v name="MAGPOS">      0.00000000      0.00000000      0.00000000</v>
   <i type="logical" name="LNICSALL"> T  </i>
   <i type="logical" name="ORBITALMAG"> F  </i>
   <i type="logical" name="LMAGBLOCH"> F  </i>
   <i type="logical" name="LCHIMAG"> F  </i>
   <i type="logical" name="LGAUGE"> T  </i>
   <i type="int" name="MAGATOM">     0</i>
   <v name="MAGDIPOL">      0.00000000      0.00000000      0.00000000</v>
   <v name="AVECCONST">      0.00000000      0.00000000      0.00000000</v>
  </separator>
  <separator name="response functions" >
   <i type="logical" name="LADDER"> F  </i>
   <i type="logical" name="LRPAFORCE"> F  </i>
   <i type="logical" name="LFXC"> F  </i>
   <i type="logical" name="LHARTREE"> T  </i>
   <i type="int" name="IBSE">     0</i>
   <v type="int" name="KPOINT">    -1     0     0     0</v>
   <i type="logical" name="LTCTE"> F  </i>
   <i type="logical" name="LTETE"> F  </i>
   <i type="logical" name="LTRIPLET"> F  </i>
   <i type="logical" name="LFXCEPS"> F  </i>
   <i type="logical" name="LFXHEG"> F  </i>
   <i type="int" name="NATURALO">     2</i>
   <i type="logical" name="L2ORDER"> F  </i>
   <i type="logical" name="LMP2LT"> F  </i>
   <i type="logical" name="LUSEW"> F  </i>
   <i name="ENCUTGW">     -2.00000000</i>
   <i name="ENCUTGWSOFT">     -2.00000000</i>
   <i name="ENCUTLF">     -1.00000000</i>
   <i type="int" name="LMAXMP2">    -1</i>
   <i name="SCISSOR">      0.00000000</i>
   <i type="int" name="NOMEGA">     0</i>
   <i type="int" name="NOMEGAR">     0</i>
   <i type="int" name="NBANDSGW">    -1</i>
   <i type="int" name="NBANDSO">    -1</i>
   <i type="int" name="NBANDSV">    -1</i>
   <i type="int" name="NELM">     1</i>
   <i type="int" name="NELMHF">     1</i>
   <i type="int" name="DIM">     3</i>
   <i type="int" name="ANTIRES">     0</i>
   <i name="OMEGAMAX">    -30.00000000</i>
   <i name="OMEGAMIN">    -30.00000000</i>
   <i name="OMEGATL">   -200.00000000</i>
   <i type="int" name="OMEGAGRID">   140</i>
   <i name="CSHIFT">     -0.10000000</i>
   <i type="logical" name="SELFENERGY"> F  </i>
   <i type="logical" name="LSPECTRAL"> F  </i>
   <i type="logical" name="LSPECTRALGW"> F  </i>
   <i type="logical" name="LSINGLES"> F  </i>
   <i type="logical" name="LFERMIGW"> F  </i>
   <i type="logical" name="ODDONLYGW"> F  </i>
   <i type="logical" name="EVENONLYGW"> F  </i>
   <i type="int" name="NKREDLFX">     1</i>
   <i type="int" name="NKREDLFY">     1</i>
   <i type="int" name="NKREDLFZ">     1</i>
   <i type="int" name="MAXMEM">  2800</i>
   <i type="int" name="TELESCOPE">     0</i>
   <i type="int" name="TAUPAR">     1</i>
   <i type="int" name="OMEGAPAR">    -1</i>
   <i name="LAMBDA">      1.00000000</i>
  </separator>
  <separator name="External order field" >
   <i name="OFIELD_KAPPA">      0.00000000</i>
   <v name="OFIELD_K">      0.00000000      0.00000000      0.00000000</v>
   <i name="OFIELD_Q6_NEAR">      0.00000000</i>
   <i name="OFIELD_Q6_FAR">      0.00000000</i>
   <i name="OFIELD_A">      0.00000000</i>
  </separator>
 </parameters>
 <atominfo>
  <atoms>       2 </atoms>
  <types>       1 </types>
  <array name="atoms" >
   <dimension dim="1">ion</dimension>
   <field type="string">element</field>
   <field type="int">atomtype</field>
   <set>
    <rc><c>Si</c><c>   1</c></rc>
    <rc><c>Si</c><c>   1</c></rc>
   </set>
  </array>
  <array name="atomtypes" >
   <dimension dim="1">type</dimension>
   <field type="int">atomspertype</field>
   <field type="string">element</field>
   <field>mass</field>
   <field>valence</field>
   <field type="string">pseudopotential</field>
   <set>
    <rc><c>   2</c><c>Si</c><c>     28.08500000</c><c>      4.00000000</c><c> PAW_PBE Si 05Jan2001                   </c></rc>
   </set>
  </array>
 </atominfo>
 <structure name="initialpos" >
  <crystal>
   <varray name="basis" >
    <v>      -2.45000000       2.45000000       1.27400000 </v>
    <v>       2.45000000      -2.45000000       1.27400000 </v>
    <v>       2.45000000       2.45000000      -1.27400000 </v>
   </varray>
   <i name="volume">     30.58874000 </i>
   <varray name="rec_basis" >
    <v>       0.00000000       0.20408163       0.39246468 </v>
    <v>       0.20408163       0.00000000       0.39246468 </v>
    <v>       0.20408163       0.20408163      -0.00000000 </v>
   </varray>
  </crystal>
  <varray name="positions" >
   <v>       0.25000000       0.75000000       0.50000000 </v>
   <v>       0.00000000       0.00000000       0.00000000 </v>
  </varray>
 </structure>
 <calculation>
  <scstep>
   <time name="dav">    0.24    0.24</time>
   <time name="total">    0.28    0.30</time>
   <energy>
    <i name="alphaZ">      4.40202223 </i>
    <i name="ewald">   -265.18101312 </i>
    <i name="hartreedc">     -2.30415367 </i>
    <i name="XCdc">    -17.81545108 </i>
    <i name="pawpsdc">     65.95520812 </i>
    <i name="pawaedc">    -30.76852678 </i>
    <i name="eentropy">     -0.01612974 </i>
    <i name="bandstr">     36.52228950 </i>
    <i name="atom">    206.11247263 </i>
    <i name="e_fr_energy">     -3.09328191 </i>
    <i name="e_wo_entrp">     -3.07715217 </i>
    <i name="e_0_energy">     -3.08521704 </i>
   </energy>
  </scstep>
  <scstep>
   <time name="dav">    0.35    0.36</time>
   <time name="total">    0.36    0.36</time>
   <energy>
    <i name="e_fr_energy">    -10.19524761 </i>
    <i name="e_wo_entrp">    -10.18390329 </i>
    <i name="e_0_energy">    -10.18957545 </i>
   </energy>
  </scstep>
  <scstep>
   <time name="dav">    0.30    0.30</time>
   <time name="total">    0.30    0.30</time>
   <energy>
    <i name="e_fr_energy">    -10.25158749 </i>
    <i name="e_wo_entrp">    -10.24023533 </i>
    <i name="e_0_energy">    -10.24591141 </i>
   </energy>
  </scstep>
  <scstep>
   <time name="dav">    0.36    0.36</time>
   <time name="total">    0.36    0.37</time>
   <energy>
    <i name="e_fr_energy">    -10.25168232 </i>
    <i name="e_wo_entrp">    -10.24033024 </i>
    <i name="e_0_energy">    -10.24600628 </i>
   </energy>
  </scstep>
  <scstep>
   <time name="dav">    0.30    0.30</time>
   <time name="total">    0.31    0.32</time>
   <energy>
    <i name="e_fr_energy">    -10.25168234 </i>
    <i name="e_wo_entrp">    -10.24033026 </i>
    <i name="e_0_energy">    -10.24600630 </i>
   </energy>
  </scstep>
  <scstep>
   <time name="dav">    0.25    0.25</time>
   <time name="total">    0.28    0.29</time>
   <energy>
    <i name="e_fr_energy">    -10.24538552 </i>
    <i name="e_wo_entrp">    -10.23401544 </i>
    <i name="e_0_energy">    -10.23970048 </i>
   </energy>
  </scstep>
  <scstep>
   <time name="dav">    0.24    0.25</time>
   <time name="total">    0.29    0.29</time>
   <energy>
    <i name="e_fr_energy">    -10.24044207 </i>
    <i name="e_wo_entrp">    -10.22904521 </i>
    <i name="e_0_energy">    -10.23474364 </i>
   </energy>
  </scstep>
  <scstep>
   <time name="dav">    0.15    0.15</time>
   <time name="total">    0.18    0.19</time>
   <energy>
    <i name="alphaZ">      4.40202223 </i>
    <i name="ewald">   -265.18101312 </i>
    <i name="hartreedc">     -2.50077728 </i>
    <i name="XCdc">    -17.56081881 </i>
    <i name="pawpsdc">     71.41779271 </i>
    <i name="pawaedc">    -36.34074156 </i>
    <i name="eentropy">     -0.01139453 </i>
    <i name="bandstr">     29.42203268 </i>
    <i name="atom">    206.11247263 </i>
    <i name="e_fr_energy">    -10.24042505 </i>
    <i name="e_wo_entrp">    -10.22903052 </i>
    <i name="e_0_energy">    -10.23472778 </i>
   </energy>
  </scstep>
  <structure>
   <crystal>
    <varray name="basis" >
     <v>      -2.45000000       2.45000000       1.27400000 </v>
     <v>       2.45000000      -2.45000000       1.27400000 </v>
     <v>       2.45000000       2.45000000      -1.27400000 </v>
    </varray>
    <i name="volume">     30.58874000 </i>
    <varray name="rec_basis" >
     <v>       0.00000000       0.20408163       0.39246468 </v>
     <v>       0.20408163       0.00000000       0.39246468 </v>
     <v>       0.20408163       0.20408163      -0.00000000 </v>
    </varray>
   </crystal>
   <varray name="positions" >
    <v>       0.25000000       0.75000000       0.50000000 </v>
    <v>       0.00000000       0.00000000       0.00000000 </v>
   </varray>
  </structure>
  <varray name="forces" >
   <v>      -0.00000000      -0.00000000      -0.00000000 </v>
   <v>       0.00000000       0.00000000       0.00000000 </v>
  </varray>
  <varray name="stress" >
   <v>      -6.88227926      -0.00000000      -0.00000000 </v>
   <v>      -0.00000000      -6.88227926       0.00000000 </v>
   <v>      -0.00000000       0.00000000       6.09365764 </v>
  </varray>
  <energy>
   <i name="e_fr_energy">    -10.24042505 </i>
   <i name="e_wo_entrp">    -10.23472778 </i>
   <i name="e_0_energy">     -0.01139453 </i>
  </energy>
  <time name="totalsc">    3.03    3.45</time>
 </calculation>
 <calculation>
  <scstep>
   <time name="dav">    0.31    0.31</time>
   <time name="total">    0.35    0.37</time>
   <energy>
    <i name="alphaZ">      4.41766230 </i>
    <i name="ewald">   -265.52334593 </i>
    <i name="hartreedc">     -2.50428164 </i>
    <i name="XCdc">    -17.54141686 </i>
    <i name="pawpsdc">     71.41572230 </i>
    <i name="pawaedc">    -36.33901892 </i>
    <i name="eentropy">     -0.01170563 </i>
    <i name="bandstr">     29.73289150 </i>
    <i name="atom">    206.11247263 </i>
    <i name="e_fr_energy">    -10.24102026 </i>
    <i name="e_wo_entrp">    -10.22931463 </i>
    <i name="e_0_energy">    -10.23516744 </i>
   </energy>
  </scstep>
  <scstep>
   <time name="dav">    0.22    0.22</time>
   <time name="total">    0.25    0.26</time>
   <energy>
    <i name="alphaZ">      4.41766230 </i>
    <i name="ewald">   -265.52334593 </i>
    <i name="hartreedc">     -2.49203748 </i>
    <i name="XCdc">    -17.54127432 </i>
    <i name="pawpsdc">     71.43627591 </i>
    <i name="pawaedc">    -36.36010186 </i>
    <i name="eentropy">     -0.01169768 </i>
    <i name="bandstr">     29.72131969 </i>
    <i name="atom">    206.11247263 </i>
    <i name="e_fr_energy">    -10.24072674 </i>
    <i name="e_wo_entrp">    -10.22902906 </i>
    <i name="e_0_energy">    -10.23487790 </i>
   </energy>
  </scstep>
  <structure>
   <crystal>
    <varray name="basis" >
     <v>      -2.44223484       2.44223484       1.27757519 </v>
     <v>       2.44223484      -2.44223484       1.27757519 </v>
     <v>       2.44223484       2.44223484      -1.27757519 </v>
    </varray>
    <i name="volume">     30.48044520 </i>
    <varray name="rec_basis" >
     <v>      -0.00000000       0.20473052       0.39136640 </v>
     <v>       0.20473052      -0.00000000       0.39136640 </v>
     <v>       0.20473052       0.20473052       0.00000000 </v>
    </varray>
   </crystal>
   <varray name="positions" >
    <v>       0.25000000       0.75000000       0.50000000 </v>
    <v>       0.00000000       0.00000000       0.00000000 </v>
   </varray>
  </structure>
  <varray name="forces" >
   <v>      -0.00000000      -0.00000000       0.00000000 </v>
   <v>       0.00000000       0.00000000      -0.00000000 </v>
  </varray>
  <varray name="stress" >
   <v>       1.29983478       0.00000000       0.00000000 </v>
   <v>       0.00000000       1.29983478       0.00000000 </v>
   <v>       0.00000000       0.00000000      -2.25546187 </v>
  </varray>
  <energy>
   <i name="e_fr_energy">    -10.24072674 </i>
   <i name="e_wo_entrp">    -10.23487790 </i>
   <i name="e_0_energy">     -0.01169768 </i>
  </energy>
  <time name="totalsc">    0.83    0.96</time>
 </calculation>
 <calculation>
  <scstep>
   <time name="dav">    0.28    0.28</time>
   <time name="total">    0.32    0.33</time>
   <energy>
    <i name="alphaZ">      4.41463079 </i>
    <i name="ewald">   -265.45738999 </i>
    <i name="hartreedc">     -2.47584823 </i>
    <i name="XCdc">    -17.54429617 </i>
    <i name="pawpsdc">     71.46936686 </i>
    <i name="pawaedc">    -36.39395162 </i>
    <i name="eentropy">     -0.01161847 </i>
    <i name="bandstr">     29.64591006 </i>
    <i name="atom">    206.11247263 </i>
    <i name="e_fr_energy">    -10.24072413 </i>
    <i name="e_wo_entrp">    -10.22910566 </i>
    <i name="e_0_energy">    -10.23491490 </i>
   </energy>
  </scstep>
  <scstep>
   <time name="dav">    0.13    0.13</time>
   <time name="total">    0.15    0.16</time>
   <energy>
    <i name="alphaZ">      4.41463079 </i>
    <i name="ewald">   -265.45738999 </i>
    <i name="hartreedc">     -2.47788725 </i>
    <i name="XCdc">    -17.54424644 </i>
    <i name="pawpsdc">     71.46886706 </i>
    <i name="pawaedc">    -36.39350400 </i>
    <i name="eentropy">     -0.01162027 </i>
    <i name="bandstr">     29.64796378 </i>
    <i name="atom">    206.11247263 </i>
    <i name="e_fr_energy">    -10.24071369 </i>
    <i name="e_wo_entrp">    -10.22909342 </i>
    <i name="e_0_energy">    -10.23490355 </i>
   </energy>
  </scstep>
  <structure>
   <crystal>
    <varray name="basis" >
     <v>      -2.44373303       2.44373303       1.27688541 </v>
     <v>       2.44373303      -2.44373303       1.27688541 </v>
     <v>       2.44373303       2.44373303      -1.27688541 </v>
    </varray>
    <i name="volume">     30.50137598 </i>
    <varray name="rec_basis" >
     <v>       0.00000000       0.20460500       0.39157782 </v>
     <v>       0.20460500      -0.00000000       0.39157782 </v>
     <v>       0.20460500       0.20460500       0.00000000 </v>
    </varray>
   </crystal>
   <varray name="positions" >
    <v>       0.25000000       0.75000000       0.50000000 </v>
    <v>       0.00000000       0.00000000       0.00000000 </v>
   </varray>
  </structure>
  <varray name="forces" >
   <v>       0.00000000      -0.00000000       0.00000000 </v>
   <v>      -0.00000000       0.00000000      -0.00000000 </v>
  </varray>
  <varray name="stress" >
   <v>       3.20692023       0.00000000       0.00000000 </v>
   <v>       0.00000000       3.20692023       0.00000000 </v>
   <v>      -0.00000000      -0.00000000      -4.07097557 </v>
  </varray>
  <energy>
   <i name="e_fr_energy">    -10.24071369 </i>
   <i name="e_wo_entrp">    -10.23490355 </i>
   <i name="e_0_energy">     -0.01162027 </i>
  </energy>
  <time name="totalsc">    0.70    0.79</time>
 </calculation>
 <calculation>
  <scstep>
   <time name="dav">    0.30    0.30</time>
   <time name="total">    0.34    0.36</time>
   <energy>
    <i name="alphaZ">      4.41029666 </i>
    <i name="ewald">   -265.36276251 </i>
    <i name="hartreedc">     -2.48080442 </i>
    <i name="XCdc">    -17.54924078 </i>
    <i name="pawpsdc">     71.46790734 </i>
    <i name="pawaedc">    -36.39267150 </i>
    <i name="eentropy">     -0.01153183 </i>
    <i name="bandstr">     29.56554325 </i>
    <i name="atom">    206.11247263 </i>
    <i name="e_fr_energy">    -10.24079116 </i>
    <i name="e_wo_entrp">    -10.22925933 </i>
    <i name="e_0_energy">    -10.23502524 </i>
   </energy>
  </scstep>
  <scstep>
   <time name="dav">    0.14    0.14</time>
   <time name="total">    0.17    0.18</time>
   <energy>
    <i name="alphaZ">      4.41029666 </i>
    <i name="ewald">   -265.36276251 </i>
    <i name="hartreedc">     -2.48412535 </i>
    <i name="XCdc">    -17.54931157 </i>
    <i name="pawpsdc">     71.45949719 </i>
    <i name="pawaedc">    -36.38402275 </i>
    <i name="eentropy">     -0.01153360 </i>
    <i name="bandstr">     29.56871966 </i>
    <i name="atom">    206.11247263 </i>
    <i name="e_fr_energy">    -10.24076965 </i>
    <i name="e_wo_entrp">    -10.22923604 </i>
    <i name="e_0_energy">    -10.23500285 </i>
   </energy>
  </scstep>
  <structure>
   <crystal>
    <varray name="basis" >
     <v>      -2.44588075       2.44588075       1.27589656 </v>
     <v>       2.44588075      -2.44588075       1.27589656 </v>
     <v>       2.44588075       2.44588075      -1.27589656 </v>
    </varray>
    <i name="volume">     30.53135059 </i>
    <varray name="rec_basis" >
     <v>       0.00000000       0.20442534       0.39188130 </v>
     <v>       0.20442534       0.00000000       0.39188130 </v>
     <v>       0.20442534       0.20442534       0.00000000 </v>
    </varray>
   </crystal>
   <varray name="positions" >
    <v>       0.25000000       0.75000000       0.50000000 </v>
    <v>       0.00000000       0.00000000       0.00000000 </v>
   </varray>
  </structure>
  <varray name="forces" >
   <v>       0.00000000      -0.00000000       0.00000000 </v>
   <v>      -0.00000000       0.00000000      -0.00000000 </v>
  </varray>
  <varray name="stress" >
   <v>       0.16324771       0.00000000       0.00000000 </v>
   <v>       0.00000000       0.16324771       0.00000000 </v>
   <v>      -0.00000000       0.00000000      -0.88645913 </v>
  </varray>
  <energy>
   <i name="e_fr_energy">    -10.24076965 </i>
   <i name="e_wo_entrp">    -10.23500285 </i>
   <i name="e_0_energy">     -0.01153360 </i>
  </energy>
  <time name="totalsc">    0.76    0.94</time>
  <eigenvalues>
   <array>
    <dimension dim="1">band</dimension>
    <dimension dim="2">kpoint</dimension>
    <dimension dim="3">spin</dimension>
    <field>eigene</field>
    <field>occ</field>
    <set>
     <set comment="spin 1">
      <set comment="kpoint 1">
       <r>   -3.6586    1.0000 </r>
       <r>    3.9520    1.0000 </r>
       <r>    7.1669    1.0000 </r>
       <r>    8.7062    0.9999 </r>
       <r>   12.9018    0.0000 </r>
       <r>   13.7901    0.0000 </r>
       <r>   13.9998    0.0000 </r>
       <r>   15.8561    0.0000 </r>
      </set>
      <set comment="kpoint 2">
       <r>   -1.3362    1.0000 </r>
       <r>    4.3132    1.0000 </r>
       <r>    7.4998    1.0000 </r>
       <r>    8.0075    1.0000 </r>
       <r>    9.7598    0.0001 </r>
       <r>   12.3738    0.0000 </r>
       <r>   13.6218    0.0000 </r>
       <r>   14.4171    0.0000 </r>
      </set>
      <set comment="kpoint 3">
       <r>    2.1907    1.0000 </r>
       <r>    2.7438    1.0000 </r>
       <r>    6.0439    1.0000 </r>
       <r>    6.1503    1.0000 </r>
       <r>    9.6071    0.0033 </r>
       <r>   11.4100    0.0000 </r>
       <r>   13.7121    0.0000 </r>
       <r>   14.5973    0.0000 </r>
      </set>
      <set comment="kpoint 4">
       <r>   -4.4400    1.0000 </r>
       <r>    4.5657    1.0000 </r>
       <r>    5.7343    1.0000 </r>
       <r>    8.3221    1.0000 </r>
       <r>   11.5484    0.0000 </r>
       <r>   14.4353    0.0000 </r>
       <r>   17.5888    0.0000 </r>
       <r>   18.2936    0.0000 </r>
      </set>
      <set comment="kpoint 5">
       <r>    2.0966    1.0000 </r>
       <r>    4.0034    1.0000 </r>
       <r>    4.1098    1.0000 </r>
       <r>    5.8707    1.0000 </r>
       <r>   11.0235    0.0000 </r>
       <r>   12.2580    0.0000 </r>
       <r>   13.8725    0.0000 </r>
       <r>   14.3744    0.0000 </r>
      </set>
      <set comment="kpoint 6">
       <r>   -0.0406    1.0000 </r>
       <r>    1.8689    1.0000 </r>
       <r>    6.9977    1.0000 </r>
       <r>    8.3240    1.0000 </r>
       <r>   10.0110    0.0000 </r>
       <r>   11.8461    0.0000 </r>
       <r>   13.6352    0.0000 </r>
       <r>   15.2849    0.0000 </r>
      </set>
      <set comment="kpoint 7">
       <r>   -2.6702    1.0000 </r>
       <r>    1.1978    1.0000 </r>
       <r>    8.0662    1.0000 </r>
       <r>    9.9141    0.0000 </r>
       <r>   11.5116    0.0000 </r>
       <r>   12.9862    0.0000 </r>
       <r>   14.1251    0.0000 </r>
       <r>   14.3619    0.0000 </r>
      </set>
      <set comment="kpoint 8">
       <r>   -3.7777    1.0000 </r>
       <r>    1.9837    1.0000 </r>
       <r>    6.0047    1.0000 </r>
       <r>    9.9182    0.0000 </r>
       <r>   11.5376    0.0000 </r>
       <r>   14.6017    0.0000 </r>
       <r>   15.4523    0.0000 </r>
       <r>   18.9240    0.0000 </r>
      </set>
      <set comment="kpoint 9">
       <r>   -3.3289    1.0000 </r>
       <r>    3.7032    1.0000 </r>
       <r>    5.2094    1.0000 </r>
       <r>   10.7498    0.0000 </r>
       <r>   11.8876    0.0000 </r>
       <r>   13.2759    0.0000 </r>
       <r>   14.1068    0.0000 </r>
       <r>   15.9704    0.0000 </r>
      </set>
      <set comment="kpoint 10">
       <r>   -1.0402    1.0000 </r>
       <r>   -1.0402    1.0000 </r>
       <r>    9.5326    0.0142 </r>
       <r>    9.5326    0.0142 </r>
       <r>   11.4467    0.0000 </r>
       <r>   11.4467    0.0000 </r>
       <r>   13.7415    0.0000 </r>
       <r>   13.7416    0.0000 </r>
      </set>
      <set comment="kpoint 11">
       <r>   -2.4633    1.0000 </r>
       <r>   -0.5214    1.0000 </r>
       <r>    7.2324    1.0000 </r>
       <r>    9.0916    0.8227 </r>
       <r>   11.3340    0.0000 </r>
       <r>   13.1812    0.0000 </r>
       <r>   18.2889    0.0000 </r>
       <r>   18.5317    0.0000 </r>
      </set>
      <set comment="kpoint 12">
       <r>   -2.3457    1.0000 </r>
       <r>    1.4629    1.0000 </r>
       <r>    5.6121    1.0000 </r>
       <r>    9.2385    0.4551 </r>
       <r>   11.4027    0.0000 </r>
       <r>   13.5488    0.0000 </r>
       <r>   15.5754    0.0000 </r>
       <r>   16.8402    0.0000 </r>
      </set>
      <set comment="kpoint 13">
       <r>   -0.6901    1.0000 </r>
       <r>    4.2997    1.0000 </r>
       <r>    5.9021    1.0000 </r>
       <r>    6.4750    1.0000 </r>
       <r>   10.1212    0.0000 </r>
       <r>   12.3528    0.0000 </r>
       <r>   13.3788    0.0000 </r>
       <r>   15.4665    0.0000 </r>
      </set>
      <set comment="kpoint 14">
       <r>   -0.7308    1.0000 </r>
       <r>   -0.7259    1.0000 </r>
       <r>    7.1096    1.0000 </r>
       <r>    7.1253    1.0000 </r>
       <r>   11.2903    0.0000 </r>
       <r>   14.5940    0.0000 </r>
       <r>   15.3736    0.0000 </r>
       <r>   15.4162    0.0000 </r>
      </set>
      <set comment="kpoint 15">
       <r>    0.5865    1.0000 </r>
       <r>    2.4320    1.0000 </r>
       <r>    5.8023    1.0000 </r>
       <r>    6.5935    1.0000 </r>
       <r>    8.2836    1.0000 </r>
       <r>   11.8786    0.0000 </r>
       <r>   15.4602    0.0000 </r>
       <r>   17.0634    0.0000 </r>
      </set>
      <set comment="kpoint 16">
       <r>    1.4720    1.0000 </r>
       <r>    3.4489    1.0000 </r>
       <r>    6.4090    1.0000 </r>
       <r>    7.6178    1.0000 </r>
       <r>    8.2285    1.0000 </r>
       <r>   10.8391    0.0000 </r>
       <r>   11.6847    0.0000 </r>
       <r>   15.7685    0.0000 </r>
      </set>
      <set comment="kpoint 17">
       <r>    1.1654    1.0000 </r>
       <r>    4.9034    1.0000 </r>
       <r>    4.9501    1.0000 </r>
       <r>    7.7574    1.0000 </r>
       <r>    8.7399    0.9997 </r>
       <r>   10.3207    0.0000 </r>
       <r>   12.7101    0.0000 </r>
       <r>   13.5495    0.0000 </r>
      </set>
      <set comment="kpoint 18">
       <r>   -1.9905    1.0000 </r>
       <r>    6.7583    1.0000 </r>
       <r>    7.7497    1.0000 </r>
       <r>    8.5108    1.0000 </r>
       <r>    9.9095    0.0000 </r>
       <r>   11.1790    0.0000 </r>
       <r>   12.4046    0.0000 </r>
       <r>   13.6003    0.0000 </r>
      </set>
      <set comment="kpoint 19">
       <r>   -3.9896    1.0000 </r>
       <r>    6.8390    1.0000 </r>
       <r>    6.8651    1.0000 </r>
       <r>    6.8651    1.0000 </r>
       <r>   11.2396    0.0000 </r>
       <r>   14.5589    0.0000 </r>
       <r>   14.8287    0.0000 </r>
       <r>   16.7704    0.0000 </r>
      </set>
      <set comment="kpoint 20">
       <r>    3.4015    1.0000 </r>
       <r>    3.4015    1.0000 </r>
       <r>    4.0765    1.0000 </r>
       <r>    4.0765    1.0000 </r>
       <r>   13.2824    0.0000 </r>
       <r>   13.2824    0.0000 </r>
       <r>   15.0860    0.0000 </r>
       <r>   15.0860    0.0000 </r>
      </set>
      <set comment="kpoint 21">
       <r>   -3.1220    1.0000 </r>
       <r>    1.9759    1.0000 </r>
       <r>    3.6539    1.0000 </r>
       <r>    8.6097    1.0000 </r>
       <r>   13.0047    0.0000 </r>
       <r>   16.1689    0.0000 </r>
       <r>   17.3403    0.0000 </r>
       <r>   18.2693    0.0000 </r>
      </set>
      <set comment="kpoint 22">
       <r>   -1.8261    1.0000 </r>
       <r>    0.0541    1.0000 </r>
       <r>    4.3097    1.0000 </r>
       <r>    6.1405    1.0000 </r>
       <r>   14.8627    0.0000 </r>
       <r>   16.2810    0.0000 </r>
       <r>   17.8428    0.0000 </r>
       <r>   18.2365    0.0000 </r>
      </set>
      <set comment="kpoint 23">
       <r>   -1.3822    1.0000 </r>
       <r>    1.7547    1.0000 </r>
       <r>    3.4905    1.0000 </r>
       <r>    6.5518    1.0000 </r>
       <r>   10.8352    0.0000 </r>
       <r>   16.6203    0.0000 </r>
       <r>   17.5513    0.0000 </r>
       <r>   18.4689    0.0000 </r>
      </set>
      <set comment="kpoint 24">
       <r>    0.1625    1.0000 </r>
       <r>    0.1734    1.0000 </r>
       <r>    4.4262    1.0000 </r>
       <r>    4.4311    1.0000 </r>
       <r>   10.5644    0.0000 </r>
       <r>   17.7053    0.0000 </r>
       <r>   18.3667    0.0000 </r>
       <r>   19.1277    0.0000 </r>
      </set>
      <set comment="kpoint 25">
       <r>    1.7896    1.0000 </r>
       <r>    3.0201    1.0000 </r>
       <r>    4.7605    1.0000 </r>
       <r>    5.2479    1.0000 </r>
       <r>    6.0342    1.0000 </r>
       <r>   14.0097    0.0000 </r>
       <r>   15.4164    0.0000 </r>
       <r>   17.3278    0.0000 </r>
      </set>
      <set comment="kpoint 26">
       <r>    0.8498    1.0000 </r>
       <r>    5.8063    1.0000 </r>
       <r>    5.8962    1.0000 </r>
       <r>    7.2776    1.0000 </r>
       <r>    7.2776    1.0000 </r>
       <r>   11.6447    0.0000 </r>
       <r>   12.3289    0.0000 </r>
       <r>   12.3289    0.0000 </r>
      </set>
      <set comment="kpoint 27">
       <r>   -0.6006    1.0000 </r>
       <r>    0.6587    1.0000 </r>
       <r>    2.4558    1.0000 </r>
       <r>    3.6976    1.0000 </r>
       <r>   16.2465    0.0000 </r>
       <r>   16.4369    0.0000 </r>
       <r>   19.4860    0.0000 </r>
       <r>   20.6014    0.0000 </r>
      </set>
      <set comment="kpoint 28">
       <r>    1.0874    1.0000 </r>
       <r>    1.1065    1.0000 </r>
       <r>    2.8854    1.0000 </r>
       <r>    2.8854    1.0000 </r>
       <r>   10.2793    0.0000 </r>
       <r>   19.2599    0.0000 </r>
       <r>   20.3938    0.0000 </r>
       <r>   20.3938    0.0000 </r>
      </set>
     </set>
    </set>
   </array>
  </eigenvalues>
  <separator name="orbital magnetization" >
   <v name="MAGDIPOLOUT">      0.00000000      0.00000000      0.00000000</v>
  </separator>
  <dos>
   <i name="efermi">      9.22252017 </i>
   <total>
    <array>
     <dimension dim="1">gridpoints</dimension>
     <dimension dim="2">spin</dimension>
     <field>energy</field>
     <field>total</field>
     <field>integrated</field>
     <set>
      <set comment="spin 1">
       <r>    -6.4400     0.0000     0.0000 </r>
       <r>    -6.3432     0.0000     0.0000 </r>
       <r>    -6.2464     0.0000     0.0000 </r>
       <r>    -6.1496     0.0000     0.0000 </r>
       <r>    -6.0528     0.0000     0.0000 </r>
       <r>    -5.9560     0.0000     0.0000 </r>
       <r>    -5.8592     0.0000     0.0000 </r>
       <r>    -5.7624     0.0000     0.0000 </r>
       <r>    -5.6656     0.0000     0.0000 </r>
       <r>    -5.5688     0.0000     0.0000 </r>
       <r>    -5.4720     0.0000     0.0000 </r>
       <r>    -5.3751     0.0000     0.0000 </r>
       <r>    -5.2783     0.0000     0.0000 </r>
       <r>    -5.1815     0.0000     0.0000 </r>
       <r>    -5.0847     0.0000     0.0000 </r>
       <r>    -4.9879     0.0000     0.0000 </r>
       <r>    -4.8911     0.0003     0.0000 </r>
       <r>    -4.7943     0.0021     0.0002 </r>
       <r>    -4.6975     0.0108     0.0013 </r>
       <r>    -4.6007     0.0358     0.0047 </r>
       <r>    -4.5039     0.0757     0.0121 </r>
       <r>    -4.4071     0.1022     0.0220 </r>
       <r>    -4.3103     0.0894     0.0306 </r>
       <r>    -4.2135     0.0572     0.0361 </r>
       <r>    -4.1167     0.0470     0.0407 </r>
       <r>    -4.0199     0.0783     0.0483 </r>
       <r>    -3.9231     0.1539     0.0632 </r>
       <r>    -3.8263     0.2676     0.0891 </r>
       <r>    -3.7295     0.3696     0.1249 </r>
       <r>    -3.6327     0.3818     0.1618 </r>
       <r>    -3.5359     0.3071     0.1916 </r>
       <r>    -3.4391     0.2446     0.2152 </r>
       <r>    -3.3422     0.2471     0.2392 </r>
       <r>    -3.2454     0.2585     0.2642 </r>
       <r>    -3.1486     0.2260     0.2861 </r>
       <r>    -3.0518     0.1621     0.3017 </r>
       <r>    -2.9550     0.1035     0.3118 </r>
       <r>    -2.8582     0.0918     0.3207 </r>
       <r>    -2.7614     0.1521     0.3354 </r>
       <r>    -2.6646     0.2597     0.3605 </r>
       <r>    -2.5678     0.3787     0.3972 </r>
       <r>    -2.4710     0.5073     0.4463 </r>
       <r>    -2.3742     0.6017     0.5045 </r>
       <r>    -2.2774     0.5621     0.5589 </r>
       <r>    -2.1806     0.4084     0.5985 </r>
       <r>    -2.0838     0.2998     0.6275 </r>
       <r>    -1.9870     0.3097     0.6575 </r>
       <r>    -1.8902     0.3514     0.6915 </r>
       <r>    -1.7934     0.3272     0.7232 </r>
       <r>    -1.6966     0.2391     0.7463 </r>
       <r>    -1.5998     0.1848     0.7642 </r>
       <r>    -1.5030     0.2733     0.7907 </r>
       <r>    -1.4062     0.4843     0.8375 </r>
       <r>    -1.3094     0.6266     0.8982 </r>
       <r>    -1.2125     0.5658     0.9530 </r>
       <r>    -1.1157     0.4134     0.9930 </r>
       <r>    -1.0189     0.3255     1.0245 </r>
       <r>    -0.9221     0.3386     1.0573 </r>
       <r>    -0.8253     0.4731     1.1031 </r>
       <r>    -0.7285     0.6883     1.1697 </r>
       <r>    -0.6317     0.8010     1.2473 </r>
       <r>    -0.5349     0.6934     1.3144 </r>
       <r>    -0.4381     0.4538     1.3583 </r>
       <r>    -0.3413     0.2435     1.3819 </r>
       <r>    -0.2445     0.1803     1.3993 </r>
       <r>    -0.1477     0.3108     1.4294 </r>
       <r>    -0.0509     0.5706     1.4846 </r>
       <r>     0.0459     0.7900     1.5611 </r>
       <r>     0.1427     0.8226     1.6408 </r>
       <r>     0.2395     0.6575     1.7044 </r>
       <r>     0.3363     0.4272     1.7458 </r>
       <r>     0.4331     0.3237     1.7771 </r>
       <r>     0.5299     0.4064     1.8164 </r>
       <r>     0.6267     0.5134     1.8661 </r>
       <r>     0.7235     0.4689     1.9115 </r>
       <r>     0.8204     0.3146     1.9420 </r>
       <r>     0.9172     0.2159     1.9629 </r>
       <r>     1.0140     0.2643     1.9885 </r>
       <r>     1.1108     0.4233     2.0294 </r>
       <r>     1.2076     0.5653     2.0842 </r>
       <r>     1.3044     0.6279     2.1450 </r>
       <r>     1.4012     0.6834     2.2111 </r>
       <r>     1.4980     0.7307     2.2818 </r>
       <r>     1.5948     0.7028     2.3499 </r>
       <r>     1.6916     0.7077     2.4184 </r>
       <r>     1.7884     0.8605     2.5017 </r>
       <r>     1.8852     1.0278     2.6012 </r>
       <r>     1.9820     1.0355     2.7014 </r>
       <r>     2.0788     0.8975     2.7883 </r>
       <r>     2.1756     0.7248     2.8585 </r>
       <r>     2.2724     0.6089     2.9174 </r>
       <r>     2.3692     0.5935     2.9749 </r>
       <r>     2.4660     0.6033     3.0333 </r>
       <r>     2.5628     0.5244     3.0840 </r>
       <r>     2.6596     0.4048     3.1232 </r>
       <r>     2.7564     0.3547     3.1576 </r>
       <r>     2.8533     0.3623     3.1926 </r>
       <r>     2.9501     0.3640     3.2279 </r>
       <r>     3.0469     0.3256     3.2594 </r>
       <r>     3.1437     0.2507     3.2837 </r>
       <r>     3.2405     0.2158     3.3045 </r>
       <r>     3.3373     0.3109     3.3346 </r>
       <r>     3.4341     0.5001     3.3831 </r>
       <r>     3.5309     0.6419     3.4452 </r>
       <r>     3.6277     0.6688     3.5099 </r>
       <r>     3.7245     0.6223     3.5702 </r>
       <r>     3.8213     0.5722     3.6256 </r>
       <r>     3.9181     0.6024     3.6839 </r>
       <r>     4.0149     0.7231     3.7539 </r>
       <r>     4.1117     0.8610     3.8372 </r>
       <r>     4.2085     1.0233     3.9363 </r>
       <r>     4.3053     1.2146     4.0539 </r>
       <r>     4.4021     1.2576     4.1756 </r>
       <r>     4.4989     1.0264     4.2750 </r>
       <r>     4.5957     0.6883     4.3416 </r>
       <r>     4.6925     0.4884     4.3889 </r>
       <r>     4.7893     0.4823     4.4356 </r>
       <r>     4.8861     0.5502     4.4888 </r>
       <r>     4.9830     0.5603     4.5431 </r>
       <r>     5.0798     0.5109     4.5925 </r>
       <r>     5.1766     0.4859     4.6396 </r>
       <r>     5.2734     0.4691     4.6850 </r>
       <r>     5.3702     0.3992     4.7236 </r>
       <r>     5.4670     0.3662     4.7591 </r>
       <r>     5.5638     0.4995     4.8074 </r>
       <r>     5.6606     0.7729     4.8823 </r>
       <r>     5.7574     1.0772     4.9865 </r>
       <r>     5.8542     1.3252     5.1148 </r>
       <r>     5.9510     1.4462     5.2548 </r>
       <r>     6.0478     1.4020     5.3905 </r>
       <r>     6.1446     1.1879     5.5055 </r>
       <r>     6.2414     0.8844     5.5911 </r>
       <r>     6.3382     0.6995     5.6589 </r>
       <r>     6.4350     0.7645     5.7329 </r>
       <r>     6.5318     0.9438     5.8242 </r>
       <r>     6.6286     0.9993     5.9210 </r>
       <r>     6.7254     0.8860     6.0067 </r>
       <r>     6.8222     0.7698     6.0813 </r>
       <r>     6.9190     0.8007     6.1588 </r>
       <r>     7.0159     0.9707     6.2527 </r>
       <r>     7.1127     1.1312     6.3622 </r>
       <r>     7.2095     1.1153     6.4702 </r>
       <r>     7.3063     0.9212     6.5594 </r>
       <r>     7.4031     0.7402     6.6310 </r>
       <r>     7.4999     0.7134     6.7001 </r>
       <r>     7.5967     0.7691     6.7745 </r>
       <r>     7.6935     0.7860     6.8506 </r>
       <r>     7.7903     0.7437     6.9226 </r>
       <r>     7.8871     0.7097     6.9913 </r>
       <r>     7.9839     0.7669     7.0656 </r>
       <r>     8.0807     0.9087     7.1535 </r>
       <r>     8.1775     1.0934     7.2594 </r>
       <r>     8.2743     1.2670     7.3820 </r>
       <r>     8.3711     1.2636     7.5043 </r>
       <r>     8.4679     1.0323     7.6043 </r>
       <r>     8.5647     0.7871     7.6805 </r>
       <r>     8.6615     0.6726     7.7456 </r>
       <r>     8.7583     0.5916     7.8029 </r>
       <r>     8.8551     0.4463     7.8461 </r>
       <r>     8.9519     0.3212     7.8772 </r>
       <r>     9.0488     0.3418     7.9102 </r>
       <r>     9.1456     0.4760     7.9563 </r>
       <r>     9.2424     0.5688     8.0114 </r>
       <r>     9.3392     0.5337     8.0631 </r>
       <r>     9.4360     0.4684     8.1084 </r>
       <r>     9.5328     0.5111     8.1579 </r>
       <r>     9.6296     0.6584     8.2216 </r>
       <r>     9.7264     0.8493     8.3038 </r>
       <r>     9.8232     1.0672     8.4071 </r>
       <r>     9.9200     1.2486     8.5280 </r>
       <r>    10.0168     1.2522     8.6492 </r>
       <r>    10.1136     1.0319     8.7491 </r>
       <r>    10.2104     0.7353     8.8203 </r>
       <r>    10.3072     0.5199     8.8706 </r>
       <r>    10.4040     0.4058     8.9099 </r>
       <r>    10.5008     0.3667     8.9454 </r>
       <r>    10.5976     0.4086     8.9850 </r>
       <r>    10.6944     0.5284     9.0361 </r>
       <r>    10.7912     0.6674     9.1007 </r>
       <r>    10.8880     0.7194     9.1704 </r>
       <r>    10.9848     0.6639     9.2346 </r>
       <r>    11.0816     0.6312     9.2957 </r>
       <r>    11.1785     0.7620     9.3695 </r>
       <r>    11.2753     1.0843     9.4745 </r>
       <r>    11.3721     1.4629     9.6161 </r>
       <r>    11.4689     1.6457     9.7754 </r>
       <r>    11.5657     1.5113     9.9217 </r>
       <r>    11.6625     1.2551    10.0432 </r>
       <r>    11.7593     1.1631    10.1558 </r>
       <r>    11.8561     1.2095    10.2729 </r>
       <r>    11.9529     1.0953    10.3789 </r>
       <r>    12.0497     0.7679    10.4532 </r>
       <r>    12.1465     0.5620    10.5076 </r>
       <r>    12.2433     0.7073    10.5761 </r>
       <r>    12.3401     1.0028    10.6732 </r>
       <r>    12.4369     1.0594    10.7757 </r>
       <r>    12.5337     0.7943    10.8526 </r>
       <r>    12.6305     0.4977    10.9008 </r>
       <r>    12.7273     0.3932    10.9389 </r>
       <r>    12.8241     0.4488    10.9823 </r>
       <r>    12.9209     0.5566    11.0362 </r>
       <r>    13.0177     0.6322    11.0974 </r>
       <r>    13.1145     0.6620    11.1615 </r>
       <r>    13.2114     0.7115    11.2303 </r>
       <r>    13.3082     0.8207    11.3098 </r>
       <r>    13.4050     1.0380    11.4103 </r>
       <r>    13.5018     1.4558    11.5512 </r>
       <r>    13.5986     1.9407    11.7391 </r>
       <r>    13.6954     2.1010    11.9424 </r>
       <r>    13.7922     1.8092    12.1176 </r>
       <r>    13.8890     1.3845    12.2516 </r>
       <r>    13.9858     1.1261    12.3606 </r>
       <r>    14.0826     1.0138    12.4588 </r>
       <r>    14.1794     0.9288    12.5487 </r>
       <r>    14.2762     0.9317    12.6389 </r>
       <r>    14.3730     1.0988    12.7452 </r>
       <r>    14.4698     1.2712    12.8683 </r>
       <r>    14.5666     1.2494    12.9892 </r>
       <r>    14.6634     1.0251    13.0885 </r>
       <r>    14.7602     0.7289    13.1590 </r>
       <r>    14.8570     0.4999    13.2074 </r>
       <r>    14.9538     0.3707    13.2433 </r>
       <r>    15.0506     0.3319    13.2754 </r>
       <r>    15.1474     0.4519    13.3192 </r>
       <r>    15.2443     0.8215    13.3987 </r>
       <r>    15.3411     1.3874    13.5330 </r>
       <r>    15.4379     1.8469    13.7118 </r>
       <r>    15.5347     1.8551    13.8914 </r>
       <r>    15.6315     1.4374    14.0305 </r>
       <r>    15.7283     0.9735    14.1248 </r>
       <r>    15.8251     0.7188    14.1944 </r>
       <r>    15.9219     0.6092    14.2533 </r>
       <r>    16.0187     0.5199    14.3037 </r>
       <r>    16.1155     0.4586    14.3481 </r>
       <r>    16.2123     0.4644    14.3930 </r>
       <r>    16.3091     0.4781    14.4393 </r>
       <r>    16.4059     0.4333    14.4812 </r>
       <r>    16.5027     0.3745    14.5175 </r>
       <r>    16.5995     0.3789    14.5542 </r>
       <r>    16.6963     0.4575    14.5985 </r>
       <r>    16.7931     0.5685    14.6535 </r>
       <r>    16.8899     0.6469    14.7161 </r>
       <r>    16.9867     0.6583    14.7798 </r>
       <r>    17.0835     0.6167    14.8395 </r>
       <r>    17.1803     0.5429    14.8921 </r>
       <r>    17.2771     0.4837    14.9389 </r>
       <r>    17.3740     0.4731    14.9847 </r>
       <r>    17.4708     0.4940    15.0325 </r>
       <r>    17.5676     0.5320    15.0840 </r>
       <r>    17.6644     0.5592    15.1382 </r>
       <r>    17.7612     0.5313    15.1896 </r>
       <r>    17.8580     0.4360    15.2318 </r>
       <r>    17.9548     0.3119    15.2620 </r>
       <r>    18.0516     0.2640    15.2876 </r>
       <r>    18.1484     0.4049    15.3268 </r>
       <r>    18.2452     0.6980    15.3943 </r>
       <r>    18.3420     0.9301    15.4844 </r>
       <r>    18.4388     0.9360    15.5750 </r>
       <r>    18.5356     0.7445    15.6470 </r>
       <r>    18.6324     0.4790    15.6934 </r>
       <r>    18.7292     0.2712    15.7197 </r>
       <r>    18.8260     0.2068    15.7397 </r>
       <r>    18.9228     0.2550    15.7644 </r>
       <r>    19.0196     0.3175    15.7951 </r>
       <r>    19.1164     0.3355    15.8276 </r>
       <r>    19.2132     0.2989    15.8565 </r>
       <r>    19.3100     0.2281    15.8786 </r>
       <r>    19.4069     0.1690    15.8950 </r>
       <r>    19.5037     0.1364    15.9082 </r>
       <r>    19.6005     0.1015    15.9180 </r>
       <r>    19.6973     0.0558    15.9234 </r>
       <r>    19.7941     0.0204    15.9254 </r>
       <r>    19.8909     0.0049    15.9259 </r>
       <r>    19.9877     0.0014    15.9260 </r>
       <r>    20.0845     0.0048    15.9265 </r>
       <r>    20.1813     0.0205    15.9284 </r>
       <r>    20.2781     0.0573    15.9340 </r>
       <r>    20.3749     0.1085    15.9445 </r>
       <r>    20.4717     0.1481    15.9588 </r>
       <r>    20.5685     0.1573    15.9741 </r>
       <r>    20.6653     0.1328    15.9869 </r>
       <r>    20.7621     0.0844    15.9951 </r>
       <r>    20.8589     0.0374    15.9987 </r>
       <r>    20.9557     0.0110    15.9998 </r>
       <r>    21.0525     0.0021    16.0000 </r>
       <r>    21.1493     0.0003    16.0000 </r>
       <r>    21.2461     0.0000    16.0000 </r>
       <r>    21.3429     0.0000    16.0000 </r>
       <r>    21.4397     0.0000    16.0000 </r>
       <r>    21.5366     0.0000    16.0000 </r>
       <r>    21.6334     0.0000    16.0000 </r>
       <r>    21.7302     0.0000    16.0000 </r>
       <r>    21.8270     0.0000    16.0000 </r>
       <r>    21.9238     0.0000    16.0000 </r>
       <r>    22.0206     0.0000    16.0000 </r>
       <r>    22.1174     0.0000    16.0000 </r>
       <r>    22.2142     0.0000    16.0000 </r>
       <r>    22.3110     0.0000    16.0000 </r>
       <r>    22.4078     0.0000    16.0000 </r>
       <r>    22.5046     0.0000    16.0000 </r>
       <r>    22.6014     0.0000    16.0000 </r>
      </set>
     </set>
    </array>
   </total>
  </dos>
 </calculation>
 <structure name="finalpos" >
  <crystal>
   <varray name="basis" >
    <v>      -2.44588075       2.44588075       1.27589656 </v>
    <v>       2.44588075      -2.44588075       1.27589656 </v>
    <v>       2.44588075       2.44588075      -1.27589656 </v>
   </varray>
   <i name="volume">     30.53135059 </i>
   <varray name="rec_basis" >
    <v>       0.00000000       0.20442534       0.39188130 </v>
    <v>       0.20442534       0.00000000       0.39188130 </v>
    <v>       0.20442534       0.20442534       0.00000000 </v>
   </varray>
  </crystal>
  <varray name="positions" >
   <v>       0.25000000       0.75000000       0.50000000 </v>
   <v>       0.00000000       0.00000000       0.00000000 </v>
  </varray>
 </structure>
</modeling>
