    2    2   15    1
  0.1529437E+02  0.3691622E-09  0.3691622E-09  0.3691622E-09  0.5000000E-15
  1.000000000000000E-004
  CAR 
 unknown system                          
      8     99      8
 
  0.5000000E-01  0.5000000E-01  0.5000000E-01  0.8000000E-02
    1       -4.313302   1.000000
    2        5.298426   1.000000
    3        6.970665   1.000000
    4        8.640950   0.991117
    5       11.748055   0.000000
    6       14.462071   0.000000
    7       15.119919   0.000000
    8       17.001927   0.000000
 
  0.1500000E+00  0.5000000E-01  0.5000000E-01  0.1600000E-01
    1       -3.544145   1.000000
    2        4.873799   1.000000
    3        7.104939   1.000000
    4        9.792775   0.000000
    5       11.645813   0.000000
    6       12.294255   0.000000
    7       13.372523   0.000000
    8       15.394644   0.000000
 
  0.2500000E+00  0.5000000E-01  0.5000000E-01  0.1600000E-01
    1       -2.273196   1.000000
    2        4.851086   1.000000
    3        7.056864   1.000000
    4        7.938033   1.000000
    5       10.112903   0.000000
    6       12.329796   0.000000
    7       13.063159   0.000000
    8       14.566312   0.000000
 
  0.3500000E+00  0.5000000E-01  0.5000000E-01  0.1600000E-01
    1       -0.527692   1.000000
    2        4.321648   1.000000
    3        5.662364   1.000000
    4        7.338004   1.000000
    5        8.624585   0.993544
    6       11.328446   0.000000
    7       13.732473   0.000000
    8       14.359052   0.000000
 
  0.4500000E+00  0.5000000E-01  0.5000000E-01  0.8000000E-02
    1        1.249093   1.000000
    2        2.263990   1.000000
    3        6.183634   1.000000
    4        6.659287   1.000000
    5        8.466020   0.999845
    6       10.590881   0.000000
    7       13.561259   0.000000
    8       14.482162   0.000000
 
 -0.5000000E-01  0.5000000E-01  0.5000000E-01  0.4000000E-02
    1       -4.570649   1.000000
    2        5.880171   1.000000
    3        6.425423   1.000000
    4        8.337462   0.999997
    5       11.140517   0.000000
    6       15.587952   0.000000
    7       17.868758   0.000000
    8       18.016096   0.000000
 
  0.1500000E+00  0.1500000E+00  0.5000000E-01  0.8000000E-02
    1       -2.397529   1.000000
    2        4.790645   1.000000
    3        7.811717   1.000000
    4        8.626083   0.993349
    5        9.806175   0.000000
    6       11.091176   0.000000
    7       13.781707   0.000000
    8       14.028265   0.000000
 
  0.2500000E+00  0.1500000E+00  0.5000000E-01  0.1600000E-01
    1       -0.769038   1.000000
    2        4.851258   1.000000
    3        5.773659   1.000000
    4        6.680374   1.000000
    5        9.713905   0.000000
    6       12.254947   0.000000
    7       12.587035   0.000000
    8       13.755314   0.000000
 
  0.3500000E+00  0.1500000E+00  0.5000000E-01  0.1600000E-01
    1        1.197383   1.000000
    2        2.769528   1.000000
    3        4.966836   1.000000
    4        6.272326   1.000000
    5        9.601639   0.000005
    6       11.654504   0.000000
    7       12.771115   0.000000
    8       15.447613   0.000000
 
  0.4500000E+00  0.1500000E+00  0.5000000E-01  0.1600000E-01
    1        0.195743   1.000000
    2        3.463162   1.000000
    3        4.496277   1.000000
    4        7.274797   1.000000
    5        9.097456   0.195584
    6       12.185005   0.000000
    7       13.308550   0.000000
    8       15.256158   0.000000
 
 -0.4500000E+00  0.1500000E+00  0.5000000E-01  0.1600000E-01
    1       -1.652045   1.000000
    2        3.172056   1.000000
    3        6.944709   1.000000
    4        7.914317   1.000000
    5        9.786131   0.000000
    6       13.001771   0.000000
    7       13.123460   0.000000
    8       14.808012   0.000000
 
 -0.3500000E+00  0.1500000E+00  0.5000000E-01  0.1600000E-01
    1       -3.041777   1.000000
    2        3.055199   1.000000
    3        7.513594   1.000000
    4       10.082760   0.000000
    5       11.338423   0.000000
    6       11.821310   0.000000
    7       14.140931   0.000000
    8       15.734856   0.000000
 
 -0.2500000E+00  0.1500000E+00  0.5000000E-01  0.8000000E-02
    1       -3.934440   1.000000
    2        3.393403   1.000000
    3        7.305270   1.000000
    4        9.405016   0.001214
    5       13.108960   0.000000
    6       13.949990   0.000000
    7       14.617774   0.000000
    8       16.129212   0.000000
 
 -0.1500000E+00  0.1500000E+00  0.5000000E-01  0.8000000E-02
    1       -4.317619   1.000000
    2        4.169626   1.000000
    3        6.502641   1.000000
    4        9.360953   0.003257
    5       12.599936   0.000000
    6       14.114624   0.000000
    7       16.896373   0.000000
    8       17.155914   0.000000
 
 -0.5000000E-01  0.1500000E+00  0.5000000E-01  0.8000000E-02
    1       -4.186972   1.000000
    2        5.058762   1.000000
    3        5.958638   1.000000
    4        9.752686   0.000000
    5       12.290413   0.000000
    6       13.784181   0.000000
    7       14.844995   0.000000
    8       16.576976   0.000000
 
  0.2500000E+00  0.2500000E+00  0.5000000E-01  0.8000000E-02
    1        1.126816   1.000000
    2        3.584705   1.000000
    3        3.923763   1.000000
    4        6.158768   1.000000
    5       10.317060   0.000000
    6       11.468727   0.000000
    7       13.617751   0.000000
    8       14.367242   0.000000
 
  0.3500000E+00  0.2500000E+00  0.5000000E-01  0.1600000E-01
    1        1.140357   1.000000
    2        2.290689   1.000000
    3        4.053787   1.000000
    4        7.172122   1.000000
    5        9.841492   0.000000
    6       11.226936   0.000000
    7       14.761342   0.000000
    8       15.871403   0.000000
 
  0.4500000E+00  0.2500000E+00  0.5000000E-01  0.1600000E-01
    1       -0.787740   1.000000
    2        1.640639   1.000000
    3        6.700944   1.000000
    4        8.226818   1.000000
    5        9.764124   0.000000
    6       11.760204   0.000000
    7       13.954546   0.000000
    8       15.775373   0.000000
 
 -0.4500000E+00  0.2500000E+00  0.5000000E-01  0.1600000E-01
    1       -2.291410   1.000000
    2        1.391614   1.000000
    3        8.104582   1.000000
    4        9.882906   0.000000
    5       11.146118   0.000000
    6       11.944640   0.000000
    7       12.950592   0.000000
    8       15.051490   0.000000
 
 -0.3500000E+00  0.2500000E+00  0.5000000E-01  0.8000000E-02
    1       -3.305028   1.000000
    2        1.620509   1.000000
    3        7.859514   1.000000
    4       10.120036   0.000000
    5       11.980370   0.000000
    6       14.084008   0.000000
    7       14.809003   0.000000
    8       14.921815   0.000000
 
 -0.2500000E+00  0.2500000E+00  0.5000000E-01  0.8000000E-02
    1       -3.812752   1.000000
    2        2.326138   1.000000
    3        6.953705   1.000000
    4       10.077999   0.000000
    5       12.505169   0.000000
    6       14.894706   0.000000
    7       15.580499   0.000000
    8       16.835114   0.000000
 
 -0.1500000E+00  0.2500000E+00  0.5000000E-01  0.1600000E-01
    1       -3.808615   1.000000
    2        3.468318   1.000000
    3        6.005982   1.000000
    4       10.721371   0.000000
    5       12.468025   0.000000
    6       13.824411   0.000000
    7       14.314690   0.000000
    8       16.116023   0.000000
 
 -0.5000000E-01  0.2500000E+00  0.5000000E-01  0.8000000E-02
    1       -3.293015   1.000000
    2        4.686831   1.000000
    3        5.749544   1.000000
    4       10.035601   0.000000
    5       12.286712   0.000000
    6       12.483555   0.000000
    7       13.734915   0.000000
    8       14.677838   0.000000
 
  0.3500000E+00  0.3500000E+00  0.5000000E-01  0.8000000E-02
    1        0.299228   1.000000
    2        0.327806   1.000000
    3        6.604886   1.000000
    4        8.356825   0.999994
    5       10.021349   0.000000
    6       11.039272   0.000000
    7       14.600058   0.000000
    8       15.406209   0.000000
 
  0.4500000E+00  0.3500000E+00  0.5000000E-01  0.1600000E-01
    1       -1.297294   1.000000
    2       -0.065991   1.000000
    3        8.789752   0.906297
    4        9.468498   0.000250
    5       10.826629   0.000000
    6       12.212107   0.000000
    7       12.745959   0.000000
    8       13.923694   0.000000
 
 -0.4500000E+00  0.3500000E+00  0.5000000E-01  0.8000000E-02
    1       -2.428266   1.000000
    2        0.044671   1.000000
    3        8.626091   0.993348
    4       10.695979   0.000000
    5       11.024368   0.000000
    6       13.178654   0.000000
    7       14.245377   0.000000
    8       14.378316   0.000000
 
 -0.3500000E+00  0.3500000E+00  0.5000000E-01  0.8000000E-02
    1       -3.058544   1.000000
    2        0.647485   1.000000
    3        7.639813   1.000000
    4       10.859355   0.000000
    5       11.004254   0.000000
    6       14.216687   0.000000
    7       16.468826   0.000000
    8       16.842227   0.000000
 
 -0.2500000E+00  0.3500000E+00  0.5000000E-01  0.1600000E-01
    1       -3.180085   1.000000
    2        1.728188   1.000000
    3        6.554641   1.000000
    4       10.932244   0.000000
    5       11.475832   0.000000
    6       13.465593   0.000000
    7       15.361877   0.000000
    8       16.357067   0.000000
 
 -0.1500000E+00  0.3500000E+00  0.5000000E-01  0.1600000E-01
    1       -2.792079   1.000000
    2        3.232450   1.000000
    3        5.835856   1.000000
    4        9.538961   0.000035
    5       11.423568   0.000000
    6       13.188709   0.000000
    7       13.730937   0.000000
    8       15.547779   0.000000
 
 -0.5000000E-01  0.3500000E+00  0.5000000E-01  0.8000000E-02
    1       -1.900973   1.000000
    2        4.712141   1.000000
    3        5.906228   1.000000
    4        7.072069   1.000000
    5       10.611969   0.000000
    6       12.743254   0.000000
    7       13.293714   0.000000
    8       14.221002   0.000000
 
  0.4500000E+00  0.4500000E+00  0.5000000E-01  0.4000000E-02
    1       -1.309158   1.000000
    2       -1.309158   1.000000
    3        9.590409   0.000007
    4        9.590409   0.000007
    5       12.030079   0.000000
    6       12.030080   0.000000
    7       14.158934   0.000000
    8       14.158936   0.000000
 
 -0.4500000E+00  0.4500000E+00  0.5000000E-01  0.8000000E-02
    1       -2.059009   1.000000
    2       -0.820365   1.000000
    3        8.550661   0.998689
    4        9.676973   0.000000
    5       11.809582   0.000000
    6       12.937646   0.000000
    7       16.428726   0.000000
    8       16.533455   0.000000
 
 -0.3500000E+00  0.4500000E+00  0.5000000E-01  0.1600000E-01
    1       -2.304736   1.000000
    2        0.161753   1.000000
    3        7.352539   1.000000
    4        9.592769   0.000007
    5       11.983377   0.000000
    6       13.308055   0.000000
    7       14.982994   0.000000
    8       15.445294   0.000000
 
 -0.2500000E+00  0.4500000E+00  0.5000000E-01  0.1600000E-01
    1       -2.044112   1.000000
    2        1.614067   1.000000
    3        6.466562   1.000000
    4        9.021599   0.374061
    5       10.191353   0.000000
    6       13.225065   0.000000
    7       13.994409   0.000000
    8       16.805880   0.000000
 
 -0.1500000E+00  0.4500000E+00  0.5000000E-01  0.1600000E-01
    1       -1.283232   1.000000
    2        3.439334   1.000000
    3        5.892518   1.000000
    4        6.645286   1.000000
    5       10.090974   0.000000
    6       12.068322   0.000000
    7       13.903584   0.000000
    8       15.485273   0.000000
 
 -0.5000000E-01  0.4500000E+00  0.5000000E-01  0.8000000E-02
    1       -0.049009   1.000000
    2        3.681234   1.000000
    3        5.753797   1.000000
    4        6.412145   1.000000
    5        9.020990   0.375694
    6       11.171325   0.000000
    7       12.587903   0.000000
    8       15.531846   0.000000
 
 -0.4500000E+00 -0.4500000E+00  0.5000000E-01  0.8000000E-02
    1       -1.190409   1.000000
    2       -1.185437   1.000000
    3        8.362149   0.999993
    4        8.383490   0.999986
    5       12.186410   0.000000
    6       13.499653   0.000000
    7       14.459077   0.000000
    8       15.202001   0.000000
 
 -0.3500000E+00 -0.4500000E+00  0.5000000E-01  0.1600000E-01
    1       -1.053886   1.000000
    2        0.170791   1.000000
    3        7.319036   1.000000
    4        8.302337   0.999999
    5        9.457451   0.000333
    6       12.978657   0.000000
    7       14.870073   0.000000
    8       16.092689   0.000000
 
 -0.2500000E+00 -0.4500000E+00  0.5000000E-01  0.1600000E-01
    1       -0.424874   1.000000
    2        1.972301   1.000000
    3        5.862209   1.000000
    4        7.028469   1.000000
    5        9.068810   0.256251
    6       11.435979   0.000000
    7       15.437448   0.000000
    8       16.488667   0.000000
 
 -0.1500000E+00 -0.4500000E+00  0.5000000E-01  0.1600000E-01
    1        0.654750   1.000000
    2        3.158360   1.000000
    3        4.554216   1.000000
    4        6.773826   1.000000
    5        8.967669   0.524014
    6       11.086961   0.000000
    7       12.480285   0.000000
    8       16.849030   0.000000
 
 -0.5000000E-01 -0.4500000E+00  0.5000000E-01  0.8000000E-02
    1        0.961706   1.000000
    2        2.553912   1.000000
    3        6.689599   1.000000
    4        7.051890   1.000000
    5        7.832221   1.000000
    6       10.292514   0.000000
    7       12.378871   0.000000
    8       15.648234   0.000000
 
 -0.3500000E+00 -0.3500000E+00  0.5000000E-01  0.8000000E-02
    1        0.635457   1.000000
    2        0.697375   1.000000
    3        5.786494   1.000000
    4        7.728391   1.000000
    5        8.188326   1.000000
    6       11.248962   0.000000
    7       16.442744   0.000000
    8       17.064194   0.000000
 
 -0.2500000E+00 -0.3500000E+00  0.5000000E-01  0.1600000E-01
    1        1.533858   1.000000
    2        2.567988   1.000000
    3        3.618963   1.000000
    4        7.470711   1.000000
    5        8.517328   0.999412
    6       10.308806   0.000000
    7       14.172021   0.000000
    8       16.310675   0.000000
 
 -0.1500000E+00 -0.3500000E+00  0.5000000E-01  0.1600000E-01
    1        0.670054   1.000000
    2        3.308383   1.000000
    3        5.555660   1.000000
    4        7.295253   1.000000
    5        8.439062   0.999927
    6       10.741549   0.000000
    7       11.625731   0.000000
    8       15.430718   0.000000
 
 -0.5000000E-01 -0.3500000E+00  0.5000000E-01  0.8000000E-02
    1       -1.014687   1.000000
    2        5.085025   1.000000
    3        7.064198   1.000000
    4        7.279116   1.000000
    5        8.311687   0.999999
    6       10.706589   0.000000
    7       12.484555   0.000000
    8       14.557762   0.000000
 
 -0.2500000E+00 -0.2500000E+00  0.5000000E-01  0.8000000E-02
    1        0.563969   1.000000
    2        4.227046   1.000000
    3        4.442396   1.000000
    4        7.392711   1.000000
    5        8.858586   0.797172
    6       10.184447   0.000000
    7       12.867921   0.000000
    8       13.851729   0.000000
 
 -0.1500000E+00 -0.2500000E+00  0.5000000E-01  0.1600000E-01
    1       -1.259387   1.000000
    2        5.939590   1.000000
    3        6.848676   1.000000
    4        7.377346   1.000000
    5        8.890363   0.728030
    6       11.112397   0.000000
    7       11.540461   0.000000
    8       12.977213   0.000000
 
 -0.5000000E-01 -0.2500000E+00  0.5000000E-01  0.8000000E-02
    1       -2.647296   1.000000
    2        6.340708   1.000000
    3        7.139204   1.000000
    4        8.523280   0.999319
    5       10.263203   0.000000
    6       11.463342   0.000000
    7       12.189426   0.000000
    8       14.066618   0.000000
 
 -0.1500000E+00 -0.1500000E+00  0.5000000E-01  0.8000000E-02
    1       -2.772208   1.000000
    2        6.585377   1.000000
    3        7.843050   1.000000
    4        9.094867   0.200680
    5        9.941895   0.000000
    6       10.561758   0.000000
    7       12.541821   0.000000
    8       13.048490   0.000000
 
 -0.5000000E-01 -0.1500000E+00  0.5000000E-01  0.8000000E-02
    1       -3.795966   1.000000
    2        6.541412   1.000000
    3        7.029228   1.000000
    4        8.938035   0.606334
    5       11.868111   0.000000
    6       12.294917   0.000000
    7       12.676259   0.000000
    8       14.945398   0.000000
 
 -0.5000000E-01 -0.5000000E-01  0.5000000E-01  0.2000000E-02
    1       -4.439775   1.000000
    2        6.858849   1.000000
    3        6.858850   1.000000
    4        7.597788   1.000000
    5       10.937083   0.000000
    6       15.059862   0.000000
    7       15.380827   0.000000
    8       17.155621   0.000000
 
  0.1500000E+00  0.1500000E+00  0.1500000E+00  0.8000000E-02
    1       -1.775308   1.000000
    2        3.071150   1.000000
    3        7.684112   1.000000
    4        8.107786   1.000000
    5       10.069631   0.000000
    6       11.700094   0.000000
    7       14.508516   0.000000
    8       14.797073   0.000000
 
  0.2500000E+00  0.1500000E+00  0.1500000E+00  0.1600000E-01
    1       -0.038687   1.000000
    2        3.458619   1.000000
    3        5.167401   1.000000
    4        6.223253   1.000000
    5       10.570564   0.000000
    6       13.429169   0.000000
    7       13.702996   0.000000
    8       14.399175   0.000000
 
  0.3500000E+00  0.1500000E+00  0.1500000E+00  0.8000000E-02
    1        1.723509   1.000000
    2        2.660766   1.000000
    3        4.382324   1.000000
    4        5.176179   1.000000
    5       10.961465   0.000000
    6       12.924164   0.000000
    7       14.088631   0.000000
    8       14.342239   0.000000
 
 -0.1500000E+00  0.1500000E+00  0.1500000E+00  0.4000000E-02
    1       -4.065217   1.000000
    2        3.978473   1.000000
    3        5.077444   1.000000
    4       10.993842   0.000000
    5       12.545167   0.000000
    6       13.420393   0.000000
    7       16.596053   0.000000
    8       16.833254   0.000000
 
  0.2500000E+00  0.2500000E+00  0.1500000E+00  0.8000000E-02
    1        1.855534   1.000000
    2        3.091450   1.000000
    3        3.703780   1.000000
    4        4.853736   1.000000
    5       11.796159   0.000000
    6       13.182695   0.000000
    7       14.590044   0.000000
    8       14.603852   0.000000
 
  0.3500000E+00  0.2500000E+00  0.1500000E+00  0.1600000E-01
    1        0.923550   1.000000
    2        2.103279   1.000000
    3        4.901288   1.000000
    4        5.994325   1.000000
    5       11.523672   0.000000
    6       12.862785   0.000000
    7       14.245840   0.000000
    8       15.261579   0.000000
 
  0.4500000E+00  0.2500000E+00  0.1500000E+00  0.8000000E-02
    1       -0.909212   1.000000
    2        1.527337   1.000000
    3        7.562189   1.000000
    4        7.741742   1.000000
    5       10.727167   0.000000
    6       12.368658   0.000000
    7       13.149238   0.000000
    8       14.456234   0.000000
 
 -0.2500000E+00  0.2500000E+00  0.1500000E+00  0.8000000E-02
    1       -3.561737   1.000000
    2        2.505905   1.000000
    3        5.165418   1.000000
    4       10.850800   0.000000
    5       12.048761   0.000000
    6       15.292845   0.000000
    7       15.882034   0.000000
    8       16.553523   0.000000
 
 -0.1500000E+00  0.2500000E+00  0.1500000E+00  0.8000000E-02
    1       -3.431770   1.000000
    2        3.366592   1.000000
    3        4.568242   1.000000
    4       10.848902   0.000000
    5       12.055064   0.000000
    6       13.847768   0.000000
    7       14.998749   0.000000
    8       16.629158   0.000000
 
  0.3500000E+00  0.3500000E+00  0.1500000E+00  0.4000000E-02
    1        0.194879   1.000000
    2        0.194879   1.000000
    3        7.563584   1.000000
    4        7.563584   1.000000
    5       11.677912   0.000000
    6       11.677914   0.000000
    7       13.539504   0.000000
    8       13.539508   0.000000
 
 -0.3500000E+00  0.3500000E+00  0.1500000E+00  0.8000000E-02
    1       -2.809829   1.000000
    2        0.872097   1.000000
    3        5.826097   1.000000
    4        9.286424   0.014128
    5       12.842027   0.000000
    6       15.191306   0.000000
    7       16.055555   0.000000
    8       17.186381   0.000000
 
 -0.2500000E+00  0.3500000E+00  0.1500000E+00  0.1600000E-01
    1       -2.806068   1.000000
    2        2.021364   1.000000
    3        4.734820   1.000000
    4        9.271444   0.018409
    5       12.006618   0.000000
    6       14.396194   0.000000
    7       16.435888   0.000000
    8       17.208764   0.000000
 
 -0.1500000E+00  0.3500000E+00  0.1500000E+00  0.8000000E-02
    1       -2.294189   1.000000
    2        3.231818   1.000000
    3        4.491632   1.000000
    4        8.818353   0.867801
    5       10.019366   0.000000
    6       14.524117   0.000000
    7       15.186165   0.000000
    8       15.465582   0.000000
 
 -0.4500000E+00  0.4500000E+00  0.1500000E+00  0.8000000E-02
    1       -1.814021   1.000000
    2       -0.581881   1.000000
    3        6.752594   1.000000
    4        7.911848   1.000000
    5       13.652618   0.000000
    6       14.461683   0.000000
    7       16.105283   0.000000
    8       16.456440   0.000000
 
 -0.3500000E+00  0.4500000E+00  0.1500000E+00  0.1600000E-01
    1       -1.935392   1.000000
    2        0.506468   1.000000
    3        5.504521   1.000000
    4        7.809391   1.000000
    5       11.782242   0.000000
    6       15.097887   0.000000
    7       16.390882   0.000000
    8       17.485185   0.000000
 
 -0.2500000E+00  0.4500000E+00  0.1500000E+00  0.1600000E-01
    1       -1.551603   1.000000
    2        2.021600   1.000000
    3        4.747320   1.000000
    4        7.909156   1.000000
    5        8.952773   0.565749
    6       14.532539   0.000000
    7       16.198834   0.000000
    8       17.018999   0.000000
 
 -0.1500000E+00  0.4500000E+00  0.1500000E+00  0.8000000E-02
    1       -0.672236   1.000000
    2        3.504232   1.000000
    3        4.860632   1.000000
    4        5.918327   1.000000
    5        8.963982   0.534386
    6       12.732734   0.000000
    7       13.827787   0.000000
    8       17.231286   0.000000
 
 -0.4500000E+00 -0.4500000E+00  0.1500000E+00  0.8000000E-02
    1       -0.831756   1.000000
    2       -0.821453   1.000000
    3        6.528956   1.000000
    4        6.558170   1.000000
    5       11.693845   0.000000
    6       15.552560   0.000000
    7       16.567492   0.000000
    8       16.678858   0.000000
 
 -0.3500000E+00 -0.4500000E+00  0.1500000E+00  0.1600000E-01
    1       -0.570814   1.000000
    2        0.635243   1.000000
    3        5.607860   1.000000
    4        6.716994   1.000000
    5        8.568880   0.998012
    6       14.376721   0.000000
    7       17.158822   0.000000
    8       18.170714   0.000000
 
 -0.2500000E+00 -0.4500000E+00  0.1500000E+00  0.1600000E-01
    1        0.173629   1.000000
    2        2.474014   1.000000
    3        5.014375   1.000000
    4        5.712558   1.000000
    5        7.601686   1.000000
    6       12.750891   0.000000
    7       15.178739   0.000000
    8       18.081498   0.000000
 
 -0.1500000E+00 -0.4500000E+00  0.1500000E+00  0.8000000E-02
    1        1.297391   1.000000
    2        2.820195   1.000000
    3        4.821745   1.000000
    4        5.652276   1.000000
    5        8.447100   0.999908
    6       11.378809   0.000000
    7       12.329435   0.000000
    8       17.304481   0.000000
 
 -0.3500000E+00 -0.3500000E+00  0.1500000E+00  0.8000000E-02
    1        1.186129   1.000000
    2        1.295172   1.000000
    3        5.127063   1.000000
    4        6.229297   1.000000
    5        6.588321   1.000000
    6       12.672840   0.000000
    7       16.651934   0.000000
    8       17.314855   0.000000
 
 -0.2500000E+00 -0.3500000E+00  0.1500000E+00  0.1600000E-01
    1        1.891820   1.000000
    2        2.839779   1.000000
    3        3.883045   1.000000
    4        6.209432   1.000000
    5        7.285299   1.000000
    6       11.403961   0.000000
    7       13.722857   0.000000
    8       15.929136   0.000000
 
 -0.1500000E+00 -0.3500000E+00  0.1500000E+00  0.8000000E-02
    1        0.331550   1.000000
    2        4.106855   1.000000
    3        6.028684   1.000000
    4        6.760534   1.000000
    5        8.242979   1.000000
    6       10.645647   0.000000
    7       11.344732   0.000000
    8       14.529411   0.000000
 
 -0.2500000E+00 -0.2500000E+00  0.1500000E+00  0.8000000E-02
    1        0.216557   1.000000
    2        5.035011   1.000000
    3        5.194053   1.000000
    4        7.304024   1.000000
    5        7.519200   1.000000
    6       10.616065   0.000000
    7       12.421723   0.000000
    8       13.256327   0.000000
 
 -0.1500000E+00 -0.2500000E+00  0.1500000E+00  0.8000000E-02
    1       -1.505495   1.000000
    2        6.874071   1.000000
    3        7.760173   1.000000
    4        7.769026   1.000000
    5        8.288714   0.999999
    6       10.466899   0.000000
    7       11.244109   0.000000
    8       12.146961   0.000000
 
 -0.1500000E+00 -0.1500000E+00  0.1500000E+00  0.2000000E-02
    1       -2.897313   1.000000
    2        7.833532   1.000000
    3        7.833533   1.000000
    4        8.924874   0.641637
    5       10.114999   0.000000
    6       10.253069   0.000000
    7       12.488456   0.000000
    8       12.589551   0.000000
 
  0.2500000E+00  0.2500000E+00  0.2500000E+00  0.2000000E-02
    1        2.579736   1.000000
    2        2.579736   1.000000
    3        3.950364   1.000000
    4        3.950364   1.000000
    5       13.174815   0.000000
    6       13.174817   0.000000
    7       15.117053   0.000000
    8       15.117053   0.000000
 
 -0.2500000E+00  0.2500000E+00  0.2500000E+00  0.4000000E-02
    1       -3.061202   1.000000
    2        2.506018   1.000000
    3        3.787763   1.000000
    4        9.101874   0.187071
    5       13.612047   0.000000
    6       15.372555   0.000000
    7       16.377470   0.000000
    8       16.537342   0.000000
 
 -0.3500000E+00  0.3500000E+00  0.2500000E+00  0.8000000E-02
    1       -2.314415   1.000000
    2        1.283934   1.000000
    3        4.050108   1.000000
    4        7.501550   1.000000
    5       14.206503   0.000000
    6       14.911793   0.000000
    7       16.625518   0.000000
    8       18.712692   0.000000
 
 -0.2500000E+00  0.3500000E+00  0.2500000E+00  0.8000000E-02
    1       -2.185677   1.000000
    2        2.132240   1.000000
    3        3.458907   1.000000
    4        7.602229   1.000000
    5       11.597634   0.000000
    6       16.184505   0.000000
    7       17.311114   0.000000
    8       17.971349   0.000000
 
 -0.4500000E+00  0.4500000E+00  0.2500000E+00  0.8000000E-02
    1       -1.327590   1.000000
    2       -0.113870   1.000000
    3        4.939264   1.000000
    4        6.104735   1.000000
    5       14.407685   0.000000
    6       14.598884   0.000000
    7       17.265483   0.000000
    8       18.142948   0.000000
 
 -0.3500000E+00  0.4500000E+00  0.2500000E+00  0.1600000E-01
    1       -1.324592   1.000000
    2        1.038348   1.000000
    3        3.825331   1.000000
    4        6.104948   1.000000
    5       11.291857   0.000000
    6       16.886070   0.000000
    7       17.912477   0.000000
    8       19.020538   0.000000
 
 -0.2500000E+00  0.4500000E+00  0.2500000E+00  0.8000000E-02
    1       -0.819118   1.000000
    2        2.244504   1.000000
    3        3.596552   1.000000
    4        6.499040   1.000000
    5        8.318160   0.999998
    6       15.740654   0.000000
    7       16.954939   0.000000
    8       18.306729   0.000000
 
 -0.4500000E+00 -0.4500000E+00  0.2500000E+00  0.8000000E-02
    1       -0.243784   1.000000
    2       -0.227122   1.000000
    3        4.815705   1.000000
    4        4.840473   1.000000
    5       11.185905   0.000000
    6       16.948534   0.000000
    7       18.604249   0.000000
    8       19.031512   0.000000
 
 -0.3500000E+00 -0.4500000E+00  0.2500000E+00  0.1600000E-01
    1        0.140540   1.000000
    2        1.285059   1.000000
    3        4.064241   1.000000
    4        5.162938   1.000000
    5        8.046112   1.000000
    6       15.964406   0.000000
    7       18.230934   0.000000
    8       19.217692   0.000000
 
 -0.2500000E+00 -0.4500000E+00  0.2500000E+00  0.8000000E-02
    1        0.991802   1.000000
    2        2.772335   1.000000
    3        4.198719   1.000000
    4        5.130414   1.000000
    5        6.224768   1.000000
    6       14.118089   0.000000
    7       15.241160   0.000000
    8       18.120179   0.000000
 
 -0.3500000E+00 -0.3500000E+00  0.2500000E+00  0.8000000E-02
    1        1.887061   1.000000
    2        2.083315   1.000000
    3        4.480197   1.000000
    4        4.808266   1.000000
    5        5.494896   1.000000
    6       14.385420   0.000000
    7       16.313273   0.000000
    8       17.078812   0.000000
 
 -0.2500000E+00 -0.3500000E+00  0.2500000E+00  0.8000000E-02
    1        1.941479   1.000000
    2        3.511704   1.000000
    3        4.375863   1.000000
    4        5.239579   1.000000
    5        6.013550   1.000000
    6       12.886438   0.000000
    7       13.693202   0.000000
    8       15.055798   0.000000
 
 -0.2500000E+00 -0.2500000E+00  0.2500000E+00  0.2000000E-02
    1        0.099531   1.000000
    2        5.696615   1.000000
    3        5.895979   1.000000
    4        6.617320   1.000000
    5        6.617321   1.000000
    6       12.001553   0.000000
    7       12.274779   0.000000
    8       12.274783   0.000000
 