       N       E                     dE             d eps       ncg     rms          rms(c)
DAV:   1     0.122064912371E+01    0.12206E+01   -0.27348E+03  1608   0.573E+02
DAV:   2    -0.101144287991E+02   -0.11335E+02   -0.10935E+02  2424   0.660E+01
DAV:   3    -0.102561161520E+02   -0.14169E+00   -0.14128E+00  2032   0.837E+00
DAV:   4    -0.102567396718E+02   -0.62352E-03   -0.62352E-03  2560   0.473E-01
DAV:   5    -0.102567400368E+02   -0.36499E-06   -0.36420E-06  2016   0.846E-03    0.150E+00
DAV:   6    -0.102524038343E+02    0.43362E-02   -0.17296E-03  2056   0.326E-01    0.939E-01
DAV:   7    -0.102487360066E+02    0.36678E-02   -0.51456E-03  1792   0.574E-01    0.330E-02
DAV:   8    -0.102487228715E+02    0.13135E-04   -0.75915E-05  1120   0.770E-02
   1 F= -.10248723E+02 E0= -.10240377E+02  d E =-.102487E+02
       N       E                     dE             d eps       ncg     rms          rms(c)
DAV:   1    -0.102598752996E+02   -0.11139E-01   -0.25961E-01  2448   0.293E+00    0.313E-01
DAV:   2    -0.102571203002E+02    0.27550E-02   -0.55288E-03  1984   0.587E-01    0.174E-01
DAV:   3    -0.102558109316E+02    0.13094E-02   -0.35707E-03  2160   0.331E-01    0.161E-02
DAV:   4    -0.102558221822E+02   -0.11251E-04   -0.14152E-04   912   0.100E-01
   2 F= -.10255822E+02 E0= -.10247394E+02  d E =-.709931E-02
       N       E                     dE             d eps       ncg     rms          rms(c)
DAV:   1    -0.102641184693E+02   -0.83075E-02   -0.25962E-01  2400   0.291E+00    0.304E-01
DAV:   2    -0.102614978552E+02    0.26206E-02   -0.53693E-03  1984   0.581E-01    0.170E-01
DAV:   3    -0.102602382698E+02    0.12596E-02   -0.33968E-03  2120   0.322E-01    0.152E-02
DAV:   4    -0.102602486484E+02   -0.10379E-04   -0.13422E-04   896   0.970E-02
   3 F= -.10260249E+02 E0= -.10251544E+02  d E =-.115258E-01
       N       E                     dE             d eps       ncg     rms          rms(c)
DAV:   1    -0.102795972221E+02   -0.19359E-01   -0.10158E+00  2280   0.566E+00    0.589E-01
DAV:   2    -0.102696979527E+02    0.98993E-02   -0.20845E-02  1928   0.114E+00    0.330E-01
DAV:   3    -0.102648808000E+02    0.48172E-02   -0.12915E-02  2224   0.626E-01    0.311E-02
DAV:   4    -0.102649168881E+02   -0.36088E-04   -0.47629E-04  1080   0.182E-01
   4 F= -.10264917E+02 E0= -.10256417E+02  d E =-.161940E-01
       N       E                     dE             d eps       ncg     rms          rms(c)
DAV:   1    -0.102682452905E+02   -0.33645E-02   -0.30687E-01  2272   0.323E+00    0.336E-01
DAV:   2    -0.102653864793E+02    0.28588E-02   -0.52882E-03  1976   0.560E-01    0.196E-01
DAV:   3    -0.102637282197E+02    0.16583E-02   -0.30616E-03  2168   0.312E-01    0.185E-02
DAV:   4    -0.102637279781E+02    0.24165E-06   -0.80563E-05   880   0.717E-02
   5 F= -.10263728E+02 E0= -.10255694E+02  d E =0.118891E-02
       N       E                     dE             d eps       ncg     rms          rms(c)
DAV:   1    -0.102682567476E+02   -0.45285E-02   -0.10245E-01  2272   0.185E+00    0.197E-01
DAV:   2    -0.102672383528E+02    0.10184E-02   -0.18288E-03  1952   0.327E-01    0.115E-01
DAV:   3    -0.102666426819E+02    0.59567E-03   -0.10817E-03  1512   0.186E-01    0.103E-02
DAV:   4    -0.102666429677E+02   -0.28576E-06   -0.44262E-05   808   0.557E-02
   6 F= -.10266643E+02 E0= -.10258414E+02  d E =-.172608E-02
       N       E                     dE             d eps       ncg     rms          rms(c)
DAV:   1    -0.102666461669E+02   -0.34850E-05   -0.93919E-05   816   0.576E-02    0.639E-03
DAV:   2    -0.102666454105E+02    0.75642E-06   -0.42088E-06   800   0.177E-02
   7 F= -.10266645E+02 E0= -.10258421E+02  d E =-.172852E-02
       N       E                     dE             d eps       ncg     rms          rms(c)
DAV:   1    -0.102666440048E+02    0.21620E-05   -0.13019E-04   848   0.669E-02    0.741E-03
DAV:   2    -0.102666430230E+02    0.98185E-06   -0.50981E-06   792   0.184E-02
   8 F= -.10266643E+02 E0= -.10258426E+02  d E =-.172613E-02
       N       E                     dE             d eps       ncg     rms          rms(c)
DAV:   1    -0.102666457845E+02   -0.17796E-05   -0.54881E-05   792   0.433E-02    0.381E-03
DAV:   2    -0.102666454431E+02    0.34133E-06   -0.17692E-06   792   0.110E-02
   9 F= -.10266645E+02 E0= -.10258424E+02  d E =-.172856E-02
       N       E                     dE             d eps       ncg     rms          rms(c)
DAV:   1    -0.102666455651E+02    0.21941E-06   -0.55320E-06   792   0.140E-02    0.172E-03
DAV:   2    -0.102666454398E+02    0.12523E-06   -0.24819E-07   792   0.407E-03
  10 F= -.10266645E+02 E0= -.10258423E+02  d E =-.172855E-02
       N       E                     dE             d eps       ncg     rms          rms(c)
DAV:   1    -0.102666453277E+02    0.23736E-06   -0.23300E-07   792   0.303E-03    0.429E-04
DAV:   2    -0.102666453060E+02    0.21721E-07   -0.17859E-08   792   0.107E-03
  11 F= -.10266645E+02 E0= -.10258422E+02  d E =-.172842E-02
       N       E                     dE             d eps       ncg     rms          rms(c)
DAV:   1    -0.102666452766E+02    0.51070E-07   -0.11172E-08   792   0.709E-04    0.100E-04
DAV:   2    -0.102666452725E+02    0.41549E-08   -0.12639E-09   792   0.283E-04
  12 F= -.10266645E+02 E0= -.10258422E+02  d E =-.172838E-02
       N       E                     dE             d eps       ncg     rms          rms(c)
DAV:   1    -0.102666710449E+02   -0.25768E-04   -0.97074E-04  1584   0.174E-01    0.181E-02
DAV:   2    -0.102666622679E+02    0.87770E-05   -0.22330E-05   800   0.385E-02
  13 F= -.10266662E+02 E0= -.10258470E+02  d E =-.169954E-04
       N       E                     dE             d eps       ncg     rms          rms(c)
DAV:   1    -0.102667400652E+02   -0.69020E-04   -0.82724E-03  2280   0.506E-01    0.545E-02
DAV:   2    -0.102666556836E+02    0.84382E-04   -0.16018E-04   960   0.102E-01
  14 F= -.10266656E+02 E0= -.10258550E+02  d E =-.104112E-04
       N       E                     dE             d eps       ncg     rms          rms(c)
DAV:   1    -0.102666867884E+02    0.53277E-04   -0.31816E-02  2232   0.992E-01    0.109E-01
DAV:   2    -0.102663496891E+02    0.33710E-03   -0.64662E-04  1776   0.200E-01
  15 F= -.10266350E+02 E0= -.10258465E+02  d E =0.295583E-03
