unknown system                          
           1
    -2.450000    2.450000    1.274000
     2.450000   -2.450000    1.274000
     2.450000    2.450000   -1.274000
   Si
   2
Direct configuration=     1
   0.25000000  0.75000000  0.50000000
   0.00000000  0.00000000  0.00000000
unknown system                          
           1
    -2.438246    2.438246    1.291966
     2.438246   -2.438246    1.291966
     2.438246    2.438246   -1.291966
   Si
   2
Direct configuration=     2
   0.25000000  0.75000000  0.50000000
  -0.00000000 -0.00000000 -0.00000000
unknown system                          
           1
    -2.426460    2.426460    1.309982
     2.426460   -2.426460    1.309982
     2.426460    2.426460   -1.309982
   Si
   2
Direct configuration=     3
   0.25000000  0.75000000  0.50000000
  -0.00000000 -0.00000000 -0.00000000
unknown system                          
           1
    -2.402887    2.402887    1.346014
     2.402887   -2.402887    1.346014
     2.402887    2.402887   -1.346014
   Si
   2
Direct configuration=     4
   0.25000000  0.75000000  0.50000000
  -0.00000000 -0.00000000 -0.00000000
unknown system                          
           1
    -2.369881    2.369881    1.349564
     2.369881   -2.369881    1.349564
     2.369881    2.369881   -1.349564
   Si
   2
Direct configuration=     5
   0.25000000  0.75000000  0.50000000
  -0.00000000 -0.00000000 -0.00000000
unknown system                          
           1
    -2.389085    2.389085    1.347498
     2.389085   -2.389085    1.347498
     2.389085    2.389085   -1.347498
   Si
   2
Direct configuration=     6
   0.25000000  0.75000000  0.50000000
  -0.00000000 -0.00000000 -0.00000000
unknown system                          
           1
    -2.388537    2.388537    1.347557
     2.388537   -2.388537    1.347557
     2.388537    2.388537   -1.347557
   Si
   2
Direct configuration=     7
   0.25000000  0.75000000  0.50000000
  -0.00000000 -0.00000000 -0.00000000
unknown system                          
           1
    -2.387807    2.387807    1.347636
     2.387807   -2.387807    1.347636
     2.387807    2.387807   -1.347636
   Si
   2
Direct configuration=     8
   0.25000000  0.75000000  0.50000000
  -0.00000000 -0.00000000 -0.00000000
unknown system                          
           1
    -2.388209    2.388209    1.347593
     2.388209   -2.388209    1.347593
     2.388209    2.388209   -1.347593
   Si
   2
Direct configuration=     9
   0.25000000  0.75000000  0.50000000
  -0.00000000 -0.00000000 -0.00000000
unknown system                          
           1
    -2.388374    2.388374    1.347575
     2.388374   -2.388374    1.347575
     2.388374    2.388374   -1.347575
   Si
   2
Direct configuration=    10
   0.25000000  0.75000000  0.50000000
  -0.00000000 -0.00000000 -0.00000000
unknown system                          
           1
    -2.388410    2.388410    1.347571
     2.388410   -2.388410    1.347571
     2.388410    2.388410   -1.347571
   Si
   2
Direct configuration=    11
   0.25000000  0.75000000  0.50000000
  -0.00000000 -0.00000000 -0.00000000
unknown system                          
           1
    -2.388418    2.388418    1.347570
     2.388418   -2.388418    1.347570
     2.388418    2.388418   -1.347570
   Si
   2
Direct configuration=    12
   0.25000000  0.75000000  0.50000000
  -0.00000000 -0.00000000 -0.00000000
unknown system                          
           1
    -2.387772    2.387772    1.348737
     2.387772   -2.387772    1.348737
     2.387772    2.387772   -1.348737
   Si
   2
Direct configuration=    13
   0.25000000  0.75000000  0.50000000
  -0.00000000 -0.00000000 -0.00000000
unknown system                          
           1
    -2.385834    2.385834    1.352238
     2.385834   -2.385834    1.352238
     2.385834    2.385834   -1.352238
   Si
   2
Direct configuration=    14
   0.25000000  0.75000000  0.50000000
  -0.00000000 -0.00000000 -0.00000000
unknown system                          
           1
    -2.381959    2.381959    1.359241
     2.381959   -2.381959    1.359241
     2.381959    2.381959   -1.359241
   Si
   2
Direct configuration=    15
   0.25000000  0.75000000  0.50000000
  -0.00000000 -0.00000000 -0.00000000
