 vasp.5.4.4.18Apr17-6-g9f103f2a35 (build Dec 09 2018 21:25:21) complex          
  
 executed on IFC18.0.1.163_CrayMP date 2019.03.19  13:31:48
 running on    8 total cores
 distrk:  each k-point on    8 cores,    1 groups
 distr:  one band on NCORES_PER_BAND=   1 cores,    8 groups


--------------------------------------------------------------------------------------------------------


 INCAR:
 POTCAR:   PAW_PBE Si 05Jan2001                   

 ----------------------------------------------------------------------------- 
|                                                                             |
|           W    W    AA    RRRRR   N    N  II  N    N   GGGG   !!!           |
|           W    W   A  A   R    R  NN   N  II  NN   N  G    G  !!!           |
|           W    W  A    A  R    R  N N  N  II  N N  N  G       !!!           |
|           W WW W  AAAAAA  RRRRR   N  N N  II  N  N N  G  GGG   !            |
|           WW  WW  A    A  R   R   N   NN  II  N   NN  G    G                |
|           W    W  A    A  R    R  N    N  II  N    N   GGGG   !!!           |
|                                                                             |
|      For optimal performance we recommend to set                            |
|        NCORE= 4 - approx SQRT( number of cores)                             |
|      NCORE specifies how many cores store one orbital (NPAR=cpu/NCORE).     |
|      This setting can  greatly improve the performance of VASP for DFT.     |
|      The default,   NCORE=1            might be grossly inefficient         |
|      on modern multi-core architectures or massively parallel machines.     |
|      Do your own testing !!!!                                               |
|      Unfortunately you need to use the default for GW and RPA calculations. |
|      (for HF NCORE is supported but not extensively tested yet)             |
|                                                                             |
 ----------------------------------------------------------------------------- 

 POTCAR:   PAW_PBE Si 05Jan2001                   
   VRHFIN =Si: s2p2                                                             
   LEXCH  = PE                                                                  
   EATOM  =   103.0669 eV,    7.5752 Ry                                         
                                                                                
   TITEL  = PAW_PBE Si 05Jan2001                                                
   LULTRA =        F    use ultrasoft PP ?                                      
   IUNSCR =        1    unscreen: 0-lin 1-nonlin 2-no                           
   RPACOR =    1.500    partial core radius                                     
   POMASS =   28.085; ZVAL   =    4.000    mass and valenz                      
   RCORE  =    1.900    outmost cutoff radius                                   
   RWIGS  =    2.480; RWIGS  =    1.312    wigner-seitz radius (au A)           
   ENMAX  =  245.345; ENMIN  =  184.009 eV                                      
   ICORE  =        2    local potential                                         
   LCOR   =        T    correct aug charges                                     
   LPAW   =        T    paw PP                                                  
   EAUG   =  322.069                                                            
   DEXC   =    -.007                                                            
   RMAX   =    2.944    core radius for proj-oper                               
   RAUG   =    1.300    factor for augmentation sphere                          
   RDEP   =    1.993    radius for radial grids                                 
   QCUT   =   -4.246; QGAM   =    8.493    optimization parameters              
                                                                                
   Description                                                                  
     l     E      TYP  RCUT    TYP  RCUT                                        
     0   .000     23  1.900                                                     
     0   .000     23  1.900                                                     
     1   .000     23  1.900                                                     
     1   .000     23  1.900                                                     
     2   .000      7  1.900                                                     
  local pseudopotential read in
  partial core-charges read in
  atomic valenz-charges read in
  non local Contribution for L=           0  read in
    real space projection operators read in
  non local Contribution for L=           0  read in
    real space projection operators read in
  non local Contribution for L=           1  read in
    real space projection operators read in
  non local Contribution for L=           1  read in
    real space projection operators read in
    PAW grid and wavefunctions read in
 
   number of l-projection  operators is LMAX  =           4
   number of lm-projection operators is LMMAX =           8
 
 PAW_PBE Si 05Jan2001                   :
 energy of atom  1       EATOM= -103.0669
 kinetic energy error for atom=    0.0052 (will be added to EATOM!!)
 
 
 POSCAR: Si2                                     
  positions in direct lattice
  No initial velocities read in
 exchange correlation table for  LEXCH =        8
   RHO(1)=    0.500       N(1)  =     2000
   RHO(2)=  100.500       N(2)  =     4000
 


--------------------------------------------------------------------------------------------------------


 ion  position               nearest neighbor table
   1  0.500  0.500  0.500-   2 2.35   2 2.35   2 2.35   2 2.35
   2  0.750  0.750  0.750-   1 2.35   1 2.35   1 2.35   1 2.35
 
  LATTYP: Found a face centered cubic cell.
 ALAT       =     5.4300000000
  
  Lattice vectors:
  
 A1 = (   0.0000000000,   2.7150000000,   2.7150000000)
 A2 = (   2.7150000000,   0.0000000000,   2.7150000000)
 A3 = (   2.7150000000,   2.7150000000,   0.0000000000)


Analysis of symmetry for initial positions (statically):
=====================================================================
 Subroutine PRICEL returns:
 Original cell was already a primitive cell.
 

 Routine SETGRP: Setting up the symmetry group for a 
 face centered cubic supercell.


 Subroutine GETGRP returns: Found 48 space group operations
 (whereof 24 operations were pure point group operations)
 out of a pool of 48 trial point group operations.


The static configuration has the point symmetry T_d .
 The point group associated with its full space group is O_h .


Analysis of symmetry for dynamics (positions and initial velocities):
=====================================================================
 Subroutine PRICEL returns:
 Original cell was already a primitive cell.
 

 Routine SETGRP: Setting up the symmetry group for a 
 face centered cubic supercell.


 Subroutine GETGRP returns: Found 48 space group operations
 (whereof 24 operations were pure point group operations)
 out of a pool of 48 trial point group operations.


The dynamic configuration has the point symmetry T_d .
 The point group associated with its full space group is O_h .


 Subroutine INISYM returns: Found 48 space group operations
 (whereof 24 operations are pure point group operations),
 and found     1 'primitive' translations

 
 
 KPOINTS: Automatic kpoint scheme                 

Automatic generation of k-mesh.
Space group operators:
 irot       det(A)        alpha          n_x          n_y          n_z        tau_x        tau_y        tau_z
    1     1.000000     0.000001     1.000000     0.000000     0.000000     0.000000     0.000000     0.000000
    2     1.000000   120.000000    -0.577350    -0.577350    -0.577350     0.000000     0.000000     0.000000
    3     1.000000   120.000000     0.577350     0.577350     0.577350     0.000000     0.000000     0.000000
    4    -1.000000    90.000000    -0.000000    -0.000000    -1.000000     0.000000     0.000000     0.000000
    5    -1.000000   180.000000    -0.000000     0.707107     0.707107     0.000000     0.000000     0.000000
    6    -1.000000    90.000000    -0.000000     1.000000    -0.000000     0.000000     0.000000     0.000000
    7     1.000000   180.000000     0.000000     0.000000    -1.000000     0.000000     0.000000     0.000000
    8     1.000000   120.000000    -0.577350     0.577350     0.577350     0.000000     0.000000     0.000000
    9     1.000000   120.000000    -0.577350     0.577350    -0.577350     0.000000     0.000000     0.000000
   10    -1.000000    90.000000     0.000000     0.000000     1.000000     0.000000     0.000000     0.000000
   11    -1.000000    90.000000    -1.000000     0.000000    -0.000000     0.000000     0.000000     0.000000
   12    -1.000000   180.000000     0.707107     0.000000     0.707107     0.000000     0.000000     0.000000
   13     1.000000   120.000000     0.577350    -0.577350     0.577350     0.000000     0.000000     0.000000
   14     1.000000   120.000000    -0.577350    -0.577350     0.577350     0.000000     0.000000     0.000000
   15     1.000000   180.000000     1.000000     0.000000     0.000000     0.000000     0.000000     0.000000
   16    -1.000000    90.000000     0.000000    -1.000000     0.000000     0.000000     0.000000     0.000000
   17    -1.000000   180.000000     0.707107     0.707107    -0.000000     0.000000     0.000000     0.000000
   18    -1.000000    90.000000     1.000000     0.000000     0.000000     0.000000     0.000000     0.000000
   19     1.000000   120.000000     0.577350    -0.577350    -0.577350     0.000000     0.000000     0.000000
   20     1.000000   180.000000     0.000000    -1.000000     0.000000     0.000000     0.000000     0.000000
   21     1.000000   120.000000     0.577350     0.577350    -0.577350     0.000000     0.000000     0.000000
   22    -1.000000   180.000000    -0.000000    -0.707107     0.707107     0.000000     0.000000     0.000000
   23    -1.000000   180.000000     0.707107    -0.707107    -0.000000     0.000000     0.000000     0.000000
   24    -1.000000   180.000000    -0.707107     0.000000     0.707107     0.000000     0.000000     0.000000
   25    -1.000000     0.000001     1.000000     0.000000     0.000000     0.250000     0.250000     0.250000
   26    -1.000000   120.000000    -0.577350    -0.577350    -0.577350     0.250000     0.250000     0.250000
   27    -1.000000   120.000000     0.577350     0.577350     0.577350     0.250000     0.250000     0.250000
   28     1.000000    90.000000    -0.000000    -0.000000    -1.000000     0.250000     0.250000     0.250000
   29     1.000000   180.000000    -0.000000     0.707107     0.707107     0.250000     0.250000     0.250000
   30     1.000000    90.000000    -0.000000     1.000000    -0.000000     0.250000     0.250000     0.250000
   31    -1.000000   180.000000     0.000000     0.000000    -1.000000     0.250000     0.250000     0.250000
   32    -1.000000   120.000000    -0.577350     0.577350     0.577350     0.250000     0.250000     0.250000
   33    -1.000000   120.000000    -0.577350     0.577350    -0.577350     0.250000     0.250000     0.250000
   34     1.000000    90.000000     0.000000     0.000000     1.000000     0.250000     0.250000     0.250000
   35     1.000000    90.000000    -1.000000     0.000000    -0.000000     0.250000     0.250000     0.250000
   36     1.000000   180.000000     0.707107     0.000000     0.707107     0.250000     0.250000     0.250000
   37    -1.000000   120.000000     0.577350    -0.577350     0.577350     0.250000     0.250000     0.250000
   38    -1.000000   120.000000    -0.577350    -0.577350     0.577350     0.250000     0.250000     0.250000
   39    -1.000000   180.000000     1.000000     0.000000     0.000000     0.250000     0.250000     0.250000
   40     1.000000    90.000000     0.000000    -1.000000     0.000000     0.250000     0.250000     0.250000
   41     1.000000   180.000000     0.707107     0.707107    -0.000000     0.250000     0.250000     0.250000
   42     1.000000    90.000000     1.000000     0.000000     0.000000     0.250000     0.250000     0.250000
   43    -1.000000   120.000000     0.577350    -0.577350    -0.577350     0.250000     0.250000     0.250000
   44    -1.000000   180.000000     0.000000    -1.000000     0.000000     0.250000     0.250000     0.250000
   45    -1.000000   120.000000     0.577350     0.577350    -0.577350     0.250000     0.250000     0.250000
   46     1.000000   180.000000    -0.000000    -0.707107     0.707107     0.250000     0.250000     0.250000
   47     1.000000   180.000000     0.707107    -0.707107    -0.000000     0.250000     0.250000     0.250000
   48     1.000000   180.000000    -0.707107     0.000000     0.707107     0.250000     0.250000     0.250000
 
 Subroutine IBZKPT returns following result:
 ===========================================
 
 Found    182 irreducible k-points:
 
 Following reciprocal coordinates:
            Coordinates               Weight
  0.041667  0.041667  0.041667     96.000000
  0.125000  0.041667  0.041667    288.000000
  0.208333  0.041667  0.041667    288.000000
  0.291667  0.041667  0.041667    288.000000
  0.375000  0.041667  0.041667    288.000000
  0.458333  0.041667  0.041667    288.000000
 -0.458333  0.041667  0.041667    288.000000
 -0.375000  0.041667  0.041667    288.000000
 -0.291667  0.041667  0.041667    288.000000
 -0.208333  0.041667  0.041667    288.000000
 -0.125000  0.041667  0.041667    288.000000
 -0.041667  0.041667  0.041667    288.000000
  0.125000  0.125000  0.041667    288.000000
  0.208333  0.125000  0.041667    576.000000
  0.291667  0.125000  0.041667    576.000000
  0.375000  0.125000  0.041667    576.000000
  0.458333  0.125000  0.041667    576.000000
 -0.458333  0.125000  0.041667    576.000000
 -0.375000  0.125000  0.041667    576.000000
 -0.291667  0.125000  0.041667    576.000000
 -0.208333  0.125000  0.041667    576.000000
 -0.125000  0.125000  0.041667    576.000000
 -0.041667  0.125000  0.041667    576.000000
  0.208333  0.208333  0.041667    288.000000
  0.291667  0.208333  0.041667    576.000000
  0.375000  0.208333  0.041667    576.000000
  0.458333  0.208333  0.041667    576.000000
 -0.458333  0.208333  0.041667    576.000000
 -0.375000  0.208333  0.041667    576.000000
 -0.291667  0.208333  0.041667    576.000000
 -0.208333  0.208333  0.041667    576.000000
 -0.125000  0.208333  0.041667    576.000000
 -0.041667  0.208333  0.041667    576.000000
  0.291667  0.291667  0.041667    288.000000
  0.375000  0.291667  0.041667    576.000000
  0.458333  0.291667  0.041667    576.000000
 -0.458333  0.291667  0.041667    576.000000
 -0.375000  0.291667  0.041667    576.000000
 -0.291667  0.291667  0.041667    576.000000
 -0.208333  0.291667  0.041667    576.000000
 -0.125000  0.291667  0.041667    576.000000
 -0.041667  0.291667  0.041667    576.000000
  0.375000  0.375000  0.041667    288.000000
  0.458333  0.375000  0.041667    576.000000
 -0.458333  0.375000  0.041667    576.000000
 -0.375000  0.375000  0.041667    576.000000
 -0.291667  0.375000  0.041667    576.000000
 -0.208333  0.375000  0.041667    576.000000
 -0.125000  0.375000  0.041667    576.000000
 -0.041667  0.375000  0.041667    576.000000
  0.458333  0.458333  0.041667    288.000000
 -0.458333  0.458333  0.041667    576.000000
 -0.375000  0.458333  0.041667    576.000000
 -0.291667  0.458333  0.041667    576.000000
 -0.208333  0.458333  0.041667    576.000000
 -0.125000  0.458333  0.041667    576.000000
 -0.041667  0.458333  0.041667    576.000000
 -0.458333 -0.458333  0.041667    288.000000
 -0.375000 -0.458333  0.041667    576.000000
 -0.291667 -0.458333  0.041667    576.000000
 -0.208333 -0.458333  0.041667    576.000000
 -0.125000 -0.458333  0.041667    576.000000
 -0.375000 -0.375000  0.041667    288.000000
 -0.291667 -0.375000  0.041667    576.000000
 -0.208333 -0.375000  0.041667    576.000000
 -0.125000 -0.375000  0.041667    576.000000
 -0.291667 -0.291667  0.041667    288.000000
 -0.208333 -0.291667  0.041667    576.000000
 -0.125000 -0.291667  0.041667    576.000000
 -0.208333 -0.208333  0.041667    288.000000
 -0.125000 -0.208333  0.041667    576.000000
 -0.125000 -0.125000  0.041667    288.000000
  0.125000  0.125000  0.125000     96.000000
  0.208333  0.125000  0.125000    288.000000
  0.291667  0.125000  0.125000    288.000000
  0.375000  0.125000  0.125000    288.000000
  0.458333  0.125000  0.125000    288.000000
 -0.458333  0.125000  0.125000    288.000000
 -0.375000  0.125000  0.125000    288.000000
 -0.291667  0.125000  0.125000    288.000000
 -0.208333  0.125000  0.125000    288.000000
 -0.125000  0.125000  0.125000    288.000000
  0.208333  0.208333  0.125000    288.000000
  0.291667  0.208333  0.125000    576.000000
  0.375000  0.208333  0.125000    576.000000
  0.458333  0.208333  0.125000    576.000000
 -0.458333  0.208333  0.125000    576.000000
 -0.375000  0.208333  0.125000    576.000000
 -0.291667  0.208333  0.125000    576.000000
 -0.208333  0.208333  0.125000    576.000000
 -0.125000  0.208333  0.125000    576.000000
  0.291667  0.291667  0.125000    288.000000
  0.375000  0.291667  0.125000    576.000000
  0.458333  0.291667  0.125000    576.000000
 -0.458333  0.291667  0.125000    576.000000
 -0.375000  0.291667  0.125000    576.000000
 -0.291667  0.291667  0.125000    576.000000
 -0.208333  0.291667  0.125000    576.000000
 -0.125000  0.291667  0.125000    576.000000
  0.375000  0.375000  0.125000    288.000000
  0.458333  0.375000  0.125000    576.000000
 -0.458333  0.375000  0.125000    576.000000
 -0.375000  0.375000  0.125000    576.000000
 -0.291667  0.375000  0.125000    576.000000
 -0.208333  0.375000  0.125000    576.000000
 -0.125000  0.375000  0.125000    576.000000
  0.458333  0.458333  0.125000    288.000000
 -0.458333  0.458333  0.125000    576.000000
 -0.375000  0.458333  0.125000    576.000000
 -0.291667  0.458333  0.125000    576.000000
 -0.208333  0.458333  0.125000    576.000000
 -0.125000  0.458333  0.125000    576.000000
 -0.458333 -0.458333  0.125000    288.000000
 -0.375000 -0.458333  0.125000    576.000000
 -0.291667 -0.458333  0.125000    576.000000
 -0.208333 -0.458333  0.125000    576.000000
 -0.375000 -0.375000  0.125000    288.000000
 -0.291667 -0.375000  0.125000    576.000000
 -0.208333 -0.375000  0.125000    576.000000
 -0.291667 -0.291667  0.125000    288.000000
 -0.208333 -0.291667  0.125000    576.000000
 -0.208333 -0.208333  0.125000    288.000000
  0.208333  0.208333  0.208333     96.000000
  0.291667  0.208333  0.208333    288.000000
  0.375000  0.208333  0.208333    288.000000
  0.458333  0.208333  0.208333    288.000000
 -0.458333  0.208333  0.208333    288.000000
 -0.375000  0.208333  0.208333    288.000000
 -0.291667  0.208333  0.208333    288.000000
 -0.208333  0.208333  0.208333    288.000000
  0.291667  0.291667  0.208333    288.000000
  0.375000  0.291667  0.208333    576.000000
  0.458333  0.291667  0.208333    576.000000
 -0.458333  0.291667  0.208333    576.000000
 -0.375000  0.291667  0.208333    576.000000
 -0.291667  0.291667  0.208333    576.000000
 -0.208333  0.291667  0.208333    576.000000
  0.375000  0.375000  0.208333    288.000000
  0.458333  0.375000  0.208333    576.000000
 -0.458333  0.375000  0.208333    576.000000
 -0.375000  0.375000  0.208333    576.000000
 -0.291667  0.375000  0.208333    576.000000
 -0.208333  0.375000  0.208333    576.000000
  0.458333  0.458333  0.208333    288.000000
 -0.458333  0.458333  0.208333    576.000000
 -0.375000  0.458333  0.208333    576.000000
 -0.291667  0.458333  0.208333    576.000000
 -0.208333  0.458333  0.208333    576.000000
 -0.458333 -0.458333  0.208333    288.000000
 -0.375000 -0.458333  0.208333    576.000000
 -0.291667 -0.458333  0.208333    576.000000
 -0.375000 -0.375000  0.208333    288.000000
 -0.291667 -0.375000  0.208333    576.000000
 -0.291667 -0.291667  0.208333    288.000000
  0.291667  0.291667  0.291667     96.000000
  0.375000  0.291667  0.291667    288.000000
  0.458333  0.291667  0.291667    288.000000
 -0.458333  0.291667  0.291667    288.000000
 -0.375000  0.291667  0.291667    288.000000
 -0.291667  0.291667  0.291667    288.000000
  0.375000  0.375000  0.291667    288.000000
  0.458333  0.375000  0.291667    576.000000
 -0.458333  0.375000  0.291667    576.000000
 -0.375000  0.375000  0.291667    576.000000
 -0.291667  0.375000  0.291667    576.000000
  0.458333  0.458333  0.291667    288.000000
 -0.458333  0.458333  0.291667    576.000000
 -0.375000  0.458333  0.291667    576.000000
 -0.291667  0.458333  0.291667    576.000000
 -0.458333 -0.458333  0.291667    288.000000
 -0.375000 -0.458333  0.291667    576.000000
 -0.375000 -0.375000  0.291667    288.000000
  0.375000  0.375000  0.375000     96.000000
  0.458333  0.375000  0.375000    288.000000
 -0.458333  0.375000  0.375000    288.000000
 -0.375000  0.375000  0.375000    288.000000
  0.458333  0.458333  0.375000    288.000000
 -0.458333  0.458333  0.375000    576.000000
 -0.375000  0.458333  0.375000    576.000000
 -0.458333 -0.458333  0.375000    288.000000
  0.458333  0.458333  0.458333     96.000000
 -0.458333  0.458333  0.458333    288.000000
 
 Following cartesian coordinates:
            Coordinates               Weight
  0.007673  0.007673  0.007673     96.000000
 -0.007673  0.023020  0.023020    288.000000
 -0.023020  0.038367  0.038367    288.000000
 -0.038367  0.053714  0.053714    288.000000
 -0.053714  0.069061  0.069061    288.000000
 -0.069061  0.084408  0.084408    288.000000
  0.099754 -0.084408 -0.084408    288.000000
  0.084408 -0.069061 -0.069061    288.000000
  0.069061 -0.053714 -0.053714    288.000000
  0.053714 -0.038367 -0.038367    288.000000
  0.038367 -0.023020 -0.023020    288.000000
  0.023020 -0.007673 -0.007673    288.000000
  0.007673  0.007673  0.038367    288.000000
 -0.007673  0.023020  0.053714    576.000000
 -0.023020  0.038367  0.069061    576.000000
 -0.038367  0.053714  0.084408    576.000000
 -0.053714  0.069061  0.099754    576.000000
  0.115101 -0.099754 -0.069061    576.000000
  0.099754 -0.084408 -0.053714    576.000000
  0.084408 -0.069061 -0.038367    576.000000
  0.069061 -0.053714 -0.023020    576.000000
  0.053714 -0.038367 -0.007673    576.000000
  0.038367 -0.023020  0.007673    576.000000
  0.007673  0.007673  0.069061    288.000000
 -0.007673  0.023020  0.084408    576.000000
 -0.023020  0.038367  0.099754    576.000000
 -0.038367  0.053714  0.115101    576.000000
  0.130448 -0.115101 -0.053714    576.000000
  0.115101 -0.099754 -0.038367    576.000000
  0.099754 -0.084408 -0.023020    576.000000
  0.084408 -0.069061 -0.007673    576.000000
  0.069061 -0.053714  0.007673    576.000000
  0.053714 -0.038367  0.023020    576.000000
  0.007673  0.007673  0.099754    288.000000
 -0.007673  0.023020  0.115101    576.000000
 -0.023020  0.038367  0.130448    576.000000
  0.145795 -0.130448 -0.038367    576.000000
  0.130448 -0.115101 -0.023020    576.000000
  0.115101 -0.099754 -0.007673    576.000000
  0.099754 -0.084408  0.007673    576.000000
  0.084408 -0.069061  0.023020    576.000000
  0.069061 -0.053714  0.038367    576.000000
  0.007673  0.007673  0.130448    288.000000
 -0.007673  0.023020  0.145795    576.000000
  0.161142 -0.145795 -0.023020    576.000000
  0.145795 -0.130448 -0.007673    576.000000
  0.130448 -0.115101  0.007673    576.000000
  0.115101 -0.099754  0.023020    576.000000
  0.099754 -0.084408  0.038367    576.000000
  0.084408 -0.069061  0.053714    576.000000
  0.007673  0.007673  0.161142    288.000000
  0.176489 -0.161142 -0.007673    576.000000
  0.161142 -0.145795  0.007673    576.000000
  0.145795 -0.130448  0.023020    576.000000
  0.130448 -0.115101  0.038367    576.000000
  0.115101 -0.099754  0.053714    576.000000
  0.099754 -0.084408  0.069061    576.000000
  0.007673  0.007673 -0.176489    288.000000
 -0.007673  0.023020 -0.161142    576.000000
 -0.023020  0.038367 -0.145795    576.000000
 -0.038367  0.053714 -0.130448    576.000000
 -0.053714  0.069061 -0.115101    576.000000
  0.007673  0.007673 -0.145795    288.000000
 -0.007673  0.023020 -0.130448    576.000000
 -0.023020  0.038367 -0.115101    576.000000
 -0.038367  0.053714 -0.099754    576.000000
  0.007673  0.007673 -0.115101    288.000000
 -0.007673  0.023020 -0.099754    576.000000
 -0.023020  0.038367 -0.084408    576.000000
  0.007673  0.007673 -0.084408    288.000000
 -0.007673  0.023020 -0.069061    576.000000
  0.007673  0.007673 -0.053714    288.000000
  0.023020  0.023020  0.023020     96.000000
  0.007673  0.038367  0.038367    288.000000
 -0.007673  0.053714  0.053714    288.000000
 -0.023020  0.069061  0.069061    288.000000
 -0.038367  0.084408  0.084408    288.000000
  0.130448 -0.084408 -0.084408    288.000000
  0.115101 -0.069061 -0.069061    288.000000
  0.099754 -0.053714 -0.053714    288.000000
  0.084408 -0.038367 -0.038367    288.000000
  0.069061 -0.023020 -0.023020    288.000000
  0.023020  0.023020  0.053714    288.000000
  0.007673  0.038367  0.069061    576.000000
 -0.007673  0.053714  0.084408    576.000000
 -0.023020  0.069061  0.099754    576.000000
  0.145795 -0.099754 -0.069061    576.000000
  0.130448 -0.084408 -0.053714    576.000000
  0.115101 -0.069061 -0.038367    576.000000
  0.099754 -0.053714 -0.023020    576.000000
  0.084408 -0.038367 -0.007673    576.000000
  0.023020  0.023020  0.084408    288.000000
  0.007673  0.038367  0.099754    576.000000
 -0.007673  0.053714  0.115101    576.000000
  0.161142 -0.115101 -0.053714    576.000000
  0.145795 -0.099754 -0.038367    576.000000
  0.130448 -0.084408 -0.023020    576.000000
  0.115101 -0.069061 -0.007673    576.000000
  0.099754 -0.053714  0.007673    576.000000
  0.023020  0.023020  0.115101    288.000000
  0.007673  0.038367  0.130448    576.000000
  0.176489 -0.130448 -0.038367    576.000000
  0.161142 -0.115101 -0.023020    576.000000
  0.145795 -0.099754 -0.007673    576.000000
  0.130448 -0.084408  0.007673    576.000000
  0.115101 -0.069061  0.023020    576.000000
  0.023020  0.023020  0.145795    288.000000
  0.191835 -0.145795 -0.023020    576.000000
  0.176489 -0.130448 -0.007673    576.000000
  0.161142 -0.115101  0.007673    576.000000
  0.145795 -0.099754  0.023020    576.000000
  0.130448 -0.084408  0.038367    576.000000
  0.023020  0.023020 -0.191835    288.000000
  0.007673  0.038367 -0.176489    576.000000
 -0.007673  0.053714 -0.161142    576.000000
 -0.023020  0.069061 -0.145795    576.000000
  0.023020  0.023020 -0.161142    288.000000
  0.007673  0.038367 -0.145795    576.000000
 -0.007673  0.053714 -0.130448    576.000000
  0.023020  0.023020 -0.130448    288.000000
  0.007673  0.038367 -0.115101    576.000000
  0.023020  0.023020 -0.099754    288.000000
  0.038367  0.038367  0.038367     96.000000
  0.023020  0.053714  0.053714    288.000000
  0.007673  0.069061  0.069061    288.000000
 -0.007673  0.084408  0.084408    288.000000
  0.161142 -0.084408 -0.084408    288.000000
  0.145795 -0.069061 -0.069061    288.000000
  0.130448 -0.053714 -0.053714    288.000000
  0.115101 -0.038367 -0.038367    288.000000
  0.038367  0.038367  0.069061    288.000000
  0.023020  0.053714  0.084408    576.000000
  0.007673  0.069061  0.099754    576.000000
  0.176489 -0.099754 -0.069061    576.000000
  0.161142 -0.084408 -0.053714    576.000000
  0.145795 -0.069061 -0.038367    576.000000
  0.130448 -0.053714 -0.023020    576.000000
  0.038367  0.038367  0.099754    288.000000
  0.023020  0.053714  0.115101    576.000000
  0.191835 -0.115101 -0.053714    576.000000
  0.176489 -0.099754 -0.038367    576.000000
  0.161142 -0.084408 -0.023020    576.000000
  0.145795 -0.069061 -0.007673    576.000000
  0.038367  0.038367  0.130448    288.000000
  0.207182 -0.130448 -0.038367    576.000000
  0.191835 -0.115101 -0.023020    576.000000
  0.176489 -0.099754 -0.007673    576.000000
  0.161142 -0.084408  0.007673    576.000000
  0.038367  0.038367 -0.207182    288.000000
  0.023020  0.053714 -0.191835    576.000000
  0.007673  0.069061 -0.176489    576.000000
  0.038367  0.038367 -0.176489    288.000000
  0.023020  0.053714 -0.161142    576.000000
  0.038367  0.038367 -0.145795    288.000000
  0.053714  0.053714  0.053714     96.000000
  0.038367  0.069061  0.069061    288.000000
  0.023020  0.084408  0.084408    288.000000
  0.191835 -0.084408 -0.084408    288.000000
  0.176489 -0.069061 -0.069061    288.000000
  0.161142 -0.053714 -0.053714    288.000000
  0.053714  0.053714  0.084408    288.000000
  0.038367  0.069061  0.099754    576.000000
  0.207182 -0.099754 -0.069061    576.000000
  0.191835 -0.084408 -0.053714    576.000000
  0.176489 -0.069061 -0.038367    576.000000
  0.053714  0.053714  0.115101    288.000000
  0.222529 -0.115101 -0.053714    576.000000
  0.207182 -0.099754 -0.038367    576.000000
  0.191835 -0.084408 -0.023020    576.000000
  0.053714  0.053714 -0.222529    288.000000
  0.038367  0.069061 -0.207182    576.000000
  0.053714  0.053714 -0.191835    288.000000
  0.069061  0.069061  0.069061     96.000000
  0.053714  0.084408  0.084408    288.000000
  0.222529 -0.084408 -0.084408    288.000000
  0.207182 -0.069061 -0.069061    288.000000
  0.069061  0.069061  0.099754    288.000000
  0.237876 -0.099754 -0.069061    576.000000
  0.222529 -0.084408 -0.053714    576.000000
  0.069061  0.069061 -0.237876    288.000000
  0.084408  0.084408  0.084408     96.000000
  0.253223 -0.084408 -0.084408    288.000000
 


--------------------------------------------------------------------------------------------------------




 Dimension of arrays:
   k-points           NKPTS =    182   k-points in BZ     NKDIM =    182   number of bands    NBANDS=      8
   number of dos      NEDOS =    301   number of ions     NIONS =      2
   non local maximal  LDIM  =      4   non local SUM 2l+1 LMDIM =      8
   total plane-waves  NPLWV =   4096
   max r-space proj   IRMAX =      1   max aug-charges    IRDMAX=   3621
   dimension x,y,z NGX =    16 NGY =   16 NGZ =   16
   dimension x,y,z NGXF=    32 NGYF=   32 NGZF=   32
   support grid    NGXF=    32 NGYF=   32 NGZF=   32
   ions per type =               2
   NGX,Y,Z   is equivalent  to a cutoff of   6.93,  6.93,  6.93 a.u.
   NGXF,Y,Z  is equivalent  to a cutoff of  13.86, 13.86, 13.86 a.u.

 SYSTEM =  unknown system                          
 POSCAR =  Si2                                     

 Startparameter for this run:
   NWRITE =      2    write-flag & timer
   PREC   = normal    normal or accurate (medium, high low for compatibility)
   ISTART =      0    job   : 0-new  1-cont  2-samecut
   ICHARG =      2    charge: 1-file 2-atom 10-const
   ISPIN  =      1    spin polarized calculation?
   LNONCOLLINEAR =      F non collinear calculations
   LSORBIT =      F    spin-orbit coupling
   INIWAV =      1    electr: 0-lowe 1-rand  2-diag
   LASPH  =      F    aspherical Exc in radial PAW
   METAGGA=      F    non-selfconsistent MetaGGA calc.

 Electronic Relaxation 1
   ENCUT  =  250.0 eV  18.37 Ry    4.29 a.u.   4.95  4.95  4.95*2*pi/ulx,y,z
   ENINI  =  250.0     initial cutoff
   ENAUG  =  322.1 eV  augmentation charge cutoff
   NELM   =     60;   NELMIN=  2; NELMDL= -5     # of ELM steps 
   EDIFF  = 0.4E-03   stopping-criterion for ELM
   LREAL  =      F    real-space projection
   NLSPLINE    = F    spline interpolate recip. space projectors
   LCOMPAT=      F    compatible to vasp.4.4
   GGA_COMPAT  = T    GGA compatible to vasp.4.4-vasp.4.6
   LMAXPAW     = -100 max onsite density
   LMAXMIX     =    2 max onsite mixed and CHGCAR
   VOSKOWN=      0    Vosko Wilk Nusair interpolation
   ROPT   =    0.00000
 Ionic relaxation
   EDIFFG = -.1E-01   stopping-criterion for IOM
   NSW    =     15    number of steps for IOM
   NBLOCK =      1;   KBLOCK =     15    inner block; outer block 
   IBRION =      2    ionic relax: 0-MD 1-quasi-New 2-CG
   NFREE  =      1    steps in history (QN), initial steepest desc. (CG)
   ISIF   =      2    stress and relaxation
   IWAVPR =     11    prediction:  0-non 1-charg 2-wave 3-comb
   ISYM   =      2    0-nonsym 1-usesym 2-fastsym
   LCORR  =      T    Harris-Foulkes like correction to forces

   POTIM  = 0.5000    time-step for ionic-motion
   TEIN   =    0.0    initial temperature
   TEBEG  =    0.0;   TEEND  =   0.0 temperature during run
   SMASS  =  -3.00    Nose mass-parameter (am)
   estimated Nose-frequenzy (Omega)   =  0.10E-29 period in steps =****** mass=  -0.337E-27a.u.
   SCALEE = 1.0000    scale energy and forces
   NPACO  =    256;   APACO  = 16.0  distance and # of slots for P.C.
   PSTRESS=    0.0 pullay stress

  Mass of Ions in am
   POMASS =  28.09
  Ionic Valenz
   ZVAL   =   4.00
  Atomic Wigner-Seitz radii
   RWIGS  =  -1.00
  virtual crystal weights 
   VCA    =   1.00
   NELECT =       8.0000    total number of electrons
   NUPDOWN=      -1.0000    fix difference up-down

 DOS related values:
   EMIN   =  10.00;   EMAX   =-10.00  energy-range for DOS
   EFERMI =   0.00
   ISMEAR =     0;   SIGMA  =   0.20  broadening in eV -4-tet -1-fermi 0-gaus

 Electronic relaxation 2 (details)
   IALGO  =     38    algorithm
   LDIAG  =      T    sub-space diagonalisation (order eigenvalues)
   LSUBROT=      F    optimize rotation matrix (better conditioning)
   TURBO    =      0    0=normal 1=particle mesh
   IRESTART =      0    0=no restart 2=restart with 2 vectors
   NREBOOT  =      0    no. of reboots
   NMIN     =      0    reboot dimension
   EREF     =   0.00    reference energy to select bands
   IMIX   =      4    mixing-type and parameters
     AMIX     =   0.40;   BMIX     =  1.00
     AMIX_MAG =   1.60;   BMIX_MAG =  1.00
     AMIN     =   0.10
     WC   =   100.;   INIMIX=   1;  MIXPRE=   1;  MAXMIX= -45

 Intra band minimization:
   WEIMIN = 0.0010     energy-eigenvalue tresh-hold
   EBREAK =  0.13E-04  absolut break condition
   DEPER  =   0.30     relativ break condition  

   TIME   =   0.40     timestep for ELM

  volume/ion in A,a.u.               =      20.01       135.05
  Fermi-wavevector in a.u.,A,eV,Ry     =   0.957176  1.808800 12.465458  0.916185
  Thomas-Fermi vector in A             =   2.086170
 
 Write flags
   LWAVE        =      T    write WAVECAR
   LDOWNSAMPLE  =      F    k-point downsampling of WAVECAR
   LCHARG       =      T    write CHGCAR
   LVTOT        =      F    write LOCPOT, total local potential
   LVHAR        =      F    write LOCPOT, Hartree potential only
   LELF         =      F    write electronic localiz. function (ELF)
   LORBIT       =      0    0 simple, 1 ext, 2 COOP (PROOUT), +10 PAW based schemes


 Dipole corrections
   LMONO  =      F    monopole corrections only (constant potential shift)
   LDIPOL =      F    correct potential (dipole corrections)
   IDIPOL =      0    1-x, 2-y, 3-z, 4-all directions 
   EPSILON=  1.0000000 bulk dielectric constant

 Exchange correlation treatment:
   GGA     =    --    GGA type
   LEXCH   =     8    internal setting for exchange type
   VOSKOWN=      0    Vosko Wilk Nusair interpolation
   LHFCALC =     F    Hartree Fock is set to
   LHFONE  =     F    Hartree Fock one center treatment
   AEXX    =    0.0000 exact exchange contribution

 Linear response parameters
   LEPSILON=     F    determine dielectric tensor
   LRPA    =     F    only Hartree local field effects (RPA)
   LNABLA  =     F    use nabla operator in PAW spheres
   LVEL    =     F    velocity operator in full k-point grid
   LINTERFAST=   F  fast interpolation
   KINTER  =     0    interpolate to denser k-point grid
   CSHIFT  =0.1000    complex shift for real part using Kramers Kronig
   OMEGAMAX=  -1.0    maximum frequency
   DEG_THRESHOLD= 0.2000000E-02 threshold for treating states as degnerate
   RTIME   =   -0.100 relaxation time in fs
  (WPLASMAI=    0.000 imaginary part of plasma frequency in eV, 0.658/RTIME)
   DFIELD  = 0.0000000 0.0000000 0.0000000 field for delta impulse in time
 
 Orbital magnetization related:
   ORBITALMAG=     F  switch on orbital magnetization
   LCHIMAG   =     F  perturbation theory with respect to B field
   DQ        =  0.001000  dq finite difference perturbation B field
   LLRAUG    =     F  two centre corrections for induced B field



--------------------------------------------------------------------------------------------------------


 conjugate gradient relaxation of ions
 charge density and potential will be updated during run
 non-spin polarized calculation
 Variant of blocked Davidson
 Davidson routine will perform the subspace rotation
 perform sub-space diagonalisation
    after iterative eigenvector-optimisation
 modified Broyden-mixing scheme, WC =      100.0
 initial mixing is a Kerker type mixing with AMIX =  0.4000 and BMIX =      1.0000
 Hartree-type preconditioning will be used
 using additional bands            4
 reciprocal scheme for non local part
 use partial core corrections
 calculate Harris-corrections to forces 
   (improved forces if not selfconsistent)
 use gradient corrections 
 use of overlap-Matrix (Vanderbilt PP)
 Gauss-broadening in eV      SIGMA  =   0.20


--------------------------------------------------------------------------------------------------------


  energy-cutoff  :      250.00
  volume of cell :       40.03
      direct lattice vectors                 reciprocal lattice vectors
     0.000000000  2.715000000  2.715000000    -0.184162063  0.184162063  0.184162063
     2.715000000  0.000000000  2.715000000     0.184162063 -0.184162063  0.184162063
     2.715000000  2.715000000  0.000000000     0.184162063  0.184162063 -0.184162063

  length of vectors
     3.839589822  3.839589822  3.839589822     0.318978049  0.318978049  0.318978049


 
 k-points in units of 2pi/SCALE and weight: Automatic kpoint scheme                 
   0.00767342  0.00767342  0.00767342       0.001
  -0.00767342  0.02302026  0.02302026       0.003
  -0.02302026  0.03836710  0.03836710       0.003
  -0.03836710  0.05371393  0.05371393       0.003
  -0.05371393  0.06906077  0.06906077       0.003
  -0.06906077  0.08440761  0.08440761       0.003
   0.09975445 -0.08440761 -0.08440761       0.003
   0.08440761 -0.06906077 -0.06906077       0.003
   0.06906077 -0.05371393 -0.05371393       0.003
   0.05371393 -0.03836710 -0.03836710       0.003
   0.03836710 -0.02302026 -0.02302026       0.003
   0.02302026 -0.00767342 -0.00767342       0.003
   0.00767342  0.00767342  0.03836710       0.003
  -0.00767342  0.02302026  0.05371393       0.007
  -0.02302026  0.03836710  0.06906077       0.007
  -0.03836710  0.05371393  0.08440761       0.007
  -0.05371393  0.06906077  0.09975445       0.007
   0.11510129 -0.09975445 -0.06906077       0.007
   0.09975445 -0.08440761 -0.05371393       0.007
   0.08440761 -0.06906077 -0.03836710       0.007
   0.06906077 -0.05371393 -0.02302026       0.007
   0.05371393 -0.03836710 -0.00767342       0.007
   0.03836710 -0.02302026  0.00767342       0.007
   0.00767342  0.00767342  0.06906077       0.003
  -0.00767342  0.02302026  0.08440761       0.007
  -0.02302026  0.03836710  0.09975445       0.007
  -0.03836710  0.05371393  0.11510129       0.007
   0.13044813 -0.11510129 -0.05371393       0.007
   0.11510129 -0.09975445 -0.03836710       0.007
   0.09975445 -0.08440761 -0.02302026       0.007
   0.08440761 -0.06906077 -0.00767342       0.007
   0.06906077 -0.05371393  0.00767342       0.007
   0.05371393 -0.03836710  0.02302026       0.007
   0.00767342  0.00767342  0.09975445       0.003
  -0.00767342  0.02302026  0.11510129       0.007
  -0.02302026  0.03836710  0.13044813       0.007
   0.14579497 -0.13044813 -0.03836710       0.007
   0.13044813 -0.11510129 -0.02302026       0.007
   0.11510129 -0.09975445 -0.00767342       0.007
   0.09975445 -0.08440761  0.00767342       0.007
   0.08440761 -0.06906077  0.02302026       0.007
   0.06906077 -0.05371393  0.03836710       0.007
   0.00767342  0.00767342  0.13044813       0.003
  -0.00767342  0.02302026  0.14579497       0.007
   0.16114180 -0.14579497 -0.02302026       0.007
   0.14579497 -0.13044813 -0.00767342       0.007
   0.13044813 -0.11510129  0.00767342       0.007
   0.11510129 -0.09975445  0.02302026       0.007
   0.09975445 -0.08440761  0.03836710       0.007
   0.08440761 -0.06906077  0.05371393       0.007
   0.00767342  0.00767342  0.16114180       0.003
   0.17648864 -0.16114180 -0.00767342       0.007
   0.16114180 -0.14579497  0.00767342       0.007
   0.14579497 -0.13044813  0.02302026       0.007
   0.13044813 -0.11510129  0.03836710       0.007
   0.11510129 -0.09975445  0.05371393       0.007
   0.09975445 -0.08440761  0.06906077       0.007
   0.00767342  0.00767342 -0.17648864       0.003
  -0.00767342  0.02302026 -0.16114180       0.007
  -0.02302026  0.03836710 -0.14579497       0.007
  -0.03836710  0.05371393 -0.13044813       0.007
  -0.05371393  0.06906077 -0.11510129       0.007
   0.00767342  0.00767342 -0.14579497       0.003
  -0.00767342  0.02302026 -0.13044813       0.007
  -0.02302026  0.03836710 -0.11510129       0.007
  -0.03836710  0.05371393 -0.09975445       0.007
   0.00767342  0.00767342 -0.11510129       0.003
  -0.00767342  0.02302026 -0.09975445       0.007
  -0.02302026  0.03836710 -0.08440761       0.007
   0.00767342  0.00767342 -0.08440761       0.003
  -0.00767342  0.02302026 -0.06906077       0.007
   0.00767342  0.00767342 -0.05371393       0.003
   0.02302026  0.02302026  0.02302026       0.001
   0.00767342  0.03836710  0.03836710       0.003
  -0.00767342  0.05371393  0.05371393       0.003
  -0.02302026  0.06906077  0.06906077       0.003
  -0.03836710  0.08440761  0.08440761       0.003
   0.13044813 -0.08440761 -0.08440761       0.003
   0.11510129 -0.06906077 -0.06906077       0.003
   0.09975445 -0.05371393 -0.05371393       0.003
   0.08440761 -0.03836710 -0.03836710       0.003
   0.06906077 -0.02302026 -0.02302026       0.003
   0.02302026  0.02302026  0.05371393       0.003
   0.00767342  0.03836710  0.06906077       0.007
  -0.00767342  0.05371393  0.08440761       0.007
  -0.02302026  0.06906077  0.09975445       0.007
   0.14579497 -0.09975445 -0.06906077       0.007
   0.13044813 -0.08440761 -0.05371393       0.007
   0.11510129 -0.06906077 -0.03836710       0.007
   0.09975445 -0.05371393 -0.02302026       0.007
   0.08440761 -0.03836710 -0.00767342       0.007
   0.02302026  0.02302026  0.08440761       0.003
   0.00767342  0.03836710  0.09975445       0.007
  -0.00767342  0.05371393  0.11510129       0.007
   0.16114180 -0.11510129 -0.05371393       0.007
   0.14579497 -0.09975445 -0.03836710       0.007
   0.13044813 -0.08440761 -0.02302026       0.007
   0.11510129 -0.06906077 -0.00767342       0.007
   0.09975445 -0.05371393  0.00767342       0.007
   0.02302026  0.02302026  0.11510129       0.003
   0.00767342  0.03836710  0.13044813       0.007
   0.17648864 -0.13044813 -0.03836710       0.007
   0.16114180 -0.11510129 -0.02302026       0.007
   0.14579497 -0.09975445 -0.00767342       0.007
   0.13044813 -0.08440761  0.00767342       0.007
   0.11510129 -0.06906077  0.02302026       0.007
   0.02302026  0.02302026  0.14579497       0.003
   0.19183548 -0.14579497 -0.02302026       0.007
   0.17648864 -0.13044813 -0.00767342       0.007
   0.16114180 -0.11510129  0.00767342       0.007
   0.14579497 -0.09975445  0.02302026       0.007
   0.13044813 -0.08440761  0.03836710       0.007
   0.02302026  0.02302026 -0.19183548       0.003
   0.00767342  0.03836710 -0.17648864       0.007
  -0.00767342  0.05371393 -0.16114180       0.007
  -0.02302026  0.06906077 -0.14579497       0.007
   0.02302026  0.02302026 -0.16114180       0.003
   0.00767342  0.03836710 -0.14579497       0.007
  -0.00767342  0.05371393 -0.13044813       0.007
   0.02302026  0.02302026 -0.13044813       0.003
   0.00767342  0.03836710 -0.11510129       0.007
   0.02302026  0.02302026 -0.09975445       0.003
   0.03836710  0.03836710  0.03836710       0.001
   0.02302026  0.05371393  0.05371393       0.003
   0.00767342  0.06906077  0.06906077       0.003
  -0.00767342  0.08440761  0.08440761       0.003
   0.16114180 -0.08440761 -0.08440761       0.003
   0.14579497 -0.06906077 -0.06906077       0.003
   0.13044813 -0.05371393 -0.05371393       0.003
   0.11510129 -0.03836710 -0.03836710       0.003
   0.03836710  0.03836710  0.06906077       0.003
   0.02302026  0.05371393  0.08440761       0.007
   0.00767342  0.06906077  0.09975445       0.007
   0.17648864 -0.09975445 -0.06906077       0.007
   0.16114180 -0.08440761 -0.05371393       0.007
   0.14579497 -0.06906077 -0.03836710       0.007
   0.13044813 -0.05371393 -0.02302026       0.007
   0.03836710  0.03836710  0.09975445       0.003
   0.02302026  0.05371393  0.11510129       0.007
   0.19183548 -0.11510129 -0.05371393       0.007
   0.17648864 -0.09975445 -0.03836710       0.007
   0.16114180 -0.08440761 -0.02302026       0.007
   0.14579497 -0.06906077 -0.00767342       0.007
   0.03836710  0.03836710  0.13044813       0.003
   0.20718232 -0.13044813 -0.03836710       0.007
   0.19183548 -0.11510129 -0.02302026       0.007
   0.17648864 -0.09975445 -0.00767342       0.007
   0.16114180 -0.08440761  0.00767342       0.007
   0.03836710  0.03836710 -0.20718232       0.003
   0.02302026  0.05371393 -0.19183548       0.007
   0.00767342  0.06906077 -0.17648864       0.007
   0.03836710  0.03836710 -0.17648864       0.003
   0.02302026  0.05371393 -0.16114180       0.007
   0.03836710  0.03836710 -0.14579497       0.003
   0.05371393  0.05371393  0.05371393       0.001
   0.03836710  0.06906077  0.06906077       0.003
   0.02302026  0.08440761  0.08440761       0.003
   0.19183548 -0.08440761 -0.08440761       0.003
   0.17648864 -0.06906077 -0.06906077       0.003
   0.16114180 -0.05371393 -0.05371393       0.003
   0.05371393  0.05371393  0.08440761       0.003
   0.03836710  0.06906077  0.09975445       0.007
   0.20718232 -0.09975445 -0.06906077       0.007
   0.19183548 -0.08440761 -0.05371393       0.007
   0.17648864 -0.06906077 -0.03836710       0.007
   0.05371393  0.05371393  0.11510129       0.003
   0.22252916 -0.11510129 -0.05371393       0.007
   0.20718232 -0.09975445 -0.03836710       0.007
   0.19183548 -0.08440761 -0.02302026       0.007
   0.05371393  0.05371393 -0.22252916       0.003
   0.03836710  0.06906077 -0.20718232       0.007
   0.05371393  0.05371393 -0.19183548       0.003
   0.06906077  0.06906077  0.06906077       0.001
   0.05371393  0.08440761  0.08440761       0.003
   0.22252916 -0.08440761 -0.08440761       0.003
   0.20718232 -0.06906077 -0.06906077       0.003
   0.06906077  0.06906077  0.09975445       0.003
   0.23787600 -0.09975445 -0.06906077       0.007
   0.22252916 -0.08440761 -0.05371393       0.007
   0.06906077  0.06906077 -0.23787600       0.003
   0.08440761  0.08440761  0.08440761       0.001
   0.25322284 -0.08440761 -0.08440761       0.003
 
 k-points in reciprocal lattice and weights: Automatic kpoint scheme                 
   0.04166667  0.04166667  0.04166667       0.001
   0.12500000  0.04166667  0.04166667       0.003
   0.20833333  0.04166667  0.04166667       0.003
   0.29166667  0.04166667  0.04166667       0.003
   0.37500000  0.04166667  0.04166667       0.003
   0.45833333  0.04166667  0.04166667       0.003
  -0.45833333  0.04166667  0.04166667       0.003
  -0.37500000  0.04166667  0.04166667       0.003
  -0.29166667  0.04166667  0.04166667       0.003
  -0.20833333  0.04166667  0.04166667       0.003
  -0.12500000  0.04166667  0.04166667       0.003
  -0.04166667  0.04166667  0.04166667       0.003
   0.12500000  0.12500000  0.04166667       0.003
   0.20833333  0.12500000  0.04166667       0.007
   0.29166667  0.12500000  0.04166667       0.007
   0.37500000  0.12500000  0.04166667       0.007
   0.45833333  0.12500000  0.04166667       0.007
  -0.45833333  0.12500000  0.04166667       0.007
  -0.37500000  0.12500000  0.04166667       0.007
  -0.29166667  0.12500000  0.04166667       0.007
  -0.20833333  0.12500000  0.04166667       0.007
  -0.12500000  0.12500000  0.04166667       0.007
  -0.04166667  0.12500000  0.04166667       0.007
   0.20833333  0.20833333  0.04166667       0.003
   0.29166667  0.20833333  0.04166667       0.007
   0.37500000  0.20833333  0.04166667       0.007
   0.45833333  0.20833333  0.04166667       0.007
  -0.45833333  0.20833333  0.04166667       0.007
  -0.37500000  0.20833333  0.04166667       0.007
  -0.29166667  0.20833333  0.04166667       0.007
  -0.20833333  0.20833333  0.04166667       0.007
  -0.12500000  0.20833333  0.04166667       0.007
  -0.04166667  0.20833333  0.04166667       0.007
   0.29166667  0.29166667  0.04166667       0.003
   0.37500000  0.29166667  0.04166667       0.007
   0.45833333  0.29166667  0.04166667       0.007
  -0.45833333  0.29166667  0.04166667       0.007
  -0.37500000  0.29166667  0.04166667       0.007
  -0.29166667  0.29166667  0.04166667       0.007
  -0.20833333  0.29166667  0.04166667       0.007
  -0.12500000  0.29166667  0.04166667       0.007
  -0.04166667  0.29166667  0.04166667       0.007
   0.37500000  0.37500000  0.04166667       0.003
   0.45833333  0.37500000  0.04166667       0.007
  -0.45833333  0.37500000  0.04166667       0.007
  -0.37500000  0.37500000  0.04166667       0.007
  -0.29166667  0.37500000  0.04166667       0.007
  -0.20833333  0.37500000  0.04166667       0.007
  -0.12500000  0.37500000  0.04166667       0.007
  -0.04166667  0.37500000  0.04166667       0.007
   0.45833333  0.45833333  0.04166667       0.003
  -0.45833333  0.45833333  0.04166667       0.007
  -0.37500000  0.45833333  0.04166667       0.007
  -0.29166667  0.45833333  0.04166667       0.007
  -0.20833333  0.45833333  0.04166667       0.007
  -0.12500000  0.45833333  0.04166667       0.007
  -0.04166667  0.45833333  0.04166667       0.007
  -0.45833333 -0.45833333  0.04166667       0.003
  -0.37500000 -0.45833333  0.04166667       0.007
  -0.29166667 -0.45833333  0.04166667       0.007
  -0.20833333 -0.45833333  0.04166667       0.007
  -0.12500000 -0.45833333  0.04166667       0.007
  -0.37500000 -0.37500000  0.04166667       0.003
  -0.29166667 -0.37500000  0.04166667       0.007
  -0.20833333 -0.37500000  0.04166667       0.007
  -0.12500000 -0.37500000  0.04166667       0.007
  -0.29166667 -0.29166667  0.04166667       0.003
  -0.20833333 -0.29166667  0.04166667       0.007
  -0.12500000 -0.29166667  0.04166667       0.007
  -0.20833333 -0.20833333  0.04166667       0.003
  -0.12500000 -0.20833333  0.04166667       0.007
  -0.12500000 -0.12500000  0.04166667       0.003
   0.12500000  0.12500000  0.12500000       0.001
   0.20833333  0.12500000  0.12500000       0.003
   0.29166667  0.12500000  0.12500000       0.003
   0.37500000  0.12500000  0.12500000       0.003
   0.45833333  0.12500000  0.12500000       0.003
  -0.45833333  0.12500000  0.12500000       0.003
  -0.37500000  0.12500000  0.12500000       0.003
  -0.29166667  0.12500000  0.12500000       0.003
  -0.20833333  0.12500000  0.12500000       0.003
  -0.12500000  0.12500000  0.12500000       0.003
   0.20833333  0.20833333  0.12500000       0.003
   0.29166667  0.20833333  0.12500000       0.007
   0.37500000  0.20833333  0.12500000       0.007
   0.45833333  0.20833333  0.12500000       0.007
  -0.45833333  0.20833333  0.12500000       0.007
  -0.37500000  0.20833333  0.12500000       0.007
  -0.29166667  0.20833333  0.12500000       0.007
  -0.20833333  0.20833333  0.12500000       0.007
  -0.12500000  0.20833333  0.12500000       0.007
   0.29166667  0.29166667  0.12500000       0.003
   0.37500000  0.29166667  0.12500000       0.007
   0.45833333  0.29166667  0.12500000       0.007
  -0.45833333  0.29166667  0.12500000       0.007
  -0.37500000  0.29166667  0.12500000       0.007
  -0.29166667  0.29166667  0.12500000       0.007
  -0.20833333  0.29166667  0.12500000       0.007
  -0.12500000  0.29166667  0.12500000       0.007
   0.37500000  0.37500000  0.12500000       0.003
   0.45833333  0.37500000  0.12500000       0.007
  -0.45833333  0.37500000  0.12500000       0.007
  -0.37500000  0.37500000  0.12500000       0.007
  -0.29166667  0.37500000  0.12500000       0.007
  -0.20833333  0.37500000  0.12500000       0.007
  -0.12500000  0.37500000  0.12500000       0.007
   0.45833333  0.45833333  0.12500000       0.003
  -0.45833333  0.45833333  0.12500000       0.007
  -0.37500000  0.45833333  0.12500000       0.007
  -0.29166667  0.45833333  0.12500000       0.007
  -0.20833333  0.45833333  0.12500000       0.007
  -0.12500000  0.45833333  0.12500000       0.007
  -0.45833333 -0.45833333  0.12500000       0.003
  -0.37500000 -0.45833333  0.12500000       0.007
  -0.29166667 -0.45833333  0.12500000       0.007
  -0.20833333 -0.45833333  0.12500000       0.007
  -0.37500000 -0.37500000  0.12500000       0.003
  -0.29166667 -0.37500000  0.12500000       0.007
  -0.20833333 -0.37500000  0.12500000       0.007
  -0.29166667 -0.29166667  0.12500000       0.003
  -0.20833333 -0.29166667  0.12500000       0.007
  -0.20833333 -0.20833333  0.12500000       0.003
   0.20833333  0.20833333  0.20833333       0.001
   0.29166667  0.20833333  0.20833333       0.003
   0.37500000  0.20833333  0.20833333       0.003
   0.45833333  0.20833333  0.20833333       0.003
  -0.45833333  0.20833333  0.20833333       0.003
  -0.37500000  0.20833333  0.20833333       0.003
  -0.29166667  0.20833333  0.20833333       0.003
  -0.20833333  0.20833333  0.20833333       0.003
   0.29166667  0.29166667  0.20833333       0.003
   0.37500000  0.29166667  0.20833333       0.007
   0.45833333  0.29166667  0.20833333       0.007
  -0.45833333  0.29166667  0.20833333       0.007
  -0.37500000  0.29166667  0.20833333       0.007
  -0.29166667  0.29166667  0.20833333       0.007
  -0.20833333  0.29166667  0.20833333       0.007
   0.37500000  0.37500000  0.20833333       0.003
   0.45833333  0.37500000  0.20833333       0.007
  -0.45833333  0.37500000  0.20833333       0.007
  -0.37500000  0.37500000  0.20833333       0.007
  -0.29166667  0.37500000  0.20833333       0.007
  -0.20833333  0.37500000  0.20833333       0.007
   0.45833333  0.45833333  0.20833333       0.003
  -0.45833333  0.45833333  0.20833333       0.007
  -0.37500000  0.45833333  0.20833333       0.007
  -0.29166667  0.45833333  0.20833333       0.007
  -0.20833333  0.45833333  0.20833333       0.007
  -0.45833333 -0.45833333  0.20833333       0.003
  -0.37500000 -0.45833333  0.20833333       0.007
  -0.29166667 -0.45833333  0.20833333       0.007
  -0.37500000 -0.37500000  0.20833333       0.003
  -0.29166667 -0.37500000  0.20833333       0.007
  -0.29166667 -0.29166667  0.20833333       0.003
   0.29166667  0.29166667  0.29166667       0.001
   0.37500000  0.29166667  0.29166667       0.003
   0.45833333  0.29166667  0.29166667       0.003
  -0.45833333  0.29166667  0.29166667       0.003
  -0.37500000  0.29166667  0.29166667       0.003
  -0.29166667  0.29166667  0.29166667       0.003
   0.37500000  0.37500000  0.29166667       0.003
   0.45833333  0.37500000  0.29166667       0.007
  -0.45833333  0.37500000  0.29166667       0.007
  -0.37500000  0.37500000  0.29166667       0.007
  -0.29166667  0.37500000  0.29166667       0.007
   0.45833333  0.45833333  0.29166667       0.003
  -0.45833333  0.45833333  0.29166667       0.007
  -0.37500000  0.45833333  0.29166667       0.007
  -0.29166667  0.45833333  0.29166667       0.007
  -0.45833333 -0.45833333  0.29166667       0.003
  -0.37500000 -0.45833333  0.29166667       0.007
  -0.37500000 -0.37500000  0.29166667       0.003
   0.37500000  0.37500000  0.37500000       0.001
   0.45833333  0.37500000  0.37500000       0.003
  -0.45833333  0.37500000  0.37500000       0.003
  -0.37500000  0.37500000  0.37500000       0.003
   0.45833333  0.45833333  0.37500000       0.003
  -0.45833333  0.45833333  0.37500000       0.007
  -0.37500000  0.45833333  0.37500000       0.007
  -0.45833333 -0.45833333  0.37500000       0.003
   0.45833333  0.45833333  0.45833333       0.001
  -0.45833333  0.45833333  0.45833333       0.003
 
 position of ions in fractional coordinates (direct lattice) 
   0.50000000  0.50000000  0.50000000
   0.75000000  0.75000000  0.75000000
 
 position of ions in cartesian coordinates  (Angst):
   2.71500000  2.71500000  2.71500000
   4.07250000  4.07250000  4.07250000
 


--------------------------------------------------------------------------------------------------------


 k-point  1 :   0.0417 0.0417 0.0417  plane waves:     339
 k-point  2 :   0.1250 0.0417 0.0417  plane waves:     341
 k-point  3 :   0.2083 0.0417 0.0417  plane waves:     356
 k-point  4 :   0.2917 0.0417 0.0417  plane waves:     353
 k-point  5 :   0.3750 0.0417 0.0417  plane waves:     357
 k-point  6 :   0.4583 0.0417 0.0417  plane waves:     358
 k-point  7 :  -0.4583 0.0417 0.0417  plane waves:     358
 k-point  8 :  -0.3750 0.0417 0.0417  plane waves:     357
 k-point  9 :  -0.2917 0.0417 0.0417  plane waves:     359
 k-point 10 :  -0.2083 0.0417 0.0417  plane waves:     356
 k-point 11 :  -0.1250 0.0417 0.0417  plane waves:     352
 k-point 12 :  -0.0417 0.0417 0.0417  plane waves:     336
 k-point 13 :   0.1250 0.1250 0.0417  plane waves:     343
 k-point 14 :   0.2083 0.1250 0.0417  plane waves:     352
 k-point 15 :   0.2917 0.1250 0.0417  plane waves:     355
 k-point 16 :   0.3750 0.1250 0.0417  plane waves:     357
 k-point 17 :   0.4583 0.1250 0.0417  plane waves:     360
 k-point 18 :  -0.4583 0.1250 0.0417  plane waves:     362
 k-point 19 :  -0.3750 0.1250 0.0417  plane waves:     361
 k-point 20 :  -0.2917 0.1250 0.0417  plane waves:     358
 k-point 21 :  -0.2083 0.1250 0.0417  plane waves:     356
 k-point 22 :  -0.1250 0.1250 0.0417  plane waves:     355
 k-point 23 :  -0.0417 0.1250 0.0417  plane waves:     349
 k-point 24 :   0.2083 0.2083 0.0417  plane waves:     353
 k-point 25 :   0.2917 0.2083 0.0417  plane waves:     352
 k-point 26 :   0.3750 0.2083 0.0417  plane waves:     353
 k-point 27 :   0.4583 0.2083 0.0417  plane waves:     359
 k-point 28 :  -0.4583 0.2083 0.0417  plane waves:     364
 k-point 29 :  -0.3750 0.2083 0.0417  plane waves:     364
 k-point 30 :  -0.2917 0.2083 0.0417  plane waves:     360
 k-point 31 :  -0.2083 0.2083 0.0417  plane waves:     358
 k-point 32 :  -0.1250 0.2083 0.0417  plane waves:     355
 k-point 33 :  -0.0417 0.2083 0.0417  plane waves:     356
 k-point 34 :   0.2917 0.2917 0.0417  plane waves:     350
 k-point 35 :   0.3750 0.2917 0.0417  plane waves:     355
 k-point 36 :   0.4583 0.2917 0.0417  plane waves:     355
 k-point 37 :  -0.4583 0.2917 0.0417  plane waves:     362
 k-point 38 :  -0.3750 0.2917 0.0417  plane waves:     365
 k-point 39 :  -0.2917 0.2917 0.0417  plane waves:     363
 k-point 40 :  -0.2083 0.2917 0.0417  plane waves:     360
 k-point 41 :  -0.1250 0.2917 0.0417  plane waves:     357
 k-point 42 :  -0.0417 0.2917 0.0417  plane waves:     354
 k-point 43 :   0.3750 0.3750 0.0417  plane waves:     353
 k-point 44 :   0.4583 0.3750 0.0417  plane waves:     356
 k-point 45 :  -0.4583 0.3750 0.0417  plane waves:     360
 k-point 46 :  -0.3750 0.3750 0.0417  plane waves:     367
 k-point 47 :  -0.2917 0.3750 0.0417  plane waves:     364
 k-point 48 :  -0.2083 0.3750 0.0417  plane waves:     363
 k-point 49 :  -0.1250 0.3750 0.0417  plane waves:     361
 k-point 50 :  -0.0417 0.3750 0.0417  plane waves:     355
 k-point 51 :   0.4583 0.4583 0.0417  plane waves:     355
 k-point 52 :  -0.4583 0.4583 0.0417  plane waves:     358
 k-point 53 :  -0.3750 0.4583 0.0417  plane waves:     361
 k-point 54 :  -0.2917 0.4583 0.0417  plane waves:     362
 k-point 55 :  -0.2083 0.4583 0.0417  plane waves:     364
 k-point 56 :  -0.1250 0.4583 0.0417  plane waves:     362
 k-point 57 :  -0.0417 0.4583 0.0417  plane waves:     360
 k-point 58 :  -0.4583-0.4583 0.0417  plane waves:     353
 k-point 59 :  -0.3750-0.4583 0.0417  plane waves:     358
 k-point 60 :  -0.2917-0.4583 0.0417  plane waves:     357
 k-point 61 :  -0.2083-0.4583 0.0417  plane waves:     362
 k-point 62 :  -0.1250-0.4583 0.0417  plane waves:     360
 k-point 63 :  -0.3750-0.3750 0.0417  plane waves:     357
 k-point 64 :  -0.2917-0.3750 0.0417  plane waves:     355
 k-point 65 :  -0.2083-0.3750 0.0417  plane waves:     354
 k-point 66 :  -0.1250-0.3750 0.0417  plane waves:     359
 k-point 67 :  -0.2917-0.2917 0.0417  plane waves:     351
 k-point 68 :  -0.2083-0.2917 0.0417  plane waves:     354
 k-point 69 :  -0.1250-0.2917 0.0417  plane waves:     355
 k-point 70 :  -0.2083-0.2083 0.0417  plane waves:     349
 k-point 71 :  -0.1250-0.2083 0.0417  plane waves:     355
 k-point 72 :  -0.1250-0.1250 0.0417  plane waves:     351
 k-point 73 :   0.1250 0.1250 0.1250  plane waves:     344
 k-point 74 :   0.2083 0.1250 0.1250  plane waves:     355
 k-point 75 :   0.2917 0.1250 0.1250  plane waves:     359
 k-point 76 :   0.3750 0.1250 0.1250  plane waves:     355
 k-point 77 :   0.4583 0.1250 0.1250  plane waves:     360
 k-point 78 :  -0.4583 0.1250 0.1250  plane waves:     361
 k-point 79 :  -0.3750 0.1250 0.1250  plane waves:     363
 k-point 80 :  -0.2917 0.1250 0.1250  plane waves:     362
 k-point 81 :  -0.2083 0.1250 0.1250  plane waves:     356
 k-point 82 :  -0.1250 0.1250 0.1250  plane waves:     357
 k-point 83 :   0.2083 0.2083 0.1250  plane waves:     351
 k-point 84 :   0.2917 0.2083 0.1250  plane waves:     353
 k-point 85 :   0.3750 0.2083 0.1250  plane waves:     354
 k-point 86 :   0.4583 0.2083 0.1250  plane waves:     358
 k-point 87 :  -0.4583 0.2083 0.1250  plane waves:     365
 k-point 88 :  -0.3750 0.2083 0.1250  plane waves:     364
 k-point 89 :  -0.2917 0.2083 0.1250  plane waves:     365
 k-point 90 :  -0.2083 0.2083 0.1250  plane waves:     355
 k-point 91 :  -0.1250 0.2083 0.1250  plane waves:     354
 k-point 92 :   0.2917 0.2917 0.1250  plane waves:     354
 k-point 93 :   0.3750 0.2917 0.1250  plane waves:     354
 k-point 94 :   0.4583 0.2917 0.1250  plane waves:     356
 k-point 95 :  -0.4583 0.2917 0.1250  plane waves:     362
 k-point 96 :  -0.3750 0.2917 0.1250  plane waves:     365
 k-point 97 :  -0.2917 0.2917 0.1250  plane waves:     364
 k-point 98 :  -0.2083 0.2917 0.1250  plane waves:     357
 k-point 99 :  -0.1250 0.2917 0.1250  plane waves:     356
 k-point ** :   0.3750 0.3750 0.1250  plane waves:     355
 k-point ** :   0.4583 0.3750 0.1250  plane waves:     353
 k-point ** :  -0.4583 0.3750 0.1250  plane waves:     356
 k-point ** :  -0.3750 0.3750 0.1250  plane waves:     365
 k-point ** :  -0.2917 0.3750 0.1250  plane waves:     366
 k-point ** :  -0.2083 0.3750 0.1250  plane waves:     362
 k-point ** :  -0.1250 0.3750 0.1250  plane waves:     360
 k-point ** :   0.4583 0.4583 0.1250  plane waves:     358
 k-point ** :  -0.4583 0.4583 0.1250  plane waves:     360
 k-point ** :  -0.3750 0.4583 0.1250  plane waves:     363
 k-point ** :  -0.2917 0.4583 0.1250  plane waves:     367
 k-point ** :  -0.2083 0.4583 0.1250  plane waves:     366
 k-point ** :  -0.1250 0.4583 0.1250  plane waves:     365
 k-point ** :  -0.4583-0.4583 0.1250  plane waves:     360
 k-point ** :  -0.3750-0.4583 0.1250  plane waves:     362
 k-point ** :  -0.2917-0.4583 0.1250  plane waves:     359
 k-point ** :  -0.2083-0.4583 0.1250  plane waves:     364
 k-point ** :  -0.3750-0.3750 0.1250  plane waves:     360
 k-point ** :  -0.2917-0.3750 0.1250  plane waves:     356
 k-point ** :  -0.2083-0.3750 0.1250  plane waves:     356
 k-point ** :  -0.2917-0.2917 0.1250  plane waves:     356
 k-point ** :  -0.2083-0.2917 0.1250  plane waves:     353
 k-point ** :  -0.2083-0.2083 0.1250  plane waves:     355
 k-point ** :   0.2083 0.2083 0.2083  plane waves:     356
 k-point ** :   0.2917 0.2083 0.2083  plane waves:     356
 k-point ** :   0.3750 0.2083 0.2083  plane waves:     359
 k-point ** :   0.4583 0.2083 0.2083  plane waves:     361
 k-point ** :  -0.4583 0.2083 0.2083  plane waves:     361
 k-point ** :  -0.3750 0.2083 0.2083  plane waves:     367
 k-point ** :  -0.2917 0.2083 0.2083  plane waves:     362
 k-point ** :  -0.2083 0.2083 0.2083  plane waves:     356
 k-point ** :   0.2917 0.2917 0.2083  plane waves:     354
 k-point ** :   0.3750 0.2917 0.2083  plane waves:     357
 k-point ** :   0.4583 0.2917 0.2083  plane waves:     357
 k-point ** :  -0.4583 0.2917 0.2083  plane waves:     361
 k-point ** :  -0.3750 0.2917 0.2083  plane waves:     366
 k-point ** :  -0.2917 0.2917 0.2083  plane waves:     365
 k-point ** :  -0.2083 0.2917 0.2083  plane waves:     360
 k-point ** :   0.3750 0.3750 0.2083  plane waves:     356
 k-point ** :   0.4583 0.3750 0.2083  plane waves:     359
 k-point ** :  -0.4583 0.3750 0.2083  plane waves:     361
 k-point ** :  -0.3750 0.3750 0.2083  plane waves:     365
 k-point ** :  -0.2917 0.3750 0.2083  plane waves:     367
 k-point ** :  -0.2083 0.3750 0.2083  plane waves:     360
 k-point ** :   0.4583 0.4583 0.2083  plane waves:     358
 k-point ** :  -0.4583 0.4583 0.2083  plane waves:     360
 k-point ** :  -0.3750 0.4583 0.2083  plane waves:     363
 k-point ** :  -0.2917 0.4583 0.2083  plane waves:     367
 k-point ** :  -0.2083 0.4583 0.2083  plane waves:     368
 k-point ** :  -0.4583-0.4583 0.2083  plane waves:     362
 k-point ** :  -0.3750-0.4583 0.2083  plane waves:     364
 k-point ** :  -0.2917-0.4583 0.2083  plane waves:     368
 k-point ** :  -0.3750-0.3750 0.2083  plane waves:     366
 k-point ** :  -0.2917-0.3750 0.2083  plane waves:     362
 k-point ** :  -0.2917-0.2917 0.2083  plane waves:     358
 k-point ** :   0.2917 0.2917 0.2917  plane waves:     353
 k-point ** :   0.3750 0.2917 0.2917  plane waves:     356
 k-point ** :   0.4583 0.2917 0.2917  plane waves:     356
 k-point ** :  -0.4583 0.2917 0.2917  plane waves:     365
 k-point ** :  -0.3750 0.2917 0.2917  plane waves:     362
 k-point ** :  -0.2917 0.2917 0.2917  plane waves:     362
 k-point ** :   0.3750 0.3750 0.2917  plane waves:     357
 k-point ** :   0.4583 0.3750 0.2917  plane waves:     361
 k-point ** :  -0.4583 0.3750 0.2917  plane waves:     362
 k-point ** :  -0.3750 0.3750 0.2917  plane waves:     363
 k-point ** :  -0.2917 0.3750 0.2917  plane waves:     367
 k-point ** :   0.4583 0.4583 0.2917  plane waves:     361
 k-point ** :  -0.4583 0.4583 0.2917  plane waves:     364
 k-point ** :  -0.3750 0.4583 0.2917  plane waves:     367
 k-point ** :  -0.2917 0.4583 0.2917  plane waves:     369
 k-point ** :  -0.4583-0.4583 0.2917  plane waves:     362
 k-point ** :  -0.3750-0.4583 0.2917  plane waves:     365
 k-point ** :  -0.3750-0.3750 0.2917  plane waves:     366
 k-point ** :   0.3750 0.3750 0.3750  plane waves:     359
 k-point ** :   0.4583 0.3750 0.3750  plane waves:     357
 k-point ** :  -0.4583 0.3750 0.3750  plane waves:     361
 k-point ** :  -0.3750 0.3750 0.3750  plane waves:     363
 k-point ** :   0.4583 0.4583 0.3750  plane waves:     362
 k-point ** :  -0.4583 0.4583 0.3750  plane waves:     364
 k-point ** :  -0.3750 0.4583 0.3750  plane waves:     365
 k-point ** :  -0.4583-0.4583 0.3750  plane waves:     363
 k-point ** :   0.4583 0.4583 0.4583  plane waves:     356
 k-point ** :  -0.4583 0.4583 0.4583  plane waves:     360

 maximum and minimum number of plane-waves per node :       369      336

 maximum number of plane-waves:       369
 maximum index in each direction: 
   IXMAX=    5   IYMAX=    5   IZMAX=    4
   IXMIN=   -5   IYMIN=   -5   IZMIN=   -5


 serial   3D FFT for wavefunctions
 parallel 3D FFT for charge:
    minimum data exchange during FFTs selected (reduces bandwidth)


 total amount of memory used by VASP MPI-rank0    36070. kBytes
=======================================================================

   base      :      30000. kBytes
   nonl-proj :       4391. kBytes
   fftplans  :        160. kBytes
   grid      :        372. kBytes
   one-center:          6. kBytes
   wavefun   :       1141. kBytes
 
     INWAV:  cpu time    0.0000: real time    0.0004
 Broyden mixing: mesh for mixing (old mesh)
   NGX =  9   NGY =  9   NGZ =  9
  (NGX  = 32   NGY  = 32   NGZ  = 32)
  gives a total of    729 points

 initial charge density was supplied:
 charge density of overlapping atoms calculated
 number of electron       8.0000000 magnetization 
 keeping initial charge density in first step


--------------------------------------------------------------------------------------------------------


 Maximum index for augmentation-charges          433 (set IRDMAX)


--------------------------------------------------------------------------------------------------------


 First call to EWALD:  gamma=   0.518
 Maximum number of real-space cells 3x 3x 3
 Maximum number of reciprocal cells 3x 3x 3

    FEWALD:  cpu time    0.0080: real time    0.0079


--------------------------------------- Iteration      1(   1)  ---------------------------------------


    POTLOK:  cpu time    0.0240: real time    0.0370
    SETDIJ:  cpu time    0.0080: real time    0.0087
     EDDAV:  cpu time    1.3720: real time    1.3796
       DOS:  cpu time    0.0080: real time    0.0074
    --------------------------------------------
      LOOP:  cpu time    1.4120: real time    1.4342

 eigenvalue-minimisations  :  2976
 total energy-change (2. order) : 0.8522749E+00  (-0.2354949E+03)
 number of electron       8.0000000 magnetization 
 augmentation part        8.0000000 magnetization 

 Free energy of the ion-electron system (eV)
  ---------------------------------------------------
  alpha Z        PSCENC =         3.36414203
  Ewald energy   TEWEN  =      -228.56352493
  -Hartree energ DENC   =       -11.00108243
  -exchange      EXHF   =         0.00000000
  -V(xc)+E(xc)   XCENC  =       -18.60181216
  PAW double counting   =        65.95520812      -30.76852678
  entropy T*S    EENTRO =        -0.01338956
  eigenvalues    EBANDS =        14.35776136
  atomic energy  EATOM  =       206.12349923
  Solvation  Ediel_sol  =         0.00000000
  ---------------------------------------------------
  free energy    TOTEN  =         0.85227486 eV

  energy without entropy =        0.86566442  energy(sigma->0) =        0.85896964


--------------------------------------------------------------------------------------------------------




--------------------------------------- Iteration      1(   2)  ---------------------------------------


     EDDAV:  cpu time    2.1840: real time    2.1984
       DOS:  cpu time    0.0080: real time    0.0066
    --------------------------------------------
      LOOP:  cpu time    2.1920: real time    2.2041

 eigenvalue-minimisations  :  4584
 total energy-change (2. order) :-0.1173274E+02  (-0.1115791E+02)
 number of electron       8.0000000 magnetization 
 augmentation part        8.0000000 magnetization 

 Free energy of the ion-electron system (eV)
  ---------------------------------------------------
  alpha Z        PSCENC =         3.36414203
  Ewald energy   TEWEN  =      -228.56352493
  -Hartree energ DENC   =       -11.00108243
  -exchange      EXHF   =         0.00000000
  -V(xc)+E(xc)   XCENC  =       -18.60181216
  PAW double counting   =        65.95520812      -30.76852678
  entropy T*S    EENTRO =        -0.00000267
  eigenvalues    EBANDS =         2.61163309
  atomic energy  EATOM  =       206.12349923
  Solvation  Ediel_sol  =         0.00000000
  ---------------------------------------------------
  free energy    TOTEN  =       -10.88046651 eV

  energy without entropy =      -10.88046384  energy(sigma->0) =      -10.88046518


--------------------------------------------------------------------------------------------------------




--------------------------------------- Iteration      1(   3)  ---------------------------------------


     EDDAV:  cpu time    1.7160: real time    1.7237
       DOS:  cpu time    0.0080: real time    0.0070
    --------------------------------------------
      LOOP:  cpu time    1.7240: real time    1.7308

 eigenvalue-minimisations  :  3624
 total energy-change (2. order) :-0.1220512E+00  (-0.1220512E+00)
 number of electron       8.0000000 magnetization 
 augmentation part        8.0000000 magnetization 

 Free energy of the ion-electron system (eV)
  ---------------------------------------------------
  alpha Z        PSCENC =         3.36414203
  Ewald energy   TEWEN  =      -228.56352493
  -Hartree energ DENC   =       -11.00108243
  -exchange      EXHF   =         0.00000000
  -V(xc)+E(xc)   XCENC  =       -18.60181216
  PAW double counting   =        65.95520812      -30.76852678
  entropy T*S    EENTRO =        -0.00000211
  eigenvalues    EBANDS =         2.48958135
  atomic energy  EATOM  =       206.12349923
  Solvation  Ediel_sol  =         0.00000000
  ---------------------------------------------------
  free energy    TOTEN  =       -11.00251769 eV

  energy without entropy =      -11.00251558  energy(sigma->0) =      -11.00251664


--------------------------------------------------------------------------------------------------------




--------------------------------------- Iteration      1(   4)  ---------------------------------------


     EDDAV:  cpu time    2.3160: real time    2.3241
       DOS:  cpu time    0.0080: real time    0.0071
    --------------------------------------------
      LOOP:  cpu time    2.3240: real time    2.3313

 eigenvalue-minimisations  :  4776
 total energy-change (2. order) :-0.3977944E-03  (-0.3977940E-03)
 number of electron       8.0000000 magnetization 
 augmentation part        8.0000000 magnetization 

 Free energy of the ion-electron system (eV)
  ---------------------------------------------------
  alpha Z        PSCENC =         3.36414203
  Ewald energy   TEWEN  =      -228.56352493
  -Hartree energ DENC   =       -11.00108243
  -exchange      EXHF   =         0.00000000
  -V(xc)+E(xc)   XCENC  =       -18.60181216
  PAW double counting   =        65.95520812      -30.76852678
  entropy T*S    EENTRO =        -0.00000210
  eigenvalues    EBANDS =         2.48918355
  atomic energy  EATOM  =       206.12349923
  Solvation  Ediel_sol  =         0.00000000
  ---------------------------------------------------
  free energy    TOTEN  =       -11.00291549 eV

  energy without entropy =      -11.00291338  energy(sigma->0) =      -11.00291443


--------------------------------------------------------------------------------------------------------




--------------------------------------- Iteration      1(   5)  ---------------------------------------


     EDDAV:  cpu time    1.6960: real time    1.7023
       DOS:  cpu time    0.0040: real time    0.0069
    CHARGE:  cpu time    0.0400: real time    0.0376
    MIXING:  cpu time    0.0000: real time    0.0018
    --------------------------------------------
      LOOP:  cpu time    1.7400: real time    1.7484

 eigenvalue-minimisations  :  3576
 total energy-change (2. order) :-0.2053476E-06  (-0.2052998E-06)
 number of electron       7.9999994 magnetization 
 augmentation part       -0.4695108 magnetization 

 Broyden mixing:
  rms(total) = 0.29990E+00    rms(broyden)= 0.29985E+00
  rms(prec ) = 0.87016E+00
  weight for this iteration     100.00

 Free energy of the ion-electron system (eV)
  ---------------------------------------------------
  alpha Z        PSCENC =         3.36414203
  Ewald energy   TEWEN  =      -228.56352493
  -Hartree energ DENC   =       -11.00108243
  -exchange      EXHF   =         0.00000000
  -V(xc)+E(xc)   XCENC  =       -18.60181216
  PAW double counting   =        65.95520812      -30.76852678
  entropy T*S    EENTRO =        -0.00000210
  eigenvalues    EBANDS =         2.48918335
  atomic energy  EATOM  =       206.12349923
  Solvation  Ediel_sol  =         0.00000000
  ---------------------------------------------------
  free energy    TOTEN  =       -11.00291569 eV

  energy without entropy =      -11.00291359  energy(sigma->0) =      -11.00291464


--------------------------------------------------------------------------------------------------------




--------------------------------------- Iteration      1(   6)  ---------------------------------------


    POTLOK:  cpu time    0.0200: real time    0.0265
    SETDIJ:  cpu time    0.0080: real time    0.0084
     EDDAV:  cpu time    1.5880: real time    1.5891
       DOS:  cpu time    0.0080: real time    0.0073
    CHARGE:  cpu time    0.0360: real time    0.0368
    MIXING:  cpu time    0.0000: real time    0.0018
    --------------------------------------------
      LOOP:  cpu time    1.6600: real time    1.6700

 eigenvalue-minimisations  :  3432
 total energy-change (2. order) : 0.1241135E+00  (-0.8166900E-02)
 number of electron       7.9999994 magnetization 
 augmentation part       -0.4636935 magnetization 

 Broyden mixing:
  rms(total) = 0.17761E+00    rms(broyden)= 0.17761E+00
  rms(prec ) = 0.51202E+00
  weight for this iteration     100.00

 eigenvalues of (default mixing * dielectric matrix)
  average eigenvalue GAMMA=   2.4321
  2.4321

 Free energy of the ion-electron system (eV)
  ---------------------------------------------------
  alpha Z        PSCENC =         3.36414203
  Ewald energy   TEWEN  =      -228.56352493
  -Hartree energ DENC   =       -12.49419470
  -exchange      EXHF   =         0.00000000
  -V(xc)+E(xc)   XCENC  =       -18.36137077
  PAW double counting   =        70.19902986      -35.12542491
  entropy T*S    EENTRO =        -0.00001185
  eigenvalues    EBANDS =         3.97905388
  atomic energy  EATOM  =       206.12349923
  Solvation  Ediel_sol  =         0.00000000
  ---------------------------------------------------
  free energy    TOTEN  =       -10.87880217 eV

  energy without entropy =      -10.87879032  energy(sigma->0) =      -10.87879624


--------------------------------------------------------------------------------------------------------




--------------------------------------- Iteration      1(   7)  ---------------------------------------


    POTLOK:  cpu time    0.0200: real time    0.0271
    SETDIJ:  cpu time    0.0080: real time    0.0084
     EDDAV:  cpu time    1.7400: real time    1.7405
       DOS:  cpu time    0.0080: real time    0.0074
    CHARGE:  cpu time    0.0360: real time    0.0363
    MIXING:  cpu time    0.0000: real time    0.0015
    --------------------------------------------
      LOOP:  cpu time    1.8120: real time    1.8212

 eigenvalue-minimisations  :  3752
 total energy-change (2. order) : 0.5641960E-01  (-0.1498505E-01)
 number of electron       7.9999994 magnetization 
 augmentation part       -0.4567310 magnetization 

 Broyden mixing:
  rms(total) = 0.15286E-01    rms(broyden)= 0.15285E-01
  rms(prec ) = 0.39849E-01
  weight for this iteration     100.00

 eigenvalues of (default mixing * dielectric matrix)
  average eigenvalue GAMMA=   2.4593
  2.4593  2.4593

 Free energy of the ion-electron system (eV)
  ---------------------------------------------------
  alpha Z        PSCENC =         3.36414203
  Ewald energy   TEWEN  =      -228.56352493
  -Hartree energ DENC   =       -14.89193392
  -exchange      EXHF   =         0.00000000
  -V(xc)+E(xc)   XCENC  =       -17.96940177
  PAW double counting   =        75.86855691      -40.94011831
  entropy T*S    EENTRO =        -0.00007651
  eigenvalues    EBANDS =         6.18647470
  atomic energy  EATOM  =       206.12349923
  Solvation  Ediel_sol  =         0.00000000
  ---------------------------------------------------
  free energy    TOTEN  =       -10.82238257 eV

  energy without entropy =      -10.82230606  energy(sigma->0) =      -10.82234431


--------------------------------------------------------------------------------------------------------




--------------------------------------- Iteration      1(   8)  ---------------------------------------


    POTLOK:  cpu time    0.0200: real time    0.0274
[...]
      4       2.2219      2.00000
      5       9.5762      0.00000
      6      10.1556      0.00000
      7      10.8426      0.00000
      8      11.4651      0.00000

 k-point   148 :      -0.2083    0.4583    0.2083
  band No.  band energies     occupation 
      1      -2.4896      2.00000
      2      -1.1974      2.00000
      3       1.7296      2.00000
      4       2.5273      2.00000
      5       9.5884      0.00000
      6       9.9230      0.00000
      7      10.5674      0.00000
      8      12.2043      0.00000

 k-point   149 :      -0.4583   -0.4583    0.2083
  band No.  band energies     occupation 
      1      -2.7699      2.00000
      2      -1.0484      2.00000
      3       1.8766      2.00000
      4       3.3381      2.00000
      5       6.9814      0.00000
      6       9.2465      0.00000
      7      13.1474      0.00000
      8      13.2534      0.00000

 k-point   150 :      -0.3750   -0.4583    0.2083
  band No.  band energies     occupation 
      1      -2.2767      2.00000
      2      -1.5005      2.00000
      3       1.7856      2.00000
      4       2.9394      2.00000
      5       7.4603      0.00000
      6       9.2182      0.00000
      7      12.8064      0.00000
      8      13.6132      0.00000

 k-point   151 :      -0.2917   -0.4583    0.2083
  band No.  band energies     occupation 
      1      -2.1287      2.00000
      2      -1.5705      2.00000
      3       1.9161      2.00000
      4       2.3298      2.00000
      5       8.7146      0.00000
      6       9.3626      0.00000
      7      11.7355      0.00000
      8      12.4704      0.00000

 k-point   152 :      -0.3750   -0.3750    0.2083
  band No.  band energies     occupation 
      1      -2.3333      2.00000
      2      -1.4809      2.00000
      3       1.7369      2.00000
      4       3.2868      2.00000
      5       6.9106      0.00000
      6       9.1679      0.00000
      7      13.7220      0.00000
      8      14.0581      0.00000

 k-point   153 :      -0.2917   -0.3750    0.2083
  band No.  band energies     occupation 
      1      -2.7232      2.00000
      2      -1.0583      2.00000
      3       1.9018      2.00000
      4       3.0185      2.00000
      5       7.5229      0.00000
      6       9.2969      0.00000
      7      12.1200      0.00000
      8      14.1341      0.00000

 k-point   154 :      -0.2917   -0.2917    0.2083
  band No.  band energies     occupation 
      1      -3.2533      2.00000
      2      -0.5738      2.00000
      3       2.1525      2.00000
      4       3.4401      2.00000
      5       7.1204      0.00000
      6       9.4041      0.00000
      7      12.4580      0.00000
      8      12.5227      0.00000

 k-point   155 :       0.2917    0.2917    0.2917
  band No.  band energies     occupation 
      1      -5.0572      2.00000
      2       1.1787      2.00000
      3       4.9455      2.00000
      4       4.9455      2.00000
      5       7.7310      0.00000
      6       9.3857      0.00000
      7       9.3857      0.00000
      8      13.3809      0.00000

 k-point   156 :       0.3750    0.2917    0.2917
  band No.  band energies     occupation 
      1      -4.7793      2.00000
      2       0.7462      2.00000
      3       4.0482      2.00000
      4       4.9914      2.00000
      5       8.1582      0.00000
      6       9.3800      0.00000
      7       9.5428      0.00000
      8      12.8487      0.00000

 k-point   157 :       0.4583    0.2917    0.2917
  band No.  band energies     occupation 
      1      -4.3420      2.00000
      2       0.3773      2.00000
      3       2.8284      2.00000
      4       4.7166      2.00000
      5       8.4630      0.00000
      6       9.9863      0.00000
      7      10.0185      0.00000
      8      12.5193      0.00000

 k-point   158 :      -0.4583    0.2917    0.2917
  band No.  band energies     occupation 
      1      -3.7735      2.00000
      2      -0.0562      2.00000
      3       1.8842      2.00000
      4       4.3027      2.00000
      5       8.0780      0.00000
      6      10.9540      0.00000
      7      11.2272      0.00000
      8      12.4090      0.00000

 k-point   159 :      -0.3750    0.2917    0.2917
  band No.  band energies     occupation 
      1      -3.1600      2.00000
      2      -0.6827      2.00000
      3       1.5324      2.00000
      4       3.9082      2.00000
      5       7.6316      0.00000
      6      11.7808      0.00000
      7      11.9425      0.00000
      8      12.8210      0.00000

 k-point   160 :      -0.2917    0.2917    0.2917
  band No.  band energies     occupation 
      1      -2.8469      2.00000
      2      -1.0490      2.00000
      3       1.6842      2.00000
      4       3.6089      2.00000
      5       7.3011      0.00000
      6      10.8962      0.00000
      7      12.1978      0.00000
      8      12.3253      0.00000

 k-point   161 :       0.3750    0.3750    0.2917
  band No.  band energies     occupation 
      1      -4.5698      2.00000
      2       0.3149      2.00000
      3       4.3980      2.00000
      4       4.4583      2.00000
      5       8.0503      0.00000
      6       9.1368      0.00000
      7       9.8560      0.00000
      8      12.3140      0.00000

 k-point   162 :       0.4583    0.3750    0.2917
  band No.  band energies     occupation 
      1      -4.2016      2.00000
      2      -0.0262      2.00000
      3       3.3207      2.00000
      4       4.3868      2.00000
      5       8.4790      0.00000
      6       9.1407      0.00000
      7      10.4368      0.00000
      8      11.9631      0.00000

 k-point   163 :      -0.4583    0.3750    0.2917
  band No.  band energies     occupation 
      1      -3.6952      2.00000
      2      -0.3177      2.00000
      3       2.2520      2.00000
      4       4.0068      2.00000
      5       8.6392      0.00000
      6       9.5291      0.00000
      7      11.5798      0.00000
      8      11.8674      0.00000

 k-point   164 :      -0.3750    0.3750    0.2917
  band No.  band energies     occupation 
      1      -3.0972      2.00000
      2      -0.7094      2.00000
      3       1.5788      2.00000
      4       3.5691      2.00000
      5       8.1651      0.00000
      6      10.7851      0.00000
      7      11.8354      0.00000
      8      12.7365      0.00000

 k-point   165 :      -0.2917    0.3750    0.2917
  band No.  band energies     occupation 
      1      -2.5770      2.00000
      2      -1.1923      2.00000
      3       1.5068      2.00000
      4       3.2188      2.00000
      5       7.7726      0.00000
      6      10.8401      0.00000
      7      11.8534      0.00000
      8      12.6800      0.00000

 k-point   166 :       0.4583    0.4583    0.2917
  band No.  band energies     occupation 
      1      -3.9103      2.00000
      2      -0.3655      2.00000
      3       3.2148      2.00000
      4       4.0142      2.00000
      5       7.8632      0.00000
      6      10.0279      0.00000
      7      10.6133      0.00000
      8      11.5510      0.00000

 k-point   167 :      -0.4583    0.4583    0.2917
  band No.  band energies     occupation 
      1      -3.4869      2.00000
      2      -0.6236      2.00000
      3       2.4734      2.00000
      4       3.6726      2.00000
      5       8.1421      0.00000
      6       9.9163      0.00000
      7      11.3599      0.00000
      8      11.8088      0.00000

 k-point   168 :      -0.3750    0.4583    0.2917
  band No.  band energies     occupation 
      1      -2.9624      2.00000
      2      -0.8870      2.00000
      3       1.8448      2.00000
      4       3.1048      2.00000
      5       9.1561      0.00000
      6       9.4773      0.00000
      7      11.3240      0.00000
      8      13.0601      0.00000

 k-point   169 :      -0.2917    0.4583    0.2917
  band No.  band energies     occupation 
      1      -2.3907      2.00000
      2      -1.3025      2.00000
      3       1.6433      2.00000
      4       2.6057      2.00000
      5       9.0074      0.00000
      6      10.5172      0.00000
      7      11.1860      0.00000
      8      11.5872      0.00000

 k-point   170 :      -0.4583   -0.4583    0.2917
  band No.  band energies     occupation 
      1      -3.1722      2.00000
      2      -0.8646      2.00000
      3       2.0907      2.00000
      4       3.7017      2.00000
      5       7.4387      0.00000
      6      10.9875      0.00000
      7      11.5880      0.00000
      8      11.6250      0.00000

 k-point   171 :      -0.3750   -0.4583    0.2917
  band No.  band energies     occupation 
      1      -2.7895      2.00000
      2      -1.0619      2.00000
      3       1.7025      2.00000
      4       3.2908      2.00000
      5       7.8370      0.00000
      6      10.8056      0.00000
      7      11.3195      0.00000
      8      13.2225      0.00000

 k-point   172 :      -0.3750   -0.3750    0.2917
  band No.  band energies     occupation 
      1      -2.6398      2.00000
      2      -1.1662      2.00000
      3       1.4589      2.00000
      4       3.5619      2.00000
      5       7.2305      0.00000
      6      10.8379      0.00000
      7      12.7107      0.00000
      8      13.0931      0.00000

 k-point   173 :       0.3750    0.3750    0.3750
  band No.  band energies     occupation 
      1      -4.4378      2.00000
      2      -0.1155      2.00000
      3       4.7487      2.00000
      4       4.7487      2.00000
      5       7.5111      0.00000
      6       9.3026      0.00000
      7       9.3026      0.00000
      8      13.7179      0.00000

 k-point   174 :       0.4583    0.3750    0.3750
  band No.  band energies     occupation 
      1      -4.1524      2.00000
      2      -0.4337      2.00000
      3       3.9553      2.00000
      4       4.7117      2.00000
      5       7.9758      0.00000
      6       9.3330      0.00000
      7       9.4141      0.00000
      8      13.7097      0.00000

 k-point   175 :      -0.4583    0.3750    0.3750
  band No.  band energies     occupation 
      1      -3.7321      2.00000
      2      -0.6345      2.00000
      3       2.7928      2.00000
      4       4.3778      2.00000
      5       8.1536      0.00000
      6       9.9345      0.00000
      7      10.1608      0.00000
      8      13.7970      0.00000

 k-point   176 :      -0.3750    0.3750    0.3750
  band No.  band energies     occupation 
      1      -3.2082      2.00000
      2      -0.8093      2.00000
      3       1.8396      2.00000
      4       3.9474      2.00000
      5       7.6918      0.00000
      6      11.3199      0.00000
      7      11.3344      0.00000
      8      12.8146      0.00000

 k-point   177 :       0.4583    0.4583    0.3750
  band No.  band energies     occupation 
      1      -3.9630      2.00000
      2      -0.7367      2.00000
      3       4.1439      2.00000
      4       4.4288      2.00000
      5       7.9209      0.00000
      6       9.1049      0.00000
      7       9.6394      0.00000
      8      13.4163      0.00000

 k-point   178 :      -0.4583    0.4583    0.3750
  band No.  band energies     occupation 
      1      -3.6546      2.00000
      2      -0.8908      2.00000
      3       3.2441      2.00000
      4       4.2106      2.00000
      5       8.4352      0.00000
      6       8.9879      0.00000
      7      10.3594      0.00000
      8      13.3208      0.00000

 k-point   179 :      -0.3750    0.4583    0.3750
  band No.  band energies     occupation 
      1      -3.2551      2.00000
      2      -0.9358      2.00000
      3       2.2856      2.00000
      4       3.7541      2.00000
      5       8.3278      0.00000
      6       9.6797      0.00000
      7      11.7094      0.00000
      8      12.9224      0.00000

 k-point   180 :      -0.4583   -0.4583    0.3750
  band No.  band energies     occupation 
      1      -3.4879      2.00000
      2      -0.9879      2.00000
      3       2.9319      2.00000
      4       4.1347      2.00000
      5       7.9447      0.00000
      6       9.9279      0.00000
      7      10.3524      0.00000
      8      13.0489      0.00000

 k-point   181 :       0.4583    0.4583    0.4583
  band No.  band energies     occupation 
      1      -3.8948      2.00000
      2      -1.0005      2.00000
      3       4.6491      2.00000
      4       4.6491      2.00000
      5       7.3962      0.00000
      6       9.2080      0.00000
      7       9.2080      0.00000
      8      13.5845      0.00000

 k-point   182 :      -0.4583    0.4583    0.4583
  band No.  band energies     occupation 
      1      -3.7298      2.00000
      2      -1.0815      2.00000
      3       3.9909      2.00000
      4       4.5175      2.00000
      5       7.8939      0.00000
      6       9.1598      0.00000
      7       9.4793      0.00000
      8      13.8765      0.00000


--------------------------------------------------------------------------------------------------------


 soft charge-density along one line, spin component           1
         0         1         2         3         4         5         6         7         8         9
 total charge-density along one line
 
 pseudopotential strength for first ion, spin component:           1
 18.416  -0.001  -0.000  -0.000  -0.000   0.000   0.000   0.000
 -0.001   0.006   0.000   0.000   0.000  -0.000  -0.000  -0.000
 -0.000   0.000   4.179  -0.000  -0.000  -0.005   0.000   0.000
 -0.000   0.000  -0.000   4.179  -0.000   0.000  -0.005   0.000
 -0.000   0.000  -0.000  -0.000   4.179   0.000   0.000  -0.005
  0.000  -0.000  -0.005   0.000   0.000   0.005  -0.000  -0.000
  0.000  -0.000   0.000  -0.005   0.000  -0.000   0.005  -0.000
  0.000  -0.000   0.000   0.000  -0.005  -0.000  -0.000   0.005
 total augmentation occupancy for first ion, spin component:           1
  1.492  -0.853  -0.000  -0.000   0.000   0.000   0.000   0.000
 -0.853   0.865   0.000   0.000   0.000   0.000   0.000   0.000
 -0.000   0.000   1.028  -0.000   0.000  -0.651   0.000  -0.000
 -0.000   0.000  -0.000   1.028   0.000   0.000  -0.651  -0.000
  0.000  -0.000   0.000   0.000   1.028  -0.000  -0.000  -0.651
  0.000   0.000  -0.651   0.000  -0.000   0.470  -0.000   0.000
  0.000   0.000   0.000  -0.651  -0.000  -0.000   0.470   0.000
  0.000   0.000  -0.000  -0.000  -0.651   0.000   0.000   0.470


------------------------ aborting loop because EDIFF is reached ----------------------------------------


    CHARGE:  cpu time    0.0400: real time    0.0384
    FORLOC:  cpu time    0.0000: real time    0.0006
    FORNL :  cpu time    0.0360: real time    0.0360
    STRESS:  cpu time    0.4760: real time    0.4748
    FORCOR:  cpu time    0.0120: real time    0.0131
    FORHAR:  cpu time    0.0040: real time    0.0033
    MIXING:  cpu time    0.0000: real time    0.0011
    OFIELD:  cpu time    0.0000: real time    0.0005

  FORCE on cell =-STRESS in cart. coord.  units (eV):
  Direction    XX          YY          ZZ          XY          YZ          ZX
  --------------------------------------------------------------------------------------
  Alpha Z     3.36414     3.36414     3.36414
  Ewald     -76.18788   -76.18788   -76.18788    -0.00000    -0.00000     0.00000
  Hartree     4.96919     4.96919     4.96919    -0.00000    -0.00000    -0.00000
  E(xc)     -25.38557   -25.38557   -25.38557     0.00000     0.00000     0.00000
  Local     -29.33517   -29.33517   -29.33517     0.00005     0.00005     0.00005
  n-local    78.03210    80.47664    75.47052     1.08323    -1.10169     0.01700
  augment   -11.62406   -11.62406   -11.62406    -0.00004    -0.00004    -0.00004
  Kinetic    58.30690    55.96254    55.71453     0.86448    -0.88426     0.01752
  Fock        0.00000     0.00000     0.00000     0.00000     0.00000     0.00000
  -------------------------------------------------------------------------------------
  Total       0.45506     0.45506     0.45506     0.00000     0.00000    -0.00000
  in kB      18.21561    18.21561    18.21561     0.00000     0.00000    -0.00000
  external pressure =       18.22 kB  Pullay stress =        0.00 kB


 VOLUME and BASIS-vectors are now :
 -----------------------------------------------------------------------------
  energy-cutoff  :      250.00
  volume of cell :       40.03
      direct lattice vectors                 reciprocal lattice vectors
     0.000000000  2.715000000  2.715000000    -0.184162063  0.184162063  0.184162063
     2.715000000  0.000000000  2.715000000     0.184162063 -0.184162063  0.184162063
     2.715000000  2.715000000  0.000000000     0.184162063  0.184162063 -0.184162063

  length of vectors
     3.839589822  3.839589822  3.839589822     0.318978049  0.318978049  0.318978049


 FORCES acting on ions
    electron-ion (+dipol)            ewald-force                    non-local-force                 convergence-correction
 -----------------------------------------------------------------------------------------------
   0.280E-05 0.280E-05 0.275E-05   -.476E-15 -.149E-14 0.391E-14   0.278E-17 0.625E-17 0.710E-18   -.142E-05 -.142E-05 -.142E-05
   -.280E-05 -.280E-05 -.275E-05   0.623E-15 0.106E-14 -.375E-14   0.100E-17 -.594E-17 -.233E-17   0.142E-05 0.142E-05 0.142E-05
 -----------------------------------------------------------------------------------------------
   0.118E-12 0.657E-13 -.651E-14   0.147E-15 -.426E-15 0.164E-15   0.378E-17 0.308E-18 -.162E-17   -.418E-14 -.273E-14 0.112E-14
 
 
 POSITION                                       TOTAL-FORCE (eV/Angst)
 -----------------------------------------------------------------------------------
      2.71500      2.71500      2.71500         0.000000      0.000000     -0.000000
      4.07250      4.07250      4.07250        -0.000000     -0.000000      0.000000
 -----------------------------------------------------------------------------------
    total drift:                                0.000000      0.000000     -0.000000


--------------------------------------------------------------------------------------------------------



  FREE ENERGIE OF THE ION-ELECTRON SYSTEM (eV)
  ---------------------------------------------------
  free  energy   TOTEN  =       -10.82376346 eV

  energy  without entropy=      -10.82370234  energy(sigma->0) =      -10.82373290
 


--------------------------------------------------------------------------------------------------------


    POTLOK:  cpu time    0.0320: real time    0.0412


--------------------------------------------------------------------------------------------------------




--------------------------------------------------------------------------------------------------------


  
 reached required accuracy - stopping structural energy minimisation
 writing wavefunctions
     LOOP+:  cpu time   17.4040: real time   18.4900
    4ORBIT:  cpu time    0.0000: real time    0.0000

 total amount of memory used by VASP MPI-rank0    36070. kBytes
=======================================================================

   base      :      30000. kBytes
   nonl-proj :       4391. kBytes
   fftplans  :        160. kBytes
   grid      :        372. kBytes
   one-center:          6. kBytes
   wavefun   :       1141. kBytes
 
  
  
 General timing and accounting informations for this job:
 ========================================================
  
                  Total CPU time used (sec):       26.720
                            User time (sec):       24.240
                          System time (sec):        2.480
                         Elapsed time (sec):       30.579
  
                   Maximum memory used (kb):       10284.
                   Average memory used (kb):           0.
  
                          Minor page faults:        38345
                          Major page faults:           16
                 Voluntary context switches:        43454
