unknown system                          
   1.00000000000000     
    -2.239041    2.239041    1.277686
     2.239041   -2.239041    1.277686
     2.239041    2.239041   -1.277686
   Si
     2
Direct
  0.000000  0.000000  0.000000
  0.250000  0.750000  0.500000
 
   32   32   32
 -4.7751     -3.8773     -1.4261      1.9419      5.4206      8.2888      10.096      10.731      10.384      9.4345    
  8.2963      7.1896      6.2146      5.4330      4.8723      4.5382      4.4275      4.5382      4.8723      5.4329    
  6.2145      7.1896      8.2963      9.4344      10.384      10.731      10.096      8.2888      5.4206      1.9419    
 -1.4261     -3.8773     -3.8773     -4.2914     -2.9678     -.26880      3.1095      6.3780      8.8934      10.308    
  10.607      10.041      9.0122      7.8877      6.8273      5.9186      5.2121      4.7276      4.4670      4.4274    
  4.6081      5.0126      5.6433      6.4906      7.5189      8.6563      9.7885      10.637      10.779      9.8736    
  7.8044      4.7729      1.3089     -1.8320     -1.4261     -2.9678     -2.9101     -1.2811      1.4686      4.6329    
  7.4880      9.5009      10.440      10.378      9.6127      8.5415      7.4473      6.4474      5.6155      4.9904    
  4.5846      4.3978      4.4271      4.6739      5.1426      5.8343      6.7347      7.8008      8.9528      10.061    
  10.807      10.785      9.7081      7.5357      4.5442      1.3089      1.9419     -.26882     -1.2811     -.82950    
 0.94192      3.5368      6.2879      8.5757      9.9963      10.433      10.032      9.1160      8.0409      6.9931    
  6.0658      5.3178      4.7768      4.4493      4.3332      4.4269      4.7331      5.2568      5.9974      6.9361    
  8.0233      9.1737      10.244      10.902      10.779      9.6472      7.5357      4.7729      5.4206      3.1095    
  1.4686     0.94192      1.6606      3.3972      5.6550      7.8473      9.4831      10.291      10.256      9.5791    
  8.5809      7.5298      6.5434      5.6978      5.0373      4.5797      4.3269      4.2761      4.4268      4.7833    
  5.3506      6.1260      7.0862      8.1769      9.3099      10.336      10.933      10.779      9.7081      7.8044    
  8.2888      6.3780      4.6329      3.5368      3.3972      4.2332      5.7736      7.5630      9.1229      10.098    
  10.339      9.9143      9.0518      8.0363      7.0285      6.1156      5.3573      4.7842      4.4062      4.2218    
  4.2284      4.4269      4.8226      5.4202      6.2145      7.1786      8.2553      9.3559      10.336      10.902    
  10.785      9.8736      10.096      8.8933      7.4880      6.2879      5.6550      5.7736      6.5837      7.8094    
  9.0664      9.9959      10.371      10.146      9.4446      8.4991      7.5044      6.5567      5.7261      5.0563    
  4.5669      4.2615      4.1372      4.1916      4.4271      4.8497      5.4631      6.2597      7.2099      8.2553    
  9.3099      10.244      10.807      10.779      10.731      10.308      9.5009      8.5757      7.8473      7.5630    
  7.8094      8.4821      9.3322      10.063      10.431      10.320      9.7623      8.9121      7.9593      7.0082    
  6.1334      5.3888      4.8046      4.3919      4.1501      4.0754      4.1667      4.4273      4.8635      5.4776    
  6.2597      7.1786      8.1769      9.1737      10.061      10.637      10.384      10.607      10.440      9.9963    
  9.4831      9.1229      9.0664      9.3322      9.8033      10.277      10.546      10.470      10.018      9.2729    
  8.3850      7.4597      6.5697      5.7749      5.1151      4.6098      4.2638      4.0744      4.0378      4.1541    
  4.4274      4.8635      5.4631      6.2145      7.0862      8.0233      8.9528      9.7885      9.4344      10.041    
  10.378      10.433      10.291      10.098      9.9960      10.063      10.277      10.533      10.681      10.596    
  10.217      9.5760      8.7737      7.9015      7.0262      6.2084      5.4948      4.9137      4.4771      4.1858    
  4.0361      4.0252      4.1541      4.4273      4.8497      5.4202      6.1260      6.9361      7.8008      8.6563    
  8.2963      9.0122      9.6127      10.032      10.256      10.340      10.371      10.431      10.546      10.681    
  10.749      10.658      10.345      9.8096      9.1131      8.3217      7.4918      6.6812      5.9396      5.3027    
  4.7906      4.4099      4.1596      4.0361      4.0378      4.1667      4.4271      4.8226      5.3506      5.9974    
  6.7347      7.5189      7.1896      7.8877      8.5415      9.1159      9.5791      9.9143      10.146      10.320    
  10.470      10.596      10.658      10.598      10.368      9.9535      9.3852      8.7028      7.9512      7.1811    
  6.4420      5.7742      5.2052      4.7492      4.4099      4.1858      4.0744      4.0754      4.1916      4.4269    
  4.7833      5.2568      5.8343      6.4906      6.2145      6.8273      7.4474      8.0409      8.5809      9.0518    
  9.4446      9.7623      10.018      10.217      10.345      10.368      10.253      9.9835      9.5671      9.0226    
  8.3826      7.6891      6.9875      6.3196      5.7183      5.2052      4.7906      4.4771      4.2638      4.1501    
  4.1372      4.2284      4.4268      4.7331      5.1426      5.6433      5.4329      5.9186      6.4474      6.9931    
  7.5299      8.0363      8.4991      8.9122      9.2729      9.5760      9.8096      9.9535      9.9835      9.8805    
  9.6360      9.2557      8.7596      8.1795      7.5536      6.9218      6.3196      5.7742      5.3027      4.9137    
  4.6098      4.3919      4.2615      4.2218      4.2761      4.4269      4.6739      5.0126      4.8723      5.2121    
  5.6154      6.0658      6.5434      7.0285      7.5044      7.9593      8.3850      8.7737      9.1131      9.3852    
  9.5671      9.6360      9.5753      9.3790      9.0546      8.6218      8.1100      7.5536      6.9875      6.4420    
  5.9396      5.4948      5.1151      4.8046      4.5669      4.4062      4.3269      4.3332      4.4271      4.6081    
  4.5382      4.7276      4.9904      5.3178      5.6978      6.1157      6.5567      7.0082      7.4597      7.9015    
  8.3217      8.7028      9.0226      9.2557      9.3790      9.3765      9.2428      8.9852      8.6218      8.1795    
  7.6891      7.1811      6.6812      6.2084      5.7749      5.3888      5.0563      4.7842      4.5797      4.4493    
  4.3978      4.4274      4.4275      4.4671      4.5847      4.7769      5.0374      5.3573      5.7261      6.1334    
  6.5697      7.0262      7.4918      7.9512      8.3826      8.7596      9.0546      9.2428      9.3076      9.2428    
  9.0546      8.7596      8.3826      7.9512      7.4918      7.0262      6.5697      6.1334      5.7261      5.3573    
  5.0373      4.7768      4.5846      4.4670      4.5382      4.4274      4.3978      4.4494      4.5798      4.7843    
  5.0563      5.3888      5.7749      6.2084      6.6812      7.1811      7.6891      8.1795      8.6218      8.9852    
  9.2428      9.3765      9.3790      9.2557      9.0226      8.7028      8.3217      7.9015      7.4597      7.0082    
  6.5567      6.1156      5.6978      5.3178      4.9904      4.7276      4.8723      4.6082      4.4272      4.3333    
  4.3270      4.4062      4.5669      4.8046      5.1151      5.4948      5.9396      6.4420      6.9875      7.5536    
  8.1100      8.6218      9.0546      9.3790      9.5753      9.6360      9.5671      9.3852      9.1131      8.7737    
  8.3850      7.9593      7.5044      7.0285      6.5434      6.0658      5.6155      5.2121      5.4330      5.0127    
  4.6740      4.4270      4.2762      4.2218      4.2616      4.3919      4.6098      4.9137      5.3027      5.7742    
  6.3196      6.9218      7.5536      8.1795      8.7596      9.2557      9.6360      9.8805      9.9835      9.9535    
  9.8096      9.5760      9.2729      8.9121      8.4991      8.0363      7.5298      6.9931      6.4474      5.9186    
  6.2146      5.6433      5.1426      4.7332      4.4269      4.2284      4.1372      4.1500      4.2638      4.4771    
  4.7906      5.2052      5.7183      6.3196      6.9875      7.6891      8.3826      9.0226      9.5671      9.9835    
  10.253      10.368      10.345      10.217      10.018      9.7623      9.4446      9.0518      8.5809      8.0409    
  7.4473      6.8273      7.1896      6.4907      5.8343      5.2568      4.7833      4.4269      4.1916      4.0754    
  4.0743      4.1858      4.4099      4.7491      5.2052      5.7742      6.4420      7.1811      7.9512      8.7028    
  9.3852      9.9535      10.368      10.598      10.658      10.596      10.470      10.320      10.146      9.9143    
  9.5791      9.1160      8.5415      7.8877      8.2963      7.5189      6.7347      5.9974      5.3506      4.8226    
  4.4271      4.1666      4.0377      4.0361      4.1596      4.4099      4.7906      5.3027      5.9396      6.6812    
  7.4918      8.3217      9.1131      9.8096      10.345      10.658      10.749      10.681      10.546      10.431    
  10.371      10.339      10.256      10.032      9.6127      9.0122      9.4345      8.6563      7.8008      6.9361    
  6.1259      5.4202      4.8496      4.4273      4.1540      4.0251      4.0361      4.1858      4.4771      4.9137    
  5.4948      6.2084      7.0262      7.9015      8.7737      9.5760      10.217      10.596      10.681      10.533    
  10.277      10.063      9.9959      10.098      10.291      10.433      10.378      10.041      10.384      9.7885    
  8.9528      8.0233      7.0861      6.2145      5.4630      4.8634      4.4273      4.1540      4.0377      4.0743    
  4.2638      4.6098      5.1151      5.7749      6.5697      7.4597      8.3850      9.2729      10.018      10.470    
  10.546      10.277      9.8033      9.3322      9.0664      9.1229      9.4831      9.9963      10.440      10.607    
  10.731      10.637      10.061      9.1737      8.1769      7.1786      6.2597      5.4775      4.8634      4.4273    
  4.1666      4.0754      4.1500      4.3919      4.8046      5.3888      6.1334      7.0082      7.9593      8.9122    
  9.7623      10.320      10.431      10.063      9.3322      8.4821      7.8094      7.5630      7.8473      8.5757    
  9.5009      10.308      10.096      10.779      10.807      10.244      9.3099      8.2553      7.2099      6.2597    
  5.4630      4.8496      4.4271      4.1916      4.1372      4.2616      4.5669      5.0563      5.7261      6.5567    
  7.5044      8.4991      9.4446      10.146      10.371      9.9960      9.0664      7.8094      6.5837      5.7736    
  5.6550      6.2879      7.4880      8.8934      8.2888      9.8736      10.785      10.902      10.336      9.3560    
  8.2553      7.1786      6.2145      5.4202      4.8226      4.4269      4.2284      4.2218      4.4062      4.7843    
  5.3573      6.1157      7.0285      8.0363      9.0518      9.9143      10.340      10.098      9.1229      7.5630    
  5.7736      4.2332      3.3972      3.5368      4.6329      6.3780      5.4206      7.8044      9.7081      10.779    
  10.933      10.336      9.3099      8.1769      7.0861      6.1259      5.3506      4.7833      4.4269      4.2762    
  4.3270      4.5798      5.0374      5.6978      6.5434      7.5299      8.5809      9.5791      10.256      10.291    
  9.4831      7.8473      5.6550      3.3972      1.6606     0.94192      1.4686      3.1095      1.9419      4.7730    
  7.5357      9.6472      10.779      10.902      10.244      9.1737      8.0233      6.9361      5.9974      5.2568    
  4.7332      4.4270      4.3333      4.4494      4.7769      5.3178      6.0658      6.9931      8.0409      9.1159    
  10.032      10.433      9.9963      8.5757      6.2879      3.5368     0.94192     -.82950     -1.2811     -.26880    
 -1.4261      1.3089      4.5442      7.5357      9.7081      10.785      10.807      10.061      8.9528      7.8008    
  6.7347      5.8343      5.1426      4.6740      4.4272      4.3978      4.5847      4.9904      5.6154      6.4474    
  7.4474      8.5415      9.6127      10.378      10.440      9.5009      7.4880      4.6329      1.4686     -1.2811    
 -2.9101     -2.9678     -3.8773     -1.8320      1.3089      4.7730      7.8044      9.8736      10.779      10.637    
  9.7885      8.6563      7.5189      6.4907      5.6433      5.0127      4.6082      4.4274      4.4671      4.7276    
  5.2121      5.9186      6.8273      7.8877      9.0122      10.041      10.607      10.308      8.8933      6.3780    
  3.1095     -.26882     -2.9678     -4.2914     -3.8773     -3.2352     -1.0923      1.9947      5.2770      8.0521    
  9.8514      10.525      10.223      9.2979      8.1584      7.0409      6.0488      5.2461      4.6611      4.2986    
  4.1541      4.2240      4.5098      5.0159      5.7408      6.6642      7.7328      8.8552      9.8536      10.347    
  9.9536      8.4590      5.9272      2.7453     -.43294     -2.8497     -3.2352     -3.8774     -2.8497     -.43291    
  2.7453      5.9272      8.4589      9.9536      10.347      9.8536      8.8552      7.7328      6.6642      5.7408    
  5.0158      4.5098      4.2240      4.1541      4.2986      4.6611      5.2461      6.0488      7.0410      8.1584    
  9.2978      10.223      10.525      9.8514      8.0520      5.2769      1.9947     -1.0923     -.98446     -2.7341    
 -2.9678     -1.6352     0.89191      3.9550      6.8329      8.9566      10.040      10.106      9.4220      8.3778    
  7.2874      6.2805      5.4358      4.7949      4.3709      4.1626      4.1667      4.3838      4.8192      5.4770    
  6.3481      7.3963      8.5486      9.6879      10.530      10.669      9.7964      7.8328      5.0021      1.8265    
  2.2717     -.12345     -1.4191     -1.2811     0.22990      2.6828      5.4322      7.8346      9.4320      10.047    
  9.7825      8.9379      7.8828      6.8380      5.9042      5.1453      4.5913      4.2493      4.1168      4.1916    
  4.4767      4.9784      5.6997      6.6268      7.7163      8.8882      10.012      10.777      10.803      9.8353    
  7.8604      5.1583      5.7269      3.2647      1.3641     0.51988     0.94191      2.4796      4.6804      6.9542    
  8.7658      9.7814      9.9286      9.3713      8.4226      7.3863      6.4008      5.5489      4.8795      4.4123    
  4.1496      4.0885      4.2284      4.5742      5.1330      5.9056      6.8735      7.9874      9.1629      10.261    
  10.967      10.941      9.9855      8.1436      8.6391      6.6188      4.6561      3.2636      2.8117      3.3972    
  4.8099      6.6155      8.3115      9.4876      9.9329      9.6652      8.8898      7.9031      6.9048      5.9908    
  5.2268      4.6474      4.2638      4.0753      4.0789      4.2761      4.6732      5.2772      6.0864      7.0778    
  8.1978      9.3600      10.424      11.095      11.078      10.232      10.528      9.2610      7.6929      6.2420    
  5.3122      5.1539      5.7736      6.9367      8.2595      9.3463      9.9135      9.8603      9.2734      8.3758    
  7.3986      6.4553      5.6222      4.9483      4.4561      4.1504      4.0285      4.0885      4.3332      4.7701    
  5.4054      6.2344      7.2305      8.3372      9.4687      10.494      11.150      11.194      11.254      10.810    
  9.8986      8.7835      7.8015      7.2474      7.2679      7.8093      8.6442      9.4614      9.9769      10.023    
  9.5867      8.8006      7.8703      6.9283      6.0543      5.3075      4.7221      4.3113      4.0753      4.0108    
  4.1168      4.3977      4.8612      5.5121      6.3429      7.3239      8.3977      9.4816      10.461      11.117    
  10.981      11.222      11.007      10.438      9.7315      9.1377      8.8535      8.9462      9.3322      9.8152    
  10.166      10.203      9.8564      9.1767      8.3129      7.3988      6.5120      5.7168      5.0569      4.5549    
  4.2168      4.0403      4.0221      4.1626      4.4670      4.9427      5.5925      6.4062      7.3524      8.3745    
  9.3953      10.320      10.071      10.729      11.066      11.058      10.787      10.414      10.110      9.9940    
  10.079      10.277      10.437      10.407      10.097      9.5046      8.7203      7.8570      6.9853      6.1682    
  5.4556      4.8788      4.4514      4.1750      4.0461      4.0619      4.2240      4.5381      5.0107      5.6423    
  6.4204      7.3130      8.2667      9.2116      8.9375      9.7223      10.362      10.770      10.926      10.888    
  10.762      10.655      10.626      10.660      10.681      10.586      10.293      9.7762      9.0823      8.2917    
  7.4627      6.6524      5.9124      5.2807      4.7789      4.4147      4.1870      4.0921      4.1285      4.2986    
  4.6081      5.0619      5.6584      6.3836      7.2064      8.0779      7.8162      8.5851      9.2920      9.8929    
  10.339      10.608      10.731      10.772      10.786      10.793      10.769      10.658      10.400      9.9682    
  9.3806      8.6867      7.9290      7.1566      6.4186      5.7566      5.1992      4.7612      4.4463      4.2527    
  4.1774      4.2200      4.3838      4.6740      5.0937      5.6396      6.2968      7.0364      6.8111      7.4941    
  8.1710      8.8010      9.3514      9.8002      10.132      10.355      10.498      10.582      10.607      10.547    
  10.368      10.047      9.5898      9.0189      8.3633      7.6623      6.9599      6.2976      5.7088      5.2152    
  4.8270      4.5461      4.3708      4.2996      4.3336      4.4767      4.7331      5.1045      5.5860      6.1633    
  5.9896      6.5414      7.1271      7.7143      8.2712      8.7725      9.2026      9.5564      9.8334      10.037    
  10.169      10.216      10.160      9.9835      9.6823      9.2614      8.7390      8.1444      7.5141      6.8868    
  6.2974      5.7728      5.3298      4.9759      4.7124      4.5389      4.4559      4.4662      4.5742      4.7833    
  5.0937      5.5000      5.3859      5.7842      6.2404      6.7327      7.2360      7.7261      8.1834      8.5955    
  8.9565      9.2630      9.5097      9.6861      9.7766      9.7643      9.6360      9.3879      9.0272      8.5726    
  8.0519      7.4981      6.9445      6.4208      5.9487      5.5413      5.2048      4.9414      4.7528      4.6421    
  4.6140      4.6732      4.8226      5.0619      5.0106      5.2491      5.5573      5.9228      6.3290      6.7573    
  7.1893      7.6105      8.0109      8.3837      8.7214      9.0131      9.2429      9.3918      9.4413      9.3790    
  9.2013      8.9155      8.5391      8.0972      7.6190      7.1335      6.6653      6.2319      5.8442      5.5080    
  5.2273      5.0068      4.8529      4.7722      4.7701      4.8497      4.8635      4.9427      5.0965      5.3196    
  5.6026      5.9334      6.2980      6.6835      7.0795      7.4779      7.8711      8.2481      8.5932      8.8860    
  9.1041      9.2277      9.2429      9.1453      8.9410      8.6454      8.2809      7.8733      7.4471      7.0225    
  6.6136      6.2295      5.8765      5.5616      5.2934      5.0815      4.9352      4.8612      4.9426      4.8635    
  4.8613      4.9352      5.0815      5.2934      5.5616      5.8765      6.2294      6.6136      7.0225      7.4471    
  7.8733      8.2809      8.6454      8.9410      9.1453      9.2428      9.2277      9.1041      8.8860      8.5932    
  8.2481      7.8711      7.4780      7.0795      6.6835      6.2980      5.9334      5.6026      5.3195      5.0965    
  5.2491      5.0106      4.8497      4.7701      4.7722      4.8530      5.0069      5.2273      5.5080      5.8443    
  6.2319      6.6652      7.1335      7.6191      8.0972      8.5391      8.9155      9.2013      9.3790      9.4413    
  9.3917      9.2429      9.0131      8.7214      8.3837      8.0109      7.6105      7.1893      6.7572      6.3290    
  5.9227      5.5573      5.7842      5.3859      5.0618      4.8226      4.6732      4.6140      4.6421      4.7528    
  4.9414      5.2048      5.5413      5.9487      6.4208      6.9445      7.4981      8.0519      8.5726      9.0272    
  9.3879      9.6360      9.7642      9.7766      9.6861      9.5097      9.2630      8.9565      8.5955      8.1834    
  7.7261      7.2360      6.7327      6.2405      6.5413      5.9896      5.5001      5.0937      4.7833      4.5742    
  4.4662      4.4559      4.5389      4.7124      4.9759      5.3299      5.7729      6.2974      6.8868      7.5141    
  8.1444      8.7390      9.2614      9.6823      9.9835      10.160      10.216      10.169      10.037      9.8334    
  9.5564      9.2026      8.7725      8.2712      7.7143      7.1271      7.4941      6.8111      6.1633      5.5860    
  5.1045      4.7331      4.4766      4.3336      4.2996      4.3708      4.5461      4.8270      5.2152      5.7088    
  6.2976      6.9599      7.6623      8.3633      9.0189      9.5898      10.047      10.368      10.547      10.607    
  10.582      10.498      10.355      10.132      9.8003      9.3514      8.8010      8.1709      8.5851      7.8162    
  7.0364      6.2967      5.6395      5.0937      4.6739      4.3837      4.2199      4.1773      4.2527      4.4463    
  4.7611      5.1992      5.7567      6.4186      7.1566      7.9290      8.6867      9.3806      9.9682      10.400    
  10.658      10.769      10.793      10.786      10.772      10.731      10.608      10.339      9.8929      9.2920    
  9.7223      8.9375      8.0778      7.2063      6.3837      5.6584      5.0619      4.6081      4.2986      4.1285    
  4.0921      4.1870      4.4147      4.7789      5.2807      5.9124      6.6524      7.4627      8.2918      9.0823    
  9.7762      10.293      10.586      10.681      10.660      10.626      10.655      10.762      10.888      10.926    
  10.770      10.362      10.729      10.071      9.2116      8.2667      7.3130      6.4204      5.6422      5.0106    
  4.5381      4.2240      4.0619      4.0461      4.1750      4.4514      4.8788      5.4556      6.1682      6.9853    
  7.8570      8.7203      9.5046      10.097      10.407      10.437      10.277      10.079      9.9940      10.110    
  10.414      10.787      11.058      11.066      11.222      10.980      10.320      9.3954      8.3745      7.3523    
  6.4062      5.5925      4.9427      4.4670      4.1626      4.0221      4.0403      4.2168      4.5549      5.0569    
  5.7168      6.5120      7.3988      8.3129      9.1768      9.8564      10.203      10.166      9.8152      9.3322    
  8.9462      8.8535      9.1378      9.7316      10.438      11.007      10.810      11.254      11.117      10.461    
  9.4816      8.3977      7.3239      6.3429      5.5121      4.8613      4.3977      4.1168      4.0108      4.0753    
  4.3113      4.7221      5.3074      6.0543      6.9284      7.8704      8.8006      9.5867      10.023      9.9769    
  9.4614      8.6442      7.8093      7.2679      7.2475      7.8015      8.7835      9.8986      9.2611      10.528    
  11.194      11.150      10.494      9.4688      8.3372      7.2305      6.2344      5.4054      4.7701      4.3332    
  4.0885      4.0286      4.1504      4.4561      4.9483      5.6222      6.4553      7.3986      8.3758      9.2734    
  9.8603      9.9135      9.3463      8.2595      6.9367      5.7736      5.1539      5.3122      6.2419      7.6930    
  6.6188      8.6391      10.232      11.078      11.095      10.424      9.3600      8.1978      7.0778      6.0864    
  5.2772      4.6732      4.2761      4.0789      4.0752      4.2638      4.6474      5.2268      5.9908      6.9048    
  7.9031      8.8898      9.6652      9.9329      9.4876      8.3115      6.6156      4.8100      3.3972      2.8117    
  3.2636      4.6562      3.2646      5.7269      8.1437      9.9856      10.941      10.967      10.261      9.1629    
  7.9874      6.8735      5.9056      5.1330      4.5742      4.2284      4.0885      4.1496      4.4123      4.8795    
  5.5489      6.4008      7.3863      8.4226      9.3712      9.9285      9.7815      8.7659      6.9542      4.6804    
  2.4796     0.94203     0.52003      1.3642     -.12344      2.2717      5.1584      7.8604      9.8353      10.803    
  10.777      10.012      8.8882      7.7162      6.6268      5.6997      4.9784      4.4766      4.1916      4.1168    
  4.2493      4.5913      5.1453      5.9043      6.8381      7.8828      8.9379      9.7825      10.047      9.4320    
  7.8346      5.4322      2.6829     0.23004     -1.2810     -1.4190     -2.7339     -.98435      1.8265      5.0021    
  7.8328      9.7965      10.669      10.530      9.6879      8.5486      7.3964      6.3481      5.4769      4.8192    
  4.3838      4.1667      4.1626      4.3708      4.7949      5.4359      6.2805      7.2873      8.3778      9.4221    
  10.106      10.040      8.9565      6.8330      3.9551     0.89196     -1.6352     -2.9677     -1.4259     -.98436    
 0.78144      3.4046      6.2293      8.6239      10.154      10.669      10.291      9.3369      8.1855      7.0559    
  6.0478      5.2242      4.6134      4.2199      4.0378      4.0618      4.2923      4.7335      5.3872      6.2396    
  7.2483      8.3343      9.3679      10.042      9.9915      8.9833      7.0254      4.4163      1.7075     -.43285    
 -1.0922     -1.8320     -1.0922     0.92224      3.6735      6.4804      8.7345      10.059      10.370      9.8488    
  8.8458      7.7208      6.6457      5.7106      4.9688      4.4411      4.1285      4.0252      4.1285      4.4412    
  4.9689      5.7106      6.6457      7.7207      8.8458      9.8488      10.370      10.059      8.7346      6.4804    
  3.6735     0.92223     0.78144     -.98438     -1.4260     -.43284      1.7075      4.4163      7.0254      8.9833    
  9.9915      10.042      9.3679      8.3343      7.2483      6.2396      5.3871      4.7335      4.2923      4.0619    
  4.0378      4.2199      4.6135      5.2243      6.0478      7.0559      8.1855      9.3369      10.291      10.669    
  10.154      8.6239      6.2293      3.4046      3.6649      1.3126     -.12339     -.26876     0.89196      3.0097    
  5.5003      7.7460      9.2815      9.9003      9.6682      8.8561      7.8190      6.7833      5.8512      5.0882    
  4.5257      4.1713      4.0221      4.0754      4.3336      4.8038      5.4912      6.3871      7.4557      8.6262    
  9.7890      10.689      10.957      10.318      8.7097      6.3371      6.8032      4.4221      2.4388      1.3641    
  1.4687      2.6829      4.6244      6.7407      8.4970      9.5326      9.7368      9.2387      8.3291      7.3141    
  6.3404      5.4929      4.8229      4.3516      4.0820      4.0108      4.1372      4.4662      5.0061      5.7605    
  6.7158      7.8297      9.0254      10.185      11.037      11.239      10.566      9.0066      9.4820      7.5616    
  5.5642      3.9953      3.2636      3.5369      4.6804      6.3111      7.9402      9.1380      9.6556      9.4710    
  8.7601      7.8095      6.8335      5.9326      5.1754      4.5992      4.2166      4.0273      4.0286      4.2218    
  4.6140      5.2137      6.0221      7.0208      8.1619      9.3650      10.509      11.324      11.508      10.884    
  11.229      10.063      8.4960      6.9224      5.7605      5.3121      5.6549      6.6155      7.8404      8.9282    
  9.5635      9.6042      9.1016      8.2579      7.3130      6.3914      5.5723      4.9080      4.4233      4.1243    
  4.0089      4.0753      4.3270      4.7722      5.4190      6.2656      7.2888      8.4366      9.6270      10.741    
  11.532      11.739      11.896      11.543      10.653      9.4628      8.3027      7.4967      7.2474      7.5629    
  8.2594      9.0370      9.5929      9.7226      9.3764      8.6578      7.7677      6.8548      6.0015      5.2702    
  4.6980      4.2998      4.0773      4.0273      4.1497      4.4493      4.9352      5.6139      6.4801      7.5068    
  8.6389      9.7951      10.866      11.639      11.622      11.941      11.758      11.150      10.318      9.5208    
  8.9931      8.8534      9.0662      9.4613      9.8065      9.8967      9.6251      9.0131      8.1931      7.3120    
  6.4513      5.6768      5.0352      4.5511      4.2320      4.0766      4.0820      4.2494      4.5847      5.0966    
  5.7896      6.6550      7.6625      8.7559      9.8566      10.869      10.742      11.467      11.842      11.819    
  11.467      10.941      10.434      10.099      9.9939      10.062      10.166      10.142      9.8743      9.3332    
  8.5873      7.7551      6.9115      6.1190      5.4290      4.8748      4.4714      4.2215      4.1222      4.1713    
  4.3709      4.7276      5.2492      5.9376      6.7808      7.7463      8.7786      9.8043      9.6380      10.487    
  11.168      11.582      11.690      11.545      11.260      10.963      10.746      10.626      10.546      10.407    
  10.113      9.6173      8.9445      8.1755      7.3716      6.5868      5.8726      5.2675      4.7945      4.4618    
  4.2692      4.2131      4.2923      4.5098      4.8723      5.3859      6.0498      6.8495      7.7514      8.7030    
  8.5313      9.3648      10.118      10.738      11.164      11.364      11.370      11.256      11.099      10.945    
  10.793      10.596      10.293      9.8425      9.2491      8.5602      7.8186      7.0684      6.3567      5.7242    
  5.1997      4.7981      4.5236      4.3742      4.3469      4.4412      4.6611      5.0126      5.5001      6.1201    
  6.8562      7.6759      7.5227      8.2718      8.9986      9.6555      10.204      10.614      10.864      10.967    
  10.965      10.897      10.781      10.607      10.345      9.9682      9.4747      8.8880      8.2340      7.5471    