    2    2   15    1
  0.1281086E+02  0.3414541E-09  0.3414541E-09  0.3414541E-09  0.5000000E-15
  1.000000000000000E-004
  CAR 
 unknown system                          
      8     56      8
 
  0.6250000E-01  0.6250000E-01  0.6250000E-01  0.1562500E-01
    1       -3.274058   1.000000
    2        7.031436   1.000000
    3        9.329631   1.000000
    4       11.775189   0.042925
    5       14.418320   0.000000
    6       17.210461   0.000000
    7       17.505806   0.000000
    8       20.212528   0.000000
 
  0.1875000E+00  0.6250000E-01  0.6250000E-01  0.3125000E-01
    1       -1.907311   1.000000
    2        6.670595   1.000000
    3        9.619955   1.000000
    4       11.713633   0.099844
    5       13.727472   0.000000
    6       14.535845   0.000000
    7       16.926311   0.000000
    8       18.015919   0.000000
 
  0.3125000E+00  0.6250000E-01  0.6250000E-01  0.3125000E-01
    1        0.343936   1.000000
    2        6.972811   1.000000
    3        7.509756   1.000000
    4        9.719220   1.000000
    5       11.481651   0.639798
    6       14.264604   0.000000
    7       17.354310   0.000000
    8       17.529674   0.000000
 
  0.4375000E+00  0.6250000E-01  0.6250000E-01  0.1562500E-01
    1        3.196187   1.000000
    2        3.714904   1.000000
    3        8.224002   1.000000
    4        8.504772   1.000000
    5       11.518419   0.539005
    6       12.848607   0.000000
    7       17.027293   0.000000
    8       17.475605   0.000000
 
 -0.6250000E-01  0.6250000E-01  0.6250000E-01  0.7812500E-02
    1       -3.732157   1.000000
    2        7.967585   1.000000
    3        8.274432   1.000000
    4       11.674310   0.157596
    5       13.217354   0.000000
    6       18.486373   0.000000
    7       21.405880   0.000000
    8       21.581214   0.000000
 
  0.1875000E+00  0.1875000E+00  0.6250000E-01  0.1562500E-01
    1        0.124696   1.000000
    2        6.893228   1.000000
    3        8.701124   1.000000
    4        8.795320   1.000000
    5       12.534584   0.000000
    6       15.241758   0.000000
    7       16.073565   0.000000
    8       16.172361   0.000000
 
  0.3125000E+00  0.1875000E+00  0.6250000E-01  0.3125000E-01
    1        2.982274   1.000000
    2        4.768017   1.000000
    3        6.408437   1.000000
    4        8.034998   1.000000
    5       12.898761   0.000000
    6       14.441277   0.000000
    7       15.961276   0.000000
    8       18.565124   0.000000
 
  0.4375000E+00  0.1875000E+00  0.6250000E-01  0.3125000E-01
    1        1.435985   1.000000
    2        4.847738   1.000000
    3        6.770404   1.000000
    4        9.658156   1.000000
    5       11.970290   0.000977
    6       14.934431   0.000000
    7       17.017120   0.000000
    8       18.936713   0.000000
 
 -0.4375000E+00  0.1875000E+00  0.6250000E-01  0.3125000E-01
    1       -1.018651   1.000000
    2        4.190990   1.000000
    3       10.227668   1.000000
    4       11.179203   0.993730
    5       13.097817   0.000000
    6       15.156234   0.000000
    7       16.086061   0.000000
    8       19.066729   0.000000
 
 -0.3125000E+00  0.1875000E+00  0.6250000E-01  0.1562500E-01
    1       -2.601602   1.000000
    2        4.375807   1.000000
    3        9.908744   1.000000
    4       12.505869   0.000000
    5       15.327838   0.000000
    6       16.610862   0.000000
    7       17.348295   0.000000
    8       19.149850   0.000000
 
 -0.1875000E+00  0.1875000E+00  0.6250000E-01  0.1562500E-01
    1       -3.282403   1.000000
    2        5.404971   1.000000
    3        8.554099   1.000000
    4       12.664072   0.000000
    5       15.930156   0.000000
    6       16.314904   0.000000
    7       19.854738   0.000000
    8       21.009809   0.000000
 
 -0.6250000E-01  0.1875000E+00  0.6250000E-01  0.1562500E-01
    1       -3.049692   1.000000
    2        7.013425   1.000000
    3        7.504356   1.000000
    4       13.396220   0.000000
    5       15.195702   0.000000
    6       16.246075   0.000000
    7       16.930793   0.000000
    8       19.953297   0.000000
 
  0.3125000E+00  0.3125000E+00  0.6250000E-01  0.1562500E-01
    1        2.938514   1.000000
    2        2.955919   1.000000
    3        6.554830   1.000000
    4        9.567800   1.000000
    5       12.832305   0.000000
    6       13.750785   0.000000
    7       18.716290   0.000000
    8       19.289171   0.000000
 
  0.4375000E+00  0.3125000E+00  0.6250000E-01  0.3125000E-01
    1        0.304742   1.000000
    2        2.049362   1.000000
    3       10.538484   1.000000
    4       11.242117   0.979900
    5       12.829351   0.000000
    6       14.452443   0.000000
    7       16.355004   0.000000
    8       17.957131   0.000000
 
 -0.4375000E+00  0.3125000E+00  0.6250000E-01  0.1562500E-01
    1       -1.486934   1.000000
    2        2.024236   1.000000
    3       10.860732   0.999999
    4       13.344229   0.000000
    5       13.937001   0.000000
    6       15.816241   0.000000
    7       16.926764   0.000000
    8       17.571120   0.000000
 
 -0.3125000E+00  0.3125000E+00  0.6250000E-01  0.1562500E-01
    1       -2.386536   1.000000
    2        2.876540   1.000000
    3        9.361061   1.000000
    4       13.545563   0.000000
    5       14.096047   0.000000
    6       18.042447   0.000000
    7       19.144041   0.000000
    8       20.630275   0.000000
 
 -0.1875000E+00  0.3125000E+00  0.6250000E-01  0.3125000E-01
    1       -2.378344   1.000000
    2        4.578999   1.000000
    3        7.907988   1.000000
    4       13.811764   0.000000
    5       14.472687   0.000000
    6       16.119237   0.000000
    7       17.971856   0.000000
    8       19.652116   0.000000
 
 -0.6250000E-01  0.3125000E+00  0.6250000E-01  0.1562500E-01
    1       -1.462607   1.000000
    2        6.825080   1.000000
    3        7.382862   1.000000
    4       10.734749   1.000000
    5       14.221954   0.000000
    6       16.249310   0.000000
    7       16.525528   0.000000
    8       17.970758   0.000000
 
  0.4375000E+00  0.4375000E+00  0.6250000E-01  0.7812500E-02
    1        0.060264   1.000000
    2        0.060264   1.000000
    3       12.148844   0.000007
    4       12.148844   0.000007
    5       14.786696   0.000000
    6       14.786704   0.000000
    7       16.775665   0.000000
    8       16.775675   0.000000
 
 -0.4375000E+00  0.4375000E+00  0.6250000E-01  0.1562500E-01
    1       -1.051942   1.000000
    2        0.709175   1.000000
    3       10.566208   1.000000
    4       12.154432   0.000005
    5       14.754585   0.000000
    6       16.283446   0.000000
    7       19.999026   0.000000
    8       20.205615   0.000000
 
 -0.3125000E+00  0.4375000E+00  0.6250000E-01  0.3125000E-01
    1       -1.265564   1.000000
    2        2.238122   1.000000
    3        8.923280   1.000000
    4       12.092268   0.000038
    5       14.113675   0.000000
    6       16.575491   0.000000
    7       18.153149   0.000000
    8       19.544219   0.000000
 
 -0.1875000E+00  0.4375000E+00  0.6250000E-01  0.3125000E-01
    1       -0.576973   1.000000
    2        4.603117   1.000000
    3        7.943357   1.000000
    4        9.977431   1.000000
    5       12.623873   0.000000
    6       15.697045   0.000000
    7       17.786426   0.000000
    8       19.421483   0.000000
 
 -0.6250000E-01  0.4375000E+00  0.6250000E-01  0.1562500E-01
    1        0.999253   1.000000
    2        6.250828   1.000000
    3        7.602413   1.000000
    4        7.999430   1.000000
    5       12.197971   0.000001
    6       13.843994   0.000000
    7       15.471354   0.000000
    8       19.622049   0.000000
 
 -0.4375000E+00 -0.4375000E+00  0.6250000E-01  0.1562500E-01
    1        0.278296   1.000000
    2        0.279215   1.000000
    3       10.306846   1.000000
    4       10.359425   1.000000
    5       14.018566   0.000000
    6       17.380005   0.000000
    7       18.001029   0.000000
    8       18.351291   0.000000
 
 -0.3125000E+00 -0.4375000E+00  0.6250000E-01  0.3125000E-01
    1        0.741461   1.000000
    2        2.478239   1.000000
    3        9.043838   1.000000
    4        9.641350   1.000000
    5       10.842382   0.999999
    6       15.216118   0.000000
    7       19.247116   0.000000
    8       20.954511   0.000000
 
 -0.1875000E+00 -0.4375000E+00  0.6250000E-01  0.3125000E-01
    1        2.082693   1.000000
    2        5.327580   1.000000
    3        5.874881   1.000000
    4        8.770933   1.000000
    5       11.437446   0.748729
    6       13.637198   0.000000
    7       16.182174   0.000000
    8       21.109530   0.000000
 
 -0.6250000E-01 -0.4375000E+00  0.6250000E-01  0.1562500E-01
    1        2.554270   1.000000
    2        4.351873   1.000000
    3        8.918097   1.000000
    4        9.130086   1.000000
    5       10.695969   1.000000
    6       12.285990   0.000000
    7       15.078813   0.000000
    8       19.435610   0.000000
 
 -0.3125000E+00 -0.3125000E+00  0.6250000E-01  0.1562500E-01
    1        3.548918   1.000000
    2        3.600327   1.000000
    3        5.537561   1.000000
    4        9.808914   1.000000
    5       10.334774   1.000000
    6       13.188575   0.000000
    7       18.212176   0.000000
    8       19.785019   0.000000
 
 -0.1875000E+00 -0.3125000E+00  0.6250000E-01  0.3125000E-01
    1        2.137215   1.000000
    2        5.598514   1.000000
    3        7.229561   1.000000
    4        9.646374   1.000000
    5       11.054965   0.999631
    6       12.923570   0.000000
    7       14.656129   0.000000
    8       18.120238   0.000000
 
 -0.6250000E-01 -0.3125000E+00  0.6250000E-01  0.1562500E-01
    1       -0.315643   1.000000
    2        8.271697   1.000000
    3        9.459624   1.000000
    4        9.564887   1.000000
    5       11.513869   0.551758
    6       13.016478   0.000000
    7       15.614357   0.000000
    8       17.005940   0.000000
 
 -0.1875000E+00 -0.1875000E+00  0.6250000E-01  0.1562500E-01
    1       -0.536173   1.000000
    2        9.168583   1.000000
    3        9.568386   1.000000
    4        9.819374   1.000000
    5       11.696116   0.123314
    6       13.913713   0.000000
    7       14.399072   0.000000
    8       15.038197   0.000000
 
 -0.6250000E-01 -0.1875000E+00  0.6250000E-01  0.1562500E-01
    1       -2.353497   1.000000
    2        9.108895   1.000000
    3        9.380485   1.000000
    4       11.994823   0.000536
    5       14.087224   0.000000
    6       14.389522   0.000000
    7       15.177035   0.000000
    8       16.373816   0.000000
 
 -0.6250000E-01 -0.6250000E-01  0.6250000E-01  0.3906250E-02
    1       -3.498828   1.000000
    2        9.135617   1.000000
    3        9.135618   1.000000
    4       10.903980   0.999996
    5       12.770858   0.000000
    6       18.123838   0.000000
    7       18.133597   0.000000
    8       19.928007   0.000000
 
  0.1875000E+00  0.1875000E+00  0.1875000E+00  0.1562500E-01
    1        1.219272   1.000000
    2        4.647779   1.000000
    3        8.143318   1.000000
    4        8.180577   1.000000
    5       13.624988   0.000000
    6       16.231076   0.000000
    7       16.978776   0.000000
    8       17.769413   0.000000
 
  0.3125000E+00  0.1875000E+00  0.1875000E+00  0.1562500E-01
    1        4.049292   1.000000
    2        4.526155   1.000000
    3        5.823162   1.000000
    4        6.254080   1.000000
    5       14.791825   0.000000
    6       16.427494   0.000000
    7       17.348312   0.000000
    8       17.964763   0.000000
 
 -0.1875000E+00  0.1875000E+00  0.1875000E+00  0.7812500E-02
    1       -2.834170   1.000000
    2        5.556188   1.000000
    3        6.149358   1.000000
    4       13.978619   0.000000
    5       15.210016   0.000000
    6       16.991730   0.000000
    7       19.360326   0.000000
    8       20.453126   0.000000
 
  0.3125000E+00  0.3125000E+00  0.1875000E+00  0.7812500E-02
    1        2.735137   1.000000
    2        2.735137   1.000000
    3        7.963494   1.000000
    4        7.963494   1.000000
    5       15.047507   0.000000
    6       15.047509   0.000000
    7       17.634462   0.000000
    8       17.634472   0.000000
 
 -0.3125000E+00  0.3125000E+00  0.1875000E+00  0.1562500E-01
    1       -1.941325   1.000000
    2        3.293259   1.000000
    3        6.729017   1.000000
    4       11.644531   0.213652
    5       16.314844   0.000000
    6       18.503384   0.000000
    7       19.331623   0.000000
    8       20.876143   0.000000
 
 -0.1875000E+00  0.3125000E+00  0.1875000E+00  0.1562500E-01
    1       -1.710394   1.000000
    2        4.924374   1.000000
    3        5.566484   1.000000
    4       11.809841   0.024838
    5       13.889780   0.000000
    6       18.439783   0.000000
    7       19.299046   0.000000
    8       20.545415   0.000000
 
 -0.4375000E+00  0.4375000E+00  0.1875000E+00  0.1562500E-01
    1       -0.611554   1.000000
    2        1.142011   1.000000
    3        7.971310   1.000000
    4        9.620467   1.000000
    5       17.101221   0.000000
    6       17.790358   0.000000
    7       19.883799   0.000000
    8       20.806967   0.000000
 
 -0.3125000E+00  0.4375000E+00  0.1875000E+00  0.3125000E-01
    1       -0.603539   1.000000
    2        2.870850   1.000000
    3        6.338156   1.000000
    4        9.634037   1.000000
    5       13.375562   0.000000
    6       19.724786   0.000000
    7       20.090094   0.000000
    8       22.349007   0.000000
 
 -0.1875000E+00  0.4375000E+00  0.1875000E+00  0.1562500E-01
    1        0.302226   1.000000
    2        5.150853   1.000000
    3        5.806409   1.000000
    4        9.150100   1.000000
    5       10.496135   1.000000
    6       17.514697   0.000000
    7       18.014956   0.000000
    8       21.649327   0.000000
 
 -0.4375000E+00 -0.4375000E+00  0.1875000E+00  0.1562500E-01
    1        0.930371   1.000000
    2        0.931982   1.000000
    3        7.780939   1.000000
    4        7.795663   1.000000
    5       13.193626   0.000000
    6       19.940599   0.000000
    7       20.631820   0.000000
    8       21.786447   0.000000
 
 -0.3125000E+00 -0.4375000E+00  0.1875000E+00  0.3125000E-01
    1        1.609618   1.000000
    2        3.323769   1.000000
    3        6.764280   1.000000
    4        8.309512   1.000000
    5        8.936402   1.000000
    6       17.388316   0.000000
    7       20.275699   0.000000
    8       22.468114   0.000000
 
 -0.1875000E+00 -0.4375000E+00  0.1875000E+00  0.1562500E-01
    1        3.144218   1.000000
    2        5.004871   1.000000
    3        6.376005   1.000000
    4        6.863236   1.000000
    5        9.808642   1.000000
    6       15.378554   0.000000
    7       15.704389   0.000000
    8       21.282194   0.000000
 
 -0.3125000E+00 -0.3125000E+00  0.1875000E+00  0.1562500E-01
    1        4.371351   1.000000
    2        4.654077   1.000000
    3        5.130735   1.000000
    4        7.996431   1.000000
    5        8.117557   1.000000
    6       15.304671   0.000000
    7       17.563077   0.000000
    8       19.556412   0.000000
 
 -0.1875000E+00 -0.3125000E+00  0.1875000E+00  0.1562500E-01
    1        1.707874   1.000000
    2        6.832559   1.000000
    3        8.230696   1.000000
    4        8.638048   1.000000
    5        9.913782   1.000000
    6       14.022968   0.000000
    7       14.120676   0.000000
    8       17.249697   0.000000
 
 -0.1875000E+00 -0.1875000E+00  0.1875000E+00  0.3906250E-02
    1       -0.757140   1.000000
    2       10.326922   1.000000
    3       10.326923   1.000000
    4       10.569023   1.000000
    5       11.067943   0.999487
    6       13.697582   0.000000
    7       13.697587   0.000000
    8       14.431461   0.000000
 
 -0.3125000E+00  0.3125000E+00  0.3125000E+00  0.7812500E-02
    1       -1.054819   1.000000
    2        3.836802   1.000000
    3        4.535067   1.000000
    4        9.245629   1.000000
    5       17.333939   0.000000
    6       17.902407   0.000000
    7       21.439681   0.000000
    8       21.785197   0.000000
 
 -0.4375000E+00  0.4375000E+00  0.3125000E+00  0.1562500E-01
    1        0.264042   1.000000
    2        1.995059   1.000000
    3        5.505877   1.000000
    4        7.177291   1.000000
    5       17.341743   0.000000
    6       17.480835   0.000000
    7       22.606747   0.000000
    8       23.871991   0.000000
 
 -0.3125000E+00  0.4375000E+00  0.3125000E+00  0.1562500E-01
    1        0.492064   1.000000
    2        3.624566   1.000000
    3        4.340913   1.000000
    4        7.389714   1.000000
    5       12.822134   0.000000
    6       21.673915   0.000000
    7       22.198989   0.000000
    8       22.686738   0.000000
 
 -0.4375000E+00 -0.4375000E+00  0.3125000E+00  0.1562500E-01
    1        2.001905   1.000000
    2        2.003759   1.000000
    3        5.514377   1.000000
    4        5.517331   1.000000
    5       12.630813   0.000000
    6       21.703950   0.000000
    7       22.737643   0.000000
    8       24.206717   0.000000
 
 -0.3125000E+00 -0.4375000E+00  0.3125000E+00  0.1562500E-01
    1        2.892384   1.000000
    2        4.290072   1.000000
    3        4.991990   1.000000
    4        6.358650   1.000000
    5        8.420158   1.000000
    6       19.710713   0.000000
    7       20.143560   0.000000
    8       22.572750   0.000000
 
 -0.3125000E+00 -0.3125000E+00  0.3125000E+00  0.3906250E-02
    1        4.476690   1.000000
    2        5.836897   1.000000
    3        6.066552   1.000000
    4        6.468830   1.000000
    5        6.468831   1.000000
    6       17.346516   0.000000
    7       17.346531   0.000000
    8       18.724175   0.000000
 
 -0.4375000E+00  0.4375000E+00  0.4375000E+00  0.7812500E-02
    1        1.558215   1.000000
    2        2.958553   1.000000
    3        3.708921   1.000000
    4        5.089827   1.000000
    5       17.120284   0.000000
    6       17.153180   0.000000
    7       25.593921   0.000000
    8       26.482761   0.000000
 
 -0.4375000E+00 -0.4375000E+00  0.4375000E+00  0.3906250E-02
    1        3.184493   1.000000
    2        3.186125   1.000000
    3        3.927300   1.000000
    4        3.927300   1.000000
    5       12.437430   0.000000
    6       21.887295   0.000000
    7       24.587413   0.000000
    8       24.588024   0.000000
