 vasp.5.4.4.18Apr17-6-g9f103f2a35 (build Dec 09 2018 21:25:21) complex          
  
 executed on IFC18.0.1.163_CrayMP date 2019.04.01  15:49:53
 running on    8 total cores
 distrk:  each k-point on    8 cores,    1 groups
 distr:  one band on NCORES_PER_BAND=   1 cores,    8 groups


--------------------------------------------------------------------------------------------------------


 INCAR:
 POTCAR:   PAW_PBE Si 05Jan2001                   

 ----------------------------------------------------------------------------- 
|                                                                             |
|           W    W    AA    RRRRR   N    N  II  N    N   GGGG   !!!           |
|           W    W   A  A   R    R  NN   N  II  NN   N  G    G  !!!           |
|           W    W  A    A  R    R  N N  N  II  N N  N  G       !!!           |
|           W WW W  AAAAAA  RRRRR   N  N N  II  N  N N  G  GGG   !            |
|           WW  WW  A    A  R   R   N   NN  II  N   NN  G    G                |
|           W    W  A    A  R    R  N    N  II  N    N   GGGG   !!!           |
|                                                                             |
|      For optimal performance we recommend to set                            |
|        NCORE= 4 - approx SQRT( number of cores)                             |
|      NCORE specifies how many cores store one orbital (NPAR=cpu/NCORE).     |
|      This setting can  greatly improve the performance of VASP for DFT.     |
|      The default,   NCORE=1            might be grossly inefficient         |
|      on modern multi-core architectures or massively parallel machines.     |
|      Do your own testing !!!!                                               |
|      Unfortunately you need to use the default for GW and RPA calculations. |
|      (for HF NCORE is supported but not extensively tested yet)             |
|                                                                             |
 ----------------------------------------------------------------------------- 

 POTCAR:   PAW_PBE Si 05Jan2001                   
   VRHFIN =Si: s2p2                                                             
   LEXCH  = PE                                                                  
   EATOM  =   103.0669 eV,    7.5752 Ry                                         
                                                                                
   TITEL  = PAW_PBE Si 05Jan2001                                                
   LULTRA =        F    use ultrasoft PP ?                                      
   IUNSCR =        1    unscreen: 0-lin 1-nonlin 2-no                           
   RPACOR =    1.500    partial core radius                                     
   POMASS =   28.085; ZVAL   =    4.000    mass and valenz                      
   RCORE  =    1.900    outmost cutoff radius                                   
   RWIGS  =    2.480; RWIGS  =    1.312    wigner-seitz radius (au A)           
   ENMAX  =  245.345; ENMIN  =  184.009 eV                                      
   ICORE  =        2    local potential                                         
   LCOR   =        T    correct aug charges                                     
   LPAW   =        T    paw PP                                                  
   EAUG   =  322.069                                                            
   DEXC   =    -.007                                                            
   RMAX   =    2.944    core radius for proj-oper                               
   RAUG   =    1.300    factor for augmentation sphere                          
   RDEP   =    1.993    radius for radial grids                                 
   QCUT   =   -4.246; QGAM   =    8.493    optimization parameters              
                                                                                
   Description                                                                  
     l     E      TYP  RCUT    TYP  RCUT                                        
     0   .000     23  1.900                                                     
     0   .000     23  1.900                                                     
     1   .000     23  1.900                                                     
     1   .000     23  1.900                                                     
     2   .000      7  1.900                                                     
  local pseudopotential read in
  partial core-charges read in
  atomic valenz-charges read in
  non local Contribution for L=           0  read in
    real space projection operators read in
  non local Contribution for L=           0  read in
    real space projection operators read in
  non local Contribution for L=           1  read in
    real space projection operators read in
  non local Contribution for L=           1  read in
    real space projection operators read in
    PAW grid and wavefunctions read in
 
   number of l-projection  operators is LMAX  =           4
   number of lm-projection operators is LMMAX =           8
 
 PAW_PBE Si 05Jan2001                   :
 energy of atom  1       EATOM= -103.0669
 kinetic energy error for atom=    0.0013 (will be added to EATOM!!)
 
 
 POSCAR: Si2                                     
  positions in direct lattice
  No initial velocities read in
 exchange correlation table for  LEXCH =        8
   RHO(1)=    0.500       N(1)  =     2000
   RHO(2)=  100.500       N(2)  =     4000
 


--------------------------------------------------------------------------------------------------------


 ion  position               nearest neighbor table
   1  0.000  0.000  0.000-   2 2.33   2 2.33   2 2.33   2 2.33   2 2.95   2 2.95   2 2.95   2 2.95

   2  0.250  0.750  0.500-   1 2.33   1 2.33   1 2.33   1 2.33   1 2.95   1 2.95   1 2.95   1 2.95

 
  LATTYP: Found a body centered tetragonal cell.
 ALAT       =     4.4780820000
 C/A-ratio  =     0.5706398409
  
  Lattice vectors:
  
 A1 = (  -2.2390410000,   2.2390410000,   1.2776860000)
 A2 = (   2.2390410000,  -2.2390410000,   1.2776860000)
 A3 = (   2.2390410000,   2.2390410000,  -1.2776860000)


Analysis of symmetry for initial positions (statically):
=====================================================================
 Subroutine PRICEL returns:
 Original cell was already a primitive cell.
 

 Routine SETGRP: Setting up the symmetry group for a 
 body centered tetragonal supercell.


 Subroutine GETGRP returns: Found 16 space group operations
 (whereof  8 operations were pure point group operations)
 out of a pool of 16 trial point group operations.


The static configuration has the point symmetry D_2d.
 The point group associated with its full space group is D_4h.


Analysis of symmetry for dynamics (positions and initial velocities):
=====================================================================
 Subroutine PRICEL returns:
 Original cell was already a primitive cell.
 

 Routine SETGRP: Setting up the symmetry group for a 
 body centered tetragonal supercell.


 Subroutine GETGRP returns: Found 16 space group operations
 (whereof  8 operations were pure point group operations)
 out of a pool of 16 trial point group operations.


The dynamic configuration has the point symmetry D_2d.
 The point group associated with its full space group is D_4h.


 Subroutine INISYM returns: Found 16 space group operations
 (whereof  8 operations are pure point group operations),
 and found     1 'primitive' translations

 
 
 KPOINTS: Automatic kpoint scheme                 

Automatic generation of k-mesh.
Space group operators:
 irot       det(A)        alpha          n_x          n_y          n_z        tau_x        tau_y        tau_z
    1     1.000000     0.000000     1.000000     0.000000     0.000000     0.000000     0.000000     0.000000
    2    -1.000000    90.000000     0.000000     0.000000    -1.000000     0.000000     0.000000     0.000000
    3     1.000000   180.000000    -0.000000    -0.000000    -1.000000     0.000000     0.000000     0.000000
    4    -1.000000    90.000000    -0.000000    -0.000000     1.000000     0.000000     0.000000     0.000000
    5    -1.000000   180.000000     0.000000     1.000000     0.000000     0.000000     0.000000     0.000000
    6     1.000000   180.000000     0.707107     0.707107     0.000000     0.000000     0.000000     0.000000
    7    -1.000000   180.000000     1.000000     0.000000     0.000000     0.000000     0.000000     0.000000
    8     1.000000   180.000000     0.707107    -0.707107    -0.000000     0.000000     0.000000     0.000000
    9    -1.000000     0.000000     1.000000     0.000000     0.000000     0.250000     0.750000     0.500000
   10     1.000000    90.000000     0.000000     0.000000    -1.000000     0.250000     0.750000     0.500000
   11    -1.000000   180.000000    -0.000000    -0.000000    -1.000000     0.250000     0.750000     0.500000
   12     1.000000    90.000000    -0.000000    -0.000000     1.000000     0.250000     0.750000     0.500000
   13     1.000000   180.000000     0.000000     1.000000     0.000000     0.250000     0.750000     0.500000
   14    -1.000000   180.000000     0.707107     0.707107     0.000000     0.250000     0.750000     0.500000
   15     1.000000   180.000000     1.000000     0.000000     0.000000     0.250000     0.750000     0.500000
   16    -1.000000   180.000000     0.707107    -0.707107    -0.000000     0.250000     0.750000     0.500000
 
 Subroutine IBZKPT returns following result:
 ===========================================
 
 Found     56 irreducible k-points:
 
 Following reciprocal coordinates:
            Coordinates               Weight
  0.062500  0.062500  0.062500    128.000000
  0.187500  0.062500  0.062500    256.000000
  0.312500  0.062500  0.062500    256.000000
  0.437500  0.062500  0.062500    128.000000
 -0.062500  0.062500  0.062500     64.000000
  0.187500  0.187500  0.062500    128.000000
  0.312500  0.187500  0.062500    256.000000
  0.437500  0.187500  0.062500    256.000000
 -0.437500  0.187500  0.062500    256.000000
 -0.312500  0.187500  0.062500    128.000000
 -0.187500  0.187500  0.062500    128.000000
 -0.062500  0.187500  0.062500    128.000000
  0.312500  0.312500  0.062500    128.000000
  0.437500  0.312500  0.062500    256.000000
 -0.437500  0.312500  0.062500    128.000000
 -0.312500  0.312500  0.062500    128.000000
 -0.187500  0.312500  0.062500    256.000000
 -0.062500  0.312500  0.062500    128.000000
  0.437500  0.437500  0.062500     64.000000
 -0.437500  0.437500  0.062500    128.000000
 -0.312500  0.437500  0.062500    256.000000
 -0.187500  0.437500  0.062500    256.000000
 -0.062500  0.437500  0.062500    128.000000
 -0.437500 -0.437500  0.062500    128.000000
 -0.312500 -0.437500  0.062500    256.000000
 -0.187500 -0.437500  0.062500    256.000000
 -0.062500 -0.437500  0.062500    128.000000
 -0.312500 -0.312500  0.062500    128.000000
 -0.187500 -0.312500  0.062500    256.000000
 -0.062500 -0.312500  0.062500    128.000000
 -0.187500 -0.187500  0.062500    128.000000
 -0.062500 -0.187500  0.062500    128.000000
 -0.062500 -0.062500  0.062500     32.000000
  0.187500  0.187500  0.187500    128.000000
  0.312500  0.187500  0.187500    128.000000
 -0.187500  0.187500  0.187500     64.000000
  0.312500  0.312500  0.187500     64.000000
 -0.312500  0.312500  0.187500    128.000000
 -0.187500  0.312500  0.187500    128.000000
 -0.437500  0.437500  0.187500    128.000000
 -0.312500  0.437500  0.187500    256.000000
 -0.187500  0.437500  0.187500    128.000000
 -0.437500 -0.437500  0.187500    128.000000
 -0.312500 -0.437500  0.187500    256.000000
 -0.187500 -0.437500  0.187500    128.000000
 -0.312500 -0.312500  0.187500    128.000000
 -0.187500 -0.312500  0.187500    128.000000
 -0.187500 -0.187500  0.187500     32.000000
 -0.312500  0.312500  0.312500     64.000000
 -0.437500  0.437500  0.312500    128.000000
 -0.312500  0.437500  0.312500    128.000000
 -0.437500 -0.437500  0.312500    128.000000
 -0.312500 -0.437500  0.312500    128.000000
 -0.312500 -0.312500  0.312500     32.000000
 -0.437500  0.437500  0.437500     64.000000
 -0.437500 -0.437500  0.437500     32.000000
 
 Following cartesian coordinates:
            Coordinates               Weight
  0.027914  0.027914  0.048917    128.000000
  0.027914  0.055827  0.097833    256.000000
  0.027914  0.083741  0.146750    256.000000
  0.027914  0.111655  0.195666    128.000000
  0.027914  0.000000  0.000000     64.000000
  0.055827  0.055827  0.146750    128.000000
  0.055827  0.083741  0.195666    256.000000
  0.055827  0.111655  0.244583    256.000000
  0.055827 -0.083741 -0.097833    256.000000
  0.055827 -0.055827 -0.048917    128.000000
  0.055827 -0.027914  0.000000    128.000000
  0.055827  0.000000  0.048917    128.000000
  0.083741  0.083741  0.244583    128.000000
  0.083741  0.111655  0.293499    256.000000
  0.083741 -0.083741 -0.048917    128.000000
  0.083741 -0.055827  0.000000    128.000000
  0.083741 -0.027914  0.048917    256.000000
  0.083741  0.000000  0.097833    128.000000
  0.111655  0.111655  0.342416     64.000000
  0.111655 -0.083741  0.000000    128.000000
  0.111655 -0.055827  0.048917    256.000000
  0.111655 -0.027914  0.097833    256.000000
  0.111655  0.000000  0.146750    128.000000
 -0.083741 -0.083741 -0.342416    128.000000
 -0.083741 -0.055827 -0.293499    256.000000
 -0.083741 -0.027914 -0.244583    256.000000
 -0.083741  0.000000 -0.195666    128.000000
 -0.055827 -0.055827 -0.244583    128.000000
 -0.055827 -0.027914 -0.195666    256.000000
 -0.055827  0.000000 -0.146750    128.000000
 -0.027914 -0.027914 -0.146750    128.000000
 -0.027914  0.000000 -0.097833    128.000000
  0.000000  0.000000 -0.048917     32.000000
  0.083741  0.083741  0.146750    128.000000
  0.083741  0.111655  0.195666    128.000000
  0.083741  0.000000  0.000000     64.000000
  0.111655  0.111655  0.244583     64.000000
  0.111655 -0.027914  0.000000    128.000000
  0.111655  0.000000  0.048917    128.000000
  0.139569 -0.055827  0.000000    128.000000
  0.139569 -0.027914  0.048917    256.000000
  0.139569  0.000000  0.097833    128.000000
 -0.055827 -0.055827 -0.342416    128.000000
 -0.055827 -0.027914 -0.293499    256.000000
 -0.055827  0.000000 -0.244583    128.000000
 -0.027914 -0.027914 -0.244583    128.000000
 -0.027914  0.000000 -0.195666    128.000000
  0.000000  0.000000 -0.146750     32.000000
  0.139569  0.000000  0.000000     64.000000
  0.167482 -0.027914  0.000000    128.000000
  0.167482  0.000000  0.048917    128.000000
 -0.027914 -0.027914 -0.342416    128.000000
 -0.027914  0.000000 -0.293499    128.000000
  0.000000  0.000000 -0.244583     32.000000
  0.195396  0.000000  0.000000     64.000000
  0.000000  0.000000 -0.342416     32.000000
 


--------------------------------------------------------------------------------------------------------




 Dimension of arrays:
   k-points           NKPTS =     56   k-points in BZ     NKDIM =     56   number of bands    NBANDS=      8
   number of dos      NEDOS =    301   number of ions     NIONS =      2
   non local maximal  LDIM  =      4   non local SUM 2l+1 LMDIM =      8
   total plane-waves  NPLWV =   4096
   max r-space proj   IRMAX =      1   max aug-charges    IRDMAX=   5544
   dimension x,y,z NGX =    16 NGY =   16 NGZ =   16
   dimension x,y,z NGXF=    32 NGYF=   32 NGZF=   32
   support grid    NGXF=    32 NGYF=   32 NGZF=   32
   ions per type =               2
   NGX,Y,Z   is equivalent  to a cutoff of   7.79,  7.79,  7.79 a.u.
   NGXF,Y,Z  is equivalent  to a cutoff of  15.58, 15.58, 15.58 a.u.

 SYSTEM =  unknown system                          
 POSCAR =  Si2                                     

 Startparameter for this run:
   NWRITE =      2    write-flag & timer
   PREC   = normal    normal or accurate (medium, high low for compatibility)
   ISTART =      0    job   : 0-new  1-cont  2-samecut
   ICHARG =      2    charge: 1-file 2-atom 10-const
   ISPIN  =      1    spin polarized calculation?
   LNONCOLLINEAR =      F non collinear calculations
   LSORBIT =      F    spin-orbit coupling
   INIWAV =      1    electr: 0-lowe 1-rand  2-diag
   LASPH  =      F    aspherical Exc in radial PAW
   METAGGA=      F    non-selfconsistent MetaGGA calc.

 Electronic Relaxation 1
   ENCUT  =  350.0 eV  25.72 Ry    5.07 a.u.   5.21  5.21  5.21*2*pi/ulx,y,z
   ENINI  =  350.0     initial cutoff
   ENAUG  =  322.1 eV  augmentation charge cutoff
   NELM   =     60;   NELMIN=  2; NELMDL= -5     # of ELM steps 
   EDIFF  = 0.4E-03   stopping-criterion for ELM
   LREAL  =      F    real-space projection
   NLSPLINE    = F    spline interpolate recip. space projectors
   LCOMPAT=      F    compatible to vasp.4.4
   GGA_COMPAT  = T    GGA compatible to vasp.4.4-vasp.4.6
   LMAXPAW     = -100 max onsite density
   LMAXMIX     =    2 max onsite mixed and CHGCAR
   VOSKOWN=      0    Vosko Wilk Nusair interpolation
   ROPT   =    0.00000
 Ionic relaxation
   EDIFFG = -.1E-01   stopping-criterion for IOM
   NSW    =     15    number of steps for IOM
   NBLOCK =      1;   KBLOCK =     15    inner block; outer block 
   IBRION =      2    ionic relax: 0-MD 1-quasi-New 2-CG
   NFREE  =      1    steps in history (QN), initial steepest desc. (CG)
   ISIF   =      2    stress and relaxation
   IWAVPR =     11    prediction:  0-non 1-charg 2-wave 3-comb
   ISYM   =      2    0-nonsym 1-usesym 2-fastsym
   LCORR  =      T    Harris-Foulkes like correction to forces

   POTIM  = 0.5000    time-step for ionic-motion
   TEIN   =    0.0    initial temperature
   TEBEG  =    0.0;   TEEND  =   0.0 temperature during run
   SMASS  =  -3.00    Nose mass-parameter (am)
   estimated Nose-frequenzy (Omega)   =  0.10E-29 period in steps =****** mass=  -0.266E-27a.u.
   SCALEE = 1.0000    scale energy and forces
   NPACO  =    256;   APACO  = 16.0  distance and # of slots for P.C.
   PSTRESS=    0.0 pullay stress

  Mass of Ions in am
   POMASS =  28.09
  Ionic Valenz
   ZVAL   =   4.00
  Atomic Wigner-Seitz radii
   RWIGS  =  -1.00
  virtual crystal weights 
   VCA    =   1.00
   NELECT =       8.0000    total number of electrons
   NUPDOWN=      -1.0000    fix difference up-down

 DOS related values:
   EMIN   =  10.00;   EMAX   =-10.00  energy-range for DOS
   EFERMI =   0.00
   ISMEAR =     0;   SIGMA  =   0.20  broadening in eV -4-tet -1-fermi 0-gaus

 Electronic relaxation 2 (details)
   IALGO  =     38    algorithm
   LDIAG  =      T    sub-space diagonalisation (order eigenvalues)
   LSUBROT=      F    optimize rotation matrix (better conditioning)
   TURBO    =      0    0=normal 1=particle mesh
   IRESTART =      0    0=no restart 2=restart with 2 vectors
   NREBOOT  =      0    no. of reboots
   NMIN     =      0    reboot dimension
   EREF     =   0.00    reference energy to select bands
   IMIX   =      4    mixing-type and parameters
     AMIX     =   0.40;   BMIX     =  1.00
     AMIX_MAG =   1.60;   BMIX_MAG =  1.00
     AMIN     =   0.10
     WC   =   100.;   INIMIX=   1;  MIXPRE=   1;  MAXMIX= -45

 Intra band minimization:
   WEIMIN = 0.0010     energy-eigenvalue tresh-hold
   EBREAK =  0.13E-04  absolut break condition
   DEPER  =   0.30     relativ break condition  

   TIME   =   0.40     timestep for ELM

  volume/ion in A,a.u.               =      12.81        86.45
  Fermi-wavevector in a.u.,A,eV,Ry     =   1.110628  2.098783 16.782723  1.233495
  Thomas-Fermi vector in A             =   2.247182
 
 Write flags
   LWAVE        =      T    write WAVECAR
   LDOWNSAMPLE  =      F    k-point downsampling of WAVECAR
   LCHARG       =      T    write CHGCAR
   LVTOT        =      F    write LOCPOT, total local potential
   LVHAR        =      F    write LOCPOT, Hartree potential only
   LELF         =      F    write electronic localiz. function (ELF)
   LORBIT       =      0    0 simple, 1 ext, 2 COOP (PROOUT), +10 PAW based schemes


 Dipole corrections
   LMONO  =      F    monopole corrections only (constant potential shift)
   LDIPOL =      F    correct potential (dipole corrections)
   IDIPOL =      0    1-x, 2-y, 3-z, 4-all directions 
   EPSILON=  1.0000000 bulk dielectric constant

 Exchange correlation treatment:
   GGA     =    --    GGA type
   LEXCH   =     8    internal setting for exchange type
   VOSKOWN=      0    Vosko Wilk Nusair interpolation
   LHFCALC =     F    Hartree Fock is set to
   LHFONE  =     F    Hartree Fock one center treatment
   AEXX    =    0.0000 exact exchange contribution

 Linear response parameters
   LEPSILON=     F    determine dielectric tensor
   LRPA    =     F    only Hartree local field effects (RPA)
   LNABLA  =     F    use nabla operator in PAW spheres
   LVEL    =     F    velocity operator in full k-point grid
   LINTERFAST=   F  fast interpolation
   KINTER  =     0    interpolate to denser k-point grid
   CSHIFT  =0.1000    complex shift for real part using Kramers Kronig
   OMEGAMAX=  -1.0    maximum frequency
   DEG_THRESHOLD= 0.2000000E-02 threshold for treating states as degnerate
   RTIME   =   -0.100 relaxation time in fs
  (WPLASMAI=    0.000 imaginary part of plasma frequency in eV, 0.658/RTIME)
   DFIELD  = 0.0000000 0.0000000 0.0000000 field for delta impulse in time
 
 Orbital magnetization related:
   ORBITALMAG=     F  switch on orbital magnetization
   LCHIMAG   =     F  perturbation theory with respect to B field
   DQ        =  0.001000  dq finite difference perturbation B field
   LLRAUG    =     F  two centre corrections for induced B field



--------------------------------------------------------------------------------------------------------


 conjugate gradient relaxation of ions
 charge density and potential will be updated during run
 non-spin polarized calculation
 Variant of blocked Davidson
 Davidson routine will perform the subspace rotation
 perform sub-space diagonalisation
    after iterative eigenvector-optimisation
 modified Broyden-mixing scheme, WC =      100.0
 initial mixing is a Kerker type mixing with AMIX =  0.4000 and BMIX =      1.0000
 Hartree-type preconditioning will be used
 using additional bands            4
 reciprocal scheme for non local part
 use partial core corrections
 calculate Harris-corrections to forces 
   (improved forces if not selfconsistent)
 use gradient corrections 
 use of overlap-Matrix (Vanderbilt PP)
 Gauss-broadening in eV      SIGMA  =   0.20


--------------------------------------------------------------------------------------------------------


  energy-cutoff  :      350.00
  volume of cell :       25.62
      direct lattice vectors                 reciprocal lattice vectors
    -2.239041000  2.239041000  1.277686000    -0.000000000  0.223309890  0.391332456
     2.239041000 -2.239041000  1.277686000     0.223309890 -0.000000000  0.391332456
     2.239041000  2.239041000 -1.277686000     0.223309890  0.223309890  0.000000000

  length of vectors
     3.414541069  3.414541069  3.414541069     0.450564533  0.450564533  0.315807875


 
 k-points in units of 2pi/SCALE and weight: Automatic kpoint scheme                 
   0.02791374  0.02791374  0.04891656       0.016
   0.02791374  0.05582747  0.09783311       0.031
   0.02791374  0.08374121  0.14674967       0.031
   0.02791374  0.11165495  0.19566623       0.016
   0.02791374  0.00000000  0.00000000       0.008
   0.05582747  0.05582747  0.14674967       0.016
   0.05582747  0.08374121  0.19566623       0.031
   0.05582747  0.11165495  0.24458278       0.031
   0.05582747 -0.08374121 -0.09783311       0.031
   0.05582747 -0.05582747 -0.04891656       0.016
   0.05582747 -0.02791374  0.00000000       0.016
   0.05582747  0.00000000  0.04891656       0.016
   0.08374121  0.08374121  0.24458278       0.016
   0.08374121  0.11165495  0.29349934       0.031
   0.08374121 -0.08374121 -0.04891656       0.016
   0.08374121 -0.05582747 -0.00000000       0.016
   0.08374121 -0.02791374  0.04891656       0.031
   0.08374121  0.00000000  0.09783311       0.016
   0.11165495  0.11165495  0.34241590       0.008
   0.11165495 -0.08374121  0.00000000       0.016
   0.11165495 -0.05582747  0.04891656       0.031
   0.11165495 -0.02791374  0.09783311       0.031
   0.11165495  0.00000000  0.14674967       0.016
  -0.08374121 -0.08374121 -0.34241590       0.016
  -0.08374121 -0.05582747 -0.29349934       0.031
  -0.08374121 -0.02791374 -0.24458278       0.031
  -0.08374121  0.00000000 -0.19566623       0.016
  -0.05582747 -0.05582747 -0.24458278       0.016
  -0.05582747 -0.02791374 -0.19566623       0.031
  -0.05582747  0.00000000 -0.14674967       0.016
  -0.02791374 -0.02791374 -0.14674967       0.016
  -0.02791374  0.00000000 -0.09783311       0.016
   0.00000000  0.00000000 -0.04891656       0.004
   0.08374121  0.08374121  0.14674967       0.016
   0.08374121  0.11165495  0.19566623       0.016
   0.08374121  0.00000000  0.00000000       0.008
   0.11165495  0.11165495  0.24458278       0.008
   0.11165495 -0.02791374 -0.00000000       0.016
   0.11165495  0.00000000  0.04891656       0.016
   0.13956868 -0.05582747  0.00000000       0.016
   0.13956868 -0.02791374  0.04891656       0.031
   0.13956868  0.00000000  0.09783311       0.016
  -0.05582747 -0.05582747 -0.34241590       0.016
  -0.05582747 -0.02791374 -0.29349934       0.031
  -0.05582747  0.00000000 -0.24458278       0.016
  -0.02791374 -0.02791374 -0.24458278       0.016
  -0.02791374  0.00000000 -0.19566623       0.016
   0.00000000  0.00000000 -0.14674967       0.004
   0.13956868  0.00000000  0.00000000       0.008
   0.16748242 -0.02791374  0.00000000       0.016
   0.16748242  0.00000000  0.04891656       0.016
  -0.02791374 -0.02791374 -0.34241590       0.016
  -0.02791374  0.00000000 -0.29349934       0.016
   0.00000000  0.00000000 -0.24458278       0.004
   0.19539615  0.00000000  0.00000000       0.008
   0.00000000  0.00000000 -0.34241590       0.004
 
 k-points in reciprocal lattice and weights: Automatic kpoint scheme                 
   0.06250000  0.06250000  0.06250000       0.016
   0.18750000  0.06250000  0.06250000       0.031
   0.31250000  0.06250000  0.06250000       0.031
   0.43750000  0.06250000  0.06250000       0.016
  -0.06250000  0.06250000  0.06250000       0.008
   0.18750000  0.18750000  0.06250000       0.016
   0.31250000  0.18750000  0.06250000       0.031
   0.43750000  0.18750000  0.06250000       0.031
  -0.43750000  0.18750000  0.06250000       0.031
  -0.31250000  0.18750000  0.06250000       0.016
  -0.18750000  0.18750000  0.06250000       0.016
  -0.06250000  0.18750000  0.06250000       0.016
   0.31250000  0.31250000  0.06250000       0.016
   0.43750000  0.31250000  0.06250000       0.031
  -0.43750000  0.31250000  0.06250000       0.016
  -0.31250000  0.31250000  0.06250000       0.016
  -0.18750000  0.31250000  0.06250000       0.031
  -0.06250000  0.31250000  0.06250000       0.016
   0.43750000  0.43750000  0.06250000       0.008
  -0.43750000  0.43750000  0.06250000       0.016
  -0.31250000  0.43750000  0.06250000       0.031
  -0.18750000  0.43750000  0.06250000       0.031
  -0.06250000  0.43750000  0.06250000       0.016
  -0.43750000 -0.43750000  0.06250000       0.016
  -0.31250000 -0.43750000  0.06250000       0.031
  -0.18750000 -0.43750000  0.06250000       0.031
  -0.06250000 -0.43750000  0.06250000       0.016
  -0.31250000 -0.31250000  0.06250000       0.016
  -0.18750000 -0.31250000  0.06250000       0.031
  -0.06250000 -0.31250000  0.06250000       0.016
  -0.18750000 -0.18750000  0.06250000       0.016
  -0.06250000 -0.18750000  0.06250000       0.016
  -0.06250000 -0.06250000  0.06250000       0.004
   0.18750000  0.18750000  0.18750000       0.016
   0.31250000  0.18750000  0.18750000       0.016
  -0.18750000  0.18750000  0.18750000       0.008
   0.31250000  0.31250000  0.18750000       0.008
  -0.31250000  0.31250000  0.18750000       0.016
  -0.18750000  0.31250000  0.18750000       0.016
  -0.43750000  0.43750000  0.18750000       0.016
  -0.31250000  0.43750000  0.18750000       0.031
  -0.18750000  0.43750000  0.18750000       0.016
  -0.43750000 -0.43750000  0.18750000       0.016
  -0.31250000 -0.43750000  0.18750000       0.031
  -0.18750000 -0.43750000  0.18750000       0.016
  -0.31250000 -0.31250000  0.18750000       0.016
  -0.18750000 -0.31250000  0.18750000       0.016
  -0.18750000 -0.18750000  0.18750000       0.004
  -0.31250000  0.31250000  0.31250000       0.008
  -0.43750000  0.43750000  0.31250000       0.016
  -0.31250000  0.43750000  0.31250000       0.016
  -0.43750000 -0.43750000  0.31250000       0.016
  -0.31250000 -0.43750000  0.31250000       0.016
  -0.31250000 -0.31250000  0.31250000       0.004
  -0.43750000  0.43750000  0.43750000       0.008
  -0.43750000 -0.43750000  0.43750000       0.004
 
 position of ions in fractional coordinates (direct lattice) 
   0.00000000  0.00000000  0.00000000
   0.25000000  0.75000000  0.50000000
 
 position of ions in cartesian coordinates  (Angst):
   0.00000000  0.00000000  0.00000000
   2.23904100  0.00000000  0.63884300
 


--------------------------------------------------------------------------------------------------------


 k-point  1 :   0.0625 0.0625 0.0625  plane waves:     375
 k-point  2 :   0.1875 0.0625 0.0625  plane waves:     378
 k-point  3 :   0.3125 0.0625 0.0625  plane waves:     381
 k-point  4 :   0.4375 0.0625 0.0625  plane waves:     382
 k-point  5 :  -0.0625 0.0625 0.0625  plane waves:     379
 k-point  6 :   0.1875 0.1875 0.0625  plane waves:     383
 k-point  7 :   0.3125 0.1875 0.0625  plane waves:     384
 k-point  8 :   0.4375 0.1875 0.0625  plane waves:     384
 k-point  9 :  -0.4375 0.1875 0.0625  plane waves:     385
 k-point 10 :  -0.3125 0.1875 0.0625  plane waves:     377
 k-point 11 :  -0.1875 0.1875 0.0625  plane waves:     379
 k-point 12 :  -0.0625 0.1875 0.0625  plane waves:     377
 k-point 13 :   0.3125 0.3125 0.0625  plane waves:     383
 k-point 14 :   0.4375 0.3125 0.0625  plane waves:     385
 k-point 15 :  -0.4375 0.3125 0.0625  plane waves:     389
 k-point 16 :  -0.3125 0.3125 0.0625  plane waves:     379
 k-point 17 :  -0.1875 0.3125 0.0625  plane waves:     376
 k-point 18 :  -0.0625 0.3125 0.0625  plane waves:     386
 k-point 19 :   0.4375 0.4375 0.0625  plane waves:     388
 k-point 20 :  -0.4375 0.4375 0.0625  plane waves:     380
 k-point 21 :  -0.3125 0.4375 0.0625  plane waves:     379
 k-point 22 :  -0.1875 0.4375 0.0625  plane waves:     379
 k-point 23 :  -0.0625 0.4375 0.0625  plane waves:     386
 k-point 24 :  -0.4375-0.4375 0.0625  plane waves:     379
 k-point 25 :  -0.3125-0.4375 0.0625  plane waves:     383
 k-point 26 :  -0.1875-0.4375 0.0625  plane waves:     388
 k-point 27 :  -0.0625-0.4375 0.0625  plane waves:     382
 k-point 28 :  -0.3125-0.3125 0.0625  plane waves:     385
 k-point 29 :  -0.1875-0.3125 0.0625  plane waves:     384
 k-point 30 :  -0.0625-0.3125 0.0625  plane waves:     378
 k-point 31 :  -0.1875-0.1875 0.0625  plane waves:     378
 k-point 32 :  -0.0625-0.1875 0.0625  plane waves:     373
 k-point 33 :  -0.0625-0.0625 0.0625  plane waves:     368
 k-point 34 :   0.1875 0.1875 0.1875  plane waves:     383
 k-point 35 :   0.3125 0.1875 0.1875  plane waves:     384
 k-point 36 :  -0.1875 0.1875 0.1875  plane waves:     373
 k-point 37 :   0.3125 0.3125 0.1875  plane waves:     378
 k-point 38 :  -0.3125 0.3125 0.1875  plane waves:     373
 k-point 39 :  -0.1875 0.3125 0.1875  plane waves:     381
 k-point 40 :  -0.4375 0.4375 0.1875  plane waves:     375
 k-point 41 :  -0.3125 0.4375 0.1875  plane waves:     376
 k-point 42 :  -0.1875 0.4375 0.1875  plane waves:     382
 k-point 43 :  -0.4375-0.4375 0.1875  plane waves:     377
 k-point 44 :  -0.3125-0.4375 0.1875  plane waves:     379
 k-point 45 :  -0.1875-0.4375 0.1875  plane waves:     385
 k-point 46 :  -0.3125-0.3125 0.1875  plane waves:     388
 k-point 47 :  -0.1875-0.3125 0.1875  plane waves:     385
 k-point 48 :  -0.1875-0.1875 0.1875  plane waves:     380
 k-point 49 :  -0.3125 0.3125 0.3125  plane waves:     375
 k-point 50 :  -0.4375 0.4375 0.3125  plane waves:     382
 k-point 51 :  -0.3125 0.4375 0.3125  plane waves:     378
 k-point 52 :  -0.4375-0.4375 0.3125  plane waves:     379
 k-point 53 :  -0.3125-0.4375 0.3125  plane waves:     382
 k-point 54 :  -0.3125-0.3125 0.3125  plane waves:     396
 k-point 55 :  -0.4375 0.4375 0.4375  plane waves:     380
 k-point 56 :  -0.4375-0.4375 0.4375  plane waves:     380

 maximum and minimum number of plane-waves per node :       396      368

 maximum number of plane-waves:       396
 maximum index in each direction: 
   IXMAX=    5   IYMAX=    5   IZMAX=    5
   IXMIN=   -5   IYMIN=   -5   IZMIN=   -5


 serial   3D FFT for wavefunctions
 parallel 3D FFT for charge:
    minimum data exchange during FFTs selected (reduces bandwidth)


 total amount of memory used by VASP MPI-rank0    32356. kBytes
=======================================================================

   base      :      30000. kBytes
   nonl-proj :       1446. kBytes
   fftplans  :        160. kBytes
   grid      :        372. kBytes
   one-center:          6. kBytes
   wavefun   :        372. kBytes
 
     INWAV:  cpu time    0.0000: real time    0.0003
 Broyden mixing: mesh for mixing (old mesh)
   NGX = 11   NGY = 11   NGZ = 11
  (NGX  = 32   NGY  = 32   NGZ  = 32)
  gives a total of   1331 points

 initial charge density was supplied:
 charge density of overlapping atoms calculated
 number of electron       8.0000000 magnetization 
 keeping initial charge density in first step


--------------------------------------------------------------------------------------------------------


 Maximum index for augmentation-charges          649 (set IRDMAX)


--------------------------------------------------------------------------------------------------------


 First call to EWALD:  gamma=   0.601
 Maximum number of real-space cells 3x 3x 3
 Maximum number of reciprocal cells 3x 3x 3

    FEWALD:  cpu time    0.0080: real time    0.0072


--------------------------------------- Iteration      1(   1)  ---------------------------------------


    POTLOK:  cpu time    0.0280: real time    0.0333
    SETDIJ:  cpu time    0.0120: real time    0.0097
     EDDAV:  cpu time    0.4400: real time    0.4437
       DOS:  cpu time    0.0040: real time    0.0030
    --------------------------------------------
      LOOP:  cpu time    0.4840: real time    0.4904

 eigenvalue-minimisations  :   920
 total energy-change (2. order) : 0.9833874E+00  (-0.2911806E+03)
 number of electron       8.0000000 magnetization 
 augmentation part        8.0000000 magnetization 

 Free energy of the ion-electron system (eV)
  ---------------------------------------------------
  alpha Z        PSCENC =         5.25539786
  Ewald energy   TEWEN  =      -281.31970044
  -Hartree energ DENC   =        -1.31838215
  -exchange      EXHF   =         0.00000000
  -V(xc)+E(xc)   XCENC  =       -16.88678383
  PAW double counting   =        65.95520812      -30.76852678
  entropy T*S    EENTRO =        -0.01699779
  eigenvalues    EBANDS =        53.95191827
  atomic energy  EATOM  =       206.13125414
  Solvation  Ediel_sol  =         0.00000000
  ---------------------------------------------------
  free energy    TOTEN  =         0.98338740 eV

  energy without entropy =        1.00038520  energy(sigma->0) =        0.99188630


--------------------------------------------------------------------------------------------------------




--------------------------------------- Iteration      1(   2)  ---------------------------------------


     EDDAV:  cpu time    0.6640: real time    0.6749
       DOS:  cpu time    0.0040: real time    0.0030
    --------------------------------------------
      LOOP:  cpu time    0.6680: real time    0.6778

 eigenvalue-minimisations  :  1344
 total energy-change (2. order) :-0.1074979E+02  (-0.1039047E+02)
 number of electron       8.0000000 magnetization 
 augmentation part        8.0000000 magnetization 

 Free energy of the ion-electron system (eV)
  ---------------------------------------------------
  alpha Z        PSCENC =         5.25539786
  Ewald energy   TEWEN  =      -281.31970044
  -Hartree energ DENC   =        -1.31838215
  -exchange      EXHF   =         0.00000000
  -V(xc)+E(xc)   XCENC  =       -16.88678383
  PAW double counting   =        65.95520812      -30.76852678
  entropy T*S    EENTRO =        -0.01356161
  eigenvalues    EBANDS =        43.19869581
  atomic energy  EATOM  =       206.13125414
  Solvation  Ediel_sol  =         0.00000000
  ---------------------------------------------------
  free energy    TOTEN  =        -9.76639888 eV

  energy without entropy =       -9.75283726  energy(sigma->0) =       -9.75961807


--------------------------------------------------------------------------------------------------------




--------------------------------------- Iteration      1(   3)  ---------------------------------------


     EDDAV:  cpu time    0.6080: real time    0.6134
       DOS:  cpu time    0.0040: real time    0.0030
    --------------------------------------------
      LOOP:  cpu time    0.6120: real time    0.6165

 eigenvalue-minimisations  :  1208
 total energy-change (2. order) :-0.1317368E+00  (-0.1306743E+00)
 number of electron       8.0000000 magnetization 
 augmentation part        8.0000000 magnetization 

 Free energy of the ion-electron system (eV)
  ---------------------------------------------------
  alpha Z        PSCENC =         5.25539786
  Ewald energy   TEWEN  =      -281.31970044
  -Hartree energ DENC   =        -1.31838215
  -exchange      EXHF   =         0.00000000
  -V(xc)+E(xc)   XCENC  =       -16.88678383
  PAW double counting   =        65.95520812      -30.76852678
  entropy T*S    EENTRO =        -0.01463933
  eigenvalues    EBANDS =        43.06803669
  atomic energy  EATOM  =       206.13125414
  Solvation  Ediel_sol  =         0.00000000
  ---------------------------------------------------
  free energy    TOTEN  =        -9.89813571 eV

  energy without entropy =       -9.88349639  energy(sigma->0) =       -9.89081605


--------------------------------------------------------------------------------------------------------




--------------------------------------- Iteration      1(   4)  ---------------------------------------


     EDDAV:  cpu time    0.7280: real time    0.7362
       DOS:  cpu time    0.0040: real time    0.0029
    --------------------------------------------
      LOOP:  cpu time    0.7320: real time    0.7390

 eigenvalue-minimisations  :  1440
 total energy-change (2. order) :-0.3256341E-03  (-0.3253294E-03)
 number of electron       8.0000000 magnetization 
 augmentation part        8.0000000 magnetization 

 Free energy of the ion-electron system (eV)
  ---------------------------------------------------
  alpha Z        PSCENC =         5.25539786
  Ewald energy   TEWEN  =      -281.31970044
  -Hartree energ DENC   =        -1.31838215
  -exchange      EXHF   =         0.00000000
  -V(xc)+E(xc)   XCENC  =       -16.88678383
  PAW double counting   =        65.95520812      -30.76852678
  entropy T*S    EENTRO =        -0.01463999
  eigenvalues    EBANDS =        43.06771171
  atomic energy  EATOM  =       206.13125414
  Solvation  Ediel_sol  =         0.00000000
  ---------------------------------------------------
  free energy    TOTEN  =        -9.89846135 eV

  energy without entropy =       -9.88382136  energy(sigma->0) =       -9.89114135


--------------------------------------------------------------------------------------------------------




--------------------------------------- Iteration      1(   5)  ---------------------------------------


     EDDAV:  cpu time    0.5960: real time    0.6037
       DOS:  cpu time    0.0040: real time    0.0031
    CHARGE:  cpu time    0.0200: real time    0.0184
    MIXING:  cpu time    0.0000: real time    0.0019
    --------------------------------------------
      LOOP:  cpu time    0.6200: real time    0.6271

 eigenvalue-minimisations  :  1192
 total energy-change (2. order) :-0.2818718E-06  (-0.2808055E-06)
 number of electron       7.9999996 magnetization 
 augmentation part       -0.4721516 magnetization 

 Broyden mixing:
  rms(total) = 0.19136E+00    rms(broyden)= 0.19136E+00
  rms(prec ) = 0.44530E+00
  weight for this iteration     100.00

 Free energy of the ion-electron system (eV)
  ---------------------------------------------------
  alpha Z        PSCENC =         5.25539786
  Ewald energy   TEWEN  =      -281.31970044
  -Hartree energ DENC   =        -1.31838215
  -exchange      EXHF   =         0.00000000
  -V(xc)+E(xc)   XCENC  =       -16.88678383
  PAW double counting   =        65.95520812      -30.76852678
  entropy T*S    EENTRO =        -0.01464000
  eigenvalues    EBANDS =        43.06771144
  atomic energy  EATOM  =       206.13125414
  Solvation  Ediel_sol  =         0.00000000
  ---------------------------------------------------
  free energy    TOTEN  =        -9.89846163 eV

  energy without entropy =       -9.88382163  energy(sigma->0) =       -9.89114163


--------------------------------------------------------------------------------------------------------




--------------------------------------- Iteration      1(   6)  ---------------------------------------


    POTLOK:  cpu time    0.0200: real time    0.0241
    SETDIJ:  cpu time    0.0080: real time    0.0085
     EDDAV:  cpu time    0.6000: real time    0.6003
       DOS:  cpu time    0.0000: real time    0.0030
    CHARGE:  cpu time    0.0200: real time    0.0170
    MIXING:  cpu time    0.0000: real time    0.0017
    --------------------------------------------
      LOOP:  cpu time    0.6480: real time    0.6546

 eigenvalue-minimisations  :  1224
 total energy-change (2. order) : 0.2390757E-01  (-0.6835005E-03)
 number of electron       7.9999996 magnetization 
 augmentation part       -0.4724753 magnetization 

 Broyden mixing:
  rms(total) = 0.11696E+00    rms(broyden)= 0.11696E+00
  rms(prec ) = 0.27080E+00
  weight for this iteration     100.00

 eigenvalues of (default mixing * dielectric matrix)
  average eigenvalue GAMMA=   2.5595
  2.5595

 Free energy of the ion-electron system (eV)
  ---------------------------------------------------
  alpha Z        PSCENC =         5.25539786
  Ewald energy   TEWEN  =      -281.31970044
  -Hartree energ DENC   =        -1.46664140
  -exchange      EXHF   =         0.00000000
  -V(xc)+E(xc)   XCENC  =       -16.76295613
  PAW double counting   =        69.88124932      -34.79325011
  entropy T*S    EENTRO =        -0.01488482
  eigenvalues    EBANDS =        43.21497751
  atomic energy  EATOM  =       206.13125414
  Solvation  Ediel_sol  =         0.00000000
  ---------------------------------------------------
  free energy    TOTEN  =        -9.87455406 eV

  energy without entropy =       -9.85966924  energy(sigma->0) =       -9.86711165


--------------------------------------------------------------------------------------------------------




--------------------------------------- Iteration      1(   7)  ---------------------------------------


    POTLOK:  cpu time    0.0200: real time    0.0485
    SETDIJ:  cpu time    0.0080: real time    0.0085
     EDDAV:  cpu time    0.5960: real time    0.5952
       DOS:  cpu time    0.0000: real time    0.0030
    CHARGE:  cpu time    0.0160: real time    0.0165
    MIXING:  cpu time    0.0040: real time    0.0016
    --------------------------------------------
      LOOP:  cpu time    0.6440: real time    0.6732

 eigenvalue-minimisations  :  1224
 total energy-change (2. order) : 0.1380094E-01  (-0.1539782E-02)
 number of electron       7.9999996 magnetization 
 augmentation part       -0.4736596 magnetization 

 Broyden mixing:
  rms(total) = 0.76133E-02    rms(broyden)= 0.76132E-02
  rms(prec ) = 0.22246E-01
  weight for this iteration     100.00

 eigenvalues of (default mixing * dielectric matrix)
  average eigenvalue GAMMA=   2.5265
  2.5265  2.5265

 Free energy of the ion-electron system (eV)
  ---------------------------------------------------
  alpha Z        PSCENC =         5.25539786
  Ewald energy   TEWEN  =      -281.31970044
  -Hartree energ DENC   =        -1.79924270
  -exchange      EXHF   =         0.00000000
  -V(xc)+E(xc)   XCENC  =       -16.54773634
  PAW double counting   =        76.00512068      -41.07114631
  entropy T*S    EENTRO =        -0.01527178
  eigenvalues    EBANDS =        43.50057176
  atomic energy  EATOM  =       206.13125414
  Solvation  Ediel_sol  =         0.00000000
  ---------------------------------------------------
  free energy    TOTEN  =        -9.86075312 eV

  energy without entropy =       -9.84548134  energy(sigma->0) =       -9.85311723


--------------------------------------------------------------------------------------------------------




--------------------------------------- Iteration      1(   8)  ---------------------------------------


    POTLOK:  cpu time    0.0200: real time    0.0246
    SETDIJ:  cpu time    0.0080: real time    0.0085
     EDDAV:  cpu time    0.3200: real time    0.3222
       DOS:  cpu time    0.0040: real time    0.0023
    --------------------------------------------
      LOOP:  cpu time    0.3520: real time    0.3576

 eigenvalue-minimisations  :   832
 total energy-change (2. order) : 0.1285304E-03  (-0.9666068E-04)
 number of electron       7.9999996 magnetization 
 augmentation part       -0.4736596 magnetization 

 Free energy of the ion-electron system (eV)
  ---------------------------------------------------
  alpha Z        PSCENC =         5.25539786
  Ewald energy   TEWEN  =      -281.31970044
  -Hartree energ DENC   =        -1.79813140
  -exchange      EXHF   =         0.00000000
  -V(xc)+E(xc)   XCENC  =       -16.54282850
  PAW double counting   =        75.68121355      -40.74185248
  entropy T*S    EENTRO =        -0.01519543
  eigenvalues    EBANDS =        43.48921810
  atomic energy  EATOM  =       206.13125414
  Solvation  Ediel_sol  =         0.00000000
  ---------------------------------------------------
  free energy    TOTEN  =        -9.86062459 eV

  energy without entropy =       -9.84542916  energy(sigma->0) =       -9.85302688


--------------------------------------------------------------------------------------------------------




 average (electrostatic) potential at core
  the test charge radii are     0.9892
  (the norm of the test charge is              1.0000)
       1 -77.9902       2 -77.9902
 
 
 
 E-fermi :  11.5323     XC(G=0): -11.6183     alpha+bet :-18.7220


 k-point     1 :       0.0625    0.0625    0.0625
  band No.  band energies     occupation 
      1      -3.2741      2.00000
      2       7.0314      2.00000
      3       9.3296      2.00000
      4      11.7752      0.08585
      5      14.4183      0.00000
      6      17.2105      0.00000
      7      17.5058      0.00000
      8      20.2125      0.00000

 k-point     2 :       0.1875    0.0625    0.0625
  band No.  band energies     occupation 
      1      -1.9073      2.00000
      2       6.6706      2.00000
      3       9.6200      2.00000
      4      11.7136      0.19969
      5      13.7275      0.00000
      6      14.5358      0.00000
      7      16.9263      0.00000
      8      18.0159      0.00000

 k-point     3 :       0.3125    0.0625    0.0625
  band No.  band energies     occupation 
      1       0.3439      2.00000
      2       6.9728      2.00000
      3       7.5098      2.00000
      4       9.7192      2.00000
      5      11.4817      1.27960
      6      14.2646      0.00000
      7      17.3543      0.00000
      8      17.5297      0.00000

 k-point     4 :       0.4375    0.0625    0.0625
  band No.  band energies     occupation 
      1       3.1962      2.00000
      2       3.7149      2.00000
      3       8.2240      2.00000
      4       8.5048      2.00000
      5      11.5184      1.07801
      6      12.8486      0.00000
      7      17.0273      0.00000
      8      17.4756      0.00000

 k-point     5 :      -0.0625    0.0625    0.0625
  band No.  band energies     occupation 
      1      -3.7322      2.00000
      2       7.9676      2.00000
      3       8.2744      2.00000
      4      11.6743      0.31519
      5      13.2174      0.00000
      6      18.4864      0.00000
      7      21.4059      0.00000
      8      21.5812      0.00000

 k-point     6 :       0.1875    0.1875    0.0625
  band No.  band energies     occupation 
      1       0.1247      2.00000
      2       6.8932      2.00000
      3       8.7011      2.00000
      4       8.7953      2.00000
      5      12.5346      0.00000
      6      15.2418      0.00000
      7      16.0736      0.00000
      8      16.1724      0.00000

 k-point     7 :       0.3125    0.1875    0.0625
  band No.  band energies     occupation 
      1       2.9823      2.00000
      2       4.7680      2.00000
      3       6.4084      2.00000
      4       8.0350      2.00000
      5      12.8988      0.00000
      6      14.4413      0.00000
      7      15.9613      0.00000
      8      18.5651      0.00000

 k-point     8 :       0.4375    0.1875    0.0625
  band No.  band energies     occupation 
      1       1.4360      2.00000
      2       4.8477      2.00000
      3       6.7704      2.00000
      4       9.6582      2.00000
      5      11.9703      0.00195
      6      14.9344      0.00000
      7      17.0171      0.00000
      8      18.9367      0.00000

 k-point     9 :      -0.4375    0.1875    0.0625
  band No.  band energies     occupation 
      1      -1.0187      2.00000
      2       4.1910      2.00000
      3      10.2277      2.00000
      4      11.1792      1.98746
      5      13.0978      0.00000
      6      15.1562      0.00000
      7      16.0861      0.00000
      8      19.0667      0.00000

 k-point    10 :      -0.3125    0.1875    0.0625
  band No.  band energies     occupation 
      1      -2.6016      2.00000
      2       4.3758      2.00000
      3       9.9087      2.00000
      4      12.5059      0.00000
      5      15.3278      0.00000
      6      16.6109      0.00000
      7      17.3483      0.00000
      8      19.1498      0.00000

 k-point    11 :      -0.1875    0.1875    0.0625
  band No.  band energies     occupation 
      1      -3.2824      2.00000
      2       5.4050      2.00000
      3       8.5541      2.00000
      4      12.6641      0.00000
      5      15.9302      0.00000
      6      16.3149      0.00000
      7      19.8547      0.00000
      8      21.0098      0.00000

 k-point    12 :      -0.0625    0.1875    0.0625
  band No.  band energies     occupation 
      1      -3.0497      2.00000
      2       7.0134      2.00000
      3       7.5044      2.00000
      4      13.3962      0.00000
      5      15.1957      0.00000
      6      16.2461      0.00000
      7      16.9308      0.00000
      8      19.9533      0.00000

 k-point    13 :       0.3125    0.3125    0.0625
  band No.  band energies     occupation 
      1       2.9385      2.00000
      2       2.9559      2.00000
      3       6.5548      2.00000
      4       9.5678      2.00000
      5      12.8323      0.00000
      6      13.7508      0.00000
      7      18.7163      0.00000
      8      19.2892      0.00000

 k-point    14 :       0.4375    0.3125    0.0625
  band No.  band energies     occupation 
      1       0.3047      2.00000
      2       2.0494      2.00000
      3      10.5385      2.00000
      4      11.2421      1.95980
      5      12.8294      0.00000
      6      14.4524      0.00000
      7      16.3550      0.00000
      8      17.9571      0.00000

 k-point    15 :      -0.4375    0.3125    0.0625
  band No.  band energies     occupation 
      1      -1.4869      2.00000
      2       2.0242      2.00000
      3      10.8607      2.00000
      4      13.3442      0.00000
      5      13.9370      0.00000
      6      15.8162      0.00000
      7      16.9268      0.00000
      8      17.5711      0.00000

 k-point    16 :      -0.3125    0.3125    0.0625
  band No.  band energies     occupation 
      1      -2.3865      2.00000
      2       2.8765      2.00000
      3       9.3611      2.00000
      4      13.5456      0.00000
      5      14.0960      0.00000
      6      18.0424      0.00000
      7      19.1440      0.00000
      8      20.6303      0.00000

 k-point    17 :      -0.1875    0.3125    0.0625
  band No.  band energies     occupation 
      1      -2.3783      2.00000
      2       4.5790      2.00000
      3       7.9080      2.00000
      4      13.8118      0.00000
      5      14.4727      0.00000
      6      16.1192      0.00000
      7      17.9719      0.00000
      8      19.6521      0.00000

 k-point    18 :      -0.0625    0.3125    0.0625
  band No.  band energies     occupation 
      1      -1.4626      2.00000
      2       6.8251      2.00000
      3       7.3829      2.00000
      4      10.7347      2.00000
      5      14.2220      0.00000
      6      16.2493      0.00000
      7      16.5255      0.00000
      8      17.9708      0.00000

 k-point    19 :       0.4375    0.4375    0.0625
  band No.  band energies     occupation 
      1       0.0603      2.00000
      2       0.0603      2.00000
      3      12.1488      0.00001
      4      12.1488      0.00001
      5      14.7867      0.00000
      6      14.7867      0.00000
      7      16.7757      0.00000
      8      16.7757      0.00000

 k-point    20 :      -0.4375    0.4375    0.0625
  band No.  band energies     occupation 
      1      -1.0519      2.00000
      2       0.7092      2.00000
      3      10.5662      2.00000
      4      12.1544      0.00001
      5      14.7546      0.00000
      6      16.2834      0.00000
      7      19.9990      0.00000
      8      20.2056      0.00000

 k-point    21 :      -0.3125    0.4375    0.0625
  band No.  band energies     occupation 
      1      -1.2656      2.00000
      2       2.2381      2.00000
      3       8.9233      2.00000
      4      12.0923      0.00008
      5      14.1137      0.00000
      6      16.5755      0.00000
      7      18.1531      0.00000
      8      19.5442      0.00000

 k-point    22 :      -0.1875    0.4375    0.0625
  band No.  band energies     occupation 
      1      -0.5770      2.00000
      2       4.6031      2.00000
      3       7.9434      2.00000
      4       9.9774      2.00000
      5      12.6239      0.00000
      6      15.6970      0.00000
      7      17.7864      0.00000
      8      19.4215      0.00000

 k-point    23 :      -0.0625    0.4375    0.0625
  band No.  band energies     occupation 
      1       0.9993      2.00000
      2       6.2508      2.00000
      3       7.6024      2.00000
      4       7.9994      2.00000
      5      12.1980      0.00000
      6      13.8440      0.00000
      7      15.4714      0.00000
      8      19.6220      0.00000

 k-point    24 :      -0.4375   -0.4375    0.0625
  band No.  band energies     occupation 
      1       0.2783      2.00000
      2       0.2792      2.00000
      3      10.3068      2.00000
      4      10.3594      2.00000
      5      14.0186      0.00000
      6      17.3800      0.00000
      7      18.0010      0.00000
      8      18.3513      0.00000

 k-point    25 :      -0.3125   -0.4375    0.0625
  band No.  band energies     occupation 
      1       0.7415      2.00000
      2       2.4782      2.00000
      3       9.0438      2.00000
      4       9.6414      2.00000
      5      10.8424      2.00000
      6      15.2161      0.00000
      7      19.2471      0.00000
      8      20.9545      0.00000

 k-point    26 :      -0.1875   -0.4375    0.0625
  band No.  band energies     occupation 
      1       2.0827      2.00000
      2       5.3276      2.00000
      3       5.8749      2.00000
      4       8.7709      2.00000
      5      11.4374      1.49746
      6      13.6372      0.00000
      7      16.1822      0.00000
      8      21.1095      0.00000

 k-point    27 :      -0.0625   -0.4375    0.0625
  band No.  band energies     occupation 
      1       2.5543      2.00000
      2       4.3519      2.00000
      3       8.9181      2.00000
      4       9.1301      2.00000
      5      10.6960      2.00000
      6      12.2860      0.00000
      7      15.0788      0.00000
      8      19.4356      0.00000

 k-point    28 :      -0.3125   -0.3125    0.0625
  band No.  band energies     occupation 
      1       3.5489      2.00000
      2       3.6003      2.00000
      3       5.5376      2.00000
      4       9.8089      2.00000
      5      10.3348      2.00000
      6      13.1886      0.00000
      7      18.2122      0.00000
      8      19.7850      0.00000

 k-point    29 :      -0.1875   -0.3125    0.0625
  band No.  band energies     occupation 
      1       2.1372      2.00000
      2       5.5985      2.00000
      3       7.2296      2.00000
      4       9.6464      2.00000
      5      11.0550      1.99926
      6      12.9236      0.00000
      7      14.6561      0.00000
      8      18.1202      0.00000

 k-point    30 :      -0.0625   -0.3125    0.0625
  band No.  band energies     occupation 
      1      -0.3156      2.00000
      2       8.2717      2.00000
      3       9.4596      2.00000
      4       9.5649      2.00000
      5      11.5139      1.10352
      6      13.0165      0.00000
      7      15.6144      0.00000
      8      17.0059      0.00000

 k-point    31 :      -0.1875   -0.1875    0.0625
  band No.  band energies     occupation 
      1      -0.5362      2.00000
      2       9.1686      2.00000
      3       9.5684      2.00000
      4       9.8194      2.00000
      5      11.6961      0.24663
      6      13.9137      0.00000
      7      14.3991      0.00000
      8      15.0382      0.00000

 k-point    32 :      -0.0625   -0.1875    0.0625
  band No.  band energies     occupation 
      1      -2.3535      2.00000
      2       9.1089      2.00000
      3       9.3805      2.00000
      4      11.9948      0.00107
      5      14.0872      0.00000
      6      14.3895      0.00000
      7      15.1770      0.00000
      8      16.3738      0.00000

 k-point    33 :      -0.0625   -0.0625    0.0625
  band No.  band energies     occupation 
      1      -3.4988      2.00000
      2       9.1356      2.00000
      3       9.1356      2.00000
      4      10.9040      1.99999
      5      12.7709      0.00000
      6      18.1238      0.00000
      7      18.1336      0.00000
      8      19.9280      0.00000

 k-point    34 :       0.1875    0.1875    0.1875
  band No.  band energies     occupation 
      1       1.2193      2.00000
      2       4.6478      2.00000
      3       8.1433      2.00000
      4       8.1806      2.00000
      5      13.6250      0.00000
      6      16.2311      0.00000
      7      16.9788      0.00000
      8      17.7694      0.00000

 k-point    35 :       0.3125    0.1875    0.1875
  band No.  band energies     occupation 
      1       4.0493      2.00000
      2       4.5262      2.00000
      3       5.8232      2.00000
      4       6.2541      2.00000
      5      14.7918      0.00000
      6      16.4275      0.00000
      7      17.3483      0.00000
      8      17.9648      0.00000

 k-point    36 :      -0.1875    0.1875    0.1875
  band No.  band energies     occupation 
      1      -2.8342      2.00000
      2       5.5562      2.00000
      3       6.1494      2.00000
      4      13.9786      0.00000
      5      15.2100      0.00000
      6      16.9917      0.00000
      7      19.3603      0.00000
      8      20.4531      0.00000

 k-point    37 :       0.3125    0.3125    0.1875
  band No.  band energies     occupation 
      1       2.7351      2.00000
      2       2.7351      2.00000
      3       7.9635      2.00000
      4       7.9635      2.00000
      5      15.0475      0.00000
      6      15.0475      0.00000
      7      17.6345      0.00000
      8      17.6345      0.00000

 k-point    38 :      -0.3125    0.3125    0.1875
  band No.  band energies     occupation 
      1      -1.9413      2.00000
      2       3.2933      2.00000
      3       6.7290      2.00000
      4      11.6445      0.42730
      5      16.3148      0.00000
      6      18.5034      0.00000
      7      19.3316      0.00000
      8      20.8761      0.00000

 k-point    39 :      -0.1875    0.3125    0.1875
  band No.  band energies     occupation 
      1      -1.7104      2.00000
      2       4.9244      2.00000
      3       5.5665      2.00000
      4      11.8098      0.04968
      5      13.8898      0.00000
      6      18.4398      0.00000
      7      19.2990      0.00000
      8      20.5454      0.00000

 k-point    40 :      -0.4375    0.4375    0.1875
  band No.  band energies     occupation 
      1      -0.6116      2.00000
      2       1.1420      2.00000
      3       7.9713      2.00000
      4       9.6205      2.00000
      5      17.1012      0.00000
      6      17.7904      0.00000
      7      19.8838      0.00000
      8      20.8070      0.00000

 k-point    41 :      -0.3125    0.4375    0.1875
  band No.  band energies     occupation 
      1      -0.6035      2.00000
      2       2.8708      2.00000
      3       6.3382      2.00000
      4       9.6340      2.00000
      5      13.3756      0.00000
      6      19.7248      0.00000
      7      20.0901      0.00000
      8      22.3490      0.00000

 k-point    42 :      -0.1875    0.4375    0.1875
  band No.  band energies     occupation 
      1       0.3022      2.00000
      2       5.1509      2.00000
      3       5.8064      2.00000
      4       9.1501      2.00000
      5      10.4961      2.00000
      6      17.5147      0.00000
      7      18.0150      0.00000
      8      21.6493      0.00000

 k-point    43 :      -0.4375   -0.4375    0.1875
  band No.  band energies     occupation 
      1       0.9304      2.00000
      2       0.9320      2.00000
      3       7.7809      2.00000
      4       7.7957      2.00000
      5      13.1936      0.00000
      6      19.9406      0.00000
      7      20.6318      0.00000
      8      21.7864      0.00000

 k-point    44 :      -0.3125   -0.4375    0.1875
  band No.  band energies     occupation 
      1       1.6096      2.00000
      2       3.3238      2.00000
      3       6.7643      2.00000
      4       8.3095      2.00000
      5       8.9364      2.00000
      6      17.3883      0.00000
      7      20.2757      0.00000
      8      22.4681      0.00000

 k-point    45 :      -0.1875   -0.4375    0.1875
  band No.  band energies     occupation 
      1       3.1442      2.00000
      2       5.0049      2.00000
      3       6.3760      2.00000
      4       6.8632      2.00000
      5       9.8086      2.00000
      6      15.3786      0.00000
      7      15.7044      0.00000
      8      21.2822      0.00000

 k-point    46 :      -0.3125   -0.3125    0.1875
  band No.  band energies     occupation 
      1       4.3714      2.00000
      2       4.6541      2.00000
      3       5.1307      2.00000
      4       7.9964      2.00000
      5       8.1176      2.00000
      6      15.3047      0.00000
      7      17.5631      0.00000
      8      19.5564      0.00000

 k-point    47 :      -0.1875   -0.3125    0.1875
  band No.  band energies     occupation 
      1       1.7079      2.00000
      2       6.8326      2.00000
      3       8.2307      2.00000
      4       8.6380      2.00000
      5       9.9138      2.00000
      6      14.0230      0.00000
      7      14.1207      0.00000
      8      17.2497      0.00000

 k-point    48 :      -0.1875   -0.1875    0.1875
  band No.  band energies     occupation 
      1      -0.7571      2.00000
      2      10.3269      2.00000
      3      10.3269      2.00000
      4      10.5690      2.00000
      5      11.0679      1.99897
      6      13.6976      0.00000
      7      13.6976      0.00000
      8      14.4315      0.00000

 k-point    49 :      -0.3125    0.3125    0.3125
  band No.  band energies     occupation 
      1      -1.0548      2.00000
      2       3.8368      2.00000
      3       4.5351      2.00000
      4       9.2456      2.00000
      5      17.3339      0.00000
      6      17.9024      0.00000
      7      21.4397      0.00000
      8      21.7852      0.00000

 k-point    50 :      -0.4375    0.4375    0.3125
  band No.  band energies     occupation 
      1       0.2640      2.00000
      2       1.9951      2.00000
      3       5.5059      2.00000
      4       7.1773      2.00000
      5      17.3417      0.00000
      6      17.4808      0.00000
      7      22.6067      0.00000
      8      23.8720      0.00000

 k-point    51 :      -0.3125    0.4375    0.3125
  band No.  band energies     occupation 
      1       0.4921      2.00000
      2       3.6246      2.00000
      3       4.3409      2.00000
      4       7.3897      2.00000
      5      12.8221      0.00000
      6      21.6739      0.00000
      7      22.1990      0.00000
      8      22.6867      0.00000

 k-point    52 :      -0.4375   -0.4375    0.3125
  band No.  band energies     occupation 
      1       2.0019      2.00000
      2       2.0038      2.00000
      3       5.5144      2.00000
      4       5.5173      2.00000
      5      12.6308      0.00000
      6      21.7040      0.00000
      7      22.7376      0.00000
      8      24.2067      0.00000

 k-point    53 :      -0.3125   -0.4375    0.3125
  band No.  band energies     occupation 
      1       2.8924      2.00000
      2       4.2901      2.00000
      3       4.9920      2.00000
      4       6.3587      2.00000
      5       8.4202      2.00000
      6      19.7107      0.00000
      7      20.1436      0.00000
      8      22.5727      0.00000

 k-point    54 :      -0.3125   -0.3125    0.3125
  band No.  band energies     occupation 
      1       4.4767      2.00000
      2       5.8369      2.00000
      3       6.0666      2.00000
      4       6.4688      2.00000
      5       6.4688      2.00000
      6      17.3465      0.00000
      7      17.3465      0.00000
      8      18.7242      0.00000

 k-point    55 :      -0.4375    0.4375    0.4375
  band No.  band energies     occupation 
      1       1.5582      2.00000
      2       2.9586      2.00000
      3       3.7089      2.00000
      4       5.0898      2.00000
      5      17.1203      0.00000
      6      17.1532      0.00000
      7      25.5939      0.00000
      8      26.4828      0.00000

 k-point    56 :      -0.4375   -0.4375    0.4375
  band No.  band energies     occupation 
      1       3.1845      2.00000
      2       3.1861      2.00000
      3       3.9273      2.00000
      4       3.9273      2.00000
      5      12.4374      0.00000
      6      21.8873      0.00000
      7      24.5874      0.00000
      8      24.5880      0.00000


--------------------------------------------------------------------------------------------------------


 soft charge-density along one line, spin component           1
         0         1         2         3         4         5         6         7         8         9
 total charge-density along one line
 
 pseudopotential strength for first ion, spin component:           1
 17.795  -0.005  -0.000  -0.000   0.000   0.000   0.000  -0.000
 -0.005   0.005   0.000   0.000  -0.000  -0.000  -0.000   0.000
 -0.000   0.000   4.086   0.000   0.000  -0.008  -0.000  -0.000
 -0.000   0.000   0.000   4.086   0.000  -0.000  -0.008  -0.000
  0.000  -0.000   0.000   0.000   4.086  -0.000  -0.000  -0.008
  0.000  -0.000  -0.008  -0.000  -0.000   0.005   0.000   0.000
  0.000  -0.000  -0.000  -0.008  -0.000   0.000   0.005   0.000
 -0.000   0.000  -0.000  -0.000  -0.008   0.000   0.000   0.005
 total augmentation occupancy for first ion, spin component:           1
  1.565  -0.770   0.000   0.000   0.000   0.000   0.000  -0.000
 -0.770   1.308   0.000   0.000   0.000   0.000   0.000   0.000
  0.000   0.000   1.051   0.000   0.000  -0.655  -0.000   0.000
  0.000   0.000   0.000   0.928   0.000  -0.000  -0.580   0.000
  0.000   0.000   0.000   0.000   1.051   0.000   0.000  -0.655
  0.000   0.000  -0.655   0.000   0.000   0.533   0.000   0.000
  0.000   0.000  -0.000  -0.580   0.000   0.000   0.484   0.000
 -0.000   0.000   0.000   0.000  -0.655   0.000   0.000   0.533


------------------------ aborting loop because EDIFF is reached ----------------------------------------


    CHARGE:  cpu time    0.0080: real time    0.0098
    FORLOC:  cpu time    0.0000: real time    0.0004
    FORNL :  cpu time    0.0120: real time    0.0106
    STRESS:  cpu time    0.1080: real time    0.1060
    FORCOR:  cpu time    0.0080: real time    0.0089
    FORHAR:  cpu time    0.0000: real time    0.0022
    MIXING:  cpu time    0.0040: real time    0.0008
    OFIELD:  cpu time    0.0000: real time    0.0004

  FORCE on cell =-STRESS in cart. coord.  units (eV):
  Direction    XX          YY          ZZ          XY          YZ          ZX
  --------------------------------------------------------------------------------------
  Alpha Z     5.25540     5.25540     5.25540
  Ewald     -91.25768   -91.25768   -98.80457     0.00000    -0.00000     0.00000
  Hartree     0.63962     0.63962     0.52519    -0.00000    -0.00000    -0.00000
  E(xc)     -26.78383   -26.78383   -26.51431    -0.00000    -0.00000    -0.00000
  Local     -14.19911   -14.19911    -4.38091    -0.00004    -0.00002    -0.00002
  n-local    81.64445    80.73257    76.43441     1.39684    -0.68068    -1.05892
  augment   -12.09505   -12.09505   -11.78399     0.00002     0.00002     0.00002
  Kinetic    60.34386    64.51601    63.18627     3.51935    -1.56559    -1.78417
  Fock        0.00000     0.00000     0.00000     0.00000     0.00000     0.00000
  -------------------------------------------------------------------------------------
  Total       5.17778     5.17778     3.91750     0.00000     0.00000     0.00000
  in kB     323.77724   323.77724   244.96926     0.00000     0.00000     0.00000
  external pressure =      297.51 kB  Pullay stress =        0.00 kB


 VOLUME and BASIS-vectors are now :
 -----------------------------------------------------------------------------
  energy-cutoff  :      350.00
  volume of cell :       25.62
      direct lattice vectors                 reciprocal lattice vectors
    -2.239041000  2.239041000  1.277686000    -0.000000000  0.223309890  0.391332456
     2.239041000 -2.239041000  1.277686000     0.223309890 -0.000000000  0.391332456
     2.239041000  2.239041000 -1.277686000     0.223309890  0.223309890  0.000000000

  length of vectors
     3.414541069  3.414541069  3.414541069     0.450564533  0.450564533  0.315807875


 FORCES acting on ions
    electron-ion (+dipol)            ewald-force                    non-local-force                 convergence-correction
 -----------------------------------------------------------------------------------------------
   0.965E-07 -.965E-07 -.576E-15   -.998E-14 0.354E-15 -.220E-14   -.126E-17 -.820E-17 -.114E-17   -.317E-09 0.317E-09 -.148E-15
   -.965E-07 0.965E-07 -.189E-13   0.987E-14 0.428E-15 0.140E-14   0.591E-17 -.797E-17 0.189E-16   0.317E-09 -.317E-09 0.168E-16
 -----------------------------------------------------------------------------------------------
   0.153E-13 0.101E-13 -.195E-13   -.106E-15 0.783E-15 -.799E-15   0.465E-17 -.162E-16 0.178E-16   0.927E-16 0.671E-16 -.131E-15
 
 
 POSITION                                       TOTAL-FORCE (eV/Angst)
 -----------------------------------------------------------------------------------
      0.00000      0.00000      0.00000         0.000000     -0.000000      0.000000
      2.23904      0.00000      0.63884        -0.000000      0.000000     -0.000000
 -----------------------------------------------------------------------------------
    total drift:                                0.000000      0.000000     -0.000000


--------------------------------------------------------------------------------------------------------



  FREE ENERGIE OF THE ION-ELECTRON SYSTEM (eV)
  ---------------------------------------------------
  free  energy   TOTEN  =        -9.86062459 eV

  energy  without entropy=       -9.84542916  energy(sigma->0) =       -9.85302688
 


--------------------------------------------------------------------------------------------------------


    POTLOK:  cpu time    0.0200: real time    0.0315


--------------------------------------------------------------------------------------------------------




--------------------------------------------------------------------------------------------------------


  
 reached required accuracy - stopping structural energy minimisation
 writing wavefunctions
     LOOP+:  cpu time    5.5560: real time    6.2384
    4ORBIT:  cpu time    0.0000: real time    0.0000

 total amount of memory used by VASP MPI-rank0    32356. kBytes
=======================================================================

   base      :      30000. kBytes
   nonl-proj :       1446. kBytes
   fftplans  :        160. kBytes
   grid      :        372. kBytes
   one-center:          6. kBytes
   wavefun   :        372. kBytes
 
  
  
 General timing and accounting informations for this job:
 ========================================================
  
                  Total CPU time used (sec):       10.064
                            User time (sec):        8.164
                          System time (sec):        1.900
                         Elapsed time (sec):       11.465
  
                   Maximum memory used (kb):        9564.
                   Average memory used (kb):           0.
  
                          Minor page faults:        38140
                          Major page faults:            7
                 Voluntary context switches:        31807
