 running on    8 total cores
 distrk:  each k-point on    8 cores,    1 groups
 distr:  one band on    1 cores,    8 groups
 using from now: INCAR     
 vasp.5.4.4.18Apr17-6-g9f103f2a35 (build Dec 09 2018 21:25:21) complex          
  
 POSCAR found type information on POSCAR  Si
 POSCAR found :  1 types and       2 ions
 scaLAPACK will be used

 ----------------------------------------------------------------------------- 
|                                                                             |
|           W    W    AA    RRRRR   N    N  II  N    N   GGGG   !!!           |
|           W    W   A  A   R    R  NN   N  II  NN   N  G    G  !!!           |
|           W    W  A    A  R    R  N N  N  II  N N  N  G       !!!           |
|           W WW W  AAAAAA  RRRRR   N  N N  II  N  N N  G  GGG   !            |
|           WW  WW  A    A  R   R   N   NN  II  N   NN  G    G                |
|           W    W  A    A  R    R  N    N  II  N    N   GGGG   !!!           |
|                                                                             |
|      For optimal performance we recommend to set                            |
|        NCORE= 4 - approx SQRT( number of cores)                             |
|      NCORE specifies how many cores store one orbital (NPAR=cpu/NCORE).     |
|      This setting can  greatly improve the performance of VASP for DFT.     |
|      The default,   NCORE=1            might be grossly inefficient         |
|      on modern multi-core architectures or massively parallel machines.     |
|      Do your own testing !!!!                                               |
|      Unfortunately you need to use the default for GW and RPA calculations. |
|      (for HF NCORE is supported but not extensively tested yet)             |
|                                                                             |
 ----------------------------------------------------------------------------- 

 LDA part: xc-table for Pade appr. of Perdew
 POSCAR, INCAR and KPOINTS ok, starting setup
 FFT: planning ...
 WAVECAR not read
 entering main loop
       N       E                     dE             d eps       ncg     rms          rms(c)
DAV:   1     0.983387404012E+00    0.98339E+00   -0.29118E+03   920   0.586E+02
DAV:   2    -0.976639887595E+01   -0.10750E+02   -0.10390E+02  1344   0.673E+01
DAV:   3    -0.989813571473E+01   -0.13174E+00   -0.13067E+00  1208   0.775E+00
DAV:   4    -0.989846134879E+01   -0.32563E-03   -0.32533E-03  1440   0.337E-01
DAV:   5    -0.989846163067E+01   -0.28187E-06   -0.28081E-06  1192   0.649E-03    0.191E+00
DAV:   6    -0.987455406465E+01    0.23908E-01   -0.68350E-03  1224   0.533E-01    0.117E+00
DAV:   7    -0.986075312461E+01    0.13801E-01   -0.15398E-02  1224   0.864E-01    0.761E-02
DAV:   8    -0.986062459422E+01    0.12853E-03   -0.96661E-04   832   0.237E-01
   1 F= -.98606246E+01 E0= -.98530269E+01  d E =-.986062E+01
 curvature:   0.00 expect dE= 0.000E+00 dE for cont linesearch  0.000E+00
 trial: gam= 0.00000 g(F)=  0.152E-48 g(S)=  0.000E+00 ort = 0.000E+00 (trialstep = 0.100E+01)
 search vector abs. value=  0.100E-09
 reached required accuracy - stopping structural energy minimisation
 writing wavefunctions
