unknown system                          
           1
    -2.239041    2.239041    1.277686
     2.239041   -2.239041    1.277686
     2.239041    2.239041   -1.277686
   Si
   2
Direct configuration=     1
   0.00000000  0.00000000  0.00000000
   0.25000000  0.75000000  0.50000000
