<?xml version="1.0" encoding="ISO-8859-1"?>
<modeling>
 <generator>
  <i name="program" type="string">vasp </i>
  <i name="version" type="string">5.4.4.18Apr17-6-g9f103f2a35  </i>
  <i name="subversion" type="string">(build Dec 09 2018 21:25:21) complex            parallel </i>
  <i name="platform" type="string">IFC18.0.1.163_CrayMPICH7.7.0_MKL18.0.1.163 </i>
  <i name="date" type="string">2019 03 20 </i>
  <i name="time" type="string">09:30:10 </i>
 </generator>
 <incar>
  <i type="string" name="PREC">normal</i>
  <i type="int" name="IBRION">     2</i>
  <i name="EDIFF">      0.00040000</i>
  <i name="EDIFFG">     -0.01000000</i>
  <i type="int" name="NSW">    15</i>
  <i type="int" name="ISIF">     3</i>
  <i name="ENCUT">    300.00000000</i>
  <i type="int" name="NBANDS">     8</i>
  <i type="logical" name="LREAL"> F  </i>
  <i type="int" name="ISMEAR">     0</i>
  <i name="SIGMA">      0.20000000</i>
  <v type="int" name="KPOINT_BSE">    -1     0     0     0</v>
 </incar>
 <structure name="primitive_cell" >
  <crystal>
   <varray name="basis" >
    <v>      -2.45000000       2.45000000       1.27400000 </v>
    <v>       2.45000000      -2.45000000       1.27400000 </v>
    <v>       2.45000000       2.45000000      -1.27400000 </v>
   </varray>
   <i name="volume">     30.58874000 </i>
   <varray name="rec_basis" >
    <v>       0.00000000       0.20408163       0.39246468 </v>
    <v>       0.20408163       0.00000000       0.39246468 </v>
    <v>       0.20408163       0.20408163      -0.00000000 </v>
   </varray>
  </crystal>
  <varray name="positions" >
   <v>       0.25000000      -0.25000000      -0.50000000 </v>
   <v>       0.00000000       0.00000000       0.00000000 </v>
  </varray>
 </structure>
 <varray name="primitive_index" >
  <v type="int" >        1 </v>
  <v type="int" >        2 </v>
 </varray>
 <kpoints>
  <generation param="Monkhorst-Pack">
   <v type="int" name="divisions">       8        8        8 </v>
   <v name="usershift">      0.00000000       0.00000000       0.00000000 </v>
   <v name="genvec1">      0.12500000       0.00000000      -0.00000000 </v>
   <v name="genvec2">      0.00000000       0.12500000      -0.00000000 </v>
   <v name="genvec3">      0.00000000      -0.00000000       0.12500000 </v>
   <v name="shift">      0.50000000       0.50000000       0.50000000 </v>
  </generation>
  <varray name="kpointlist" >
   <v>       0.06250000       0.06250000       0.06250000 </v>
   <v>       0.18750000       0.06250000       0.06250000 </v>
   <v>       0.31250000       0.06250000       0.06250000 </v>
   <v>       0.43750000       0.06250000       0.06250000 </v>
   <v>      -0.06250000       0.06250000       0.06250000 </v>
   <v>       0.18750000       0.18750000       0.06250000 </v>
   <v>       0.31250000       0.18750000       0.06250000 </v>
   <v>       0.43750000       0.18750000       0.06250000 </v>
   <v>      -0.43750000       0.18750000       0.06250000 </v>
   <v>      -0.31250000       0.18750000       0.06250000 </v>
   <v>      -0.18750000       0.18750000       0.06250000 </v>
   <v>      -0.06250000       0.18750000       0.06250000 </v>
   <v>       0.31250000       0.31250000       0.06250000 </v>
   <v>       0.43750000       0.31250000       0.06250000 </v>
   <v>      -0.43750000       0.31250000       0.06250000 </v>
   <v>      -0.31250000       0.31250000       0.06250000 </v>
   <v>      -0.18750000       0.31250000       0.06250000 </v>
   <v>      -0.06250000       0.31250000       0.06250000 </v>
   <v>       0.43750000       0.43750000       0.06250000 </v>
   <v>      -0.43750000       0.43750000       0.06250000 </v>
   <v>      -0.31250000       0.43750000       0.06250000 </v>
   <v>      -0.18750000       0.43750000       0.06250000 </v>
   <v>      -0.06250000       0.43750000       0.06250000 </v>
   <v>      -0.43750000      -0.43750000       0.06250000 </v>
   <v>      -0.31250000      -0.43750000       0.06250000 </v>
   <v>      -0.18750000      -0.43750000       0.06250000 </v>
   <v>      -0.06250000      -0.43750000       0.06250000 </v>
   <v>      -0.31250000      -0.31250000       0.06250000 </v>
   <v>      -0.18750000      -0.31250000       0.06250000 </v>
   <v>      -0.06250000      -0.31250000       0.06250000 </v>
   <v>      -0.18750000      -0.18750000       0.06250000 </v>
   <v>      -0.06250000      -0.18750000       0.06250000 </v>
   <v>      -0.06250000      -0.06250000       0.06250000 </v>
   <v>       0.18750000       0.18750000       0.18750000 </v>
   <v>       0.31250000       0.18750000       0.18750000 </v>
   <v>      -0.18750000       0.18750000       0.18750000 </v>
   <v>       0.31250000       0.31250000       0.18750000 </v>
   <v>      -0.31250000       0.31250000       0.18750000 </v>
   <v>      -0.18750000       0.31250000       0.18750000 </v>
   <v>      -0.43750000       0.43750000       0.18750000 </v>
   <v>      -0.31250000       0.43750000       0.18750000 </v>
   <v>      -0.18750000       0.43750000       0.18750000 </v>
   <v>      -0.43750000      -0.43750000       0.18750000 </v>
   <v>      -0.31250000      -0.43750000       0.18750000 </v>
   <v>      -0.18750000      -0.43750000       0.18750000 </v>
   <v>      -0.31250000      -0.31250000       0.18750000 </v>
   <v>      -0.18750000      -0.31250000       0.18750000 </v>
   <v>      -0.18750000      -0.18750000       0.18750000 </v>
   <v>      -0.31250000       0.31250000       0.31250000 </v>
   <v>      -0.43750000       0.43750000       0.31250000 </v>
   <v>      -0.31250000       0.43750000       0.31250000 </v>
   <v>      -0.43750000      -0.43750000       0.31250000 </v>
   <v>      -0.31250000      -0.43750000       0.31250000 </v>
   <v>      -0.31250000      -0.31250000       0.31250000 </v>
   <v>      -0.43750000       0.43750000       0.43750000 </v>
   <v>      -0.43750000      -0.43750000       0.43750000 </v>
  </varray>
  <varray name="weights" >
   <v>       0.01562500 </v>
   <v>       0.03125000 </v>
   <v>       0.03125000 </v>
   <v>       0.01562500 </v>
   <v>       0.00781250 </v>
   <v>       0.01562500 </v>
   <v>       0.03125000 </v>
   <v>       0.03125000 </v>
   <v>       0.03125000 </v>
   <v>       0.01562500 </v>
   <v>       0.01562500 </v>
   <v>       0.01562500 </v>
   <v>       0.01562500 </v>
   <v>       0.03125000 </v>
   <v>       0.01562500 </v>
   <v>       0.01562500 </v>
   <v>       0.03125000 </v>
   <v>       0.01562500 </v>
   <v>       0.00781250 </v>
   <v>       0.01562500 </v>
   <v>       0.03125000 </v>
   <v>       0.03125000 </v>
   <v>       0.01562500 </v>
   <v>       0.01562500 </v>
   <v>       0.03125000 </v>
   <v>       0.03125000 </v>
   <v>       0.01562500 </v>
   <v>       0.01562500 </v>
   <v>       0.03125000 </v>
   <v>       0.01562500 </v>
   <v>       0.01562500 </v>
   <v>       0.01562500 </v>
   <v>       0.00390625 </v>
   <v>       0.01562500 </v>
   <v>       0.01562500 </v>
   <v>       0.00781250 </v>
   <v>       0.00781250 </v>
   <v>       0.01562500 </v>
   <v>       0.01562500 </v>
   <v>       0.01562500 </v>
   <v>       0.03125000 </v>
   <v>       0.01562500 </v>
   <v>       0.01562500 </v>
   <v>       0.03125000 </v>
   <v>       0.01562500 </v>
   <v>       0.01562500 </v>
   <v>       0.01562500 </v>
   <v>       0.00390625 </v>
   <v>       0.00781250 </v>
   <v>       0.01562500 </v>
   <v>       0.01562500 </v>
   <v>       0.01562500 </v>
   <v>       0.01562500 </v>
   <v>       0.00390625 </v>
   <v>       0.00781250 </v>
   <v>       0.00390625 </v>
  </varray>
 </kpoints>
 <parameters>
  <separator name="general" >
   <i type="string" name="SYSTEM">unknown system</i>
   <i type="logical" name="LCOMPAT"> F  </i>
  </separator>
  <separator name="electronic" >
   <i type="string" name="PREC">normal</i>
   <i name="ENMAX">    300.00000000</i>
   <i name="ENAUG">    322.06900000</i>
   <i name="EDIFF">      0.00040000</i>
   <i type="int" name="IALGO">    38</i>
   <i type="int" name="IWAVPR">    11</i>
   <i type="int" name="NBANDS">     8</i>
   <i name="NELECT">      8.00000000</i>
   <i type="int" name="TURBO">     0</i>
   <i type="int" name="IRESTART">     0</i>
   <i type="int" name="NREBOOT">     0</i>
   <i type="int" name="NMIN">     0</i>
   <i name="EREF">      0.00000000</i>
   <separator name="electronic smearing" >
    <i type="int" name="ISMEAR">     0</i>
    <i name="SIGMA">      0.20000000</i>
    <i name="KSPACING">      0.50000000</i>
    <i type="logical" name="KGAMMA"> T  </i>
   </separator>
   <separator name="electronic projectors" >
    <i type="logical" name="LREAL"> F  </i>
    <v name="ROPT">      0.00000000</v>
    <i type="int" name="LMAXPAW">  -100</i>
    <i type="int" name="LMAXMIX">     2</i>
    <i type="logical" name="NLSPLINE"> F  </i>
   </separator>
   <separator name="electronic startup" >
    <i type="int" name="ISTART">     0</i>
    <i type="int" name="ICHARG">     2</i>
    <i type="int" name="INIWAV">     1</i>
   </separator>
   <separator name="electronic spin" >
    <i type="int" name="ISPIN">     1</i>
    <i type="logical" name="LNONCOLLINEAR"> F  </i>
    <v name="MAGMOM">      1.00000000      1.00000000</v>
    <i name="NUPDOWN">     -1.00000000</i>
    <i type="logical" name="LSORBIT"> F  </i>
    <v name="SAXIS">      0.00000000      0.00000000      1.00000000</v>
    <i type="logical" name="LSPIRAL"> F  </i>
    <v name="QSPIRAL">      0.00000000      0.00000000      0.00000000</v>
    <i type="logical" name="LZEROZ"> F  </i>
   </separator>
   <separator name="electronic exchange-correlation" >
    <i type="logical" name="LASPH"> F  </i>
    <i type="logical" name="LMETAGGA"> F  </i>
   </separator>
   <separator name="electronic convergence" >
    <i type="int" name="NELM">    60</i>
    <i type="int" name="NELMDL">    -5</i>
    <i type="int" name="NELMIN">     2</i>
    <i name="ENINI">    300.00000000</i>
    <separator name="electronic convergence detail" >
     <i type="logical" name="LDIAG"> T  </i>
     <i type="logical" name="LSUBROT"> F  </i>
     <i name="WEIMIN">      0.00100000</i>
     <i name="EBREAK">      0.00001250</i>
     <i name="DEPER">      0.30000000</i>
     <i type="int" name="NRMM">     4</i>
     <i name="TIME">      0.40000000</i>
    </separator>
   </separator>
   <separator name="electronic mixer" >
    <i name="AMIX">      0.40000000</i>
    <i name="BMIX">      1.00000000</i>
    <i name="AMIN">      0.10000000</i>
    <i name="AMIX_MAG">      1.60000000</i>
    <i name="BMIX_MAG">      1.00000000</i>
    <separator name="electronic mixer details" >
     <i type="int" name="IMIX">     4</i>
     <i type="logical" name="MIXFIRST"> F  </i>
     <i type="int" name="MAXMIX">   -45</i>
     <i name="WC">    100.00000000</i>
     <i type="int" name="INIMIX">     1</i>
     <i type="int" name="MIXPRE">     1</i>
     <i type="int" name="MREMOVE">     5</i>
    </separator>
   </separator>
   <separator name="electronic dipolcorrection" >
    <i type="logical" name="LDIPOL"> F  </i>
    <i type="logical" name="LMONO"> F  </i>
    <i type="int" name="IDIPOL">     0</i>
    <i name="EPSILON">      1.00000000</i>
    <v name="DIPOL">   -100.00000000   -100.00000000   -100.00000000</v>
    <i name="EFIELD">      0.00000000</i>
   </separator>
  </separator>
  <separator name="grids" >
   <i type="int" name="NGX">    16</i>
   <i type="int" name="NGY">    16</i>
   <i type="int" name="NGZ">    16</i>
   <i type="int" name="NGXF">    32</i>
   <i type="int" name="NGYF">    32</i>
   <i type="int" name="NGZF">    32</i>
   <i type="logical" name="ADDGRID"> F  </i>
  </separator>
  <separator name="ionic" >
   <i type="int" name="NSW">    15</i>
   <i type="int" name="IBRION">     2</i>
   <i type="int" name="MDALGO">     0</i>
   <i type="int" name="ISIF">     3</i>
   <i name="PSTRESS">      0.00000000</i>
   <i name="EDIFFG">     -0.01000000</i>
   <i type="int" name="NFREE">     1</i>
   <i name="POTIM">      0.50000000</i>
   <i name="SMASS">     -3.00000000</i>
   <i name="SCALEE">      1.00000000</i>
  </separator>
  <separator name="ionic md" >
   <i name="TEBEG">      0.00010000</i>
   <i name="TEEND">      0.00010000</i>
   <i type="int" name="NBLOCK">     1</i>
   <i type="int" name="KBLOCK">    15</i>
   <i type="int" name="NPACO">   256</i>
   <i name="APACO">     16.00000000</i>
  </separator>
  <separator name="symmetry" >
   <i type="int" name="ISYM">     2</i>
   <i name="SYMPREC">      0.00001000</i>
  </separator>
  <separator name="dos" >
   <i type="int" name="LORBIT">     0</i>
   <v name="RWIGS">     -1.00000000</v>
   <i type="int" name="NEDOS">   301</i>
   <i name="EMIN">     10.00000000</i>
   <i name="EMAX">    -10.00000000</i>
   <i name="EFERMI">      0.00000000</i>
  </separator>
  <separator name="writing" >
   <i type="int" name="NWRITE">     2</i>
   <i type="logical" name="LWAVE"> T  </i>
   <i type="logical" name="LDOWNSAMPLE"> F  </i>
   <i type="logical" name="LCHARG"> T  </i>
   <i type="logical" name="LPARD"> F  </i>
   <i type="logical" name="LVTOT"> F  </i>
   <i type="logical" name="LVHAR"> F  </i>
   <i type="logical" name="LELF"> F  </i>
   <i type="logical" name="LOPTICS"> F  </i>
   <v name="STM">      0.00000000      0.00000000      0.00000000      0.00000000      0.00000000      0.00000000      0.00000000</v>
  </separator>
  <separator name="performance" >
   <i type="int" name="NPAR">     8</i>
   <i type="int" name="NSIM">     4</i>
   <i type="int" name="NBLK">    -1</i>
   <i type="logical" name="LPLANE"> T  </i>
   <i type="logical" name="LSCALAPACK"> T  </i>
   <i type="logical" name="LSCAAWARE"> F  </i>
   <i type="logical" name="LSCALU"> F  </i>
   <i type="logical" name="LASYNC"> F  </i>
   <i type="logical" name="LORBITALREAL"> F  </i>
  </separator>
  <separator name="miscellaneous" >
   <i type="int" name="IDIOT">     3</i>
   <i type="int" name="ISPECIAL">     0</i>
   <i type="logical" name="LMUSIC"> F  </i>
   <v name="POMASS">     28.08500000</v>
   <v name="DARWINR">      0.00000000</v>
   <v name="DARWINV">      1.00000000</v>
   <i type="logical" name="LCORR"> T  </i>
  </separator>
  <i type="logical" name="GGA_COMPAT"> T  </i>
  <i type="logical" name="LBERRY"> F  </i>
  <i type="int" name="ICORELEVEL">     0</i>
  <i type="logical" name="LDAU"> F  </i>
  <i type="int" name="I_CONSTRAINED_M">     0</i>
  <separator name="electronic exchange-correlation" >
   <i type="string" name="GGA">--</i>
   <i type="int" name="VOSKOWN">     0</i>
   <i type="logical" name="LHFCALC"> F  </i>
   <i type="string" name="PRECFOCK"></i>
   <i type="logical" name="LSYMGRAD"> F  </i>
   <i type="logical" name="LHFONE"> F  </i>
   <i type="logical" name="LRHFCALC"> F  </i>
   <i type="logical" name="LTHOMAS"> F  </i>
   <i type="logical" name="LMODELHF"> F  </i>
   <i name="ENCUT4O">     -1.00000000</i>
   <i type="int" name="EXXOEP">     0</i>
   <i type="int" name="FOURORBIT">     0</i>
   <i name="AEXX">      0.00000000</i>
   <i name="HFALPHA">      0.00000000</i>
   <i name="MCALPHA">      0.00000000</i>
   <i name="ALDAX">      1.00000000</i>
   <i name="AGGAX">      1.00000000</i>
   <i name="ALDAC">      1.00000000</i>
   <i name="AGGAC">      1.00000000</i>
   <i type="int" name="NKREDX">     1</i>
   <i type="int" name="NKREDY">     1</i>
   <i type="int" name="NKREDZ">     1</i>
   <i type="logical" name="SHIFTRED"> F  </i>
   <i type="logical" name="ODDONLY"> F  </i>
   <i type="logical" name="EVENONLY"> F  </i>
   <i type="int" name="LMAXFOCK">     0</i>
   <i type="int" name="NMAXFOCKAE">     0</i>
   <i type="logical" name="LFOCKAEDFT"> F  </i>
   <i name="HFSCREEN">      0.00000000</i>
   <i name="HFSCREENC">      0.00000000</i>
   <i type="int" name="NBANDSGWLOW">     0</i>
  </separator>
  <separator name="vdW DFT" >
   <i type="logical" name="LUSE_VDW"> F  </i>
   <i name="Zab_VDW">     -0.84910000</i>
   <i name="PARAM1">      0.12340000</i>
   <i name="PARAM2">      1.00000000</i>
   <i name="PARAM3">      0.00000000</i>
  </separator>
  <separator name="model GW" >
   <i type="int" name="MODEL_GW">     0</i>
   <i name="MODEL_EPS0">      9.17662200</i>
   <i name="MODEL_ALPHA">      1.00000000</i>
  </separator>
  <separator name="linear response parameters" >
   <i type="logical" name="LEPSILON"> F  </i>
   <i type="logical" name="LRPA"> F  </i>
   <i type="logical" name="LNABLA"> F  </i>
   <i type="logical" name="LVEL"> F  </i>
   <i type="int" name="KINTER">     0</i>
   <i name="CSHIFT">      0.10000000</i>
   <i name="OMEGAMAX">     -1.00000000</i>
   <i name="DEG_THRESHOLD">      0.00200000</i>
   <i name="RTIME">     -0.10000000</i>
   <i name="WPLASMAI">      0.00000000</i>
   <v name="DFIELD">      0.00000000      0.00000000      0.00000000</v>
   <v name="WPLASMA">      0.00000000      0.00000000      0.00000000      0.00000000      0.00000000      0.00000000      0.00000000      0.00000000      0.00000000</v>
  </separator>
  <separator name="orbital magnetization" >
   <i type="logical" name="NUCIND"> F  </i>
   <v name="MAGPOS">      0.00000000      0.00000000      0.00000000</v>
   <i type="logical" name="LNICSALL"> T  </i>
   <i type="logical" name="ORBITALMAG"> F  </i>
   <i type="logical" name="LMAGBLOCH"> F  </i>
   <i type="logical" name="LCHIMAG"> F  </i>
   <i type="logical" name="LGAUGE"> T  </i>
   <i type="int" name="MAGATOM">     0</i>
   <v name="MAGDIPOL">      0.00000000      0.00000000      0.00000000</v>
   <v name="AVECCONST">      0.00000000      0.00000000      0.00000000</v>
  </separator>
  <separator name="response functions" >
   <i type="logical" name="LADDER"> F  </i>
   <i type="logical" name="LRPAFORCE"> F  </i>
   <i type="logical" name="LFXC"> F  </i>
   <i type="logical" name="LHARTREE"> T  </i>
   <i type="int" name="IBSE">     0</i>
   <v type="int" name="KPOINT">    -1     0     0     0</v>
   <i type="logical" name="LTCTE"> F  </i>
   <i type="logical" name="LTETE"> F  </i>
   <i type="logical" name="LTRIPLET"> F  </i>
   <i type="logical" name="LFXCEPS"> F  </i>
   <i type="logical" name="LFXHEG"> F  </i>
   <i type="int" name="NATURALO">     2</i>
   <i type="logical" name="L2ORDER"> F  </i>
   <i type="logical" name="LMP2LT"> F  </i>
   <i type="logical" name="LUSEW"> F  </i>
   <i name="ENCUTGW">     -2.00000000</i>
   <i name="ENCUTGWSOFT">     -2.00000000</i>
   <i name="ENCUTLF">     -1.00000000</i>
   <i type="int" name="LMAXMP2">    -1</i>
   <i name="SCISSOR">      0.00000000</i>
   <i type="int" name="NOMEGA">     0</i>
   <i type="int" name="NOMEGAR">     0</i>
   <i type="int" name="NBANDSGW">    -1</i>
   <i type="int" name="NBANDSO">    -1</i>
   <i type="int" name="NBANDSV">    -1</i>
   <i type="int" name="NELM">     1</i>
   <i type="int" name="NELMHF">     1</i>
   <i type="int" name="DIM">     3</i>
   <i type="int" name="ANTIRES">     0</i>
   <i name="OMEGAMAX">    -30.00000000</i>
   <i name="OMEGAMIN">    -30.00000000</i>
   <i name="OMEGATL">   -200.00000000</i>
   <i type="int" name="OMEGAGRID">   140</i>
   <i name="CSHIFT">     -0.10000000</i>
   <i type="logical" name="SELFENERGY"> F  </i>
   <i type="logical" name="LSPECTRAL"> F  </i>
   <i type="logical" name="LSPECTRALGW"> F  </i>
   <i type="logical" name="LSINGLES"> F  </i>
   <i type="logical" name="LFERMIGW"> F  </i>
   <i type="logical" name="ODDONLYGW"> F  </i>
   <i type="logical" name="EVENONLYGW"> F  </i>
   <i type="int" name="NKREDLFX">     1</i>
   <i type="int" name="NKREDLFY">     1</i>
   <i type="int" name="NKREDLFZ">     1</i>
   <i type="int" name="MAXMEM">  2800</i>
   <i type="int" name="TELESCOPE">     0</i>
   <i type="int" name="TAUPAR">     1</i>
   <i type="int" name="OMEGAPAR">    -1</i>
   <i name="LAMBDA">      1.00000000</i>
  </separator>
  <separator name="External order field" >
   <i name="OFIELD_KAPPA">      0.00000000</i>
   <v name="OFIELD_K">      0.00000000      0.00000000      0.00000000</v>
   <i name="OFIELD_Q6_NEAR">      0.00000000</i>
   <i name="OFIELD_Q6_FAR">      0.00000000</i>
   <i name="OFIELD_A">      0.00000000</i>
  </separator>
 </parameters>
 <atominfo>
  <atoms>       2 </atoms>
  <types>       1 </types>
  <array name="atoms" >
   <dimension dim="1">ion</dimension>
   <field type="string">element</field>
   <field type="int">atomtype</field>
   <set>
    <rc><c>Si</c><c>   1</c></rc>
    <rc><c>Si</c><c>   1</c></rc>
   </set>
  </array>
  <array name="atomtypes" >
   <dimension dim="1">type</dimension>
   <field type="int">atomspertype</field>
   <field type="string">element</field>
   <field>mass</field>
   <field>valence</field>
   <field type="string">pseudopotential</field>
   <set>
    <rc><c>   2</c><c>Si</c><c>     28.08500000</c><c>      4.00000000</c><c> PAW_PBE Si 05Jan2001                   </c></rc>
   </set>
  </array>
 </atominfo>
 <structure name="initialpos" >
  <crystal>
   <varray name="basis" >
    <v>      -2.45000000       2.45000000       1.27400000 </v>
    <v>       2.45000000      -2.45000000       1.27400000 </v>
    <v>       2.45000000       2.45000000      -1.27400000 </v>
   </varray>
   <i name="volume">     30.58874000 </i>
   <varray name="rec_basis" >
    <v>       0.00000000       0.20408163       0.39246468 </v>
    <v>       0.20408163       0.00000000       0.39246468 </v>
    <v>       0.20408163       0.20408163      -0.00000000 </v>
   </varray>
  </crystal>
  <varray name="positions" >
   <v>       0.25000000       0.75000000       0.50000000 </v>
   <v>       0.00000000       0.00000000       0.00000000 </v>
  </varray>
 </structure>
 <calculation>
  <scstep>
   <time name="dav">    0.42    0.42</time>
   <time name="total">    0.45    0.51</time>
   <energy>
    <i name="alphaZ">      4.40202223 </i>
    <i name="ewald">   -265.18101312 </i>
    <i name="hartreedc">     -2.30415367 </i>
    <i name="XCdc">    -17.81548033 </i>
    <i name="pawpsdc">     65.95520812 </i>
    <i name="pawaedc">    -30.76852678 </i>
    <i name="eentropy">     -0.00633727 </i>
    <i name="bandstr">     39.14548596 </i>
    <i name="atom">    206.12968587 </i>
    <i name="e_fr_energy">     -0.44310900 </i>
    <i name="e_wo_entrp">     -0.43677172 </i>
    <i name="e_0_energy">     -0.43994036 </i>
   </energy>
  </scstep>
  <scstep>
   <time name="dav">    0.67    0.68</time>
   <time name="total">    0.67    0.68</time>
   <energy>
    <i name="e_fr_energy">    -10.11592561 </i>
    <i name="e_wo_entrp">    -10.09386406 </i>
    <i name="e_0_energy">    -10.10489484 </i>
   </energy>
  </scstep>
  <scstep>
   <time name="dav">    0.57    0.58</time>
   <time name="total">    0.58    0.58</time>
   <energy>
    <i name="e_fr_energy">    -10.21081612 </i>
    <i name="e_wo_entrp">    -10.18899128 </i>
    <i name="e_0_energy">    -10.19990370 </i>
   </energy>
  </scstep>
  <scstep>
   <time name="dav">    0.69    0.70</time>
   <time name="total">    0.69    0.70</time>
   <energy>
    <i name="e_fr_energy">    -10.21104176 </i>
    <i name="e_wo_entrp">    -10.18921680 </i>
    <i name="e_0_energy">    -10.20012928 </i>
   </energy>
  </scstep>
  <scstep>
   <time name="dav">    0.56    0.57</time>
   <time name="total">    0.59    0.59</time>
   <energy>
    <i name="e_fr_energy">    -10.21104190 </i>
    <i name="e_wo_entrp">    -10.18921695 </i>
    <i name="e_0_energy">    -10.20012943 </i>
   </energy>
  </scstep>
  <scstep>
   <time name="dav">    0.55    0.55</time>
   <time name="total">    0.60    0.61</time>
   <energy>
    <i name="e_fr_energy">    -10.20614934 </i>
    <i name="e_wo_entrp">    -10.18428394 </i>
    <i name="e_0_energy">    -10.19521664 </i>
   </energy>
  </scstep>
  <scstep>
   <time name="dav">    0.41    0.41</time>
   <time name="total">    0.46    0.47</time>
   <energy>
    <i name="e_fr_energy">    -10.20212884 </i>
    <i name="e_wo_entrp">    -10.18020038 </i>
    <i name="e_0_energy">    -10.19116461 </i>
   </energy>
  </scstep>
  <scstep>
   <time name="dav">    0.32    0.31</time>
   <time name="total">    0.34    0.35</time>
   <energy>
    <i name="alphaZ">      4.40202223 </i>
    <i name="ewald">   -265.18101312 </i>
    <i name="hartreedc">     -2.48026986 </i>
    <i name="XCdc">    -17.58439759 </i>
    <i name="pawpsdc">     70.30029268 </i>
    <i name="pawaedc">    -35.21203356 </i>
    <i name="eentropy">     -0.02193012 </i>
    <i name="bandstr">     29.44552955 </i>
    <i name="atom">    206.12968587 </i>
    <i name="e_fr_energy">    -10.20211391 </i>
    <i name="e_wo_entrp">    -10.18018379 </i>
    <i name="e_0_energy">    -10.19114885 </i>
   </energy>
  </scstep>
  <structure>
   <crystal>
    <varray name="basis" >
     <v>      -2.45000000       2.45000000       1.27400000 </v>
     <v>       2.45000000      -2.45000000       1.27400000 </v>
     <v>       2.45000000       2.45000000      -1.27400000 </v>
    </varray>
    <i name="volume">     30.58874000 </i>
    <varray name="rec_basis" >
     <v>       0.00000000       0.20408163       0.39246468 </v>
     <v>       0.20408163       0.00000000       0.39246468 </v>
     <v>       0.20408163       0.20408163      -0.00000000 </v>
    </varray>
   </crystal>
   <varray name="positions" >
    <v>       0.25000000       0.75000000       0.50000000 </v>
    <v>       0.00000000       0.00000000       0.00000000 </v>
   </varray>
  </structure>
  <varray name="forces" >
   <v>      -0.00000000       0.00000000      -0.00000000 </v>
   <v>       0.00000000      -0.00000000       0.00000000 </v>
  </varray>
  <varray name="stress" >
   <v>     -31.04395209       0.00000000       0.00000000 </v>
   <v>      -0.00000000     -31.04395209       0.00000000 </v>
   <v>       0.00000000       0.00000000      66.77043053 </v>
  </varray>
  <energy>
   <i name="e_fr_energy">    -10.20211391 </i>
   <i name="e_wo_entrp">    -10.19114885 </i>
   <i name="e_0_energy">     -0.02193012 </i>
  </energy>
  <time name="totalsc">    5.44    6.31</time>
 </calculation>
 <calculation>
  <scstep>
   <time name="dav">    0.62    0.62</time>
   <time name="total">    0.66    0.67</time>
   <energy>
    <i name="alphaZ">      4.39548231 </i>
    <i name="ewald">   -265.16620395 </i>
    <i name="hartreedc">     -2.45813030 </i>
    <i name="XCdc">    -17.59229636 </i>
    <i name="pawpsdc">     70.29479296 </i>
    <i name="pawaedc">    -35.20684924 </i>
    <i name="eentropy">     -0.02138917 </i>
    <i name="bandstr">     29.35454150 </i>
    <i name="atom">    206.12968587 </i>
    <i name="e_fr_energy">    -10.27036636 </i>
    <i name="e_wo_entrp">    -10.24897719 </i>
    <i name="e_0_energy">    -10.25967178 </i>
   </energy>
  </scstep>
  <scstep>
   <time name="dav">    0.52    0.51</time>
   <time name="total">    0.56    0.57</time>
   <energy>
    <i name="e_fr_energy">    -10.25569877 </i>
    <i name="e_wo_entrp">    -10.23421470 </i>
    <i name="e_0_energy">    -10.24495674 </i>
   </energy>
  </scstep>
  <scstep>
   <time name="dav">    0.60    0.59</time>
   <time name="total">    0.64    0.65</time>
   <energy>
    <i name="e_fr_energy">    -10.24858768 </i>
    <i name="e_wo_entrp">    -10.22701236 </i>
    <i name="e_0_energy">    -10.23780002 </i>
   </energy>
  </scstep>
  <scstep>
   <time name="dav">    0.40    0.40</time>
   <time name="total">    0.42    0.43</time>
   <energy>
    <i name="alphaZ">      4.39548231 </i>
    <i name="ewald">   -265.16620395 </i>
    <i name="hartreedc">     -2.45147086 </i>
    <i name="XCdc">    -17.59073349 </i>
    <i name="pawpsdc">     70.36612513 </i>
    <i name="pawaedc">    -35.28049589 </i>
    <i name="eentropy">     -0.02157333 </i>
    <i name="bandstr">     29.37053787 </i>
    <i name="atom">    206.12968587 </i>
    <i name="e_fr_energy">    -10.24864634 </i>
    <i name="e_wo_entrp">    -10.22707302 </i>
    <i name="e_0_energy">    -10.23785968 </i>
   </energy>
  </scstep>
  <structure>
   <crystal>
    <varray name="basis" >
     <v>      -2.41497362       2.41497362       1.31317471 </v>
     <v>       2.41497362      -2.41497362       1.31317471 </v>
     <v>       2.41497362       2.41497362      -1.31317471 </v>
    </varray>
    <i name="volume">     30.63425218 </i>
    <varray name="rec_basis" >
     <v>      -0.00000000       0.20704160       0.38075665 </v>
     <v>       0.20704160      -0.00000000       0.38075665 </v>
     <v>       0.20704160       0.20704160      -0.00000000 </v>
    </varray>
   </crystal>
   <varray name="positions" >
    <v>       0.25000000       0.75000000       0.50000000 </v>
    <v>      -0.00000000       0.00000000      -0.00000000 </v>
   </varray>
  </structure>
  <varray name="forces" >
   <v>       0.00000000      -0.00000000      -0.00000000 </v>
   <v>      -0.00000000       0.00000000       0.00000000 </v>
  </varray>
  <varray name="stress" >
   <v>     -20.05046434       0.00000000      -0.00000000 </v>
   <v>       0.00000000     -20.05046434       0.00000000 </v>
   <v>      -0.00000000       0.00000000      40.68878036 </v>
  </varray>
  <energy>
   <i name="e_fr_energy">    -10.24864634 </i>
   <i name="e_wo_entrp">    -10.23785968 </i>
   <i name="e_0_energy">     -0.02157333 </i>
  </energy>
  <time name="totalsc">    2.68    2.85</time>
 </calculation>
 <calculation>
  <scstep>
   <time name="dav">    0.59    0.59</time>
   <time name="total">    0.64    0.64</time>
   <energy>
    <i name="alphaZ">      4.39716626 </i>
    <i name="ewald">   -264.94904763 </i>
    <i name="hartreedc">     -2.43574967 </i>
    <i name="XCdc">    -17.59264669 </i>
    <i name="pawpsdc">     70.36566519 </i>
    <i name="pawaedc">    -35.27984335 </i>
    <i name="eentropy">     -0.01323800 </i>
    <i name="bandstr">     29.07379916 </i>
    <i name="atom">    206.12968587 </i>
    <i name="e_fr_energy">    -10.30420886 </i>
    <i name="e_wo_entrp">    -10.29097086 </i>
    <i name="e_0_energy">    -10.29758986 </i>
   </energy>
  </scstep>
  <scstep>
   <time name="dav">    0.50    0.50</time>
   <time name="total">    0.54    0.56</time>
   <energy>
    <i name="e_fr_energy">    -10.26947762 </i>
    <i name="e_wo_entrp">    -10.25610598 </i>
    <i name="e_0_energy">    -10.26279180 </i>
   </energy>
  </scstep>
  <scstep>
   <time name="dav">    0.59    0.59</time>
   <time name="total">    0.63    0.64</time>
   <energy>
    <i name="e_fr_energy">    -10.25206382 </i>
    <i name="e_wo_entrp">    -10.23832367 </i>
    <i name="e_0_energy">    -10.24519375 </i>
   </energy>
  </scstep>
  <scstep>
   <time name="dav">    0.46    0.46</time>
   <time name="total">    0.49    0.50</time>
   <energy>
    <i name="alphaZ">      4.39716626 </i>
    <i name="ewald">   -264.94904763 </i>
    <i name="hartreedc">     -2.60838421 </i>
    <i name="XCdc">    -17.56543468 </i>
    <i name="pawpsdc">     70.85169684 </i>
    <i name="pawaedc">    -35.78014187 </i>
    <i name="eentropy">     -0.01372909 </i>
    <i name="bandstr">     29.28600235 </i>
    <i name="atom">    206.12968587 </i>
    <i name="e_fr_energy">    -10.25218615 </i>
    <i name="e_wo_entrp">    -10.23845707 </i>
    <i name="e_0_energy">    -10.24532161 </i>
   </energy>
  </scstep>
  <structure>
   <crystal>
    <varray name="basis" >
     <v>      -2.35750391       2.35750391       1.37745081 </v>
     <v>       2.35750391      -2.35750391       1.37745081 </v>
     <v>       2.35750391       2.35750391      -1.37745081 </v>
    </varray>
    <i name="volume">     30.62252043 </i>
    <varray name="rec_basis" >
     <v>      -0.00000000       0.21208873       0.36298937 </v>
     <v>       0.21208873      -0.00000000       0.36298937 </v>
     <v>       0.21208873       0.21208873       0.00000000 </v>
    </varray>
   </crystal>
   <varray name="positions" >
    <v>       0.25000000       0.75000000       0.50000000 </v>
    <v>      -0.00000000       0.00000000      -0.00000000 </v>
   </varray>
  </structure>
  <varray name="forces" >
   <v>       0.00000000      -0.00000000      -0.00000000 </v>
   <v>      -0.00000000       0.00000000       0.00000000 </v>
  </varray>
  <varray name="stress" >
   <v>      28.96875834       0.00000000       0.00000000 </v>
   <v>       0.00000000      28.96875834       0.00000000 </v>
   <v>       0.00000000      -0.00000000     -31.82989650 </v>
  </varray>
  <energy>
   <i name="e_fr_energy">    -10.25218615 </i>
   <i name="e_wo_entrp">    -10.24532161 </i>
   <i name="e_0_energy">     -0.01372909 </i>
  </energy>
  <time name="totalsc">    2.70    2.90</time>
 </calculation>
 <calculation>
  <scstep>
   <time name="dav">    0.57    0.57</time>
   <time name="total">    0.62    0.62</time>
   <energy>
    <i name="alphaZ">      4.39443658 </i>
    <i name="ewald">   -265.08220972 </i>
    <i name="hartreedc">     -2.58458472 </i>
    <i name="XCdc">    -17.57013316 </i>
    <i name="pawpsdc">     70.83009011 </i>
    <i name="pawaedc">    -35.75726874 </i>
    <i name="eentropy">     -0.01846062 </i>
    <i name="bandstr">     29.38074771 </i>
    <i name="atom">    206.12968587 </i>
    <i name="e_fr_energy">    -10.27769668 </i>
    <i name="e_wo_entrp">    -10.25923606 </i>
    <i name="e_0_energy">    -10.26846637 </i>
   </energy>
  </scstep>
  <scstep>
   <time name="dav">    0.51    0.51</time>
   <time name="total">    0.56    0.57</time>
   <energy>
    <i name="e_fr_energy">    -10.26881119 </i>
    <i name="e_wo_entrp">    -10.25020593 </i>
    <i name="e_0_energy">    -10.25950856 </i>
   </energy>
  </scstep>
  <scstep>
   <time name="dav">    0.57    0.57</time>
   <time name="total">    0.62    0.62</time>
   <energy>
    <i name="e_fr_energy">    -10.26431466 </i>
    <i name="e_wo_entrp">    -10.24550053 </i>
    <i name="e_0_energy">    -10.25490760 </i>
   </energy>
  </scstep>
  <scstep>
   <time name="dav">    0.28    0.28</time>
   <time name="total">    0.31    0.32</time>
   <energy>
    <i name="alphaZ">      4.39443658 </i>
    <i name="ewald">   -265.08220972 </i>
    <i name="hartreedc">     -2.48022799 </i>
    <i name="XCdc">    -17.58689008 </i>
    <i name="pawpsdc">     70.52497926 </i>
    <i name="pawaedc">    -35.44332595 </i>
    <i name="eentropy">     -0.01880692 </i>
    <i name="bandstr">     29.29801390 </i>
    <i name="atom">    206.12968587 </i>
    <i name="e_fr_energy">    -10.26434505 </i>
    <i name="e_wo_entrp">    -10.24553813 </i>
    <i name="e_0_energy">    -10.25494159 </i>
   </energy>
  </scstep>
  <structure>
   <crystal>
    <varray name="basis" >
     <v>      -2.38609554       2.38609554       1.34547294 </v>
     <v>       2.38609554      -2.38609554       1.34547294 </v>
     <v>       2.38609554       2.38609554      -1.34547294 </v>
    </varray>
    <i name="volume">     30.64154215 </i>
    <varray name="rec_basis" >
     <v>      -0.00000000       0.20954735       0.37161654 </v>
     <v>       0.20954735      -0.00000000       0.37161654 </v>
     <v>       0.20954735       0.20954735       0.00000000 </v>
    </varray>
   </crystal>
   <varray name="positions" >
    <v>       0.25000000       0.75000000       0.50000000 </v>
    <v>      -0.00000000       0.00000000      -0.00000000 </v>
   </varray>
  </structure>
  <varray name="forces" >
   <v>      -0.00000000       0.00000000      -0.00000000 </v>
   <v>       0.00000000      -0.00000000       0.00000000 </v>
  </varray>
  <varray name="stress" >
   <v>       2.35362533       0.00000000       0.00000000 </v>
   <v>       0.00000000       2.35362533      -0.00000000 </v>
   <v>       0.00000000       0.00000000       5.91003686 </v>
  </varray>
  <energy>
   <i name="e_fr_energy">    -10.26434505 </i>
   <i name="e_wo_entrp">    -10.25494159 </i>
   <i name="e_0_energy">     -0.01880692 </i>
  </energy>
  <time name="totalsc">    2.50    2.67</time>
 </calculation>
 <calculation>
  <scstep>
   <time name="dav">    0.56    0.56</time>
   <time name="total">    0.61    0.62</time>
   <energy>
    <i name="alphaZ">      4.39449512 </i>
    <i name="ewald">   -265.07554637 </i>
    <i name="hartreedc">     -2.48692140 </i>
    <i name="XCdc">    -17.58617338 </i>
    <i name="pawpsdc">     70.52863242 </i>
    <i name="pawaedc">    -35.44746295 </i>
    <i name="eentropy">     -0.01863284 </i>
    <i name="bandstr">     29.29752722 </i>
    <i name="atom">    206.12968587 </i>
    <i name="e_fr_energy">    -10.26439631 </i>
    <i name="e_wo_entrp">    -10.24576347 </i>
    <i name="e_0_energy">    -10.25507989 </i>
   </energy>
  </scstep>
  <scstep>
   <time name="dav">    0.24    0.24</time>
   <time name="total">    0.26    0.27</time>
   <energy>
    <i name="alphaZ">      4.39449512 </i>
    <i name="ewald">   -265.07554637 </i>
    <i name="hartreedc">     -2.48844412 </i>
    <i name="XCdc">    -17.58584594 </i>
    <i name="pawpsdc">     70.53590645 </i>
    <i name="pawaedc">    -35.45486918 </i>
    <i name="eentropy">     -0.01862251 </i>
    <i name="bandstr">     29.29886968 </i>
    <i name="atom">    206.12968587 </i>
    <i name="e_fr_energy">    -10.26437100 </i>
    <i name="e_wo_entrp">    -10.24574849 </i>
    <i name="e_0_energy">    -10.25505975 </i>
   </energy>
  </scstep>
  <structure>
   <crystal>
    <varray name="basis" >
     <v>      -2.38439179       2.38439179       1.34737848 </v>
     <v>       2.38439179      -2.38439179       1.34737848 </v>
     <v>       2.38439179       2.38439179      -1.34737848 </v>
    </varray>
    <i name="volume">     30.64113393 </i>
    <varray name="rec_basis" >
     <v>       0.00000000       0.20969708       0.37109098 </v>
     <v>       0.20969708       0.00000000       0.37109098 </v>
     <v>       0.20969708       0.20969708       0.00000000 </v>
    </varray>
   </crystal>
   <varray name="positions" >
    <v>       0.25000000       0.75000000       0.50000000 </v>
    <v>      -0.00000000       0.00000000      -0.00000000 </v>
   </varray>
  </structure>
  <varray name="forces" >
   <v>       0.00000000       0.00000000       0.00000000 </v>
   <v>      -0.00000000      -0.00000000      -0.00000000 </v>
  </varray>
  <varray name="stress" >
   <v>       3.37628160       0.00000000       0.00000000 </v>
   <v>       0.00000000       3.37628160       0.00000000 </v>
   <v>       0.00000000      -0.00000000       3.93070678 </v>
  </varray>
  <energy>
   <i name="e_fr_energy">    -10.26437100 </i>
   <i name="e_wo_entrp">    -10.25505975 </i>
   <i name="e_0_energy">     -0.01862251 </i>
  </energy>
  <time name="totalsc">    1.22    1.39</time>
 </calculation>
 <calculation>
  <scstep>
   <time name="dav">    0.22    0.22</time>
   <time name="total">    0.26    0.27</time>
   <energy>
    <i name="alphaZ">      4.39451296 </i>
    <i name="ewald">   -265.07374176 </i>
    <i name="hartreedc">     -2.49032193 </i>
    <i name="XCdc">    -17.58541845 </i>
    <i name="pawpsdc">     70.54395354 </i>
    <i name="pawaedc">    -35.46303402 </i>
    <i name="eentropy">     -0.01856059 </i>
    <i name="bandstr">     29.29857695 </i>
    <i name="atom">    206.12968587 </i>
    <i name="e_fr_energy">    -10.26434743 </i>
    <i name="e_wo_entrp">    -10.24578683 </i>
    <i name="e_0_energy">    -10.25506713 </i>
   </energy>
  </scstep>
  <scstep>
   <time name="dav">    0.20    0.20</time>
   <time name="total">    0.22    0.24</time>
   <energy>
    <i name="alphaZ">      4.39451296 </i>
    <i name="ewald">   -265.07374176 </i>
    <i name="hartreedc">     -2.49064212 </i>
    <i name="XCdc">    -17.58535937 </i>
    <i name="pawpsdc">     70.54544632 </i>
    <i name="pawaedc">    -35.46456618 </i>
    <i name="eentropy">     -0.01855813 </i>
    <i name="bandstr">     29.29887626 </i>
    <i name="atom">    206.12968587 </i>
    <i name="e_fr_energy">    -10.26434615 </i>
    <i name="e_wo_entrp">    -10.24578802 </i>
    <i name="e_0_energy">    -10.25506709 </i>
   </energy>
  </scstep>
  <structure>
   <crystal>
    <varray name="basis" >
     <v>      -2.38393788       2.38393788       1.34788614 </v>
     <v>       2.38393788      -2.38393788       1.34788614 </v>
     <v>       2.38393788       2.38393788      -1.34788614 </v>
    </varray>
    <i name="volume">     30.64100956 </i>
    <varray name="rec_basis" >
     <v>      -0.00000000       0.20973701       0.37095121 </v>
     <v>       0.20973701      -0.00000000       0.37095121 </v>
     <v>       0.20973701       0.20973701       0.00000000 </v>
    </varray>
   </crystal>
   <varray name="positions" >
    <v>       0.25000000       0.75000000       0.50000000 </v>
    <v>      -0.00000000       0.00000000      -0.00000000 </v>
   </varray>
  </structure>
  <varray name="forces" >
   <v>      -0.00000000       0.00000000       0.00000000 </v>
   <v>       0.00000000      -0.00000000      -0.00000000 </v>
  </varray>
  <varray name="stress" >
   <v>       4.24960143       0.00000000       0.00000000 </v>
   <v>       0.00000000       4.24960143      -0.00000000 </v>
   <v>       0.00000000       0.00000000       2.33342056 </v>
  </varray>
  <energy>
   <i name="e_fr_energy">    -10.26434615 </i>
   <i name="e_wo_entrp">    -10.25506709 </i>
   <i name="e_0_energy">     -0.01855813 </i>
  </energy>
  <time name="totalsc">    0.83    1.02</time>
 </calculation>
 <calculation>
  <scstep>
   <time name="dav">    0.20    0.20</time>
   <time name="total">    0.24    0.24</time>
   <energy>
    <i name="alphaZ">      4.39450088 </i>
    <i name="ewald">   -265.07495512 </i>
    <i name="hartreedc">     -2.49099390 </i>
    <i name="XCdc">    -17.58529769 </i>
    <i name="pawpsdc">     70.54721895 </i>
    <i name="pawaedc">    -35.46638546 </i>
    <i name="eentropy">     -0.01858793 </i>
    <i name="bandstr">     29.30045773 </i>
    <i name="atom">    206.12968587 </i>
    <i name="e_fr_energy">    -10.26435668 </i>
    <i name="e_wo_entrp">    -10.24576875 </i>
    <i name="e_0_energy">    -10.25506272 </i>
   </energy>
  </scstep>
  <scstep>
   <time name="dav">    0.20    0.20</time>
   <time name="total">    0.22    0.28</time>
   <energy>
    <i name="alphaZ">      4.39450088 </i>
    <i name="ewald">   -265.07495512 </i>
    <i name="hartreedc">     -2.49057743 </i>
    <i name="XCdc">    -17.58536348 </i>
    <i name="pawpsdc">     70.54580286 </i>
    <i name="pawaedc">    -35.46492427 </i>
    <i name="eentropy">     -0.01858968 </i>
    <i name="bandstr">     29.30006442 </i>
    <i name="atom">    206.12968587 </i>
    <i name="e_fr_energy">    -10.26435596 </i>
    <i name="e_wo_entrp">    -10.24576628 </i>
    <i name="e_0_energy">    -10.25506112 </i>
   </energy>
  </scstep>
  <structure>
   <crystal>
    <varray name="basis" >
     <v>      -2.38424273       2.38424273       1.34754519 </v>
     <v>       2.38424273      -2.38424273       1.34754519 </v>
     <v>       2.38424273       2.38424273      -1.34754519 </v>
    </varray>
    <i name="volume">     30.64109382 </i>
    <varray name="rec_basis" >
     <v>      -0.00000000       0.20971019       0.37104507 </v>
     <v>       0.20971019      -0.00000000       0.37104507 </v>
     <v>       0.20971019       0.20971019       0.00000000 </v>
    </varray>
   </crystal>
   <varray name="positions" >
    <v>       0.25000000       0.75000000       0.50000000 </v>
    <v>      -0.00000000       0.00000000      -0.00000000 </v>
   </varray>
  </structure>
  <varray name="forces" >
   <v>       0.00000000       0.00000000       0.00000000 </v>
   <v>      -0.00000000      -0.00000000      -0.00000000 </v>
  </varray>
  <varray name="stress" >
   <v>       4.19995345       0.00000000       0.00000000 </v>
   <v>       0.00000000       4.19995345      -0.00000000 </v>
   <v>       0.00000000      -0.00000000       2.18941500 </v>
  </varray>
  <energy>
   <i name="e_fr_energy">    -10.26435596 </i>
   <i name="e_wo_entrp">    -10.25506112 </i>
   <i name="e_0_energy">     -0.01858968 </i>
  </energy>
  <time name="totalsc">    0.81    1.06</time>
 </calculation>
 <calculation>
  <scstep>
   <time name="dav">    0.20    0.20</time>
   <time name="total">    0.24    0.25</time>
   <energy>
    <i name="alphaZ">      4.39449693 </i>
    <i name="ewald">   -265.07535993 </i>
    <i name="hartreedc">     -2.48997913 </i>
    <i name="XCdc">    -17.58546245 </i>
    <i name="pawpsdc">     70.54442929 </i>
    <i name="pawaedc">    -35.46350941 </i>
    <i name="eentropy">     -0.01860285 </i>
    <i name="bandstr">     29.29994356 </i>
    <i name="atom">    206.12968587 </i>
    <i name="e_fr_energy">    -10.26435813 </i>
    <i name="e_wo_entrp">    -10.24575528 </i>
    <i name="e_0_energy">    -10.25505670 </i>
   </energy>
  </scstep>
  <scstep>
   <time name="dav">    0.20    0.20</time>
   <time name="total">    0.22    0.24</time>
   <energy>
    <i name="alphaZ">      4.39449693 </i>
    <i name="ewald">   -265.07535993 </i>
    <i name="hartreedc">     -2.48988577 </i>
    <i name="XCdc">    -17.58547715 </i>
    <i name="pawpsdc">     70.54411212 </i>
    <i name="pawaedc">    -35.46318328 </i>
    <i name="eentropy">     -0.01860342 </i>
    <i name="bandstr">     29.29985659 </i>
    <i name="atom">    206.12968587 </i>
    <i name="e_fr_energy">    -10.26435804 </i>
    <i name="e_wo_entrp">    -10.24575462 </i>
    <i name="e_0_energy">    -10.25505633 </i>
   </energy>
  </scstep>
  <structure>
   <crystal>
    <varray name="basis" >
     <v>      -2.38434475       2.38434475       1.34743109 </v>
     <v>       2.38434475      -2.38434475       1.34743109 </v>
     <v>       2.38434475       2.38434475      -1.34743109 </v>
    </varray>
    <i name="volume">     30.64112135 </i>
    <varray name="rec_basis" >
     <v>      -0.00000000       0.20970122       0.37107649 </v>
     <v>       0.20970122      -0.00000000       0.37107649 </v>
     <v>       0.20970122       0.20970122       0.00000000 </v>
    </varray>
   </crystal>
   <varray name="positions" >
    <v>       0.25000000       0.75000000       0.50000000 </v>
    <v>      -0.00000000       0.00000000      -0.00000000 </v>
   </varray>
  </structure>
  <varray name="forces" >
   <v>       0.00000000       0.00000000      -0.00000000 </v>
   <v>      -0.00000000      -0.00000000       0.00000000 </v>
  </varray>
  <varray name="stress" >
   <v>       4.04821126      -0.00000000       0.00000000 </v>
   <v>      -0.00000000       4.04821126       0.00000000 </v>
   <v>       0.00000000       0.00000000       2.49122122 </v>
  </varray>
  <energy>
   <i name="e_fr_energy">    -10.26435804 </i>
   <i name="e_wo_entrp">    -10.25505633 </i>
   <i name="e_0_energy">     -0.01860342 </i>
  </energy>
  <time name="totalsc">    0.82    1.04</time>
 </calculation>
 <calculation>
  <scstep>
   <time name="dav">    0.20    0.20</time>
   <time name="total">    0.24    0.25</time>
   <energy>
    <i name="alphaZ">      4.39449581 </i>
    <i name="ewald">   -265.07547493 </i>
    <i name="hartreedc">     -2.48976143 </i>
    <i name="XCdc">    -17.58549809 </i>
    <i name="pawpsdc">     70.54380440 </i>
    <i name="pawaedc">    -35.46286813 </i>
    <i name="eentropy">     -0.01860717 </i>
    <i name="bandstr">     29.29986500 </i>
    <i name="atom">    206.12968587 </i>
    <i name="e_fr_energy">    -10.26435868 </i>
    <i name="e_wo_entrp">    -10.24575151 </i>
    <i name="e_0_energy">    -10.25505509 </i>
   </energy>
  </scstep>
  <scstep>
   <time name="dav">    0.20    0.20</time>
   <time name="total">    0.22    0.23</time>
   <energy>
    <i name="alphaZ">      4.39449581 </i>
    <i name="ewald">   -265.07547493 </i>
    <i name="hartreedc">     -2.48973674 </i>
    <i name="XCdc">    -17.58550231 </i>
    <i name="pawpsdc">     70.54371458 </i>
    <i name="pawaedc">    -35.46277599 </i>
    <i name="eentropy">     -0.01860735 </i>
    <i name="bandstr">     29.29984238 </i>
    <i name="atom">    206.12968587 </i>
    <i name="e_fr_energy">    -10.26435867 </i>
    <i name="e_wo_entrp">    -10.24575132 </i>
    <i name="e_0_energy">    -10.25505499 </i>
   </energy>
  </scstep>
  <structure>
   <crystal>
    <varray name="basis" >
     <v>      -2.38437376       2.38437376       1.34739864 </v>
     <v>       2.38437376      -2.38437376       1.34739864 </v>
     <v>       2.38437376       2.38437376      -1.34739864 </v>
    </varray>
    <i name="volume">     30.64112912 </i>
    <varray name="rec_basis" >
     <v>       0.00000000       0.20969867       0.37108543 </v>
     <v>       0.20969867       0.00000000       0.37108543 </v>
     <v>       0.20969867       0.20969867       0.00000000 </v>
    </varray>
   </crystal>
   <varray name="positions" >
    <v>       0.25000000       0.75000000       0.50000000 </v>
    <v>      -0.00000000       0.00000000      -0.00000000 </v>
   </varray>
  </structure>
  <varray name="forces" >
   <v>      -0.00000000      -0.00000000      -0.00000000 </v>
   <v>       0.00000000       0.00000000       0.00000000 </v>
  </varray>
  <varray name="stress" >
   <v>       4.00534790       0.00000000       0.00000000 </v>
   <v>       0.00000000       4.00534790       0.00000000 </v>
   <v>       0.00000000      -0.00000000       2.57406001 </v>
  </varray>
  <energy>
   <i name="e_fr_energy">    -10.26435867 </i>
   <i name="e_wo_entrp">    -10.25505499 </i>
   <i name="e_0_energy">     -0.01860735 </i>
  </energy>
  <time name="totalsc">    0.80    0.99</time>
 </calculation>
 <calculation>
  <scstep>
   <time name="dav">    0.20    0.20</time>
   <time name="total">    0.24    0.24</time>
   <energy>
    <i name="alphaZ">      4.39449540 </i>
    <i name="ewald">   -265.07551726 </i>
    <i name="hartreedc">     -2.48970363 </i>
    <i name="XCdc">    -17.58550821 </i>
    <i name="pawpsdc">     70.54361387 </i>
    <i name="pawaedc">    -35.46267292 </i>
    <i name="eentropy">     -0.01860868 </i>
    <i name="bandstr">     29.29985665 </i>
    <i name="atom">    206.12968587 </i>
    <i name="e_fr_energy">    -10.26435890 </i>
    <i name="e_wo_entrp">    -10.24575023 </i>
    <i name="e_0_energy">    -10.25505457 </i>
   </energy>
  </scstep>
  <scstep>
   <time name="dav">    0.20    0.20</time>
   <time name="total">    0.22    0.23</time>
   <energy>
    <i name="alphaZ">      4.39449540 </i>
    <i name="ewald">   -265.07551726 </i>
    <i name="hartreedc">     -2.48969428 </i>
    <i name="XCdc">    -17.58550984 </i>
    <i name="pawpsdc">     70.54357903 </i>
    <i name="pawaedc">    -35.46263717 </i>
    <i name="eentropy">     -0.01860874 </i>
    <i name="bandstr">     29.29984811 </i>
    <i name="atom">    206.12968587 </i>
    <i name="e_fr_energy">    -10.26435890 </i>
    <i name="e_wo_entrp">    -10.24575016 </i>
    <i name="e_0_energy">    -10.25505453 </i>
   </energy>
  </scstep>
  <structure>
   <crystal>
    <varray name="basis" >
     <v>      -2.38438444       2.38438444       1.34738669 </v>
     <v>       2.38438444      -2.38438444       1.34738669 </v>
     <v>       2.38438444       2.38438444      -1.34738669 </v>
    </varray>
    <i name="volume">     30.64113197 </i>
    <varray name="rec_basis" >
     <v>      -0.00000000       0.20969773       0.37108872 </v>
     <v>       0.20969773       0.00000000       0.37108872 </v>
     <v>       0.20969773       0.20969773       0.00000000 </v>
    </varray>
   </crystal>
   <varray name="positions" >
    <v>       0.25000000       0.75000000       0.50000000 </v>
    <v>      -0.00000000       0.00000000      -0.00000000 </v>
   </varray>
  </structure>
  <varray name="forces" >
   <v>      -0.00000000       0.00000000      -0.00000000 </v>
   <v>       0.00000000      -0.00000000       0.00000000 </v>
  </varray>
  <varray name="stress" >
   <v>       3.99203152      -0.00000000       0.00000000 </v>
   <v>      -0.00000000       3.99203152      -0.00000000 </v>
   <v>       0.00000000       0.00000000       2.59892843 </v>
  </varray>
  <energy>
   <i name="e_fr_energy">    -10.26435890 </i>
   <i name="e_wo_entrp">    -10.25505453 </i>
   <i name="e_0_energy">     -0.01860874 </i>
  </energy>
  <time name="totalsc">    0.81    0.98</time>
 </calculation>
 <calculation>
  <scstep>
   <time name="dav">    0.20    0.20</time>
   <time name="total">    0.24    0.25</time>
   <energy>
    <i name="alphaZ">      4.39449524 </i>
    <i name="ewald">   -265.07553428 </i>
    <i name="hartreedc">     -2.48968173 </i>
    <i name="XCdc">    -17.58551214 </i>
    <i name="pawpsdc">     70.54354057 </i>
    <i name="pawaedc">    -35.46259779 </i>
    <i name="eentropy">     -0.01860927 </i>
    <i name="bandstr">     29.29985454 </i>
    <i name="atom">    206.12968587 </i>
    <i name="e_fr_energy">    -10.26435900 </i>
    <i name="e_wo_entrp">    -10.24574972 </i>
    <i name="e_0_energy">    -10.25505436 </i>
   </energy>
  </scstep>
  <scstep>
   <time name="dav">    0.20    0.20</time>
   <time name="total">    0.23    0.24</time>
   <energy>
    <i name="alphaZ">      4.39449524 </i>
    <i name="ewald">   -265.07553428 </i>
    <i name="hartreedc">     -2.48967796 </i>
    <i name="XCdc">    -17.58551281 </i>
    <i name="pawpsdc">     70.54352653 </i>
    <i name="pawaedc">    -35.46258338 </i>
    <i name="eentropy">     -0.01860930 </i>
    <i name="bandstr">     29.29985109 </i>
    <i name="atom">    206.12968587 </i>
    <i name="e_fr_energy">    -10.26435900 </i>
    <i name="e_wo_entrp">    -10.24574970 </i>
    <i name="e_0_energy">    -10.25505435 </i>
   </energy>
  </scstep>
  <structure>
   <crystal>
    <varray name="basis" >
     <v>      -2.38438874       2.38438874       1.34738189 </v>
     <v>       2.38438874      -2.38438874       1.34738189 </v>
     <v>       2.38438874       2.38438874      -1.34738189 </v>
    </varray>
    <i name="volume">     30.64113312 </i>
    <varray name="rec_basis" >
     <v>       0.00000000       0.20969735       0.37109004 </v>
     <v>       0.20969735       0.00000000       0.37109004 </v>
     <v>       0.20969735       0.20969735      -0.00000000 </v>
    </varray>
   </crystal>
   <varray name="positions" >
    <v>       0.25000000       0.75000000       0.50000000 </v>
    <v>      -0.00000000       0.00000000      -0.00000000 </v>
   </varray>
  </structure>
  <varray name="forces" >
   <v>      -0.00000000       0.00000000      -0.00000000 </v>
   <v>       0.00000000      -0.00000000       0.00000000 </v>
  </varray>
  <varray name="stress" >
   <v>       3.98683999       0.00000000       0.00000000 </v>
   <v>       0.00000000       3.98683999       0.00000000 </v>
   <v>       0.00000000       0.00000000       2.60852944 </v>
  </varray>
  <energy>
   <i name="e_fr_energy">    -10.26435900 </i>
   <i name="e_wo_entrp">    -10.25505435 </i>
   <i name="e_0_energy">     -0.01860930 </i>
  </energy>
  <time name="totalsc">    1.36    2.29</time>
 </calculation>
 <calculation>
  <scstep>
   <time name="dav">    0.20    0.20</time>
   <time name="total">    0.24    0.24</time>
   <energy>
    <i name="alphaZ">      4.39449517 </i>
    <i name="ewald">   -265.07554131 </i>
    <i name="hartreedc">     -2.48967291 </i>
    <i name="XCdc">    -17.58551374 </i>
    <i name="pawpsdc">     70.54351124 </i>
    <i name="pawaedc">    -35.46256773 </i>
    <i name="eentropy">     -0.01860952 </i>
    <i name="bandstr">     29.29985389 </i>
    <i name="atom">    206.12968587 </i>
    <i name="e_fr_energy">    -10.26435904 </i>
    <i name="e_wo_entrp">    -10.24574952 </i>
    <i name="e_0_energy">    -10.25505428 </i>
   </energy>
  </scstep>
  <scstep>
   <time name="dav">    0.20    0.20</time>
   <time name="total">    0.22    0.23</time>
   <energy>
    <i name="alphaZ">      4.39449517 </i>
    <i name="ewald">   -265.07554131 </i>
    <i name="hartreedc">     -2.48967133 </i>
    <i name="XCdc">    -17.58551401 </i>
    <i name="pawpsdc">     70.54350538 </i>
    <i name="pawaedc">    -35.46256171 </i>
    <i name="eentropy">     -0.01860953 </i>
    <i name="bandstr">     29.29985244 </i>
    <i name="atom">    206.12968587 </i>
    <i name="e_fr_energy">    -10.26435904 </i>
    <i name="e_wo_entrp">    -10.24574951 </i>
    <i name="e_0_energy">    -10.25505427 </i>
   </energy>
  </scstep>
  <structure>
   <crystal>
    <varray name="basis" >
     <v>      -2.38439051       2.38439051       1.34737991 </v>
     <v>       2.38439051      -2.38439051       1.34737991 </v>
     <v>       2.38439051       2.38439051      -1.34737991 </v>
    </varray>
    <i name="volume">     30.64113359 </i>
    <varray name="rec_basis" >
     <v>       0.00000000       0.20969719       0.37109059 </v>
     <v>       0.20969719      -0.00000000       0.37109059 </v>
     <v>       0.20969719       0.20969719      -0.00000000 </v>
    </varray>
   </crystal>
   <varray name="positions" >
    <v>       0.25000000       0.75000000       0.50000000 </v>
    <v>      -0.00000000       0.00000000      -0.00000000 </v>
   </varray>
  </structure>
  <varray name="forces" >
   <v>      -0.00000000       0.00000000      -0.00000000 </v>
   <v>       0.00000000      -0.00000000       0.00000000 </v>
  </varray>
  <varray name="stress" >
   <v>       3.98471874      -0.00000000      -0.00000000 </v>
   <v>      -0.00000000       3.98471874       0.00000000 </v>
   <v>      -0.00000000       0.00000000       2.61241272 </v>
  </varray>
  <energy>
   <i name="e_fr_energy">    -10.26435904 </i>
   <i name="e_wo_entrp">    -10.25505427 </i>
   <i name="e_0_energy">     -0.01860953 </i>
  </energy>
  <time name="totalsc">    0.80    0.99</time>
 </calculation>
 <calculation>
  <scstep>
   <time name="dav">    0.20    0.20</time>
   <time name="total">    0.24    0.25</time>
   <energy>
    <i name="alphaZ">      4.39449514 </i>
    <i name="ewald">   -265.07554425 </i>
    <i name="hartreedc">     -2.48966922 </i>
    <i name="XCdc">    -17.58551440 </i>
    <i name="pawpsdc">     70.54349903 </i>
    <i name="pawaedc">    -35.46255520 </i>
    <i name="eentropy">     -0.01860962 </i>
    <i name="bandstr">     29.29985360 </i>
    <i name="atom">    206.12968587 </i>
    <i name="e_fr_energy">    -10.26435905 </i>
    <i name="e_wo_entrp">    -10.24574943 </i>
    <i name="e_0_energy">    -10.25505424 </i>
   </energy>
  </scstep>
  <scstep>
   <time name="dav">    0.20    0.20</time>
   <time name="total">    0.22    0.23</time>
   <energy>
    <i name="alphaZ">      4.39449514 </i>
    <i name="ewald">   -265.07554425 </i>
    <i name="hartreedc">     -2.48966855 </i>
    <i name="XCdc">    -17.58551452 </i>
    <i name="pawpsdc">     70.54349657 </i>
    <i name="pawaedc">    -35.46255268 </i>
    <i name="eentropy">     -0.01860963 </i>
    <i name="bandstr">     29.29985299 </i>
    <i name="atom">    206.12968587 </i>
    <i name="e_fr_energy">    -10.26435905 </i>
    <i name="e_wo_entrp">    -10.24574943 </i>
    <i name="e_0_energy">    -10.25505424 </i>
   </energy>
  </scstep>
  <structure>
   <crystal>
    <varray name="basis" >
     <v>      -2.38439125       2.38439125       1.34737908 </v>
     <v>       2.38439125      -2.38439125       1.34737908 </v>
     <v>       2.38439125       2.38439125      -1.34737908 </v>
    </varray>
    <i name="volume">     30.64113379 </i>
    <varray name="rec_basis" >
     <v>      -0.00000000       0.20969713       0.37109081 </v>
     <v>       0.20969713      -0.00000000       0.37109081 </v>
     <v>       0.20969713       0.20969713       0.00000000 </v>
    </varray>
   </crystal>
   <varray name="positions" >
    <v>       0.25000000       0.75000000       0.50000000 </v>
    <v>      -0.00000000       0.00000000      -0.00000000 </v>
   </varray>
  </structure>
  <varray name="forces" >
   <v>       0.00000000      -0.00000000      -0.00000000 </v>
   <v>      -0.00000000       0.00000000       0.00000000 </v>
  </varray>
  <varray name="stress" >
   <v>       3.98383360       0.00000000       0.00000000 </v>
   <v>       0.00000000       3.98383360       0.00000000 </v>
   <v>       0.00000000       0.00000000       2.61403029 </v>
  </varray>
  <energy>
   <i name="e_fr_energy">    -10.26435905 </i>
   <i name="e_wo_entrp">    -10.25505424 </i>
   <i name="e_0_energy">     -0.01860963 </i>
  </energy>
  <time name="totalsc">    0.81    0.99</time>
 </calculation>
 <calculation>
  <scstep>
   <time name="dav">    0.20    0.20</time>
   <time name="total">    0.24    0.24</time>
   <energy>
    <i name="alphaZ">      4.39449513 </i>
    <i name="ewald">   -265.07554548 </i>
    <i name="hartreedc">     -2.48966767 </i>
    <i name="XCdc">    -17.58551468 </i>
    <i name="pawpsdc">     70.54349392 </i>
    <i name="pawaedc">    -35.46254996 </i>
    <i name="eentropy">     -0.01860966 </i>
    <i name="bandstr">     29.29985347 </i>
    <i name="atom">    206.12968587 </i>
    <i name="e_fr_energy">    -10.26435906 </i>
    <i name="e_wo_entrp">    -10.24574940 </i>
    <i name="e_0_energy">    -10.25505423 </i>
   </energy>
  </scstep>
  <scstep>
   <time name="dav">    0.20    0.20</time>
   <time name="total">    0.22    0.23</time>
   <energy>
    <i name="alphaZ">      4.39449513 </i>
    <i name="ewald">   -265.07554548 </i>
    <i name="hartreedc">     -2.48966738 </i>
    <i name="XCdc">    -17.58551473 </i>
    <i name="pawpsdc">     70.54349288 </i>
    <i name="pawaedc">    -35.46254890 </i>
    <i name="eentropy">     -0.01860967 </i>
    <i name="bandstr">     29.29985322 </i>
    <i name="atom">    206.12968587 </i>
    <i name="e_fr_energy">    -10.26435906 </i>
    <i name="e_wo_entrp">    -10.24574939 </i>
    <i name="e_0_energy">    -10.25505423 </i>
   </energy>
  </scstep>
  <structure>
   <crystal>
    <varray name="basis" >
     <v>      -2.38439157       2.38439157       1.34737873 </v>
     <v>       2.38439157      -2.38439157       1.34737873 </v>
     <v>       2.38439157       2.38439157      -1.34737873 </v>
    </varray>
    <i name="volume">     30.64113387 </i>
    <varray name="rec_basis" >
     <v>      -0.00000000       0.20969710       0.37109091 </v>
     <v>       0.20969710      -0.00000000       0.37109091 </v>
     <v>       0.20969710       0.20969710      -0.00000000 </v>
    </varray>
   </crystal>
   <varray name="positions" >
    <v>       0.25000000       0.75000000       0.50000000 </v>
    <v>      -0.00000000       0.00000000      -0.00000000 </v>
   </varray>
  </structure>
  <varray name="forces" >
   <v>      -0.00000000      -0.00000000      -0.00000000 </v>
   <v>       0.00000000       0.00000000       0.00000000 </v>
  </varray>
  <varray name="stress" >
   <v>       3.98346256      -0.00000000       0.00000000 </v>
   <v>      -0.00000000       3.98346256       0.00000000 </v>
   <v>      -0.00000000      -0.00000000       2.61470788 </v>
  </varray>
  <energy>
   <i name="e_fr_energy">    -10.26435906 </i>
   <i name="e_wo_entrp">    -10.25505423 </i>
   <i name="e_0_energy">     -0.01860967 </i>
  </energy>
  <time name="totalsc">    0.81    0.97</time>
 </calculation>
 <calculation>
  <scstep>
   <time name="dav">    0.20    0.20</time>
   <time name="total">    0.24    0.25</time>
   <energy>
    <i name="alphaZ">      4.39449513 </i>
    <i name="ewald">   -265.07554600 </i>
    <i name="hartreedc">     -2.48966701 </i>
    <i name="XCdc">    -17.58551480 </i>
    <i name="pawpsdc">     70.54349176 </i>
    <i name="pawaedc">    -35.46254775 </i>
    <i name="eentropy">     -0.01860968 </i>
    <i name="bandstr">     29.29985342 </i>
    <i name="atom">    206.12968587 </i>
    <i name="e_fr_energy">    -10.26435906 </i>
    <i name="e_wo_entrp">    -10.24574938 </i>
    <i name="e_0_energy">    -10.25505422 </i>
   </energy>
  </scstep>
  <scstep>
   <time name="dav">    0.20    0.20</time>
   <time name="total">    0.22    0.24</time>
   <energy>
    <i name="alphaZ">      4.39449513 </i>
    <i name="ewald">   -265.07554600 </i>
    <i name="hartreedc">     -2.48966689 </i>
    <i name="XCdc">    -17.58551482 </i>
    <i name="pawpsdc">     70.54349133 </i>
    <i name="pawaedc">    -35.46254731 </i>
    <i name="eentropy">     -0.01860968 </i>
    <i name="bandstr">     29.29985331 </i>
    <i name="atom">    206.12968587 </i>
    <i name="e_fr_energy">    -10.26435906 </i>
    <i name="e_wo_entrp">    -10.24574938 </i>
    <i name="e_0_energy">    -10.25505422 </i>
   </energy>
  </scstep>
  <structure>
   <crystal>
    <varray name="basis" >
     <v>      -2.38439170       2.38439170       1.34737858 </v>
     <v>       2.38439170      -2.38439170       1.34737858 </v>
     <v>       2.38439170       2.38439170      -1.34737858 </v>
    </varray>
    <i name="volume">     30.64113391 </i>
    <varray name="rec_basis" >
     <v>       0.00000000       0.20969709       0.37109095 </v>
     <v>       0.20969709       0.00000000       0.37109095 </v>
     <v>       0.20969709       0.20969709      -0.00000000 </v>
    </varray>
   </crystal>
   <varray name="positions" >
    <v>       0.25000000       0.75000000       0.50000000 </v>
    <v>      -0.00000000       0.00000000      -0.00000000 </v>
   </varray>
  </structure>
  <varray name="forces" >
   <v>       0.00000000       0.00000000      -0.00000000 </v>
   <v>      -0.00000000      -0.00000000       0.00000000 </v>
  </varray>
  <varray name="stress" >
   <v>       3.98330619       0.00000000       0.00000000 </v>
   <v>       0.00000000       3.98330619       0.00000000 </v>
   <v>       0.00000000       0.00000000       2.61499354 </v>
  </varray>
  <energy>
   <i name="e_fr_energy">    -10.26435906 </i>
   <i name="e_wo_entrp">    -10.25505422 </i>
   <i name="e_0_energy">     -0.01860968 </i>
  </energy>
  <time name="totalsc">    0.87    1.21</time>
  <eigenvalues>
   <array>
    <dimension dim="1">band</dimension>
    <dimension dim="2">kpoint</dimension>
    <dimension dim="3">spin</dimension>
    <field>eigene</field>
    <field>occ</field>
    <set>
     <set comment="spin 1">
      <set comment="kpoint 1">
       <r>   -4.1007    1.0000 </r>
       <r>    4.9306    1.0000 </r>
       <r>    7.1476    1.0000 </r>
       <r>    8.9429    0.7850 </r>
       <r>   12.2809    0.0000 </r>
       <r>   14.0228    0.0000 </r>
       <r>   14.5175    0.0000 </r>
       <r>   16.7631    0.0000 </r>
      </set>
      <set comment="kpoint 2">
       <r>   -2.8855    1.0000 </r>
       <r>    4.6183    1.0000 </r>
       <r>    7.3942    1.0000 </r>
       <r>    9.4482    0.0027 </r>
       <r>   11.1641    0.0000 </r>
       <r>   11.4370    0.0000 </r>
       <r>   14.0574    0.0000 </r>
       <r>   15.0384    0.0000 </r>
      </set>
      <set comment="kpoint 3">
       <r>   -0.8905    1.0000 </r>
       <r>    4.7710    1.0000 </r>
       <r>    5.7666    1.0000 </r>
       <r>    7.5795    1.0000 </r>
       <r>    8.9932    0.6677 </r>
       <r>   12.0221    0.0000 </r>
       <r>   13.8350    0.0000 </r>
       <r>   14.2447    0.0000 </r>
      </set>
      <set comment="kpoint 4">
       <r>    1.4280    1.0000 </r>
       <r>    2.3774    1.0000 </r>
       <r>    6.0493    1.0000 </r>
       <r>    6.5406    1.0000 </r>
       <r>    8.8776    0.8945 </r>
       <r>   10.8924    0.0000 </r>
       <r>   13.6939    0.0000 </r>
       <r>   14.5779    0.0000 </r>
      </set>
      <set comment="kpoint 5">
       <r>   -4.5082    1.0000 </r>
       <r>    5.6267    1.0000 </r>
       <r>    6.3113    1.0000 </r>
       <r>    8.6340    0.9985 </r>
       <r>   11.3782    0.0000 </r>
       <r>   15.4151    0.0000 </r>
       <r>   17.9328    0.0000 </r>
       <r>   18.1494    0.0000 </r>
      </set>
      <set comment="kpoint 6">
       <r>   -1.0812    1.0000 </r>
       <r>    4.7990    1.0000 </r>
       <r>    6.6274    1.0000 </r>
       <r>    6.8600    1.0000 </r>
       <r>   10.0301    0.0000 </r>
       <r>   12.2510    0.0000 </r>
       <r>   13.2135    0.0000 </r>
       <r>   13.4875    0.0000 </r>
      </set>
      <set comment="kpoint 7">
       <r>    1.3708    1.0000 </r>
       <r>    3.1385    1.0000 </r>
       <r>    4.5438    1.0000 </r>
       <r>    6.1008    1.0000 </r>
       <r>   10.2525    0.0000 </r>
       <r>   12.0020    0.0000 </r>
       <r>   13.1111    0.0000 </r>
       <r>   15.2791    0.0000 </r>
      </set>
      <set comment="kpoint 8">
       <r>    0.0614    1.0000 </r>
       <r>    3.0068    1.0000 </r>
       <r>    5.0385    1.0000 </r>
       <r>    7.5249    1.0000 </r>
       <r>    9.5218    0.0005 </r>
       <r>   12.2746    0.0000 </r>
       <r>   14.1575    0.0000 </r>
       <r>   15.2198    0.0000 </r>
      </set>
      <set comment="kpoint 9">
       <r>   -2.1061    1.0000 </r>
       <r>    2.4583    1.0000 </r>
       <r>    7.9017    1.0000 </r>
       <r>    9.0180    0.6017 </r>
       <r>   10.6270    0.0000 </r>
       <r>   12.1401    0.0000 </r>
       <r>   13.2744    0.0000 </r>
       <r>   15.6911    0.0000 </r>
      </set>
      <set comment="kpoint 10">
       <r>   -3.5110    1.0000 </r>
       <r>    2.6068    1.0000 </r>
       <r>    7.6656    1.0000 </r>
       <r>    9.8313    0.0000 </r>
       <r>   12.5103    0.0000 </r>
       <r>   13.8763    0.0000 </r>
       <r>   14.7088    0.0000 </r>
       <r>   15.5667    0.0000 </r>
      </set>
      <set comment="kpoint 11">
       <r>   -4.1139    1.0000 </r>
       <r>    3.4844    1.0000 </r>
       <r>    6.4628    1.0000 </r>
       <r>    9.8438    0.0000 </r>
       <r>   13.4036    0.0000 </r>
       <r>   13.4842    0.0000 </r>
       <r>   16.5816    0.0000 </r>
       <r>   17.3336    0.0000 </r>
      </set>
      <set comment="kpoint 12">
       <r>   -3.9041    1.0000 </r>
       <r>    4.7032    1.0000 </r>
       <r>    5.7308    1.0000 </r>
       <r>   10.4316    0.0000 </r>
       <r>   13.0257    0.0000 </r>
       <r>   13.1246    0.0000 </r>
       <r>   14.0911    0.0000 </r>
       <r>   16.1557    0.0000 </r>
      </set>
      <set comment="kpoint 13">
       <r>    1.3371    1.0000 </r>
       <r>    1.4119    1.0000 </r>
       <r>    4.8313    1.0000 </r>
       <r>    7.4473    1.0000 </r>
       <r>   10.3147    0.0000 </r>
       <r>   11.1456    0.0000 </r>
       <r>   15.3711    0.0000 </r>
       <r>   16.1419    0.0000 </r>
      </set>
      <set comment="kpoint 14">
       <r>   -0.9456    1.0000 </r>
       <r>    0.5839    1.0000 </r>
       <r>    8.2453    1.0000 </r>
       <r>    8.9689    0.7275 </r>
       <r>   10.4385    0.0000 </r>
       <r>   11.8429    0.0000 </r>
       <r>   13.1973    0.0000 </r>
       <r>   14.6251    0.0000 </r>
      </set>
      <set comment="kpoint 15">
       <r>   -2.5333    1.0000 </r>
       <r>    0.5471    1.0000 </r>
       <r>    8.5163    0.9999 </r>
       <r>   10.7567    0.0000 </r>
       <r>   11.1430    0.0000 </r>
       <r>   13.2369    0.0000 </r>
       <r>   14.0943    0.0000 </r>
       <r>   14.1546    0.0000 </r>
      </set>
      <set comment="kpoint 16">
       <r>   -3.3284    1.0000 </r>
       <r>    1.2840    1.0000 </r>
       <r>    7.1742    1.0000 </r>
       <r>   10.7660    0.0000 </r>
       <r>   11.4064    0.0000 </r>
       <r>   14.9059    0.0000 </r>
       <r>   16.3662    0.0000 </r>
       <r>   17.0756    0.0000 </r>
      </set>
      <set comment="kpoint 17">
       <r>   -3.3156    1.0000 </r>
       <r>    2.7529    1.0000 </r>
       <r>    5.9087    1.0000 </r>
       <r>   11.1410    0.0000 </r>
       <r>   11.7187    0.0000 </r>
       <r>   13.2641    0.0000 </r>
       <r>   15.1490    0.0000 </r>
       <r>   16.0983    0.0000 </r>
      </set>
      <set comment="kpoint 18">
       <r>   -2.4959    1.0000 </r>
       <r>    4.5068    1.0000 </r>
       <r>    5.6734    1.0000 </r>
       <r>    8.5883    0.9995 </r>
       <r>   11.5297    0.0000 </r>
       <r>   13.3879    0.0000 </r>
       <r>   13.8596    0.0000 </r>
       <r>   13.9373    0.0000 </r>
      </set>
      <set comment="kpoint 19">
       <r>   -1.1756    1.0000 </r>
       <r>   -1.1756    1.0000 </r>
       <r>    9.6689    0.0000 </r>
       <r>    9.6689    0.0000 </r>
       <r>   12.0690    0.0000 </r>
       <r>   12.0690    0.0000 </r>
       <r>   13.7528    0.0000 </r>
       <r>   13.7528    0.0000 </r>
      </set>
      <set comment="kpoint 20">
       <r>   -2.1579    1.0000 </r>
       <r>   -0.6136    1.0000 </r>
       <r>    8.2493    1.0000 </r>
       <r>    9.6688    0.0000 </r>
       <r>   11.8924    0.0000 </r>
       <r>   13.2894    0.0000 </r>
       <r>   16.6891    0.0000 </r>
       <r>   16.8170    0.0000 </r>
      </set>
      <set comment="kpoint 21">
       <r>   -2.3402    1.0000 </r>
       <r>    0.7261    1.0000 </r>
       <r>    6.7832    1.0000 </r>
       <r>    9.5814    0.0001 </r>
       <r>   11.6994    0.0000 </r>
       <r>   13.4583    0.0000 </r>
       <r>   15.0695    0.0000 </r>
       <r>   16.1123    0.0000 </r>
      </set>
      <set comment="kpoint 22">
       <r>   -1.7206    1.0000 </r>
       <r>    2.7745    1.0000 </r>
       <r>    5.9391    1.0000 </r>
       <r>    7.9180    1.0000 </r>
       <r>   10.1790    0.0000 </r>
       <r>   12.8413    0.0000 </r>
       <r>   14.7165    0.0000 </r>
       <r>   15.7714    0.0000 </r>
      </set>
      <set comment="kpoint 23">
       <r>   -0.3219    1.0000 </r>
       <r>    4.2343    1.0000 </r>
       <r>    5.5860    1.0000 </r>
       <r>    6.2274    1.0000 </r>
       <r>    9.5485    0.0002 </r>
       <r>   11.7705    0.0000 </r>
       <r>   12.4572    0.0000 </r>
       <r>   15.8649    0.0000 </r>
      </set>
      <set comment="kpoint 24">
       <r>   -0.9905    1.0000 </r>
       <r>   -0.9834    1.0000 </r>
       <r>    8.0152    1.0000 </r>
       <r>    8.0386    1.0000 </r>
       <r>   11.6515    0.0000 </r>
       <r>   14.1158    0.0000 </r>
       <r>   14.9420    0.0000 </r>
       <r>   15.0730    0.0000 </r>
      </set>
      <set comment="kpoint 25">
       <r>   -0.5675    1.0000 </r>
       <r>    0.9469    1.0000 </r>
       <r>    6.8108    1.0000 </r>
       <r>    7.6107    1.0000 </r>
       <r>    8.6757    0.9963 </r>
       <r>   12.4290    0.0000 </r>
       <r>   15.8743    0.0000 </r>
       <r>   17.1660    0.0000 </r>
      </set>
      <set comment="kpoint 26">
       <r>    0.6124    1.0000 </r>
       <r>    3.2954    1.0000 </r>
       <r>    4.3677    1.0000 </r>
       <r>    6.7571    1.0000 </r>
       <r>    9.0581    0.4898 </r>
       <r>   11.0221    0.0000 </r>
       <r>   13.4638    0.0000 </r>
       <r>   17.2410    0.0000 </r>
      </set>
      <set comment="kpoint 27">
       <r>    1.0053    1.0000 </r>
       <r>    2.8028    1.0000 </r>
       <r>    6.6479    1.0000 </r>
       <r>    7.1503    1.0000 </r>
       <r>    8.0413    1.0000 </r>
       <r>   10.4640    0.0000 </r>
       <r>   12.1385    0.0000 </r>
       <r>   16.0489    0.0000 </r>
      </set>
      <set comment="kpoint 28">
       <r>    1.7817    1.0000 </r>
       <r>    1.9845    1.0000 </r>
       <r>    4.0025    1.0000 </r>
       <r>    7.6542    1.0000 </r>
       <r>    8.1157    1.0000 </r>
       <r>   10.5966    0.0000 </r>
       <r>   15.3874    0.0000 </r>
       <r>   16.2437    0.0000 </r>
      </set>
      <set comment="kpoint 29">
       <r>    0.6785    1.0000 </r>
       <r>    3.8476    1.0000 </r>
       <r>    5.2611    1.0000 </r>
       <r>    7.4924    1.0000 </r>
       <r>    8.6345    0.9985 </r>
       <r>   10.4883    0.0000 </r>
       <r>   12.1072    0.0000 </r>
       <r>   14.7213    0.0000 </r>
      </set>
      <set comment="kpoint 30">
       <r>   -1.4665    1.0000 </r>
       <r>    6.0561    1.0000 </r>
       <r>    7.2921    1.0000 </r>
       <r>    7.4742    1.0000 </r>
       <r>    8.8161    0.9541 </r>
       <r>   11.1357    0.0000 </r>
       <r>   12.2335    0.0000 </r>
       <r>   13.8938    0.0000 </r>
      </set>
      <set comment="kpoint 31">
       <r>   -1.6591    1.0000 </r>
       <r>    6.7929    1.0000 </r>
       <r>    7.3552    1.0000 </r>
       <r>    7.7718    1.0000 </r>
       <r>    9.1763    0.1945 </r>
       <r>   11.0441    0.0000 </r>
       <r>   11.9870    0.0000 </r>
       <r>   12.1890    0.0000 </r>
      </set>
      <set comment="kpoint 32">
       <r>   -3.2766    1.0000 </r>
       <r>    6.6835    1.0000 </r>
       <r>    7.2706    1.0000 </r>
       <r>    9.3657    0.0139 </r>
       <r>   11.2143    0.0000 </r>
       <r>   11.6365    0.0000 </r>
       <r>   12.4228    0.0000 </r>
       <r>   14.0602    0.0000 </r>
      </set>
      <set comment="kpoint 33">
       <r>   -4.2978    1.0000 </r>
       <r>    6.9738    1.0000 </r>
       <r>    6.9738    1.0000 </r>
       <r>    7.6697    1.0000 </r>
       <r>   11.0878    0.0000 </r>
       <r>   14.7499    0.0000 </r>
       <r>   14.9131    0.0000 </r>
       <r>   16.8738    0.0000 </r>
      </set>
      <set comment="kpoint 34">
       <r>   -0.1245    1.0000 </r>
       <r>    2.8607    1.0000 </r>
       <r>    6.1716    1.0000 </r>
       <r>    6.2734    1.0000 </r>
       <r>   11.0669    0.0000 </r>
       <r>   13.0842    0.0000 </r>
       <r>   14.2606    0.0000 </r>
       <r>   14.6758    0.0000 </r>
      </set>
      <set comment="kpoint 35">
       <r>    2.1611    1.0000 </r>
       <r>    2.9368    1.0000 </r>
       <r>    4.0110    1.0000 </r>
       <r>    4.7029    1.0000 </r>
       <r>   11.9743    0.0000 </r>
       <r>   13.8878    0.0000 </r>
       <r>   14.3105    0.0000 </r>
       <r>   14.5409    0.0000 </r>
      </set>
      <set comment="kpoint 36">
       <r>   -3.7213    1.0000 </r>
       <r>    3.3743    1.0000 </r>
       <r>    4.5856    1.0000 </r>
       <r>   11.2774    0.0000 </r>
       <r>   12.0396    0.0000 </r>
       <r>   14.5626    0.0000 </r>
       <r>   16.3748    0.0000 </r>
       <r>   16.8820    0.0000 </r>
      </set>
      <set comment="kpoint 37">
       <r>    1.1980    1.0000 </r>
       <r>    1.1980    1.0000 </r>
       <r>    6.0462    1.0000 </r>
       <r>    6.0462    1.0000 </r>
       <r>   12.3691    0.0000 </r>
       <r>   12.3691    0.0000 </r>
       <r>   14.3234    0.0000 </r>
       <r>   14.3235    0.0000 </r>
      </set>
      <set comment="kpoint 38">
       <r>   -2.9394    1.0000 </r>
       <r>    1.6074    1.0000 </r>
       <r>    4.8787    1.0000 </r>
       <r>    9.1954    0.1596 </r>
       <r>   13.3016    0.0000 </r>
       <r>   15.6209    0.0000 </r>
       <r>   16.3103    0.0000 </r>
       <r>   17.4388    0.0000 </r>
      </set>
      <set comment="kpoint 39">
       <r>   -2.7311    1.0000 </r>
       <r>    2.8032    1.0000 </r>
       <r>    4.0990    1.0000 </r>
       <r>    9.3203    0.0301 </r>
       <r>   11.5221    0.0000 </r>
       <r>   14.8521    0.0000 </r>
       <r>   16.5430    0.0000 </r>
       <r>   16.6767    0.0000 </r>
      </set>
      <set comment="kpoint 40">
       <r>   -1.7756    1.0000 </r>
       <r>   -0.2455    1.0000 </r>
       <r>    5.9434    1.0000 </r>
       <r>    7.3980    1.0000 </r>
       <r>   14.2038    0.0000 </r>
       <r>   14.9498    0.0000 </r>
       <r>   16.4459    0.0000 </r>
       <r>   17.1164    0.0000 </r>
      </set>
      <set comment="kpoint 41">
       <r>   -1.7638    1.0000 </r>
       <r>    1.2344    1.0000 </r>
       <r>    4.5428    1.0000 </r>
       <r>    7.4020    1.0000 </r>
       <r>   11.0631    0.0000 </r>
       <r>   16.1442    0.0000 </r>
       <r>   16.7440    0.0000 </r>
       <r>   18.6229    0.0000 </r>
      </set>
      <set comment="kpoint 42">
       <r>   -0.9544    1.0000 </r>
       <r>    2.9885    1.0000 </r>
       <r>    4.3323    1.0000 </r>
       <r>    7.1159    1.0000 </r>
       <r>    8.3420    1.0000 </r>
       <r>   14.1754    0.0000 </r>
       <r>   15.3804    0.0000 </r>
       <r>   17.4279    0.0000 </r>
      </set>
      <set comment="kpoint 43">
       <r>   -0.4351    1.0000 </r>
[...]
       <r>    3.1663    1.0000 </r>
       <r>    4.4962    1.0000 </r>
       <r>    5.2759    1.0000 </r>
       <r>    7.6534    1.0000 </r>
       <r>   12.2234    0.0000 </r>
       <r>   13.3270    0.0000 </r>
       <r>   17.3560    0.0000 </r>
      </set>
      <set comment="kpoint 46">
       <r>    2.3025    1.0000 </r>
       <r>    2.8860    1.0000 </r>
       <r>    3.7955    1.0000 </r>
       <r>    6.0704    1.0000 </r>
       <r>    6.2060    1.0000 </r>
       <r>   12.4197    0.0000 </r>
       <r>   14.8224    0.0000 </r>
       <r>   15.8301    0.0000 </r>
      </set>
      <set comment="kpoint 47">
       <r>    0.3169    1.0000 </r>
       <r>    4.9037    1.0000 </r>
       <r>    5.9580    1.0000 </r>
       <r>    6.8012    1.0000 </r>
       <r>    7.7321    1.0000 </r>
       <r>   11.0613    0.0000 </r>
       <r>   11.9028    0.0000 </r>
       <r>   13.6507    0.0000 </r>
      </set>
      <set comment="kpoint 48">
       <r>   -1.8527    1.0000 </r>
       <r>    8.0663    1.0000 </r>
       <r>    8.0663    1.0000 </r>
       <r>    8.2747    1.0000 </r>
       <r>    8.4861    1.0000 </r>
       <r>   10.2241    0.0000 </r>
       <r>   11.6670    0.0000 </r>
       <r>   11.6670    0.0000 </r>
      </set>
      <set comment="kpoint 49">
       <r>   -2.1659    1.0000 </r>
       <r>    1.8310    1.0000 </r>
       <r>    3.1987    1.0000 </r>
       <r>    7.0650    1.0000 </r>
       <r>   14.5295    0.0000 </r>
       <r>   15.1039    0.0000 </r>
       <r>   17.3535    0.0000 </r>
       <r>   18.7720    0.0000 </r>
      </set>
      <set comment="kpoint 50">
       <r>   -1.0204    1.0000 </r>
       <r>    0.4545    1.0000 </r>
       <r>    3.8115    1.0000 </r>
       <r>    5.2435    1.0000 </r>
       <r>   14.6023    0.0000 </r>
       <r>   14.7319    0.0000 </r>
       <r>   18.5748    0.0000 </r>
       <r>   19.6936    0.0000 </r>
      </set>
      <set comment="kpoint 51">
       <r>   -0.8154    1.0000 </r>
       <r>    1.6409    1.0000 </r>
       <r>    3.0383    1.0000 </r>
       <r>    5.4300    1.0000 </r>
       <r>   10.5608    0.0000 </r>
       <r>   17.7914    0.0000 </r>
       <r>   18.7663    0.0000 </r>
       <r>   19.3255    0.0000 </r>
      </set>
      <set comment="kpoint 52">
       <r>    0.4505    1.0000 </r>
       <r>    0.4766    1.0000 </r>
       <r>    3.8146    1.0000 </r>
       <r>    3.8341    1.0000 </r>
       <r>   10.3880    0.0000 </r>
       <r>   17.9542    0.0000 </r>
       <r>   19.7831    0.0000 </r>
       <r>   20.0576    0.0000 </r>
      </set>
      <set comment="kpoint 53">
       <r>    1.2494    1.0000 </r>
       <r>    2.2199    1.0000 </r>
       <r>    3.6278    1.0000 </r>
       <r>    4.5587    1.0000 </r>
       <r>    6.6509    1.0000 </r>
       <r>   16.1186    0.0000 </r>
       <r>   17.1630    0.0000 </r>
       <r>   18.5937    0.0000 </r>
      </set>
      <set comment="kpoint 54">
       <r>    2.4606    1.0000 </r>
       <r>    3.7081    1.0000 </r>
       <r>    4.3656    1.0000 </r>
       <r>    4.9402    1.0000 </r>
       <r>    4.9402    1.0000 </r>
       <r>   14.4406    0.0000 </r>
       <r>   14.6306    0.0000 </r>
       <r>   14.6306    0.0000 </r>
      </set>
      <set comment="kpoint 55">
       <r>    0.0668    1.0000 </r>
       <r>    1.0494    1.0000 </r>
       <r>    2.4792    1.0000 </r>
       <r>    3.4476    1.0000 </r>
       <r>   14.4134    0.0000 </r>
       <r>   14.4425    0.0000 </r>
       <r>   21.0055    0.0000 </r>
       <r>   21.7143    0.0000 </r>
      </set>
      <set comment="kpoint 56">
       <r>    1.2274    1.0000 </r>
       <r>    1.2727    1.0000 </r>
       <r>    2.6776    1.0000 </r>
       <r>    2.6776    1.0000 </r>
       <r>   10.2138    0.0000 </r>
       <r>   18.3231    0.0000 </r>
       <r>   20.7824    0.0000 </r>
       <r>   20.7824    0.0000 </r>
      </set>
     </set>
    </set>
   </array>
  </eigenvalues>
  <separator name="orbital magnetization" >
   <v name="MAGDIPOLOUT">      0.00000000      0.00000000      0.00000000</v>
  </separator>
  <dos>
   <i name="efermi">      9.05446663 </i>
   <total>
    <array>
     <dimension dim="1">gridpoints</dimension>
     <dimension dim="2">spin</dimension>
     <field>energy</field>
     <field>total</field>
     <field>integrated</field>
     <set>
      <set comment="spin 1">
       <r>    -6.5082     0.0000     0.0000 </r>
       <r>    -6.4075     0.0000     0.0000 </r>
       <r>    -6.3067     0.0000     0.0000 </r>
       <r>    -6.2060     0.0000     0.0000 </r>
       <r>    -6.1053     0.0000     0.0000 </r>
       <r>    -6.0045     0.0000     0.0000 </r>
       <r>    -5.9038     0.0000     0.0000 </r>
       <r>    -5.8030     0.0000     0.0000 </r>
       <r>    -5.7023     0.0000     0.0000 </r>
       <r>    -5.6016     0.0000     0.0000 </r>
       <r>    -5.5008     0.0000     0.0000 </r>
       <r>    -5.4001     0.0000     0.0000 </r>
       <r>    -5.2993     0.0000     0.0000 </r>
       <r>    -5.1986     0.0000     0.0000 </r>
       <r>    -5.0978     0.0000     0.0000 </r>
       <r>    -4.9971     0.0000     0.0000 </r>
       <r>    -4.8964     0.0004     0.0000 </r>
       <r>    -4.7956     0.0028     0.0003 </r>
       <r>    -4.6949     0.0114     0.0015 </r>
       <r>    -4.5941     0.0290     0.0044 </r>
       <r>    -4.4934     0.0487     0.0093 </r>
       <r>    -4.3927     0.0637     0.0157 </r>
       <r>    -4.2919     0.0898     0.0248 </r>
       <r>    -4.1912     0.1456     0.0395 </r>
       <r>    -4.0904     0.2047     0.0601 </r>
       <r>    -3.9897     0.2187     0.0821 </r>
       <r>    -3.8889     0.1875     0.1010 </r>
       <r>    -3.7882     0.1468     0.1158 </r>
       <r>    -3.6875     0.1236     0.1282 </r>
       <r>    -3.5867     0.1390     0.1422 </r>
       <r>    -3.4860     0.2089     0.1633 </r>
       <r>    -3.3852     0.3172     0.1952 </r>
       <r>    -3.2845     0.3826     0.2338 </r>
       <r>    -3.1838     0.3339     0.2674 </r>
       <r>    -3.0830     0.2446     0.2921 </r>
       <r>    -2.9823     0.2399     0.3162 </r>
       <r>    -2.8815     0.2979     0.3462 </r>
       <r>    -2.7808     0.3122     0.3777 </r>
       <r>    -2.6800     0.2754     0.4054 </r>
       <r>    -2.5793     0.2614     0.4318 </r>
       <r>    -2.4786     0.2934     0.4613 </r>
       <r>    -2.3778     0.3355     0.4951 </r>
       <r>    -2.2771     0.3689     0.5323 </r>
       <r>    -2.1763     0.3925     0.5718 </r>
       <r>    -2.0756     0.3785     0.6100 </r>
       <r>    -1.9749     0.3333     0.6435 </r>
       <r>    -1.8741     0.3582     0.6796 </r>
       <r>    -1.7734     0.4785     0.7278 </r>
       <r>    -1.6726     0.5364     0.7819 </r>
       <r>    -1.5719     0.4324     0.8254 </r>
       <r>    -1.4711     0.2704     0.8527 </r>
       <r>    -1.3704     0.1700     0.8698 </r>
       <r>    -1.2697     0.1711     0.8870 </r>
       <r>    -1.1689     0.2987     0.9171 </r>
       <r>    -1.0682     0.5397     0.9715 </r>
       <r>    -0.9674     0.7649     1.0485 </r>
       <r>    -0.8667     0.7923     1.1284 </r>
       <r>    -0.7660     0.6220     1.1910 </r>
       <r>    -0.6652     0.4600     1.2374 </r>
       <r>    -0.5645     0.4263     1.2803 </r>
       <r>    -0.4637     0.4462     1.3253 </r>
       <r>    -0.3630     0.4324     1.3688 </r>
       <r>    -0.2622     0.3807     1.4072 </r>
       <r>    -0.1615     0.3274     1.4402 </r>
       <r>    -0.0608     0.3178     1.4722 </r>
       <r>     0.0400     0.3686     1.5093 </r>
       <r>     0.1407     0.4274     1.5524 </r>
       <r>     0.2415     0.4427     1.5970 </r>
       <r>     0.3422     0.4677     1.6441 </r>
       <r>     0.4429     0.5914     1.7037 </r>
       <r>     0.5437     0.7809     1.7823 </r>
       <r>     0.6444     0.8806     1.8710 </r>
       <r>     0.7452     0.7884     1.9505 </r>
       <r>     0.8459     0.5961     2.0105 </r>
       <r>     0.9467     0.4743     2.0583 </r>
       <r>     1.0474     0.4747     2.1061 </r>
       <r>     1.1481     0.5791     2.1645 </r>
       <r>     1.2489     0.7550     2.2405 </r>
       <r>     1.3496     0.8803     2.3292 </r>
       <r>     1.4504     0.8557     2.4154 </r>
       <r>     1.5511     0.7401     2.4900 </r>
       <r>     1.6518     0.6215     2.5526 </r>
       <r>     1.7526     0.4949     2.6024 </r>
       <r>     1.8533     0.3578     2.6385 </r>
       <r>     1.9541     0.2606     2.6647 </r>
       <r>     2.0548     0.2365     2.6886 </r>
       <r>     2.1556     0.2797     2.7168 </r>
       <r>     2.2563     0.3608     2.7531 </r>
       <r>     2.3570     0.4417     2.7976 </r>
       <r>     2.4578     0.4925     2.8472 </r>
       <r>     2.5585     0.5240     2.9000 </r>
       <r>     2.6593     0.6142     2.9619 </r>
       <r>     2.7600     0.7928     3.0418 </r>
       <r>     2.8607     0.9419     3.1366 </r>
       <r>     2.9615     0.9613     3.2335 </r>
       <r>     3.0622     0.8847     3.3226 </r>
       <r>     3.1630     0.7681     3.4000 </r>
       <r>     3.2637     0.6337     3.4638 </r>
       <r>     3.3645     0.5005     3.5143 </r>
       <r>     3.4652     0.3938     3.5539 </r>
       <r>     3.5659     0.3458     3.5888 </r>
       <r>     3.6667     0.3983     3.6289 </r>
       <r>     3.7674     0.5449     3.6838 </r>
       <r>     3.8682     0.6614     3.7504 </r>
       <r>     3.9689     0.6319     3.8141 </r>
       <r>     4.0696     0.5105     3.8655 </r>
       <r>     4.1704     0.4280     3.9086 </r>
       <r>     4.2711     0.4637     3.9553 </r>
       <r>     4.3719     0.6310     4.0189 </r>
       <r>     4.4726     0.8786     4.1074 </r>
       <r>     4.5733     1.0883     4.2171 </r>
       <r>     4.6741     1.1574     4.3337 </r>
       <r>     4.7748     1.1280     4.4473 </r>
       <r>     4.8756     1.0687     4.5550 </r>
       <r>     4.9763     0.9339     4.6490 </r>
       <r>     5.0771     0.7227     4.7219 </r>
       <r>     5.1778     0.5604     4.7783 </r>
       <r>     5.2785     0.4945     4.8281 </r>
       <r>     5.3793     0.4389     4.8723 </r>
       <r>     5.4800     0.3830     4.9109 </r>
       <r>     5.5808     0.4251     4.9537 </r>
       <r>     5.6815     0.5992     5.0141 </r>
       <r>     5.7822     0.8277     5.0975 </r>
       <r>     5.8830     1.0304     5.2013 </r>
       <r>     5.9837     1.1815     5.3203 </r>
       <r>     6.0845     1.2441     5.4457 </r>
       <r>     6.1852     1.1543     5.5620 </r>
       <r>     6.2860     0.9061     5.6532 </r>
       <r>     6.3867     0.6284     5.7165 </r>
       <r>     6.4874     0.5135     5.7683 </r>
       <r>     6.5882     0.6386     5.8326 </r>
       <r>     6.6889     0.8999     5.9233 </r>
       <r>     6.7897     1.0683     6.0309 </r>
       <r>     6.8904     0.9820     6.1298 </r>
       <r>     6.9911     0.7807     6.2085 </r>
       <r>     7.0919     0.7379     6.2828 </r>
       <r>     7.1926     0.8804     6.3715 </r>
       <r>     7.2934     1.0774     6.4800 </r>
       <r>     7.3941     1.2848     6.6095 </r>
       <r>     7.4949     1.4410     6.7546 </r>
       <r>     7.5956     1.4252     6.8982 </r>
       <r>     7.6963     1.2223     7.0213 </r>
       <r>     7.7971     0.9715     7.1192 </r>
       <r>     7.8978     0.8291     7.2027 </r>
       <r>     7.9986     0.7901     7.2823 </r>
       <r>     8.0993     0.7454     7.3574 </r>
       <r>     8.2000     0.6622     7.4241 </r>
       <r>     8.3008     0.5662     7.4812 </r>
       <r>     8.4015     0.4865     7.5302 </r>
       <r>     8.5023     0.4893     7.5795 </r>
       <r>     8.6030     0.5840     7.6383 </r>
       <r>     8.7038     0.6634     7.7051 </r>
       <r>     8.8045     0.7048     7.7761 </r>
       <r>     8.9052     0.8141     7.8581 </r>
       <r>     9.0060     0.9483     7.9537 </r>
       <r>     9.1067     0.9202     8.0464 </r>
       <r>     9.2075     0.7374     8.1207 </r>
       <r>     9.3082     0.6065     8.1818 </r>
       <r>     9.4089     0.6382     8.2461 </r>
       <r>     9.5097     0.7475     8.3214 </r>
       <r>     9.6104     0.7727     8.3992 </r>
       <r>     9.7112     0.6539     8.4651 </r>
       <r>     9.8119     0.4808     8.5135 </r>
       <r>     9.9127     0.3553     8.5493 </r>
       <r>    10.0134     0.3219     8.5818 </r>
       <r>    10.1141     0.4030     8.6224 </r>
       <r>    10.2149     0.5738     8.6802 </r>
       <r>    10.3156     0.7634     8.7571 </r>
       <r>    10.4164     0.9157     8.8493 </r>
       <r>    10.5171     0.9708     8.9471 </r>
       <r>    10.6178     0.8837     9.0361 </r>
       <r>    10.7186     0.7240     9.1091 </r>
       <r>    10.8193     0.6434     9.1739 </r>
       <r>    10.9201     0.7648     9.2509 </r>
       <r>    11.0208     1.0738     9.3591 </r>
       <r>    11.1216     1.3268     9.4928 </r>
       <r>    11.2223     1.2595     9.6197 </r>
       <r>    11.3230     0.9661     9.7170 </r>
       <r>    11.4238     0.7592     9.7935 </r>
       <r>    11.5245     0.7484     9.8689 </r>
       <r>    11.6253     0.8516     9.9547 </r>
       <r>    11.7260     0.9750    10.0529 </r>
       <r>    11.8267     1.0733    10.1610 </r>
       <r>    11.9275     1.1932    10.2812 </r>
       <r>    12.0282     1.3593    10.4181 </r>
       <r>    12.1290     1.4734    10.5666 </r>
       <r>    12.2297     1.4470    10.7123 </r>
       <r>    12.3305     1.2968    10.8430 </r>
       <r>    12.4312     1.0632    10.9501 </r>
       <r>    12.5319     0.7541    11.0261 </r>
       <r>    12.6327     0.4395    11.0703 </r>
       <r>    12.7334     0.2588    11.0964 </r>
       <r>    12.8342     0.2544    11.1220 </r>
       <r>    12.9349     0.3721    11.1595 </r>
       <r>    13.0356     0.6095    11.2209 </r>
       <r>    13.1364     0.9662    11.3182 </r>
       <r>    13.2371     1.3065    11.4499 </r>
       <r>    13.3379     1.4457    11.5955 </r>
       <r>    13.4386     1.3310    11.7296 </r>
       <r>    13.5394     1.0569    11.8361 </r>
       <r>    13.6401     0.8028    11.9169 </r>
       <r>    13.7408     0.7399    11.9915 </r>
       <r>    13.8416     0.8718    12.0793 </r>
       <r>    13.9423     1.0716    12.1873 </r>
       <r>    14.0431     1.2736    12.3156 </r>
       <r>    14.1438     1.4395    12.4606 </r>
       <r>    14.2445     1.4497    12.6066 </r>
       <r>    14.3453     1.2656    12.7341 </r>
       <r>    14.4460     1.0761    12.8425 </r>
       <r>    14.5468     1.0937    12.9527 </r>
       <r>    14.6475     1.2555    13.0792 </r>
       <r>    14.7483     1.3148    13.2117 </r>
       <r>    14.8490     1.2019    13.3327 </r>
       <r>    14.9497     1.0836    13.4419 </r>
       <r>    15.0505     1.0641    13.5491 </r>
       <r>    15.1512     1.0594    13.6558 </r>
       <r>    15.2520     0.9800    13.7545 </r>
       <r>    15.3527     0.8336    13.8385 </r>
       <r>    15.4534     0.6695    13.9060 </r>
       <r>    15.5542     0.5677    13.9632 </r>
       <r>    15.6549     0.5925    14.0228 </r>
       <r>    15.7557     0.6945    14.0928 </r>
       <r>    15.8564     0.7695    14.1703 </r>
       <r>    15.9572     0.8247    14.2534 </r>
       <r>    16.0579     0.9503    14.3492 </r>
       <r>    16.1586     1.0694    14.4569 </r>
       <r>    16.2594     1.0083    14.5585 </r>
       <r>    16.3601     0.8198    14.6411 </r>
       <r>    16.4609     0.6709    14.7086 </r>
       <r>    16.5616     0.6198    14.7711 </r>
       <r>    16.6623     0.6459    14.8362 </r>
       <r>    16.7631     0.6655    14.9032 </r>
       <r>    16.8638     0.6033    14.9640 </r>
       <r>    16.9646     0.5489    15.0193 </r>
       <r>    17.0653     0.6477    15.0845 </r>
       <r>    17.1661     0.8337    15.1685 </r>
       <r>    17.2668     0.9126    15.2605 </r>
       <r>    17.3675     0.8252    15.3436 </r>
       <r>    17.4683     0.6202    15.4061 </r>
       <r>    17.5690     0.3744    15.4438 </r>
       <r>    17.6698     0.2088    15.4648 </r>
       <r>    17.7705     0.1898    15.4839 </r>
       <r>    17.8712     0.2537    15.5095 </r>
       <r>    17.9720     0.2845    15.5382 </r>
       <r>    18.0727     0.2337    15.5617 </r>
       <r>    18.1735     0.1523    15.5770 </r>
       <r>    18.2742     0.1113    15.5883 </r>
       <r>    18.3749     0.1583    15.6042 </r>
       <r>    18.4757     0.3170    15.6361 </r>
       <r>    18.5764     0.5094    15.6875 </r>
       <r>    18.6772     0.5672    15.7446 </r>
       <r>    18.7779     0.4406    15.7890 </r>
       <r>    18.8787     0.2484    15.8140 </r>
       <r>    18.9794     0.1049    15.8246 </r>
       <r>    19.0801     0.0411    15.8287 </r>
       <r>    19.1809     0.0408    15.8328 </r>
       <r>    19.2816     0.0711    15.8400 </r>
       <r>    19.3824     0.0907    15.8491 </r>
       <r>    19.4831     0.0870    15.8579 </r>
       <r>    19.5838     0.0968    15.8677 </r>
       <r>    19.6846     0.1400    15.8818 </r>
       <r>    19.7853     0.1732    15.8992 </r>
       <r>    19.8861     0.1607    15.9154 </r>
       <r>    19.9868     0.1309    15.9286 </r>
       <r>    20.0876     0.1089    15.9395 </r>
       <r>    20.1883     0.0789    15.9475 </r>
       <r>    20.2890     0.0400    15.9515 </r>
       <r>    20.3898     0.0133    15.9529 </r>
       <r>    20.4905     0.0052    15.9534 </r>
       <r>    20.5913     0.0112    15.9545 </r>
       <r>    20.6920     0.0287    15.9574 </r>
       <r>    20.7927     0.0497    15.9624 </r>
       <r>    20.8935     0.0625    15.9687 </r>
       <r>    20.9942     0.0625    15.9750 </r>
       <r>    21.0950     0.0499    15.9800 </r>
       <r>    21.1957     0.0289    15.9830 </r>
       <r>    21.2965     0.0112    15.9841 </r>
       <r>    21.3972     0.0044    15.9845 </r>
       <r>    21.4979     0.0082    15.9854 </r>
       <r>    21.5987     0.0223    15.9876 </r>
       <r>    21.6994     0.0390    15.9915 </r>
       <r>    21.8002     0.0419    15.9958 </r>
       <r>    21.9009     0.0277    15.9985 </r>
       <r>    22.0016     0.0112    15.9997 </r>
       <r>    22.1024     0.0028    16.0000 </r>
       <r>    22.2031     0.0004    16.0000 </r>
       <r>    22.3039     0.0000    16.0000 </r>
       <r>    22.4046     0.0000    16.0000 </r>
       <r>    22.5054     0.0000    16.0000 </r>
       <r>    22.6061     0.0000    16.0000 </r>
       <r>    22.7068     0.0000    16.0000 </r>
       <r>    22.8076     0.0000    16.0000 </r>
       <r>    22.9083     0.0000    16.0000 </r>
       <r>    23.0091     0.0000    16.0000 </r>
       <r>    23.1098     0.0000    16.0000 </r>
       <r>    23.2105     0.0000    16.0000 </r>
       <r>    23.3113     0.0000    16.0000 </r>
       <r>    23.4120     0.0000    16.0000 </r>
       <r>    23.5128     0.0000    16.0000 </r>
       <r>    23.6135     0.0000    16.0000 </r>
       <r>    23.7143     0.0000    16.0000 </r>
      </set>
     </set>
    </array>
   </total>
  </dos>
 </calculation>
 <structure name="finalpos" >
  <crystal>
   <varray name="basis" >
    <v>      -2.38439170       2.38439170       1.34737858 </v>
    <v>       2.38439170      -2.38439170       1.34737858 </v>
    <v>       2.38439170       2.38439170      -1.34737858 </v>
   </varray>
   <i name="volume">     30.64113391 </i>
   <varray name="rec_basis" >
    <v>       0.00000000       0.20969709       0.37109095 </v>
    <v>       0.20969709       0.00000000       0.37109095 </v>
    <v>       0.20969709       0.20969709      -0.00000000 </v>
   </varray>
  </crystal>
  <varray name="positions" >
   <v>       0.25000000       0.75000000       0.50000000 </v>
   <v>      -0.00000000       0.00000000      -0.00000000 </v>
  </varray>
 </structure>
</modeling>
