unknown system                          
   1.00000000000000     
     0.000000    2.759247    2.759247
     2.759247    0.000000    2.759247
     2.759247    2.759247    0.000000
   Si
     2
Direct
  0.500000  0.500000  0.500000
  0.750000  0.750000  0.750000
 
   36   36   36
 0.83009399693E+00 0.84565546838E+00 0.89342342593E+00 0.97649942325E+00 0.10996280769E+01
 0.12686879147E+01 0.14901452988E+01 0.17704532570E+01 0.21152113416E+01 0.25278133171E+01
 0.30074217549E+01 0.35464513477E+01 0.41282014795E+01 0.47256146022E+01 0.53020968554E+01
 0.58148373655E+01 0.62202869534E+01 0.64807417528E+01 0.65705828278E+01 0.64807335129E+01
 0.62202776064E+01 0.58148429988E+01 0.53021358053E+01 0.47256910597E+01 0.41282955608E+01
 0.35465290607E+01 0.30074577515E+01 0.25278060179E+01 0.21151789146E+01 0.17704180358E+01
 0.14901210181E+01 0.12686770987E+01 0.10996267888E+01 0.97650261268E+00 0.89342742309E+00
 0.84565803397E+00 0.84565546838E+00 0.87279674309E+00 0.92882695614E+00 0.10170424061E+01
 0.11419101592E+01 0.13085849098E+01 0.15223521634E+01 0.17879487989E+01 0.21086231412E+01
 0.24847940828E+01 0.29123186844E+01 0.33806578093E+01 0.38715232506E+01 0.43587282489E+01
 0.48098064938E+01 0.51895020596E+01 0.54646275260E+01 0.56092908371E+01 0.56092915594E+01
 0.54646311842E+01 0.51895156150E+01 0.48098410195E+01 0.43587859361E+01 0.38715865583E+01
 0.33806984959E+01 0.29123198563E+01 0.24847614442E+01 0.21085765992E+01 0.17879077232E+01
 0.15223271831E+01 0.13085767678E+01 0.11419119884E+01 0.10170449274E+01 0.92882503943E+00
 0.87279206030E+00 0.84565304851E+00 0.89342342593E+00 0.92882695614E+00 0.99017241452E+00
 0.10807086690E+01 0.12044711358E+01 0.13658148584E+01 0.15688371984E+01 0.18166382826E+01
 0.21103444560E+01 0.24478781794E+01 0.28226086848E+01 0.32222066961E+01 0.36281630160E+01
 0.40164280265E+01 0.43594332671E+01 0.46293853810E+01 0.48022914180E+01 0.48618534631E+01
 0.48022951280E+01 0.46293954705E+01 0.43594536770E+01 0.40164571477E+01 0.36281875949E+01
 0.32222082560E+01 0.28225793685E+01 0.24478279591E+01 0.21102922425E+01 0.18165992727E+01
 0.15688181708E+01 0.13658149055E+01 0.12044821237E+01 0.10807181082E+01 0.99017147916E+00
 0.92881708620E+00 0.89341419181E+00 0.88186027489E+00 0.97649942325E+00 0.10170424061E+01
 0.10807086690E+01 0.11705795368E+01 0.12902033484E+01 0.14431302618E+01 0.16323158493E+01
 0.18593618715E+01 0.21235875267E+01 0.24210056974E+01 0.27433964972E+01 0.30777675706E+01
 0.34065143668E+01 0.37085196014E+01 0.39612534797E+01 0.41436668430E+01 0.42393687918E+01
 0.42393686915E+01 0.41436681336E+01 0.39612577755E+01 0.37085230512E+01 0.34065074075E+01
 0.30777423505E+01 0.27433549363E+01 0.24209592504E+01 0.21235494171E+01 0.18593406316E+01
 0.16323143446E+01 0.14431461176E+01 0.12902278237E+01 0.11705993345E+01 0.10807136267E+01
 0.10170328700E+01 0.97648558245E+00 0.95681396172E+00 0.95682025888E+00 0.10996280769E+01
 0.11419101592E+01 0.12044711358E+01 0.12902033484E+01 0.14021806172E+01 0.15431882634E+01
 0.17151294677E+01 0.19183091841E+01 0.21506399038E+01 0.24068830929E+01 0.26781144641E+01
 0.29516357546E+01 0.32115236037E+01 0.34399160298E+01 0.36189962448E+01 0.37334331316E+01
 0.37728093534E+01 0.37334302130E+01 0.36189915566E+01 0.34399067631E+01 0.32115037168E+01
 0.29516044452E+01 0.26780805706E+01 0.24068585183E+01 0.21506310906E+01 0.19183165399E+01
 0.17151512959E+01 0.15432208573E+01 0.14022153780E+01 0.12902285136E+01 0.12044789463E+01
 0.11419021467E+01 0.10996134403E+01 0.10752676986E+01 0.10673341150E+01 0.10752783177E+01
 0.12686879147E+01 0.13085849098E+01 0.13658148584E+01 0.14431302618E+01 0.15431882634E+01
 0.16680879086E+01 0.18188243293E+01 0.19946847607E+01 0.21926464240E+01 0.24068830278E+01
 0.26285322130E+01 0.28458848786E+01 0.30451139007E+01 0.32115781891E+01 0.33316164170E+01
 0.33945670265E+01 0.33945656792E+01 0.33316121652E+01 0.32115690242E+01 0.30450968135E+01
 0.28458622963E+01 0.26285148435E+01 0.24068819607E+01 0.21926639862E+01 0.19947156959E+01
 0.18188626283E+01 0.16681280212E+01 0.15432220684E+01 0.14431492147E+01 0.13658164328E+01
 0.13085743689E+01 0.12686736410E+01 0.12436482876E+01 0.12316387291E+01 0.12316429116E+01
 0.12436595097E+01 0.14901452988E+01 0.15223521634E+01 0.15688371984E+01 0.16323158493E+01
 0.17151294677E+01 0.18188243293E+01 0.19437073990E+01 0.20884013028E+01 0.22494430564E+01
 0.24210056813E+01 0.25948592939E+01 0.27606977300E+01 0.29069214942E+01 0.30218873752E+01
 0.30955017767E+01 0.31208601079E+01 0.30955019962E+01 0.30218848824E+01 0.29069135622E+01
 0.27606868723E+01 0.25948544756E+01 0.24210158577E+01 0.22494696036E+01 0.20884381725E+01
 0.19437466824E+01 0.18188583832E+01 0.17151500070E+01 0.16323174158E+01 0.15688230233E+01
 0.15223329056E+01 0.14901303600E+01 0.14695143559E+01 0.14581852686E+01 0.14545925425E+01
 0.14581884192E+01 0.14695224564E+01 0.17704532570E+01 0.17879487989E+01 0.18166382826E+01
 0.18593618715E+01 0.19183091841E+01 0.19946847607E+01 0.20884013028E+01 0.21978005992E+01
 0.23194227828E+01 0.24478783845E+01 0.25759194531E+01 0.26948266926E+01 0.27951967204E+01
 0.28681127970E+01 0.29065273001E+01 0.29065299354E+01 0.28681178179E+01 0.27951992217E+01
 0.26948261558E+01 0.25759206706E+01 0.24478865601E+01 0.23194393965E+01 0.21978234201E+01
 0.20884253738E+01 0.19947018811E+01 0.19183097278E+01 0.18593418151E+01 0.18166050612E+01
 0.17879175939E+01 0.17704356860E+01 0.17610344152E+01 0.17567502212E+01 0.17552509007E+01
 0.17552487428E+01 0.17567468355E+01 0.17610377369E+01 0.21152113416E+01 0.21086231412E+01
 0.21103444560E+01 0.21235875267E+01 0.21506399038E+01 0.21926464240E+01 0.22494430564E+01
 0.23194227828E+01 0.23994401810E+01 0.24847943183E+01 0.25693764290E+01 0.26460956190E+01
 0.27076507172E+01 0.27475896527E+01 0.27614411168E+01 0.27475992206E+01 0.27076635178E+01
 0.26461058396E+01 0.25693821612E+01 0.24847950721E+01 0.23994361334E+01 0.23194168577E+01
 0.22494383161E+01 0.21926391963E+01 0.21506204000E+01 0.21235510297E+01 0.21102995446E+01
 0.21085862849E+01 0.21151941398E+01 0.21262908745E+01 0.21378998500E+01 0.21465002241E+01
 0.21496539141E+01 0.21464901924E+01 0.21378877250E+01 0.21262886471E+01 0.25278133171E+01
 0.24847940828E+01 0.24478781794E+01 0.24210056974E+01 0.24068830929E+01 0.24068830278E+01
 0.24210056813E+01 0.24478783845E+01 0.24847943183E+01 0.25278134131E+01 0.25719936545E+01
 0.26118468485E+01 0.26420558585E+01 0.26583571762E+01 0.26583651189E+01 0.26420753495E+01
 0.26118679320E+01 0.25720055565E+01 0.25278072879E+01 0.24847672277E+01 0.24478376418E+01
 0.24209644688E+01 0.24068476088E+01 0.24068482825E+01 0.24209660658E+01 0.24478393939E+01
 0.24847686986E+01 0.25278082768E+01 0.25720058190E+01 0.26118674617E+01 0.26420745886E+01
 0.26583644696E+01 0.26583565912E+01 0.26420552205E+01 0.26118463585E+01 0.25719934753E+01
 0.30074217549E+01 0.29123186844E+01 0.28226086848E+01 0.27433964972E+01 0.26781144641E+01
 0.26285322130E+01 0.25948592939E+01 0.25759194531E+01 0.25693764290E+01 0.25719936545E+01
 0.25799551892E+01 0.25893108885E+01 0.25965598940E+01 0.25992734547E+01 0.25965780914E+01
 0.25893378243E+01 0.25799734228E+01 0.25719840233E+01 0.25693298881E+01 0.25758462300E+01
 0.25947832251E+01 0.26284724283E+01 0.26780741621E+01 0.27433706021E+01 0.28225967914E+01
 0.29123244098E+01 0.30074433393E+01 0.31013238372E+01 0.31862676254E+01 0.32543263350E+01
 0.32984491754E+01 0.33137373750E+01 0.32984347731E+01 0.32543024421E+01 0.31862390033E+01
 0.31012948547E+01 0.35464513477E+01 0.33806578093E+01 0.32222066961E+01 0.30777675706E+01
 0.29516357546E+01 0.28458848786E+01 0.27606977300E+01 0.26948266926E+01 0.26460956190E+01
 0.26118468485E+01 0.25893108885E+01 0.25759504126E+01 0.25698095471E+01 0.25698193815E+01
 0.25759745013E+01 0.25893313367E+01 0.26118370605E+01 0.26460379985E+01 0.26947309369E+01
 0.27605972071E+01 0.28458119667E+01 0.29516024055E+01 0.30777683060E+01 0.32222326542E+01
 0.33807017289E+01 0.35465027510E+01 0.37106818550E+01 0.38624729479E+01 0.39902414807E+01
 0.40829112275E+01 0.41316902054E+01 0.41316872310E+01 0.40829020513E+01 0.39902236873E+01
 0.38624417501E+01 0.37106363852E+01 0.41282014795E+01 0.38715232506E+01 0.36281630160E+01
 0.34065143668E+01 0.32115236037E+01 0.30451139007E+01 0.29069214942E+01 0.27951967204E+01
 0.27076507172E+01 0.26420558585E+01 0.25965598940E+01 0.25698095471E+01 0.25609892251E+01
 0.25698247067E+01 0.25965764571E+01 0.26420459258E+01 0.27075893813E+01 0.27950897384E+01
 0.29068090499E+01 0.30450402117E+01 0.32115060392E+01 0.34065428035E+01 0.36282190592E+01
 0.38715912780E+01 0.41282670568E+01 0.43863981866E+01 0.46312102934E+01 0.48461493884E+01
 0.50146464490E+01 0.51223462104E+01 0.51594182493E+01 0.51223544780E+01 0.50146552679E+01
 0.48461467194E+01 0.46311856918E+01 0.43863491339E+01 0.47256146022E+01 0.43587282489E+01
 0.40164280265E+01 0.37085196014E+01 0.34399160298E+01 0.32115781891E+01 0.30218873752E+01
 0.28681127970E+01 0.27475896527E+01 0.26583571762E+01 0.25992734547E+01 0.25698193815E+01
 0.25698247067E+01 0.25992814847E+01 0.26583436391E+01 0.27475266588E+01 0.28680006438E+01
 0.30217692024E+01 0.32115085658E+01 0.34399155594E+01 0.37085677619E+01 0.40164935381E+01
 0.43587921329E+01 0.47256673037E+01 0.51021520069E+01 0.54686775109E+01 0.58025155026E+01
 0.60800006135E+01 0.62793366522E+01 0.63836408519E+01 0.63836515268E+01 0.62793628545E+01
 0.60800286182E+01 0.58025307883E+01 0.54686698291E+01 0.51021189666E+01 0.53020968554E+01
 0.48098064938E+01 0.43594332671E+01 0.39612534797E+01 0.36189962448E+01 0.33316164170E+01
 0.30955017767E+01 0.29065273001E+01 0.27614411168E+01 0.26583651189E+01 0.25965780914E+01
 0.25759745013E+01 0.25965764571E+01 0.26583436391E+01 0.27613741581E+01 0.29064117253E+01
 0.30953793523E+01 0.33315483077E+01 0.36190072365E+01 0.39613127407E+01 0.43594929960E+01
 0.48098440244E+01 0.53021144616E+01 0.58186441737E+01 0.63347980158E+01 0.68207104180E+01
 0.72440890599E+01 0.75737247558E+01 0.77833433614E+01 0.78553008184E+01 0.77833632753E+01
 0.75737576937E+01 0.72441249932E+01 0.68207391756E+01 0.63348120549E+01 0.58186419913E+01
 0.58148373655E+01 0.51895020596E+01 0.46293853810E+01 0.41436668430E+01 0.37334331316E+01
 0.33945670265E+01 0.31208601079E+01 0.29065299354E+01 0.27475992206E+01 0.26420753495E+01
 0.25893378243E+01 0.25893313367E+01 0.26420459258E+01 0.27475266588E+01 0.29064117253E+01
 0.31207356503E+01 0.33944990551E+01 0.37334501037E+01 0.41437324584E+01 0.46294372415E+01
 0.51895105556E+01 0.58148153851E+01 0.64862804068E+01 0.71748380202E+01 0.78432878976E+01
 0.84496716491E+01 0.89515585995E+01 0.93107915711E+01 0.94983027860E+01 0.94983024608E+01
 0.93107940345E+01 0.89515710067E+01 0.84496970419E+01 0.78433208548E+01 0.71748715438E+01
 0.64863119083E+01 0.62202869534E+01 0.54646275260E+01 0.48022914180E+01 0.42393687918E+01
 0.37728093534E+01 0.33945656792E+01 0.30955019962E+01 0.28681178179E+01 0.27076635178E+01
 0.26118679320E+01 0.25799734228E+01 0.26118370605E+01 0.27075893813E+01 0.28680006438E+01
 0.30953793523E+01 0.33944990551E+01 0.37728295805E+01 0.42394389429E+01 0.48023403150E+01
 0.54646177133E+01 0.62202364496E+01 0.70508353233E+01 0.79246961962E+01 0.87983344056E+01
 0.96202001375E+01 0.10335580140E+02 0.10892131370E+02 0.11245887966E+02 0.11367276444E+02
 0.11245842956E+02 0.10892070736E+02 0.10335540338E+02 0.96201979587E+01 0.87983621477E+01
 0.79247415766E+01 0.70508917187E+01 0.64807417528E+01 0.56092908371E+01 0.48618534631E+01
 0.42393686915E+01 0.37334302130E+01 0.33316121652E+01 0.30218848824E+01 0.27951992217E+01
 0.26461058396E+01 0.25720055565E+01 0.25719840233E+01 0.26460379985E+01 0.27950897384E+01
 0.30217692024E+01 0.33315483077E+01 0.37334501037E+01 0.42394389429E+01 0.48619016272E+01
 0.56092743221E+01 0.64806786775E+01 0.74611445160E+01 0.85191604208E+01 0.96074838329E+01
 0.10666729699E+02 0.11630443710E+02 0.12430893293E+02 0.13005872478E+02 0.13306786496E+02
 0.13306730054E+02 0.13005732288E+02 0.12430738317E+02 0.11630337851E+02 0.10666693720E+02
 0.96074999766E+01 0.85192077418E+01 0.74612117486E+01 0.65705828278E+01 0.56092915594E+01
 0.48022951280E+01 0.41436681336E+01 0.36189915566E+01 0.32115690242E+01 0.29069135622E+01
 0.26948261558E+01 0.25693821612E+01 0.25278072879E+01 0.25693298881E+01 0.26947309369E+01
 0.29068090499E+01 0.32115085658E+01 0.36190072365E+01 0.41437324584E+01 0.48023403150E+01
 0.56092743221E+01 0.65705198770E+01 0.76772584568E+01 0.89016849173E+01 0.10196556676E+02
 0.11498199295E+02 0.12731215060E+02 0.13813645697E+02 0.14663389372E+02 0.15207633989E+02
 0.15395083897E+02 0.15207484910E+02 0.14663152544E+02 0.13813414545E+02 0.12731061925E+02
 0.11498137468E+02 0.10196557517E+02 0.89017231439E+01 0.76773223562E+01 0.64807335129E+01
 0.54646311842E+01 0.46293954705E+01 0.39612577755E+01 0.34399067631E+01 0.30450968135E+01
 0.27606868723E+01 0.25759206706E+01 0.24847950721E+01 0.24847672277E+01 0.25758462300E+01
 0.27605972071E+01 0.30450402117E+01 0.34399155594E+01 0.39613127407E+01 0.46294372415E+01
 0.54646177133E+01 0.64806786775E+01 0.76772584568E+01 0.90337514750E+01 0.10507209681E+02
 0.12034405086E+02 0.13535869734E+02 0.14919693444E+02 0.16084930835E+02 0.16927793118E+02
 0.17369518841E+02 0.17369442706E+02 0.16927586670E+02 0.16084659499E+02 0.14919445420E+02
 0.13535706483E+02 0.12034329374E+02 0.10507191186E+02 0.90337715501E+01 0.76773097943E+01
 0.62202776064E+01 0.51895156150E+01 0.43594536770E+01 0.37085230512E+01 0.32115037168E+01
 0.28458622963E+01 0.25948544756E+01 0.24478865601E+01 0.23994361334E+01 0.24478376418E+01
 0.25947832251E+01 0.28458119667E+01 0.32115060392E+01 0.37085677619E+01 0.43594929960E+01
 0.51895105556E+01 0.62202364496E+01 0.74611445160E+01 0.89016849173E+01 0.10507209681E+02
 0.12219785321E+02 0.13961617612E+02 0.15637482801E+02 0.17128797466E+02 0.18302318382E+02
 0.19051868960E+02 0.19309537192E+02 0.19051769225E+02 0.18302129574E+02 0.17128562235E+02
 0.15637267649E+02 0.13961467972E+02 0.12219701443E+02 0.10507172018E+02 0.89016866446E+01
 0.74611807164E+01 0.58148429988E+01 0.48098410195E+01 0.40164571477E+01 0.34065074075E+01
 0.29516044452E+01 0.26285148435E+01 0.24210158577E+01 0.23194393965E+01 0.23194168577E+01
 0.24209644688E+01 0.26284724283E+01 0.29516024055E+01 0.34065428035E+01 0.40164935381E+01
 0.48098440244E+01 0.58148153851E+01 0.70508353233E+01 0.85191604208E+01 0.10196556676E+02
 0.12034405086E+02 0.13961617612E+02 0.15886483549E+02 0.17681557575E+02 0.19190797430E+02
 0.20280680435E+02 0.20852464578E+02 0.20852449150E+02 0.20280617800E+02 0.19190667001E+02
 0.17681378370E+02 0.15886307336E+02 0.13961483337E+02 0.12034318285E+02 0.10196509477E+02
 0.85191523135E+01 0.70508597580E+01 0.53021358053E+01 0.43587859361E+01 0.36281875949E+01
 0.30777423505E+01 0.26780805706E+01 0.24068819607E+01 0.22494696036E+01 0.21978234201E+01
 0.22494383161E+01 0.24068476088E+01 0.26780741621E+01 0.30777683060E+01 0.36282190592E+01
 0.43587921329E+01 0.53021144616E+01 0.64862804068E+01 0.79246961962E+01 0.96074838329E+01
 0.11498199295E+02 0.13535869734E+02 0.15637482801E+02 0.17681557575E+02 0.19498258936E+02
 0.20930307243E+02 0.21848836387E+02 0.22165652279E+02 0.21848857610E+02 0.20930295228E+02
 0.19498170418E+02 0.17681409817E+02 0.15637329960E+02 0.13535749710E+02 0.11498118888E+02
 0.96074394608E+01 0.79246892052E+01 0.64863018118E+01 0.47256910597E+01 0.38715865583E+01
 0.32222082560E+01 0.27433549363E+01 0.24068585183E+01 0.21926639862E+01 0.20884381725E+01
 0.20884253738E+01 0.21926391963E+01 0.24068482825E+01 0.27433706021E+01 0.32222326542E+01
 0.38715912780E+01 0.47256673037E+01 0.58186441737E+01 0.71748380202E+01 0.87983344056E+01
 0.10666729699E+02 0.12731215060E+02 0.14919693444E+02 0.17128797466E+02 0.19190797430E+02
 0.20930307243E+02 0.22193745954E+02 0.22860010031E+02 0.22860048929E+02 0.22193815802E+02
 0.20930320583E+02 0.19190717129E+02 0.17128662138E+02 0.14919560926E+02 0.12731112997E+02
 0.10666660036E+02 0.87982994739E+01 0.71748424360E+01 0.58186740264E+01 0.41282955608E+01
 0.33806984959E+01 0.28225793685E+01 0.24209592504E+01 0.21506310906E+01 0.19947156959E+01
 0.19437466824E+01 0.19947018811E+01 0.21506204000E+01 0.24209660658E+01 0.28225967914E+01
 0.33807017289E+01 0.41282670568E+01 0.51021520069E+01 0.63347980158E+01 0.78432878976E+01
 0.96202001375E+01 0.11630443710E+02 0.13813645697E+02 0.16084930835E+02 0.18302318382E+02
 0.20280680435E+02 0.21848836387E+02 0.22860010031E+02 0.23209919588E+02 0.22860103707E+02
 0.21848930411E+02 0.20280689329E+02 0.18302239938E+02 0.16084818958E+02 0.13813540468E+02
 0.11630356292E+02 0.96201390787E+01 0.78432707422E+01 0.63348272014E+01 0.51021993139E+01
 0.35465290607E+01 0.29123198563E+01 0.24478279591E+01 0.21235494171E+01 0.19183165399E+01
 0.18188626283E+01 0.18188583832E+01 0.19183097278E+01 0.21235510297E+01 0.24478393939E+01
 0.29123244098E+01 0.35465027510E+01 0.43863981866E+01 0.54686775109E+01 0.68207104180E+01
 0.84496716491E+01 0.10335580140E+02 0.12430893293E+02 0.14663389372E+02 0.16927793118E+02
 0.19051868960E+02 0.20852464578E+02 0.22165652279E+02 0.22860048929E+02 0.22860103707E+02
 0.22165766845E+02 0.20852546051E+02 0.19051873676E+02 0.16927743390E+02 0.14663316630E+02
 0.12430809394E+02 0.10335500881E+02 0.84496308201E+01 0.68207319707E+01 0.54687424354E+01
 0.43864596796E+01 0.30074577515E+01 0.24847614442E+01 0.21102922425E+01 0.18593406316E+01
 0.17151512959E+01 0.16681280212E+01 0.17151500070E+01 0.18593418151E+01 0.21102995446E+01
 0.24847686986E+01 0.30074433393E+01 0.37106818550E+01 0.46312102934E+01 0.58025155026E+01
 0.72440890599E+01 0.89515585995E+01 0.10892131370E+02 0.13005872478E+02 0.15207633989E+02
 0.17369518841E+02 0.19309537192E+02 0.20852449150E+02 0.21848857610E+02 0.22193815802E+02
 0.21848930411E+02 0.20852546051E+02 0.19309611298E+02 0.17369555919E+02 0.15207632293E+02
 0.13005826747E+02 0.10892056574E+02 0.89515025632E+01 0.72441000320E+01 0.58025920760E+01
 0.46313019774E+01 0.37107396254E+01 0.25278060179E+01 0.21085765992E+01 0.18165992727E+01
 0.16323143446E+01 0.15432208573E+01 0.15432220684E+01 0.16323174158E+01 0.18166050612E+01
 0.21085862849E+01 0.25278082768E+01 0.31013238372E+01 0.38624729479E+01 0.48461493884E+01
 0.60800006135E+01 0.75737247558E+01 0.93107915711E+01 0.11245887966E+02 0.13306786496E+02
 0.15395083897E+02 0.17369442706E+02 0.19051769225E+02 0.20280617800E+02 0.20930295228E+02
 0.20930320583E+02 0.20280689329E+02 0.19051873676E+02 0.17369555919E+02 0.15395167566E+02
 0.13306803833E+02 0.11245841466E+02 0.93107352712E+01 0.75737265731E+01 0.60800811230E+01
 0.48462638883E+01 0.38625592126E+01 0.31013565961E+01 0.21151789146E+01 0.17879077232E+01
 0.15688181708E+01 0.14431461176E+01 0.14022153780E+01 0.14431492147E+01 0.15688230233E+01
 0.17879175939E+01 0.21151941398E+01 0.25720058190E+01 0.31862676254E+01 0.39902414807E+01
 0.50146464490E+01 0.62793366522E+01 0.77833433614E+01 0.94983027860E+01 0.11367276444E+02
 0.13306730054E+02 0.15207484910E+02 0.16927586670E+02 0.18302129574E+02 0.19190667001E+02
 0.19498170418E+02 0.19190717129E+02 0.18302239938E+02 0.16927743390E+02 0.15207632293E+02
 0.13306803833E+02 0.11367262317E+02 0.94982537031E+01 0.77833375623E+01 0.62794116854E+01
 0.50147696933E+01 0.39903465776E+01 0.31863144008E+01 0.25720047883E+01 0.17704180358E+01
 0.15223271831E+01 0.13658149055E+01 0.12902278237E+01 0.12902285136E+01 0.13658164328E+01
 0.15223329056E+01 0.17704356860E+01 0.21262908745E+01 0.26118674617E+01 0.32543263350E+01
 0.40829112275E+01 0.51223462104E+01 0.63836408519E+01 0.78553008184E+01 0.94983024608E+01
 0.11245842956E+02 0.13005732288E+02 0.14663152544E+02 0.16084659499E+02 0.17128562235E+02
 0.17681378370E+02 0.17681409817E+02 0.17128662138E+02 0.16084818958E+02 0.14663316630E+02
 0.13005826747E+02 0.11245841466E+02 0.94982537031E+01 0.78552858890E+01 0.63837046511E+01
 0.51224654896E+01 0.40830227915E+01 0.32543814977E+01 0.26118656137E+01 0.21262662197E+01
 0.14901210181E+01 0.13085767678E+01 0.12044821237E+01 0.11705993345E+01 0.12044789463E+01
 0.13085743689E+01 0.14901303600E+01 0.17610344152E+01 0.21378998500E+01 0.26420745886E+01
 0.32984491754E+01 0.41316902054E+01 0.51594182493E+01 0.63836515268E+01 0.77833632753E+01
 0.93107940345E+01 0.10892070736E+02 0.12430738317E+02 0.13813414545E+02 0.14919445420E+02
 0.15637267649E+02 0.15886307336E+02 0.15637329960E+02 0.14919560926E+02 0.13813540468E+02
 0.12430809394E+02 0.10892056574E+02 0.93107352712E+01 0.77833375623E+01 0.63837046511E+01
 0.51595309146E+01 0.41318029221E+01 0.32985105429E+01 0.26420744090E+01 0.21378670959E+01
 0.17610058391E+01 0.12686770987E+01 0.11419119884E+01 0.10807181082E+01 0.10807136267E+01
 0.11419021467E+01 0.12686736410E+01 0.14695143559E+01 0.17567502212E+01 0.21465002241E+01
 0.26583644696E+01 0.33137373750E+01 0.41316872310E+01 0.51223544780E+01 0.62793628545E+01
 0.75737576937E+01 0.89515710067E+01 0.10335540338E+02 0.11630337851E+02 0.12731061925E+02
 0.13535706483E+02 0.13961467972E+02 0.13961483337E+02 0.13535749710E+02 0.12731112997E+02
 0.11630356292E+02 0.10335500881E+02 0.89515025632E+01 0.75737265731E+01 0.62794116854E+01
 0.51224654896E+01 0.41318029221E+01 0.33138061893E+01 0.26583708332E+01 0.21464658206E+01
 0.17567121119E+01 0.14694971724E+01 0.10996267888E+01 0.10170449274E+01 0.99017147916E+00
 0.10170328700E+01 0.10996134403E+01 0.12436482876E+01 0.14581852686E+01 0.17552509007E+01
 0.21496539141E+01 0.26583565912E+01 0.32984347731E+01 0.40829020513E+01 0.50146552679E+01
 0.60800286182E+01 0.72441249932E+01 0.84496970419E+01 0.96201979587E+01 0.10666693720E+02
 0.11498137468E+02 0.12034329374E+02 0.12219701443E+02 0.12034318285E+02 0.11498118888E+02
 0.10666660036E+02 0.96201390787E+01 0.84496308201E+01 0.72441000320E+01 0.60800811230E+01
 0.50147696933E+01 0.40830227915E+01 0.32985105429E+01 0.26583708332E+01 0.21496237990E+01
 0.17552088972E+01 0.14581589566E+01 0.12436466182E+01 0.97650261268E+00 0.92882503943E+00
 0.92881708620E+00 0.97648558245E+00 0.10752676986E+01 0.12316387291E+01 0.14545925425E+01
 0.17552487428E+01 0.21464901924E+01 0.26420552205E+01 0.32543024421E+01 0.39902236873E+01
 0.48461467194E+01 0.58025307883E+01 0.68207391756E+01 0.78433208548E+01 0.87983621477E+01
 0.96074999766E+01 0.10196557517E+02 0.10507191186E+02 0.10507172018E+02 0.10196509477E+02
 0.96074394608E+01 0.87982994739E+01 0.78432707422E+01 0.68207319707E+01 0.58025920760E+01
 0.48462638883E+01 0.39903465776E+01 0.32543814977E+01 0.26420744090E+01 0.21464658206E+01
 0.17552088972E+01 0.14545613533E+01 0.12316290794E+01 0.10752781062E+01 0.89342742309E+00
 0.87279206030E+00 0.89341419181E+00 0.95681396172E+00 0.10673341150E+01 0.12316429116E+01
 0.14581884192E+01 0.17567468355E+01 0.21378877250E+01 0.26118463585E+01 0.31862390033E+01
 0.38624417501E+01 0.46311856918E+01 0.54686698291E+01 0.63348120549E+01 0.71748715438E+01
 0.79247415766E+01 0.85192077418E+01 0.89017231439E+01 0.90337715501E+01 0.89016866446E+01
 0.85191523135E+01 0.79246892052E+01 0.71748424360E+01 0.63348272014E+01 0.54687424354E+01
 0.46313019774E+01 0.38625592126E+01 0.31863144008E+01 0.26118656137E+01 0.21378670959E+01
 0.17567121119E+01 0.14581589566E+01 0.12316290794E+01 0.10673382946E+01 0.95682937582E+00
 0.84565803397E+00 0.84565304851E+00 0.88186027489E+00 0.95682025888E+00 0.10752783177E+01
 0.12436595097E+01 0.14695224564E+01 0.17610377369E+01 0.21262886471E+01 0.25719934753E+01
 0.31012948547E+01 0.37106363852E+01 0.43863491339E+01 0.51021189666E+01 0.58186419913E+01
 0.64863119083E+01 0.70508917187E+01 0.74612117486E+01 0.76773223562E+01 0.76773097943E+01
 0.74611807164E+01 0.70508597580E+01 0.64863018118E+01 0.58186740264E+01 0.51021993139E+01
 0.43864596796E+01 0.37107396254E+01 0.31013565961E+01 0.25720047883E+01 0.21262662197E+01
 0.17610058391E+01 0.14694971724E+01 0.12436466182E+01 0.10752781062E+01 0.95682937582E+00
 0.88187148323E+00 0.84565567419E+00 0.87279683037E+00 0.92882708397E+00 0.10170425672E+01
 0.11419102250E+01 0.13085848826E+01 0.15223521686E+01 0.17879488527E+01 0.21086231581E+01
 0.24847940916E+01 0.29123187937E+01 0.33806579620E+01 0.38715232321E+01 0.43587279317E+01
 0.48098058760E+01 0.51895011312E+01 0.54646263740E+01 0.56092898673E+01 0.56092913161E+01
 0.54646318494E+01 0.51895168192E+01 0.48098421074E+01 0.43587862644E+01 0.38715856874E+01
 0.33806964654E+01 0.29123173426E+01 0.24847593995E+01 0.21085756320E+01 0.17879079002E+01
 0.15223282859E+01 0.13085784628E+01 0.11419138062E+01 0.10170464205E+01 0.92882606357E+00
 0.87279273881E+00 0.84565348133E+00 0.87279683037E+00 0.90767137795E+00 0.96802203971E+00
 0.10569678306E+01 0.11784297228E+01 0.13367001715E+01 0.15358795519E+01 0.17791241097E+01
 0.20676418497E+01 0.23994399598E+01 0.27679757933E+01 0.31610405396E+01 0.35603252890E+01
 0.39421017014E+01 0.42792477907E+01 0.45444903154E+01 0.47143309846E+01 0.47728277651E+01
 0.47143339194E+01 0.45444994058E+01 0.42792681676E+01 0.39421337959E+01 0.35603581169E+01
 0.31610561711E+01 0.27679634843E+01 0.23994044504E+01 0.20675981035E+01 0.17790870328E+01
 0.15358582293E+01 0.13366960222E+01 0.11784359836E+01 0.10569731383E+01 0.96801871090E+00
 0.90766109936E+00 0.87278805792E+00 0.86139773840E+00 0.92882708397E+00 0.96802203971E+00
 0.10293817776E+01 0.11157654467E+01 0.12305730521E+01 0.13773266054E+01 0.15590701683E+01
 0.17775631182E+01 0.20322926988E+01 0.23194226495E+01 0.26308946683E+01 0.29539640121E+01
 0.32714461643E+01 0.35628639352E+01 0.38065132307E+01 0.39822272198E+01 0.40743637386E+01
 0.40743626799E+01 0.39822263917E+01 0.38065167925E+01 0.35628720698E+01 0.32714523243E+01
 0.29539590367E+01 0.26308741827E+01 0.23193904784E+01 0.20322579543E+01 0.17775353054E+01
 0.15590560596E+01 0.13773278980E+01 0.12305842582E+01 0.11157756559E+01 0.10293818456E+01
 0.96801145880E+00 0.92881394058E+00 0.90974950862E+00 0.90975532169E+00 0.10170425672E+01
 0.10569678306E+01 0.11157654467E+01 0.11960912941E+01 0.13009283710E+01 0.14331409100E+01
 0.15948371885E+01 0.17865677386E+01 0.20064580057E+01 0.22494430415E+01 0.25068079368E+01
 0.27662221848E+01 0.30123932257E+01 0.32283740296E+01 0.33974462875E+01 0.35053493587E+01
 0.35424505087E+01 0.35053442082E+01 0.33974397377E+01 0.32283675103E+01 0.30123834424E+01
 0.27662060021E+01 0.25067868743E+01 0.22494216321E+01 0.20064403187E+01 0.17865572551E+01
 0.15948375076E+01 0.14331529885E+01 0.13009470284E+01 0.11961068799E+01 0.11157703106E+01
 0.10569613742E+01 0.10170308872E+01 0.99393235203E+00 0.98638192459E+00 0.99394097926E+00
 0.11419102250E+01 0.11784297228E+01 0.12305730521E+01 0.13009283710E+01 0.13921840745E+01
 0.15066448617E+01 0.16455989565E+01 0.18086082783E+01 0.19928474779E+01 0.21926464013E+01
 0.23993825223E+01 0.26018226369E+01 0.27869460038E+01 0.29412171390E+01 0.30522029353E+01
 0.31103130471E+01 0.31103104887E+01 0.30521966197E+01 0.29412084191E+01 0.27869336899E+01
 0.26018067323E+01 0.23993679337E+01 0.21926393456E+01 0.19928498184E+01 0.18086183732E+01
 0.16456158486E+01 0.15066674945E+01 0.13922074765E+01 0.13009449161E+01 0.12305783649E+01
 0.11784255295E+01 0.11419017808E+01 0.11188445704E+01 0.11077158739E+01 0.11077188055E+01
 0.11188520578E+01 0.13085848826E+01 0.13367001715E+01 0.13773266054E+01 0.14331409100E+01
 0.15066448617E+01 0.15996750732E+01 0.17128469865E+01 0.18450142023E+01 0.19928474565E+01
 0.21506398149E+01 0.23104249311E+01 0.24624553354E+01 0.25960417400E+01 0.27007076103E+01
 0.27675424419E+01 0.27905303006E+01 0.27675420211E+01 0.27007050759E+01 0.25960351072E+01
 0.24624457161E+01 0.23104181965E+01 0.21506426499E+01 0.19928617293E+01 0.18450367313E+01
 0.17128734155E+01 0.15997009984E+01 0.15066645000E+01 0.14331492405E+01 0.13773240398E+01
 0.13366924701E+01 0.13085776736E+01 0.12905101144E+01 0.12805183688E+01 0.12773344102E+01
 0.12805207347E+01 0.12905148672E+01 0.15223521686E+01 0.15358795519E+01 0.15590701683E+01
 0.15948371885E+01 0.16455989565E+01 0.17128469865E+01 0.17967348251E+01 0.18957399633E+01
 0.20064579703E+01 0.21235874862E+01 0.22401579958E+01 0.23480362559E+01 0.24387163435E+01
 0.25043422733E+01 0.25388255403E+01 0.25388279873E+01 0.25043467021E+01 0.24387175648E+01
 0.23480331997E+01 0.22401552608E+01 0.21235909396E+01 0.20064700966E+01 0.18957593072E+01
 0.17967573932E+01 0.17128664971E+01 0.16456079366E+01 0.15948316345E+01 0.15590540829E+01
 0.15358628119E+01 0.15223426102E+01 0.15154962109E+01 0.15126402060E+01 0.15117544211E+01
 0.15117533611E+01 0.15126384823E+01 0.15154979699E+01 0.17879488527E+01 0.17791241097E+01
 0.17775631182E+01 0.17865677386E+01 0.18086082783E+01 0.18450142023E+01 0.18957399633E+01
 0.19592143073E+01 0.20322926932E+01 0.21103445203E+01 0.21875206815E+01 0.22572472634E+01
 0.23129548245E+01 0.23489750290E+01 0.23614429955E+01 0.23489816740E+01 0.23129621673E+01
 0.22572502233E+01 0.21875192302E+01 0.21103415493E+01 0.20322911547E+01 0.19592167871E+01
 0.18957469973E+01 0.18450209831E+01 0.18086060616E+01 0.17865515498E+01 0.17775375594E+01
 0.17791002451E+01 0.17879358040E+01 0.18002903003E+01 0.18124302948E+01 0.18211617038E+01
 0.18243243074E+01 0.18211554253E+01 0.18124234395E+01 0.18002908115E+01 0.21086231581E+01
 0.20676418497E+01 0.20322926988E+01 0.20064580057E+01 0.19928474779E+01 0.19928474565E+01
 0.20064579703E+01 0.20322926932E+01 0.20676418781E+01 0.21086231936E+01 0.21504707517E+01
 0.21880134813E+01 0.22163436751E+01 0.22315857027E+01 0.22315904172E+01 0.22163540698E+01
 0.21880217368E+01 0.21504705711E+01 0.21086121980E+01 0.20676222669E+01 0.20322716092E+01
 0.20064433724E+01 0.19928401441E+01 0.19928394820E+01 0.20064417143E+01 0.20322697800E+01
 0.20676211645E+01 0.21086123264E+01 0.21504718438E+01 0.21880236580E+01 0.22163560688E+01
 0.22315920669E+01 0.22315867913E+01 0.22163442163E+01 0.21880136538E+01 0.21504707594E+01
 0.24847940916E+01 0.23994399598E+01 0.23194226495E+01 0.22494430415E+01 0.21926464013E+01
 0.21506398149E+01 0.21235874862E+01 0.21103445203E+01 0.21086231936E+01 0.21152113059E+01