    2    2   15    1
  0.2100737E+02  0.3902165E-09  0.3902165E-09  0.3902165E-09  0.5000000E-15
  1.000000000000000E-004
  CAR 
 unknown system                          
      8     60      8
 
  0.6250000E-01  0.6250000E-01  0.6250000E-01  0.3906250E-02
    1       -6.236239   1.000000
    2        4.813677   1.000000
    3        5.268895   0.998737
    4        5.268895   0.998737
    5        7.888922   0.000000
    6        8.012936   0.000000
    7        8.012936   0.000000
    8        8.632931   0.000000
 
  0.1875000E+00  0.6250000E-01  0.6250000E-01  0.1171875E-01
    1       -5.976192   1.000000
    2        3.323397   1.000000
    3        4.490417   1.000000
    4        5.152139   0.999940
    5        7.908400   0.000000
    6        8.252261   0.000000
    7        8.518739   0.000000
    8       10.151288   0.000000
 
  0.3125000E+00  0.6250000E-01  0.6250000E-01  0.1171875E-01
    1       -5.349499   1.000000
    2        1.155955   1.000000
    3        4.011133   1.000000
    4        4.703156   1.000000
    5        7.455748   0.000000
    6        8.743474   0.000000
    7        9.020199   0.000000
    8       11.754226   0.000000
 
  0.4375000E+00  0.6250000E-01  0.6250000E-01  0.1171875E-01
    1       -4.479545   1.000000
    2       -0.673038   1.000000
    3        3.796286   1.000000
    4        4.308005   1.000000
    5        7.142720   0.000000
    6        8.824345   0.000000
    7        8.837959   0.000000
    8       13.048736   0.000000
 
 -0.4375000E+00  0.6250000E-01  0.6250000E-01  0.1171875E-01
    1       -4.052067   1.000000
    2       -1.346243   1.000000
    3        3.841435   1.000000
    4        4.097426   1.000000
    5        7.064244   0.000000
    6        8.640503   0.000000
    7        8.903110   0.000000
    8       13.146963   0.000000
 
 -0.3125000E+00  0.6250000E-01  0.6250000E-01  0.1171875E-01
    1       -4.776572   1.000000
    2       -0.133538   1.000000
    3        4.119328   1.000000
    4        4.120159   1.000000
    5        7.232260   0.000000
    6        8.635945   0.000000
    7        9.144079   0.000000
    8       12.186458   0.000000
 
 -0.1875000E+00  0.6250000E-01  0.6250000E-01  0.1171875E-01
    1       -5.594997   1.000000
    2        1.866065   1.000000
    3        4.390792   1.000000
    4        4.572005   1.000000
    5        7.596226   0.000000
    6        8.467497   0.000000
    7        9.177202   0.000000
    8       10.982294   0.000000
 
 -0.6250000E-01  0.6250000E-01  0.6250000E-01  0.1171875E-01
    1       -6.105510   1.000000
    2        4.061909   1.000000
    3        4.858996   1.000000
    4        5.004466   0.999999
    5        7.731332   0.000000
    6        8.231838   0.000000
    7        8.572484   0.000000
    8        9.402988   0.000000
 
  0.1875000E+00  0.1875000E+00  0.6250000E-01  0.1171875E-01
    1       -5.845281   1.000000
    2        3.167513   1.000000
    3        4.320082   1.000000
    4        4.391342   1.000000
    5        7.325344   0.000000
    6        8.957378   0.000000
    7        9.405879   0.000000
    8        9.869952   0.000000
 
  0.3125000E+00  0.1875000E+00  0.6250000E-01  0.2343750E-01
    1       -5.336814   1.000000
    2        1.698888   1.000000
    3        3.378507   1.000000
    4        4.141565   1.000000
    5        7.488141   0.000000
    6        9.061714   0.000000
    7        9.796566   0.000000
    8       10.185150   0.000000
 
  0.4375000E+00  0.1875000E+00  0.6250000E-01  0.2343750E-01
    1       -4.520114   1.000000
    2       -0.097422   1.000000
    3        2.885412   1.000000
    4        3.747839   1.000000
    5        7.666849   0.000000
    6        9.045013   0.000000
    7       10.212852   0.000000
    8       10.514950   0.000000
 
 -0.4375000E+00  0.1875000E+00  0.6250000E-01  0.2343750E-01
    1       -3.790856   1.000000
    2       -1.259991   1.000000
    3        2.601072   1.000000
    4        3.658993   1.000000
    5        7.719758   0.000000
    6        8.777119   0.000000
    7       10.076006   0.000000
    8       12.468082   0.000000
 
 -0.3125000E+00  0.1875000E+00  0.6250000E-01  0.2343750E-01
    1       -4.228236   1.000000
    2       -0.597940   1.000000
    3        2.535418   1.000000
    4        3.932561   1.000000
    5        7.970522   0.000000
    6        8.710561   0.000000
    7       10.016701   0.000000
    8       11.742082   0.000000
 
 -0.1875000E+00  0.1875000E+00  0.6250000E-01  0.2343750E-01
    1       -5.096983   1.000000
    2        1.069813   1.000000
    3        2.840712   1.000000
    4        4.421598   1.000000
    5        8.283614   0.000000
    6        8.604700   0.000000
    7        9.889825   0.000000
    8       10.383863   0.000000
 
 -0.6250000E-01  0.1875000E+00  0.6250000E-01  0.2343750E-01
    1       -5.718954   1.000000
    2        2.516914   1.000000
    3        3.931543   1.000000
    4        4.781605   1.000000
    5        7.862408   0.000000
    6        8.452791   0.000000
    7        9.224586   0.000000
    8       10.406632   0.000000
 
  0.3125000E+00  0.3125000E+00  0.6250000E-01  0.1171875E-01
    1       -4.948017   1.000000
    2        1.186791   1.000000
    3        3.241868   1.000000
    4        3.359740   1.000000
    5        6.540802   0.000000
    6        8.176925   0.000000
    7       11.206696   0.000000
    8       11.360572   0.000000
 
  0.4375000E+00  0.3125000E+00  0.6250000E-01  0.2343750E-01
    1       -4.219971   1.000000
    2       -0.017474   1.000000
    3        2.482622   1.000000
    4        3.025379   1.000000
    5        6.849473   0.000000
    6        8.019004   0.000000
    7       11.172108   0.000000
    8       12.326168   0.000000
 
 -0.4375000E+00  0.3125000E+00  0.6250000E-01  0.2343750E-01
    1       -3.355637   1.000000
    2       -1.171961   1.000000
    3        1.670245   1.000000
    4        2.994420   1.000000
    5        7.083113   0.000000
    6        9.638076   0.000000
    7       10.756890   0.000000
    8       12.239069   0.000000
 
 -0.3125000E+00  0.3125000E+00  0.6250000E-01  0.2343750E-01
    1       -3.426425   1.000000
    2       -1.079652   1.000000
    3        1.332526   1.000000
    4        3.326337   1.000000
    5        7.468909   0.000000
    6       10.335304   0.000000
    7       11.585329   0.000000
    8       11.935755   0.000000
 
 -0.1875000E+00  0.3125000E+00  0.6250000E-01  0.2343750E-01
    1       -4.290190   1.000000
    2       -0.146510   1.000000
    3        1.911359   1.000000
    4        3.890513   1.000000
    5        8.061152   0.000000
    6        9.255539   0.000000
    7       10.631980   0.000000
    8       10.935829   0.000000
 
 -0.6250000E-01  0.3125000E+00  0.6250000E-01  0.2343750E-01
    1       -4.987909   1.000000
    2        0.496801   1.000000
    3        3.480799   1.000000
    4        4.324611   1.000000
    5        7.732618   0.000000
    6        8.642299   0.000000
    7        9.483402   0.000000
    8       11.142865   0.000000
 
  0.4375000E+00  0.4375000E+00  0.6250000E-01  0.1171875E-01
    1       -3.585458   1.000000
    2       -0.859216   1.000000
    3        2.576244   1.000000
    4        2.783256   1.000000
    5        6.165038   0.000456
    6        6.870391   0.000000
    7       13.444225   0.000000
    8       13.471067   0.000000
 
 -0.4375000E+00  0.4375000E+00  0.6250000E-01  0.2343750E-01
    1       -2.705212   1.000000
    2       -1.820895   1.000000
    3        2.042056   1.000000
    4        2.550561   1.000000
    5        6.589151   0.000000
    6        7.298215   0.000000
    7       13.212224   0.000000
    8       14.175292   0.000000
 
 -0.3125000E+00  0.4375000E+00  0.6250000E-01  0.2343750E-01
    1       -2.806870   1.000000
    2       -1.654799   1.000000
    3        1.342144   1.000000
    4        2.855249   1.000000
    5        6.941708   0.000000
    6        9.482122   0.000000
    7       11.725167   0.000000
    8       12.828974   0.000000
 
 -0.1875000E+00  0.4375000E+00  0.6250000E-01  0.2343750E-01
    1       -3.542205   1.000000
    2       -1.230023   1.000000
    3        1.855291   1.000000
    4        3.435942   1.000000
    5        7.580096   0.000000
    6        9.496647   0.000000
    7       10.997123   0.000000
    8       12.225172   0.000000
 
 -0.6250000E-01  0.4375000E+00  0.6250000E-01  0.2343750E-01
    1       -4.130515   1.000000
    2       -1.064947   1.000000
    3        3.304701   1.000000
    4        4.001450   1.000000
    5        7.524107   0.000000
    6        8.574913   0.000000
    7        9.319401   0.000000
    8       12.789207   0.000000
 
 -0.4375000E+00 -0.4375000E+00  0.6250000E-01  0.1171875E-01
    1       -2.753074   1.000000
    2       -1.836562   1.000000
    3        2.442690   1.000000
    4        2.665411   1.000000
    5        6.167105   0.000433
    6        6.518870   0.000000
    7       14.495041   0.000000
    8       14.548960   0.000000
 
 -0.3125000E+00 -0.4375000E+00  0.6250000E-01  0.2343750E-01
    1       -3.503840   1.000000
    2       -0.921770   1.000000
    3        2.192892   1.000000
    4        2.705673   1.000000
    5        6.670400   0.000000
    6        7.546871   0.000000
    7       12.166160   0.000000
    8       13.452911   0.000000
 
 -0.1875000E+00 -0.4375000E+00  0.6250000E-01  0.2343750E-01
    1       -3.963963   1.000000
    2       -0.643071   1.000000
    3        2.238162   1.000000
    4        3.284759   1.000000
    5        7.347737   0.000000
    6        9.817281   0.000000
    7        9.987452   0.000000
    8       11.207536   0.000000
 
 -0.3125000E+00 -0.3125000E+00  0.6250000E-01  0.1171875E-01
    1       -4.321005   1.000000
    2        0.157649   1.000000
    3        2.843027   1.000000
    4        3.016535   1.000000
    5        6.288137   0.000014
    6        7.435882   0.000000
    7       12.308827   0.000000
    8       12.402162   0.000000
 
 -0.1875000E+00 -0.3125000E+00  0.6250000E-01  0.2343750E-01
    1       -4.834673   1.000000
    2        0.858879   1.000000
    3        2.886687   1.000000
    4        3.515673   1.000000
    5        7.128798   0.000000
    6        8.670101   0.000000
    7       10.251559   0.000000
    8       11.225951   0.000000
 
 -0.1875000E+00 -0.1875000E+00  0.6250000E-01  0.1171875E-01
    1       -5.458100   1.000000
    2        2.199568   1.000000
    3        3.766910   1.000000
    4        3.801887   1.000000
    5        6.900741   0.000000
    6        8.981589   0.000000
    7       10.198010   0.000000
    8       10.355191   0.000000
 
  0.1875000E+00  0.1875000E+00  0.1875000E+00  0.3906250E-02
    1       -5.848550   1.000000
    2        2.621493   1.000000
    3        4.841262   1.000000
    4        4.841262   1.000000
    5        7.456721   0.000000
    6        8.614488   0.000000
    7        8.614488   0.000000
    8       10.778507   0.000000
 
  0.3125000E+00  0.1875000E+00  0.1875000E+00  0.1171875E-01
    1       -5.468188   1.000000
    2        1.786296   1.000000
    3        3.376773   1.000000
    4        4.854982   1.000000
    5        8.109340   0.000000
    6        8.737124   0.000000
    7        9.012945   0.000000
    8       10.931131   0.000000
 
  0.4375000E+00  0.1875000E+00  0.1875000E+00  0.1171875E-01
    1       -4.744612   1.000000
    2        0.444112   1.000000
    3        2.329116   1.000000
    4        4.366473   1.000000
    5        8.000259   0.000000
    6        9.477516   0.000000
    7        9.663474   0.000000
    8       11.216459   0.000000
 
 -0.4375000E+00  0.1875000E+00  0.1875000E+00  0.1171875E-01
    1       -3.883423   1.000000
    2       -0.990678   1.000000
    3        2.169968   1.000000
    4        3.852937   1.000000
    5        7.535597   0.000000
    6        9.625219   0.000000
    7        9.876083   0.000000
    8       13.049153   0.000000
 
 -0.3125000E+00  0.1875000E+00  0.1875000E+00  0.1171875E-01
    1       -3.867952   1.000000
    2       -1.018438   1.000000
    3        2.456785   1.000000
    4        3.546117   1.000000
    5        7.277436   0.000000
    6        9.685450   0.000000
    7       10.214671   0.000000
    8       11.163489   0.000000
 
 -0.1875000E+00  0.1875000E+00  0.1875000E+00  0.1171875E-01
    1       -4.727590   1.000000
    2        0.440937   1.000000
    3        3.053402   1.000000
    4        3.524784   1.000000
    5        7.214589   0.000000
    6        9.344191   0.000000
    7        9.974013   0.000000
    8       10.564976   0.000000
 
  0.3125000E+00  0.3125000E+00  0.1875000E+00  0.1171875E-01
    1       -5.219215   1.000000
    2        1.141141   1.000000
    3        3.851492   1.000000
    4        3.930779   1.000000
    5        7.579741   0.000000
    6        8.878649   0.000000
    7        9.835665   0.000000
    8       10.230216   0.000000
 
  0.4375000E+00  0.3125000E+00  0.1875000E+00  0.2343750E-01
    1       -4.612237   1.000000
    2        0.371982   1.000000
    3        2.384448   1.000000
    4        3.739519   1.000000
    5        8.074168   0.000000
    6        9.059606   0.000000
    7        9.599531   0.000000
    8       11.053854   0.000000
 
 -0.4375000E+00  0.3125000E+00  0.1875000E+00  0.2343750E-01
    1       -3.751170   1.000000
    2       -0.706067   1.000000
    3        1.622892   1.000000
    4        3.193824   1.000000
    5        8.518104   0.000000
    6        8.995750   0.000000
    7       10.244444   0.000000
    8       12.125627   0.000000
 
 -0.3125000E+00  0.3125000E+00  0.1875000E+00  0.2343750E-01
    1       -3.283011   1.000000
    2       -1.295526   1.000000
    3        1.621077   1.000000
    4        2.893294   1.000000
    5        8.065508   0.000000
    6        9.316011   0.000000
    7       11.010234   0.000000
    8       12.244155   0.000000
 
 -0.1875000E+00  0.3125000E+00  0.1875000E+00  0.2343750E-01
    1       -4.024840   1.000000
    2       -0.329101   1.000000
    3        2.034213   1.000000
    4        3.065288   1.000000
    5        7.801310   0.000000
    6        9.001952   0.000000
    7        9.813414   0.000000
    8       12.243582   0.000000
 
  0.4375000E+00  0.4375000E+00  0.1875000E+00  0.1171875E-01
    1       -4.130489   1.000000
    2       -0.268671   1.000000
    3        2.353745   1.000000
    4        3.203709   1.000000
    5        6.851220   0.000000
    6        8.837400   0.000000
    7       11.001530   0.000000
    8       11.370563   0.000000
 
 -0.4375000E+00  0.4375000E+00  0.1875000E+00  0.2343750E-01
    1       -3.352299   1.000000
    2       -1.057265   1.000000
    3        1.802250   1.000000
    4        2.548300   1.000000
    5        7.606028   0.000000
    6        8.602398   0.000000
    7       10.689832   0.000000
    8       13.416587   0.000000
 
 -0.3125000E+00  0.4375000E+00  0.1875000E+00  0.2343750E-01
    1       -2.572700   1.000000
    2       -1.794383   1.000000
    3        1.499344   1.000000
    4        2.066028   1.000000
    5        8.705644   0.000000
    6        9.626832   0.000000
    7       10.243143   0.000000
    8       11.238440   0.000000
 
 -0.1875000E+00  0.4375000E+00  0.1875000E+00  0.2343750E-01
    1       -3.156619   1.000000
    2       -1.256027   1.000000
    3        1.487561   1.000000
    4        2.524670   1.000000
    5        8.801595   0.000000
    6        9.210036   0.000000
    7        9.941642   0.000000
    8       12.377601   0.000000
 
 -0.4375000E+00 -0.4375000E+00  0.1875000E+00  0.1171875E-01
    1       -2.728634   1.000000
    2       -1.769892   1.000000
    3        1.599400   1.000000
    4        2.871082   1.000000
    5        6.435723   0.000000
    6        8.288593   0.000000
    7       13.139020   0.000000
    8       13.303983   0.000000
 
 -0.3125000E+00 -0.4375000E+00  0.1875000E+00  0.2343750E-01
    1       -2.631045   1.000000
    2       -1.802856   1.000000
    3        1.690026   1.000000
    4        2.270626   1.000000
    5        7.506116   0.000000
    6        8.401237   0.000000
    7       11.673212   0.000000
    8       12.760123   0.000000
 
 -0.3125000E+00 -0.3125000E+00  0.1875000E+00  0.1171875E-01
    1       -3.446267   1.000000
    2       -1.017330   1.000000
    3        1.853516   1.000000
    4        2.983110   1.000000
    5        6.579342   0.000000
    6        8.470501   0.000000
    7       12.136768   0.000000
    8       12.253961   0.000000
 
  0.3125000E+00  0.3125000E+00  0.3125000E+00  0.3906250E-02
    1       -5.115962   1.000000
    2        0.474020   1.000000
    3        4.437905   1.000000
    4        4.437905   1.000000
    5        7.003736   0.000000
    6        8.859684   0.000000
    7        8.859684   0.000000
    8       12.813325   0.000000
 
  0.4375000E+00  0.3125000E+00  0.3125000E+00  0.1171875E-01
    1       -4.651831   1.000000
    2       -0.095386   1.000000
    3        3.010422   1.000000
    4        4.351679   1.000000
    5        7.736002   0.000000
    6        9.073331   0.000000
    7        9.125566   0.000000
    8       12.222825   0.000000
 
 -0.4375000E+00  0.3125000E+00  0.3125000E+00  0.1171875E-01
    1       -3.885529   1.000000
    2       -0.637222   1.000000
    3        1.544803   1.000000
    4        3.791302   1.000000
    5        7.472825   0.000000
    6       10.476741   0.000000
    7       10.624624   0.000000
    8       11.964704   0.000000
 
 -0.3125000E+00  0.3125000E+00  0.3125000E+00  0.1171875E-01
    1       -3.093115   1.000000
    2       -1.404665   1.000000
    3        1.224083   1.000000
    4        3.262399   1.000000
    5        6.885643   0.000000
    6       10.701197   0.000000
    7       11.717123   0.000000
    8       11.930071   0.000000
 
  0.4375000E+00  0.4375000E+00  0.3125000E+00  0.1171875E-01
    1       -4.348964   1.000000
    2       -0.635366   1.000000
    3        3.329135   1.000000
    4        3.808577   1.000000
    5        7.485844   0.000000
    6        8.830926   0.000000
    7        9.600889   0.000000
    8       11.590112   0.000000
 
 -0.4375000E+00  0.4375000E+00  0.3125000E+00  0.2343750E-01
    1       -3.750064   1.000000
    2       -0.998800   1.000000
    3        2.067823   1.000000
    4        3.352603   1.000000
    5        8.258606   0.000000
    6        8.626551   0.000000
    7       11.070574   0.000000
    8       11.350038   0.000000
 
 -0.3125000E+00  0.4375000E+00  0.3125000E+00  0.2343750E-01
    1       -2.958435   1.000000
    2       -1.473251   1.000000
    3        1.313421   1.000000
    4        2.664843   1.000000
    5        7.942779   0.000000
    6       10.145462   0.000000
    7       10.897715   0.000000
    8       11.403566   0.000000
 
 -0.4375000E+00 -0.4375000E+00  0.3125000E+00  0.1171875E-01
    1       -3.404434   1.000000
    2       -1.275947   1.000000
    3        1.694654   1.000000
    4        3.359140   1.000000
    5        7.027246   0.000000
    6       10.658514   0.000000
    7       10.957052   0.000000
    8       10.980136   0.000000
 
  0.4375000E+00  0.4375000E+00  0.4375000E+00  0.3906250E-02
    1       -4.260122   1.000000
    2       -1.118975   1.000000
    3        4.221368   1.000000
    4        4.221368   1.000000
    5        6.751783   0.000000
    6        8.737968   0.000000
    7        8.737968   0.000000
    8       13.049820   0.000000
 
 -0.4375000E+00  0.4375000E+00  0.4375000E+00  0.1171875E-01
    1       -3.922313   1.000000
    2       -1.293501   1.000000
    3        3.023677   1.000000
    4        3.963455   1.000000
    5        7.499206   0.000000
    6        8.841491   0.000000
    7        9.300502   0.000000
    8       13.382267   0.000000
