 vasp.5.4.4.18Apr17-6-g9f103f2a35 (build Dec 09 2018 21:25:21) complex          
  
 executed on IFC18.0.1.163_CrayMP date 2019.03.23  21:17:46
 running on    8 total cores
 distrk:  each k-point on    8 cores,    1 groups
 distr:  one band on NCORES_PER_BAND=   1 cores,    8 groups


--------------------------------------------------------------------------------------------------------


 INCAR:
 POTCAR:   PAW_PBE Si 05Jan2001                   

 ----------------------------------------------------------------------------- 
|                                                                             |
|           W    W    AA    RRRRR   N    N  II  N    N   GGGG   !!!           |
|           W    W   A  A   R    R  NN   N  II  NN   N  G    G  !!!           |
|           W    W  A    A  R    R  N N  N  II  N N  N  G       !!!           |
|           W WW W  AAAAAA  RRRRR   N  N N  II  N  N N  G  GGG   !            |
|           WW  WW  A    A  R   R   N   NN  II  N   NN  G    G                |
|           W    W  A    A  R    R  N    N  II  N    N   GGGG   !!!           |
|                                                                             |
|      For optimal performance we recommend to set                            |
|        NCORE= 4 - approx SQRT( number of cores)                             |
|      NCORE specifies how many cores store one orbital (NPAR=cpu/NCORE).     |
|      This setting can  greatly improve the performance of VASP for DFT.     |
|      The default,   NCORE=1            might be grossly inefficient         |
|      on modern multi-core architectures or massively parallel machines.     |
|      Do your own testing !!!!                                               |
|      Unfortunately you need to use the default for GW and RPA calculations. |
|      (for HF NCORE is supported but not extensively tested yet)             |
|                                                                             |
 ----------------------------------------------------------------------------- 

 POTCAR:   PAW_PBE Si 05Jan2001                   
   VRHFIN =Si: s2p2                                                             
   LEXCH  = PE                                                                  
   EATOM  =   103.0669 eV,    7.5752 Ry                                         
                                                                                
   TITEL  = PAW_PBE Si 05Jan2001                                                
   LULTRA =        F    use ultrasoft PP ?                                      
   IUNSCR =        1    unscreen: 0-lin 1-nonlin 2-no                           
   RPACOR =    1.500    partial core radius                                     
   POMASS =   28.085; ZVAL   =    4.000    mass and valenz                      
   RCORE  =    1.900    outmost cutoff radius                                   
   RWIGS  =    2.480; RWIGS  =    1.312    wigner-seitz radius (au A)           
   ENMAX  =  245.345; ENMIN  =  184.009 eV                                      
   ICORE  =        2    local potential                                         
   LCOR   =        T    correct aug charges                                     
   LPAW   =        T    paw PP                                                  
   EAUG   =  322.069                                                            
   DEXC   =    -.007                                                            
   RMAX   =    2.944    core radius for proj-oper                               
   RAUG   =    1.300    factor for augmentation sphere                          
   RDEP   =    1.993    radius for radial grids                                 
   QCUT   =   -4.246; QGAM   =    8.493    optimization parameters              
                                                                                
   Description                                                                  
     l     E      TYP  RCUT    TYP  RCUT                                        
     0   .000     23  1.900                                                     
     0   .000     23  1.900                                                     
     1   .000     23  1.900                                                     
     1   .000     23  1.900                                                     
     2   .000      7  1.900                                                     
  local pseudopotential read in
  partial core-charges read in
  atomic valenz-charges read in
  non local Contribution for L=           0  read in
    real space projection operators read in
  non local Contribution for L=           0  read in
    real space projection operators read in
  non local Contribution for L=           1  read in
    real space projection operators read in
  non local Contribution for L=           1  read in
    real space projection operators read in
    PAW grid and wavefunctions read in
 
   number of l-projection  operators is LMAX  =           4
   number of lm-projection operators is LMMAX =           8
 
 PAW_PBE Si 05Jan2001                   :
 energy of atom  1       EATOM= -103.0669
 kinetic energy error for atom=    0.0013 (will be added to EATOM!!)
 
 
 POSCAR: Si2                                     
  positions in direct lattice
  No initial velocities read in
 exchange correlation table for  LEXCH =        8
   RHO(1)=    0.500       N(1)  =     2000
   RHO(2)=  100.500       N(2)  =     4000
 


--------------------------------------------------------------------------------------------------------


 ion  position               nearest neighbor table
   1  0.500  0.500  0.500-   2 2.39   2 2.39   2 2.39   2 2.39
   2  0.750  0.750  0.750-   1 2.39   1 2.39   1 2.39   1 2.39
 
  LATTYP: Found a face centered cubic cell.
 ALAT       =     5.5184940000
  
  Lattice vectors:
  
 A1 = (   0.0000000000,   2.7592470000,   2.7592470000)
 A2 = (   2.7592470000,   0.0000000000,   2.7592470000)
 A3 = (   2.7592470000,   2.7592470000,   0.0000000000)


Analysis of symmetry for initial positions (statically):
=====================================================================
 Subroutine PRICEL returns:
 Original cell was already a primitive cell.
 

 Routine SETGRP: Setting up the symmetry group for a 
 face centered cubic supercell.


 Subroutine GETGRP returns: Found 48 space group operations
 (whereof 24 operations were pure point group operations)
 out of a pool of 48 trial point group operations.


The static configuration has the point symmetry T_d .
 The point group associated with its full space group is O_h .


Analysis of symmetry for dynamics (positions and initial velocities):
=====================================================================
 Subroutine PRICEL returns:
 Original cell was already a primitive cell.
 

 Routine SETGRP: Setting up the symmetry group for a 
 face centered cubic supercell.


 Subroutine GETGRP returns: Found 48 space group operations
 (whereof 24 operations were pure point group operations)
 out of a pool of 48 trial point group operations.


The dynamic configuration has the point symmetry T_d .
 The point group associated with its full space group is O_h .


 Subroutine INISYM returns: Found 48 space group operations
 (whereof 24 operations are pure point group operations),
 and found     1 'primitive' translations

 
 
 KPOINTS: Automatic kpoint scheme                 

Automatic generation of k-mesh.
Space group operators:
 irot       det(A)        alpha          n_x          n_y          n_z        tau_x        tau_y        tau_z
    1     1.000000     0.000001     1.000000     0.000000     0.000000     0.000000     0.000000     0.000000
    2     1.000000   120.000000    -0.577350    -0.577350    -0.577350     0.000000     0.000000     0.000000
    3     1.000000   120.000000     0.577350     0.577350     0.577350     0.000000     0.000000     0.000000
    4    -1.000000    90.000000    -0.000000    -0.000000    -1.000000     0.000000     0.000000     0.000000
    5    -1.000000   180.000000     0.000000     0.707107     0.707107     0.000000     0.000000     0.000000
    6    -1.000000    90.000000    -0.000000     1.000000    -0.000000     0.000000     0.000000     0.000000
    7     1.000000   180.000000    -0.000000    -0.000000    -1.000000     0.000000     0.000000     0.000000
    8     1.000000   120.000000    -0.577350     0.577350     0.577350     0.000000     0.000000     0.000000
    9     1.000000   120.000000    -0.577350     0.577350    -0.577350     0.000000     0.000000     0.000000
   10    -1.000000    90.000000     0.000000     0.000000     1.000000     0.000000     0.000000     0.000000
   11    -1.000000    90.000000    -1.000000     0.000000     0.000000     0.000000     0.000000     0.000000
   12    -1.000000   180.000000     0.707107     0.000000     0.707107     0.000000     0.000000     0.000000
   13     1.000000   120.000000     0.577350    -0.577350     0.577350     0.000000     0.000000     0.000000
   14     1.000000   120.000000    -0.577350    -0.577350     0.577350     0.000000     0.000000     0.000000
   15     1.000000   180.000000     1.000000     0.000000     0.000000     0.000000     0.000000     0.000000
   16    -1.000000    90.000000     0.000000    -1.000000     0.000000     0.000000     0.000000     0.000000
   17    -1.000000   180.000000     0.707107     0.707107    -0.000000     0.000000     0.000000     0.000000
   18    -1.000000    90.000000     1.000000     0.000000     0.000000     0.000000     0.000000     0.000000
   19     1.000000   120.000000     0.577350    -0.577350    -0.577350     0.000000     0.000000     0.000000
   20     1.000000   180.000000    -0.000000    -1.000000    -0.000000     0.000000     0.000000     0.000000
   21     1.000000   120.000000     0.577350     0.577350    -0.577350     0.000000     0.000000     0.000000
   22    -1.000000   180.000000    -0.000000    -0.707107     0.707107     0.000000     0.000000     0.000000
   23    -1.000000   180.000000     0.707107    -0.707107     0.000000     0.000000     0.000000     0.000000
   24    -1.000000   180.000000     0.707107     0.000000    -0.707107     0.000000     0.000000     0.000000
   25    -1.000000     0.000001     1.000000     0.000000     0.000000     0.250000     0.250000     0.250000
   26    -1.000000   120.000000    -0.577350    -0.577350    -0.577350     0.250000     0.250000     0.250000
   27    -1.000000   120.000000     0.577350     0.577350     0.577350     0.250000     0.250000     0.250000
   28     1.000000    90.000000    -0.000000    -0.000000    -1.000000     0.250000     0.250000     0.250000
   29     1.000000   180.000000     0.000000     0.707107     0.707107     0.250000     0.250000     0.250000
   30     1.000000    90.000000    -0.000000     1.000000    -0.000000     0.250000     0.250000     0.250000
   31    -1.000000   180.000000    -0.000000    -0.000000    -1.000000     0.250000     0.250000     0.250000
   32    -1.000000   120.000000    -0.577350     0.577350     0.577350     0.250000     0.250000     0.250000
   33    -1.000000   120.000000    -0.577350     0.577350    -0.577350     0.250000     0.250000     0.250000
   34     1.000000    90.000000     0.000000     0.000000     1.000000     0.250000     0.250000     0.250000
   35     1.000000    90.000000    -1.000000     0.000000     0.000000     0.250000     0.250000     0.250000
   36     1.000000   180.000000     0.707107     0.000000     0.707107     0.250000     0.250000     0.250000
   37    -1.000000   120.000000     0.577350    -0.577350     0.577350     0.250000     0.250000     0.250000
   38    -1.000000   120.000000    -0.577350    -0.577350     0.577350     0.250000     0.250000     0.250000
   39    -1.000000   180.000000     1.000000     0.000000     0.000000     0.250000     0.250000     0.250000
   40     1.000000    90.000000     0.000000    -1.000000     0.000000     0.250000     0.250000     0.250000
   41     1.000000   180.000000     0.707107     0.707107    -0.000000     0.250000     0.250000     0.250000
   42     1.000000    90.000000     1.000000     0.000000     0.000000     0.250000     0.250000     0.250000
   43    -1.000000   120.000000     0.577350    -0.577350    -0.577350     0.250000     0.250000     0.250000
   44    -1.000000   180.000000    -0.000000    -1.000000    -0.000000     0.250000     0.250000     0.250000
   45    -1.000000   120.000000     0.577350     0.577350    -0.577350     0.250000     0.250000     0.250000
   46     1.000000   180.000000    -0.000000    -0.707107     0.707107     0.250000     0.250000     0.250000
   47     1.000000   180.000000     0.707107    -0.707107     0.000000     0.250000     0.250000     0.250000
   48     1.000000   180.000000     0.707107     0.000000    -0.707107     0.250000     0.250000     0.250000
 
 Subroutine IBZKPT returns following result:
 ===========================================
 
 Found     60 irreducible k-points:
 
 Following reciprocal coordinates:
            Coordinates               Weight
  0.062500  0.062500  0.062500     96.000000
  0.187500  0.062500  0.062500    288.000000
  0.312500  0.062500  0.062500    288.000000
  0.437500  0.062500  0.062500    288.000000
 -0.437500  0.062500  0.062500    288.000000
 -0.312500  0.062500  0.062500    288.000000
 -0.187500  0.062500  0.062500    288.000000
 -0.062500  0.062500  0.062500    288.000000
  0.187500  0.187500  0.062500    288.000000
  0.312500  0.187500  0.062500    576.000000
  0.437500  0.187500  0.062500    576.000000
 -0.437500  0.187500  0.062500    576.000000
 -0.312500  0.187500  0.062500    576.000000
 -0.187500  0.187500  0.062500    576.000000
 -0.062500  0.187500  0.062500    576.000000
  0.312500  0.312500  0.062500    288.000000
  0.437500  0.312500  0.062500    576.000000
 -0.437500  0.312500  0.062500    576.000000
 -0.312500  0.312500  0.062500    576.000000
 -0.187500  0.312500  0.062500    576.000000
 -0.062500  0.312500  0.062500    576.000000
  0.437500  0.437500  0.062500    288.000000
 -0.437500  0.437500  0.062500    576.000000
 -0.312500  0.437500  0.062500    576.000000
 -0.187500  0.437500  0.062500    576.000000
 -0.062500  0.437500  0.062500    576.000000
 -0.437500 -0.437500  0.062500    288.000000
 -0.312500 -0.437500  0.062500    576.000000
 -0.187500 -0.437500  0.062500    576.000000
 -0.312500 -0.312500  0.062500    288.000000
 -0.187500 -0.312500  0.062500    576.000000
 -0.187500 -0.187500  0.062500    288.000000
  0.187500  0.187500  0.187500     96.000000
  0.312500  0.187500  0.187500    288.000000
  0.437500  0.187500  0.187500    288.000000
 -0.437500  0.187500  0.187500    288.000000
 -0.312500  0.187500  0.187500    288.000000
 -0.187500  0.187500  0.187500    288.000000
  0.312500  0.312500  0.187500    288.000000
  0.437500  0.312500  0.187500    576.000000
 -0.437500  0.312500  0.187500    576.000000
 -0.312500  0.312500  0.187500    576.000000
 -0.187500  0.312500  0.187500    576.000000
  0.437500  0.437500  0.187500    288.000000
 -0.437500  0.437500  0.187500    576.000000
 -0.312500  0.437500  0.187500    576.000000
 -0.187500  0.437500  0.187500    576.000000
 -0.437500 -0.437500  0.187500    288.000000
 -0.312500 -0.437500  0.187500    576.000000
 -0.312500 -0.312500  0.187500    288.000000
  0.312500  0.312500  0.312500     96.000000
  0.437500  0.312500  0.312500    288.000000
 -0.437500  0.312500  0.312500    288.000000
 -0.312500  0.312500  0.312500    288.000000
  0.437500  0.437500  0.312500    288.000000
 -0.437500  0.437500  0.312500    576.000000
 -0.312500  0.437500  0.312500    576.000000
 -0.437500 -0.437500  0.312500    288.000000
  0.437500  0.437500  0.437500     96.000000
 -0.437500  0.437500  0.437500    288.000000
 
 Following cartesian coordinates:
            Coordinates               Weight
  0.011326  0.011326  0.011326     96.000000
 -0.011326  0.033977  0.033977    288.000000
 -0.033977  0.056628  0.056628    288.000000
 -0.056628  0.079279  0.079279    288.000000
  0.101930 -0.079279 -0.079279    288.000000
  0.079279 -0.056628 -0.056628    288.000000
  0.056628 -0.033977 -0.033977    288.000000
  0.033977 -0.011326 -0.011326    288.000000
  0.011326  0.011326  0.056628    288.000000
 -0.011326  0.033977  0.079279    576.000000
 -0.033977  0.056628  0.101930    576.000000
  0.124581 -0.101930 -0.056628    576.000000
  0.101930 -0.079279 -0.033977    576.000000
  0.079279 -0.056628 -0.011326    576.000000
  0.056628 -0.033977  0.011326    576.000000
  0.011326  0.011326  0.101930    288.000000
 -0.011326  0.033977  0.124581    576.000000
  0.147232 -0.124581 -0.033977    576.000000
  0.124581 -0.101930 -0.011326    576.000000
  0.101930 -0.079279  0.011326    576.000000
  0.079279 -0.056628  0.033977    576.000000
  0.011326  0.011326  0.147232    288.000000
  0.169883 -0.147232 -0.011326    576.000000
  0.147232 -0.124581  0.011326    576.000000
  0.124581 -0.101930  0.033977    576.000000
  0.101930 -0.079279  0.056628    576.000000
  0.011326  0.011326 -0.169883    288.000000
 -0.011326  0.033977 -0.147232    576.000000
 -0.033977  0.056628 -0.124581    576.000000
  0.011326  0.011326 -0.124581    288.000000
 -0.011326  0.033977 -0.101930    576.000000
  0.011326  0.011326 -0.079279    288.000000
  0.033977  0.033977  0.033977     96.000000
  0.011326  0.056628  0.056628    288.000000
 -0.011326  0.079279  0.079279    288.000000
  0.147232 -0.079279 -0.079279    288.000000
  0.124581 -0.056628 -0.056628    288.000000
  0.101930 -0.033977 -0.033977    288.000000
  0.033977  0.033977  0.079279    288.000000
  0.011326  0.056628  0.101930    576.000000
  0.169883 -0.101930 -0.056628    576.000000
  0.147232 -0.079279 -0.033977    576.000000
  0.124581 -0.056628 -0.011326    576.000000
  0.033977  0.033977  0.124581    288.000000
  0.192534 -0.124581 -0.033977    576.000000
  0.169883 -0.101930 -0.011326    576.000000
  0.147232 -0.079279  0.011326    576.000000
  0.033977  0.033977 -0.192534    288.000000
  0.011326  0.056628 -0.169883    576.000000
  0.033977  0.033977 -0.147232    288.000000
  0.056628  0.056628  0.056628     96.000000
  0.033977  0.079279  0.079279    288.000000
  0.192534 -0.079279 -0.079279    288.000000
  0.169883 -0.056628 -0.056628    288.000000
  0.056628  0.056628  0.101930    288.000000
  0.215186 -0.101930 -0.056628    576.000000
  0.192534 -0.079279 -0.033977    576.000000
  0.056628  0.056628 -0.215186    288.000000
  0.079279  0.079279  0.079279     96.000000
  0.237837 -0.079279 -0.079279    288.000000
 


--------------------------------------------------------------------------------------------------------




 Dimension of arrays:
   k-points           NKPTS =     60   k-points in BZ     NKDIM =     60   number of bands    NBANDS=      8
   number of dos      NEDOS =    301   number of ions     NIONS =      2
   non local maximal  LDIM  =      4   non local SUM 2l+1 LMDIM =      8
   total plane-waves  NPLWV =   5832
   max r-space proj   IRMAX =      1   max aug-charges    IRDMAX=   4840
   dimension x,y,z NGX =    18 NGY =   18 NGZ =   18
   dimension x,y,z NGXF=    36 NGYF=   36 NGZF=   36
   support grid    NGXF=    36 NGYF=   36 NGZF=   36
   ions per type =               2
   NGX,Y,Z   is equivalent  to a cutoff of   7.67,  7.67,  7.67 a.u.
   NGXF,Y,Z  is equivalent  to a cutoff of  15.34, 15.34, 15.34 a.u.

 SYSTEM =  unknown system                          
 POSCAR =  Si2                                     

 Startparameter for this run:
   NWRITE =      2    write-flag & timer
   PREC   = normal    normal or accurate (medium, high low for compatibility)
   ISTART =      0    job   : 0-new  1-cont  2-samecut
   ICHARG =      2    charge: 1-file 2-atom 10-const
   ISPIN  =      1    spin polarized calculation?
   LNONCOLLINEAR =      F non collinear calculations
   LSORBIT =      F    spin-orbit coupling
   INIWAV =      1    electr: 0-lowe 1-rand  2-diag
   LASPH  =      F    aspherical Exc in radial PAW
   METAGGA=      F    non-selfconsistent MetaGGA calc.

 Electronic Relaxation 1
   ENCUT  =  350.0 eV  25.72 Ry    5.07 a.u.   5.95  5.95  5.95*2*pi/ulx,y,z
   ENINI  =  350.0     initial cutoff
   ENAUG  =  322.1 eV  augmentation charge cutoff
   NELM   =     60;   NELMIN=  2; NELMDL= -5     # of ELM steps 
   EDIFF  = 0.4E-03   stopping-criterion for ELM
   LREAL  =      F    real-space projection
   NLSPLINE    = F    spline interpolate recip. space projectors
   LCOMPAT=      F    compatible to vasp.4.4
   GGA_COMPAT  = T    GGA compatible to vasp.4.4-vasp.4.6
   LMAXPAW     = -100 max onsite density
   LMAXMIX     =    2 max onsite mixed and CHGCAR
   VOSKOWN=      0    Vosko Wilk Nusair interpolation
   ROPT   =    0.00000
 Ionic relaxation
   EDIFFG = -.1E-01   stopping-criterion for IOM
   NSW    =     15    number of steps for IOM
   NBLOCK =      1;   KBLOCK =     15    inner block; outer block 
   IBRION =      2    ionic relax: 0-MD 1-quasi-New 2-CG
   NFREE  =      1    steps in history (QN), initial steepest desc. (CG)
   ISIF   =      2    stress and relaxation
   IWAVPR =     11    prediction:  0-non 1-charg 2-wave 3-comb
   ISYM   =      2    0-nonsym 1-usesym 2-fastsym
   LCORR  =      T    Harris-Foulkes like correction to forces

   POTIM  = 0.5000    time-step for ionic-motion
   TEIN   =    0.0    initial temperature
   TEBEG  =    0.0;   TEEND  =   0.0 temperature during run
   SMASS  =  -3.00    Nose mass-parameter (am)
   estimated Nose-frequenzy (Omega)   =  0.10E-29 period in steps =****** mass=  -0.348E-27a.u.
   SCALEE = 1.0000    scale energy and forces
   NPACO  =    256;   APACO  = 16.0  distance and # of slots for P.C.
   PSTRESS=    0.0 pullay stress

  Mass of Ions in am
   POMASS =  28.09
  Ionic Valenz
   ZVAL   =   4.00
  Atomic Wigner-Seitz radii
   RWIGS  =  -1.00
  virtual crystal weights 
   VCA    =   1.00
   NELECT =       8.0000    total number of electrons
   NUPDOWN=      -1.0000    fix difference up-down

 DOS related values:
   EMIN   =  10.00;   EMAX   =-10.00  energy-range for DOS
   EFERMI =   0.00
   ISMEAR =     0;   SIGMA  =   0.20  broadening in eV -4-tet -1-fermi 0-gaus

 Electronic relaxation 2 (details)
   IALGO  =     38    algorithm
   LDIAG  =      T    sub-space diagonalisation (order eigenvalues)
   LSUBROT=      F    optimize rotation matrix (better conditioning)
   TURBO    =      0    0=normal 1=particle mesh
   IRESTART =      0    0=no restart 2=restart with 2 vectors
   NREBOOT  =      0    no. of reboots
   NMIN     =      0    reboot dimension
   EREF     =   0.00    reference energy to select bands
   IMIX   =      4    mixing-type and parameters
     AMIX     =   0.40;   BMIX     =  1.00
     AMIX_MAG =   1.60;   BMIX_MAG =  1.00
     AMIN     =   0.10
     WC   =   100.;   INIMIX=   1;  MIXPRE=   1;  MAXMIX= -45

 Intra band minimization:
   WEIMIN = 0.0010     energy-eigenvalue tresh-hold
   EBREAK =  0.13E-04  absolut break condition
   DEPER  =   0.30     relativ break condition  

   TIME   =   0.40     timestep for ELM

  volume/ion in A,a.u.               =      21.01       141.76
  Fermi-wavevector in a.u.,A,eV,Ry     =   0.941827  1.779794 12.068874  0.887037
  Thomas-Fermi vector in A             =   2.069376
 
 Write flags
   LWAVE        =      T    write WAVECAR
   LDOWNSAMPLE  =      F    k-point downsampling of WAVECAR
   LCHARG       =      T    write CHGCAR
   LVTOT        =      F    write LOCPOT, total local potential
   LVHAR        =      F    write LOCPOT, Hartree potential only
   LELF         =      F    write electronic localiz. function (ELF)
   LORBIT       =      0    0 simple, 1 ext, 2 COOP (PROOUT), +10 PAW based schemes


 Dipole corrections
   LMONO  =      F    monopole corrections only (constant potential shift)
   LDIPOL =      F    correct potential (dipole corrections)
   IDIPOL =      0    1-x, 2-y, 3-z, 4-all directions 
   EPSILON=  1.0000000 bulk dielectric constant

 Exchange correlation treatment:
   GGA     =    --    GGA type
   LEXCH   =     8    internal setting for exchange type
   VOSKOWN=      0    Vosko Wilk Nusair interpolation
   LHFCALC =     F    Hartree Fock is set to
   LHFONE  =     F    Hartree Fock one center treatment
   AEXX    =    0.0000 exact exchange contribution

 Linear response parameters
   LEPSILON=     F    determine dielectric tensor
   LRPA    =     F    only Hartree local field effects (RPA)
   LNABLA  =     F    use nabla operator in PAW spheres
   LVEL    =     F    velocity operator in full k-point grid
   LINTERFAST=   F  fast interpolation
   KINTER  =     0    interpolate to denser k-point grid
   CSHIFT  =0.1000    complex shift for real part using Kramers Kronig
   OMEGAMAX=  -1.0    maximum frequency
   DEG_THRESHOLD= 0.2000000E-02 threshold for treating states as degnerate
   RTIME   =   -0.100 relaxation time in fs
  (WPLASMAI=    0.000 imaginary part of plasma frequency in eV, 0.658/RTIME)
   DFIELD  = 0.0000000 0.0000000 0.0000000 field for delta impulse in time
 
 Orbital magnetization related:
   ORBITALMAG=     F  switch on orbital magnetization
   LCHIMAG   =     F  perturbation theory with respect to B field
   DQ        =  0.001000  dq finite difference perturbation B field
   LLRAUG    =     F  two centre corrections for induced B field



--------------------------------------------------------------------------------------------------------


 conjugate gradient relaxation of ions
 charge density and potential will be updated during run
 non-spin polarized calculation
 Variant of blocked Davidson
 Davidson routine will perform the subspace rotation
 perform sub-space diagonalisation
    after iterative eigenvector-optimisation
 modified Broyden-mixing scheme, WC =      100.0
 initial mixing is a Kerker type mixing with AMIX =  0.4000 and BMIX =      1.0000
 Hartree-type preconditioning will be used
 using additional bands            4
 reciprocal scheme for non local part
 use partial core corrections
 calculate Harris-corrections to forces 
   (improved forces if not selfconsistent)
 use gradient corrections 
 use of overlap-Matrix (Vanderbilt PP)
 Gauss-broadening in eV      SIGMA  =   0.20


--------------------------------------------------------------------------------------------------------


  energy-cutoff  :      350.00
  volume of cell :       42.01
      direct lattice vectors                 reciprocal lattice vectors
     0.000000000  2.759247000  2.759247000    -0.181208859  0.181208859  0.181208859
     2.759247000  0.000000000  2.759247000     0.181208859 -0.181208859  0.181208859
     2.759247000  2.759247000  0.000000000     0.181208859  0.181208859 -0.181208859

  length of vectors
     3.902164529  3.902164529  3.902164529     0.313862950  0.313862950  0.313862950


 
 k-points in units of 2pi/SCALE and weight: Automatic kpoint scheme                 
   0.01132555  0.01132555  0.01132555       0.004
  -0.01132555  0.03397666  0.03397666       0.012
  -0.03397666  0.05662777  0.05662777       0.012
  -0.05662777  0.07927888  0.07927888       0.012
   0.10192998 -0.07927888 -0.07927888       0.012
   0.07927888 -0.05662777 -0.05662777       0.012
   0.05662777 -0.03397666 -0.03397666       0.012
   0.03397666 -0.01132555 -0.01132555       0.012
   0.01132555  0.01132555  0.05662777       0.012
  -0.01132555  0.03397666  0.07927888       0.023
  -0.03397666  0.05662777  0.10192998       0.023
   0.12458109 -0.10192998 -0.05662777       0.023
   0.10192998 -0.07927888 -0.03397666       0.023
   0.07927888 -0.05662777 -0.01132555       0.023
   0.05662777 -0.03397666  0.01132555       0.023
   0.01132555  0.01132555  0.10192998       0.012
  -0.01132555  0.03397666  0.12458109       0.023
   0.14723220 -0.12458109 -0.03397666       0.023
   0.12458109 -0.10192998 -0.01132555       0.023
   0.10192998 -0.07927888  0.01132555       0.023
   0.07927888 -0.05662777  0.03397666       0.023
   0.01132555  0.01132555  0.14723220       0.012
   0.16988331 -0.14723220 -0.01132555       0.023
   0.14723220 -0.12458109  0.01132555       0.023
   0.12458109 -0.10192998  0.03397666       0.023
   0.10192998 -0.07927888  0.05662777       0.023
   0.01132555  0.01132555 -0.16988331       0.012
  -0.01132555  0.03397666 -0.14723220       0.023
  -0.03397666  0.05662777 -0.12458109       0.023
   0.01132555  0.01132555 -0.12458109       0.012
  -0.01132555  0.03397666 -0.10192998       0.023
   0.01132555  0.01132555 -0.07927888       0.012
   0.03397666  0.03397666  0.03397666       0.004
   0.01132555  0.05662777  0.05662777       0.012
  -0.01132555  0.07927888  0.07927888       0.012
   0.14723220 -0.07927888 -0.07927888       0.012
   0.12458109 -0.05662777 -0.05662777       0.012
   0.10192998 -0.03397666 -0.03397666       0.012
   0.03397666  0.03397666  0.07927888       0.012
   0.01132555  0.05662777  0.10192998       0.023
   0.16988331 -0.10192998 -0.05662777       0.023
   0.14723220 -0.07927888 -0.03397666       0.023
   0.12458109 -0.05662777 -0.01132555       0.023
   0.03397666  0.03397666  0.12458109       0.012
   0.19253441 -0.12458109 -0.03397666       0.023
   0.16988331 -0.10192998 -0.01132555       0.023
   0.14723220 -0.07927888  0.01132555       0.023
   0.03397666  0.03397666 -0.19253441       0.012
   0.01132555  0.05662777 -0.16988331       0.023
   0.03397666  0.03397666 -0.14723220       0.012
   0.05662777  0.05662777  0.05662777       0.004
   0.03397666  0.07927888  0.07927888       0.012
   0.19253441 -0.07927888 -0.07927888       0.012
   0.16988331 -0.05662777 -0.05662777       0.012
   0.05662777  0.05662777  0.10192998       0.012
   0.21518552 -0.10192998 -0.05662777       0.023
   0.19253441 -0.07927888 -0.03397666       0.023
   0.05662777  0.05662777 -0.21518552       0.012
   0.07927888  0.07927888  0.07927888       0.004
   0.23783663 -0.07927888 -0.07927888       0.012
 
 k-points in reciprocal lattice and weights: Automatic kpoint scheme                 
   0.06250000  0.06250000  0.06250000       0.004
   0.18750000  0.06250000  0.06250000       0.012
   0.31250000  0.06250000  0.06250000       0.012
   0.43750000  0.06250000  0.06250000       0.012
  -0.43750000  0.06250000  0.06250000       0.012
  -0.31250000  0.06250000  0.06250000       0.012
  -0.18750000  0.06250000  0.06250000       0.012
  -0.06250000  0.06250000  0.06250000       0.012
   0.18750000  0.18750000  0.06250000       0.012
   0.31250000  0.18750000  0.06250000       0.023
   0.43750000  0.18750000  0.06250000       0.023
  -0.43750000  0.18750000  0.06250000       0.023
  -0.31250000  0.18750000  0.06250000       0.023
  -0.18750000  0.18750000  0.06250000       0.023
  -0.06250000  0.18750000  0.06250000       0.023
   0.31250000  0.31250000  0.06250000       0.012
   0.43750000  0.31250000  0.06250000       0.023
  -0.43750000  0.31250000  0.06250000       0.023
  -0.31250000  0.31250000  0.06250000       0.023
  -0.18750000  0.31250000  0.06250000       0.023
  -0.06250000  0.31250000  0.06250000       0.023
   0.43750000  0.43750000  0.06250000       0.012
  -0.43750000  0.43750000  0.06250000       0.023
  -0.31250000  0.43750000  0.06250000       0.023
  -0.18750000  0.43750000  0.06250000       0.023
  -0.06250000  0.43750000  0.06250000       0.023
  -0.43750000 -0.43750000  0.06250000       0.012
  -0.31250000 -0.43750000  0.06250000       0.023
  -0.18750000 -0.43750000  0.06250000       0.023
  -0.31250000 -0.31250000  0.06250000       0.012
  -0.18750000 -0.31250000  0.06250000       0.023
  -0.18750000 -0.18750000  0.06250000       0.012
   0.18750000  0.18750000  0.18750000       0.004
   0.31250000  0.18750000  0.18750000       0.012
   0.43750000  0.18750000  0.18750000       0.012
  -0.43750000  0.18750000  0.18750000       0.012
  -0.31250000  0.18750000  0.18750000       0.012
  -0.18750000  0.18750000  0.18750000       0.012
   0.31250000  0.31250000  0.18750000       0.012
   0.43750000  0.31250000  0.18750000       0.023
  -0.43750000  0.31250000  0.18750000       0.023
  -0.31250000  0.31250000  0.18750000       0.023
  -0.18750000  0.31250000  0.18750000       0.023
   0.43750000  0.43750000  0.18750000       0.012
  -0.43750000  0.43750000  0.18750000       0.023
  -0.31250000  0.43750000  0.18750000       0.023
  -0.18750000  0.43750000  0.18750000       0.023
  -0.43750000 -0.43750000  0.18750000       0.012
  -0.31250000 -0.43750000  0.18750000       0.023
  -0.31250000 -0.31250000  0.18750000       0.012
   0.31250000  0.31250000  0.31250000       0.004
   0.43750000  0.31250000  0.31250000       0.012
  -0.43750000  0.31250000  0.31250000       0.012
  -0.31250000  0.31250000  0.31250000       0.012
   0.43750000  0.43750000  0.31250000       0.012
  -0.43750000  0.43750000  0.31250000       0.023
  -0.31250000  0.43750000  0.31250000       0.023
  -0.43750000 -0.43750000  0.31250000       0.012
   0.43750000  0.43750000  0.43750000       0.004
  -0.43750000  0.43750000  0.43750000       0.012
 
 position of ions in fractional coordinates (direct lattice) 
   0.50000000  0.50000000  0.50000000
   0.75000000  0.75000000  0.75000000
 
 position of ions in cartesian coordinates  (Angst):
   2.75924700  2.75924700  2.75924700
   4.13887050  4.13887050  4.13887050
 


--------------------------------------------------------------------------------------------------------


 k-point  1 :   0.0625 0.0625 0.0625  plane waves:     615
 k-point  2 :   0.1875 0.0625 0.0625  plane waves:     617
 k-point  3 :   0.3125 0.0625 0.0625  plane waves:     620
 k-point  4 :   0.4375 0.0625 0.0625  plane waves:     612
 k-point  5 :  -0.4375 0.0625 0.0625  plane waves:     619
 k-point  6 :  -0.3125 0.0625 0.0625  plane waves:     612
 k-point  7 :  -0.1875 0.0625 0.0625  plane waves:     618
 k-point  8 :  -0.0625 0.0625 0.0625  plane waves:     619
 k-point  9 :   0.1875 0.1875 0.0625  plane waves:     615
 k-point 10 :   0.3125 0.1875 0.0625  plane waves:     616
 k-point 11 :   0.4375 0.1875 0.0625  plane waves:     622
 k-point 12 :  -0.4375 0.1875 0.0625  plane waves:     622
 k-point 13 :  -0.3125 0.1875 0.0625  plane waves:     623
 k-point 14 :  -0.1875 0.1875 0.0625  plane waves:     622
 k-point 15 :  -0.0625 0.1875 0.0625  plane waves:     617
 k-point 16 :   0.3125 0.3125 0.0625  plane waves:     626
 k-point 17 :   0.4375 0.3125 0.0625  plane waves:     623
 k-point 18 :  -0.4375 0.3125 0.0625  plane waves:     630
 k-point 19 :  -0.3125 0.3125 0.0625  plane waves:     629
 k-point 20 :  -0.1875 0.3125 0.0625  plane waves:     622
 k-point 21 :  -0.0625 0.3125 0.0625  plane waves:     622
 k-point 22 :   0.4375 0.4375 0.0625  plane waves:     624
 k-point 23 :  -0.4375 0.4375 0.0625  plane waves:     628
 k-point 24 :  -0.3125 0.4375 0.0625  plane waves:     627
 k-point 25 :  -0.1875 0.4375 0.0625  plane waves:     627
 k-point 26 :  -0.0625 0.4375 0.0625  plane waves:     616
 k-point 27 :  -0.4375-0.4375 0.0625  plane waves:     632
 k-point 28 :  -0.3125-0.4375 0.0625  plane waves:     631
 k-point 29 :  -0.1875-0.4375 0.0625  plane waves:     625
 k-point 30 :  -0.3125-0.3125 0.0625  plane waves:     627
 k-point 31 :  -0.1875-0.3125 0.0625  plane waves:     619
 k-point 32 :  -0.1875-0.1875 0.0625  plane waves:     618
 k-point 33 :   0.1875 0.1875 0.1875  plane waves:     622
 k-point 34 :   0.3125 0.1875 0.1875  plane waves:     623
 k-point 35 :   0.4375 0.1875 0.1875  plane waves:     622
 k-point 36 :  -0.4375 0.1875 0.1875  plane waves:     626
 k-point 37 :  -0.3125 0.1875 0.1875  plane waves:     624
 k-point 38 :  -0.1875 0.1875 0.1875  plane waves:     619
 k-point 39 :   0.3125 0.3125 0.1875  plane waves:     616
 k-point 40 :   0.4375 0.3125 0.1875  plane waves:     624
 k-point 41 :  -0.4375 0.3125 0.1875  plane waves:     634
 k-point 42 :  -0.3125 0.3125 0.1875  plane waves:     629
 k-point 43 :  -0.1875 0.3125 0.1875  plane waves:     633
 k-point 44 :   0.4375 0.4375 0.1875  plane waves:     622
 k-point 45 :  -0.4375 0.4375 0.1875  plane waves:     631
 k-point 46 :  -0.3125 0.4375 0.1875  plane waves:     630
 k-point 47 :  -0.1875 0.4375 0.1875  plane waves:     633
 k-point 48 :  -0.4375-0.4375 0.1875  plane waves:     632
 k-point 49 :  -0.3125-0.4375 0.1875  plane waves:     632
 k-point 50 :  -0.3125-0.3125 0.1875  plane waves:     627
 k-point 51 :   0.3125 0.3125 0.3125  plane waves:     613
 k-point 52 :   0.4375 0.3125 0.3125  plane waves:     622
 k-point 53 :  -0.4375 0.3125 0.3125  plane waves:     623
 k-point 54 :  -0.3125 0.3125 0.3125  plane waves:     632
 k-point 55 :   0.4375 0.4375 0.3125  plane waves:     620
 k-point 56 :  -0.4375 0.4375 0.3125  plane waves:     628
 k-point 57 :  -0.3125 0.4375 0.3125  plane waves:     633
 k-point 58 :  -0.4375-0.4375 0.3125  plane waves:     632
 k-point 59 :   0.4375 0.4375 0.4375  plane waves:     619
 k-point 60 :  -0.4375 0.4375 0.4375  plane waves:     621

 maximum and minimum number of plane-waves per node :       634      612

 maximum number of plane-waves:       634
 maximum index in each direction: 
   IXMAX=    6   IYMAX=    6   IZMAX=    5
   IXMIN=   -6   IYMIN=   -6   IZMIN=   -6


 serial   3D FFT for wavefunctions
 parallel 3D FFT for charge:
    minimum data exchange during FFTs selected (reduces bandwidth)


 total amount of memory used by VASP MPI-rank0    33921. kBytes
=======================================================================

   base      :      30000. kBytes
   nonl-proj :       2478. kBytes
   fftplans  :        247. kBytes
   grid      :        561. kBytes
   one-center:          6. kBytes
   wavefun   :        629. kBytes
 
     INWAV:  cpu time    0.0000: real time    0.0010
 Broyden mixing: mesh for mixing (old mesh)
   NGX = 11   NGY = 11   NGZ = 11
  (NGX  = 36   NGY  = 36   NGZ  = 36)
  gives a total of   1331 points

 initial charge density was supplied:
 charge density of overlapping atoms calculated
 number of electron       8.0000000 magnetization 
 keeping initial charge density in first step


--------------------------------------------------------------------------------------------------------


 Maximum index for augmentation-charges          650 (set IRDMAX)


--------------------------------------------------------------------------------------------------------


 First call to EWALD:  gamma=   0.510
 Maximum number of real-space cells 3x 3x 3
 Maximum number of reciprocal cells 3x 3x 3

    FEWALD:  cpu time    0.0080: real time    0.0074


--------------------------------------- Iteration      1(   1)  ---------------------------------------


    POTLOK:  cpu time    0.0360: real time    0.0400
    SETDIJ:  cpu time    0.0080: real time    0.0093
     EDDAV:  cpu time    0.7240: real time    0.7312
       DOS:  cpu time    0.0040: real time    0.0038
    --------------------------------------------
      LOOP:  cpu time    0.7720: real time    0.7850

 eigenvalue-minimisations  :   960
 total energy-change (2. order) : 0.4797741E+01  (-0.2759371E+03)
 number of electron       8.0000000 magnetization 
 augmentation part        8.0000000 magnetization 

 Free energy of the ion-electron system (eV)
  ---------------------------------------------------
  alpha Z        PSCENC =         3.20488232
  Ewald energy   TEWEN  =      -224.89830384
  -Hartree energ DENC   =       -11.74096724
  -exchange      EXHF   =         0.00000000
  -V(xc)+E(xc)   XCENC  =       -18.78975828
  PAW double counting   =        65.95520812      -30.76852678
  entropy T*S    EENTRO =        -0.01168812
  eigenvalues    EBANDS =        15.71564089
  atomic energy  EATOM  =       206.13125414
  Solvation  Ediel_sol  =         0.00000000
  ---------------------------------------------------
  free energy    TOTEN  =         4.79774122 eV

  energy without entropy =        4.80942933  energy(sigma->0) =        4.80358528


--------------------------------------------------------------------------------------------------------




--------------------------------------- Iteration      1(   2)  ---------------------------------------


     EDDAV:  cpu time    1.1160: real time    1.1213
       DOS:  cpu time    0.0000: real time    0.0029
    --------------------------------------------
      LOOP:  cpu time    1.1160: real time    1.1245

 eigenvalue-minimisations  :  1520
 total energy-change (2. order) :-0.1559433E+02  (-0.1497561E+02)
 number of electron       8.0000000 magnetization 
 augmentation part        8.0000000 magnetization 

 Free energy of the ion-electron system (eV)
  ---------------------------------------------------
  alpha Z        PSCENC =         3.20488232
  Ewald energy   TEWEN  =      -224.89830384
  -Hartree energ DENC   =       -11.74096724
  -exchange      EXHF   =         0.00000000
  -V(xc)+E(xc)   XCENC  =       -18.78975828
  PAW double counting   =        65.95520812      -30.76852678
  entropy T*S    EENTRO =        -0.00000087
  eigenvalues    EBANDS =         0.10962084
  atomic energy  EATOM  =       206.13125414
  Solvation  Ediel_sol  =         0.00000000
  ---------------------------------------------------
  free energy    TOTEN  =       -10.79659159 eV

  energy without entropy =      -10.79659072  energy(sigma->0) =      -10.79659115


--------------------------------------------------------------------------------------------------------




--------------------------------------- Iteration      1(   3)  ---------------------------------------


     EDDAV:  cpu time    0.8200: real time    0.8250
       DOS:  cpu time    0.0000: real time    0.0032
    --------------------------------------------
      LOOP:  cpu time    0.8200: real time    0.8282

 eigenvalue-minimisations  :  1096
 total energy-change (2. order) :-0.1952217E+00  (-0.1952217E+00)
 number of electron       8.0000000 magnetization 
 augmentation part        8.0000000 magnetization 

 Free energy of the ion-electron system (eV)
  ---------------------------------------------------
  alpha Z        PSCENC =         3.20488232
  Ewald energy   TEWEN  =      -224.89830384
  -Hartree energ DENC   =       -11.74096724
  -exchange      EXHF   =         0.00000000
  -V(xc)+E(xc)   XCENC  =       -18.78975828
  PAW double counting   =        65.95520812      -30.76852678
  entropy T*S    EENTRO =        -0.00000064
  eigenvalues    EBANDS =        -0.08560111
  atomic energy  EATOM  =       206.13125414
  Solvation  Ediel_sol  =         0.00000000
  ---------------------------------------------------
  free energy    TOTEN  =       -10.99181331 eV

  energy without entropy =      -10.99181267  energy(sigma->0) =      -10.99181299


--------------------------------------------------------------------------------------------------------




--------------------------------------- Iteration      1(   4)  ---------------------------------------


     EDDAV:  cpu time    1.2200: real time    1.2246
       DOS:  cpu time    0.0040: real time    0.0030
    --------------------------------------------
      LOOP:  cpu time    1.2240: real time    1.2272

 eigenvalue-minimisations  :  1656
 total energy-change (2. order) :-0.1090148E-02  (-0.1090148E-02)
 number of electron       8.0000000 magnetization 
 augmentation part        8.0000000 magnetization 

 Free energy of the ion-electron system (eV)
  ---------------------------------------------------
  alpha Z        PSCENC =         3.20488232
  Ewald energy   TEWEN  =      -224.89830384
  -Hartree energ DENC   =       -11.74096724
  -exchange      EXHF   =         0.00000000
  -V(xc)+E(xc)   XCENC  =       -18.78975828
  PAW double counting   =        65.95520812      -30.76852678
  entropy T*S    EENTRO =        -0.00000063
  eigenvalues    EBANDS =        -0.08669126
  atomic energy  EATOM  =       206.13125414
  Solvation  Ediel_sol  =         0.00000000
  ---------------------------------------------------
  free energy    TOTEN  =       -10.99290346 eV

  energy without entropy =      -10.99290282  energy(sigma->0) =      -10.99290314


--------------------------------------------------------------------------------------------------------




--------------------------------------- Iteration      1(   5)  ---------------------------------------


     EDDAV:  cpu time    0.8880: real time    0.8926
       DOS:  cpu time    0.0040: real time    0.0031
    CHARGE:  cpu time    0.0600: real time    0.0616
    MIXING:  cpu time    0.0040: real time    0.0022
    --------------------------------------------
      LOOP:  cpu time    0.9560: real time    0.9606

 eigenvalue-minimisations  :  1192
 total energy-change (2. order) :-0.4004349E-06  (-0.4004495E-06)
 number of electron       7.9999992 magnetization 
 augmentation part       -0.4684375 magnetization 

 Broyden mixing:
  rms(total) = 0.28898E+00    rms(broyden)= 0.28897E+00
  rms(prec ) = 0.82709E+00
  weight for this iteration     100.00

 Free energy of the ion-electron system (eV)
  ---------------------------------------------------
  alpha Z        PSCENC =         3.20488232
  Ewald energy   TEWEN  =      -224.89830384
  -Hartree energ DENC   =       -11.74096724
  -exchange      EXHF   =         0.00000000
  -V(xc)+E(xc)   XCENC  =       -18.78975828
  PAW double counting   =        65.95520812      -30.76852678
  entropy T*S    EENTRO =        -0.00000063
  eigenvalues    EBANDS =        -0.08669166
  atomic energy  EATOM  =       206.13125414
  Solvation  Ediel_sol  =         0.00000000
  ---------------------------------------------------
  free energy    TOTEN  =       -10.99290386 eV

  energy without entropy =      -10.99290322  energy(sigma->0) =      -10.99290354


--------------------------------------------------------------------------------------------------------




--------------------------------------- Iteration      1(   6)  ---------------------------------------


    POTLOK:  cpu time    0.0240: real time    0.0328
    SETDIJ:  cpu time    0.0080: real time    0.0087
     EDDAV:  cpu time    0.8680: real time    0.8692
       DOS:  cpu time    0.0040: real time    0.0032
    CHARGE:  cpu time    0.0600: real time    0.0604
    MIXING:  cpu time    0.0040: real time    0.0024
    --------------------------------------------
      LOOP:  cpu time    0.9680: real time    0.9761

 eigenvalue-minimisations  :  1176
 total energy-change (2. order) : 0.1050127E+00  (-0.6706239E-02)
 number of electron       7.9999992 magnetization 
 augmentation part       -0.4632539 magnetization 

 Broyden mixing:
  rms(total) = 0.17242E+00    rms(broyden)= 0.17242E+00
  rms(prec ) = 0.49099E+00
  weight for this iteration     100.00

 eigenvalues of (default mixing * dielectric matrix)
  average eigenvalue GAMMA=   2.4592
  2.4592

 Free energy of the ion-electron system (eV)
  ---------------------------------------------------
  alpha Z        PSCENC =         3.20488232
  Ewald energy   TEWEN  =      -224.89830384
  -Hartree energ DENC   =       -13.15866327
  -exchange      EXHF   =         0.00000000
  -V(xc)+E(xc)   XCENC  =       -18.56663512
  PAW double counting   =        69.32669875      -34.23264696
  entropy T*S    EENTRO =        -0.00000366
  eigenvalues    EBANDS =         1.30552648
  atomic energy  EATOM  =       206.13125414
  Solvation  Ediel_sol  =         0.00000000
  ---------------------------------------------------
  free energy    TOTEN  =       -10.88789116 eV

  energy without entropy =      -10.88788750  energy(sigma->0) =      -10.88788933


--------------------------------------------------------------------------------------------------------




--------------------------------------- Iteration      1(   7)  ---------------------------------------


    POTLOK:  cpu time    0.0240: real time    0.0382
    SETDIJ:  cpu time    0.0080: real time    0.0085
     EDDAV:  cpu time    0.8880: real time    0.8854
       DOS:  cpu time    0.0000: real time    0.0037
    CHARGE:  cpu time    0.0600: real time    0.0597
    MIXING:  cpu time    0.0040: real time    0.0019
    --------------------------------------------
      LOOP:  cpu time    0.9840: real time    0.9969

 eigenvalue-minimisations  :  1208
 total energy-change (2. order) : 0.4967975E-01  (-0.1293464E-01)
 number of electron       7.9999992 magnetization 
 augmentation part       -0.4570220 magnetization 

 Broyden mixing:
  rms(total) = 0.14354E-01    rms(broyden)= 0.14354E-01
  rms(prec ) = 0.37157E-01
  weight for this iteration     100.00

 eigenvalues of (default mixing * dielectric matrix)
  average eigenvalue GAMMA=   2.4719
  2.4719  2.4719

 Free energy of the ion-electron system (eV)
  ---------------------------------------------------
  alpha Z        PSCENC =         3.20488232
  Ewald energy   TEWEN  =      -224.89830384
  -Hartree energ DENC   =       -15.48312089
  -exchange      EXHF   =         0.00000000
  -V(xc)+E(xc)   XCENC  =       -18.19343253
  PAW double counting   =        73.74348845      -38.76713429
  entropy T*S    EENTRO =        -0.00002718
  eigenvalues    EBANDS =         3.42418240
  atomic energy  EATOM  =       206.13125414
  Solvation  Ediel_sol  =         0.00000000
  ---------------------------------------------------
  free energy    TOTEN  =       -10.83821141 eV

  energy without entropy =      -10.83818423  energy(sigma->0) =      -10.83819782


--------------------------------------------------------------------------------------------------------




--------------------------------------- Iteration      1(   8)  ---------------------------------------


    POTLOK:  cpu time    0.0280: real time    0.0371
    SETDIJ:  cpu time    0.0080: real time    0.0084
     EDDAV:  cpu time    0.8360: real time    0.8418
       DOS:  cpu time    0.0040: real time    0.0033
    CHARGE:  cpu time    0.0600: real time    0.0596
    MIXING:  cpu time    0.0000: real time    0.0019
    --------------------------------------------
      LOOP:  cpu time    0.9400: real time    0.9522

 eigenvalue-minimisations  :  1136
 total energy-change (2. order) :-0.1330035E-02  (-0.3794564E-03)
 number of electron       7.9999992 magnetization 
 augmentation part       -0.4579577 magnetization 

 Broyden mixing:
  rms(total) = 0.25095E-02    rms(broyden)= 0.25086E-02
  rms(prec ) = 0.82655E-02
  weight for this iteration     100.00

 eigenvalues of (default mixing * dielectric matrix)
  average eigenvalue GAMMA=   2.1261
  1.3265  2.8092  2.2426

 Free energy of the ion-electron system (eV)
  ---------------------------------------------------
  alpha Z        PSCENC =         3.20488232
  Ewald energy   TEWEN  =      -224.89830384
  -Hartree energ DENC   =       -15.44815705
  -exchange      EXHF   =         0.00000000
  -V(xc)+E(xc)   XCENC  =       -18.18793377
  PAW double counting   =        72.87594879      -37.87255209
  entropy T*S    EENTRO =        -0.00002107
  eigenvalues    EBANDS =         3.35534112
  atomic energy  EATOM  =       206.13125414
  Solvation  Ediel_sol  =         0.00000000
  ---------------------------------------------------
  free energy    TOTEN  =       -10.83954145 eV

  energy without entropy =      -10.83952037  energy(sigma->0) =      -10.83953091


--------------------------------------------------------------------------------------------------------




--------------------------------------- Iteration      1(   9)  ---------------------------------------


    POTLOK:  cpu time    0.0280: real time    0.0340
    SETDIJ:  cpu time    0.0080: real time    0.0089
     EDDAV:  cpu time    0.6280: real time    0.6281
       DOS:  cpu time    0.0040: real time    0.0033
    --------------------------------------------
      LOOP:  cpu time    0.6640: real time    0.6751

 eigenvalue-minimisations  :   776
 total energy-change (2. order) :-0.1045229E-03  (-0.1058840E-04)
 number of electron       7.9999992 magnetization 
 augmentation part       -0.4579577 magnetization 

 Free energy of the ion-electron system (eV)
  ---------------------------------------------------
  alpha Z        PSCENC =         3.20488232
  Ewald energy   TEWEN  =      -224.89830384
  -Hartree energ DENC   =       -15.48703315
  -exchange      EXHF   =         0.00000000
  -V(xc)+E(xc)   XCENC  =       -18.18158164
  PAW double counting   =        72.85195034      -37.84818982
  entropy T*S    EENTRO =        -0.00002080
  eigenvalues    EBANDS =         3.38739649
  atomic energy  EATOM  =       206.13125414
  Solvation  Ediel_sol  =         0.00000000
  ---------------------------------------------------
  free energy    TOTEN  =       -10.83964597 eV

  energy without entropy =      -10.83962517  energy(sigma->0) =      -10.83963557


--------------------------------------------------------------------------------------------------------




 average (electrostatic) potential at core
  the test charge radii are     0.9892
  (the norm of the test charge is              1.0000)
       1 -83.7856       2 -83.7856
 
 
 
 E-fermi :   5.6960     XC(G=0):  -9.2249     alpha+bet :-11.4172


 k-point     1 :       0.0625    0.0625    0.0625
  band No.  band energies     occupation 
      1      -6.2362      2.00000
      2       4.8137      2.00000
      3       5.2689      1.99747
      4       5.2689      1.99747
      5       7.8889      0.00000
      6       8.0129      0.00000
      7       8.0129      0.00000
      8       8.6329      0.00000

 k-point     2 :       0.1875    0.0625    0.0625
  band No.  band energies     occupation 
      1      -5.9762      2.00000
      2       3.3234      2.00000
      3       4.4904      2.00000
      4       5.1521      1.99988
      5       7.9084      0.00000
      6       8.2523      0.00000
      7       8.5187      0.00000
      8      10.1513      0.00000

 k-point     3 :       0.3125    0.0625    0.0625
  band No.  band energies     occupation 
      1      -5.3495      2.00000
      2       1.1560      2.00000
      3       4.0111      2.00000
      4       4.7032      2.00000
      5       7.4557      0.00000
      6       8.7435      0.00000
      7       9.0202      0.00000
      8      11.7542      0.00000

 k-point     4 :       0.4375    0.0625    0.0625
  band No.  band energies     occupation 
      1      -4.4795      2.00000
      2      -0.6730      2.00000
      3       3.7963      2.00000
      4       4.3080      2.00000
      5       7.1427      0.00000
      6       8.8243      0.00000
      7       8.8380      0.00000
      8      13.0487      0.00000

 k-point     5 :      -0.4375    0.0625    0.0625
  band No.  band energies     occupation 
      1      -4.0521      2.00000
      2      -1.3462      2.00000
      3       3.8414      2.00000
      4       4.0974      2.00000
      5       7.0642      0.00000
      6       8.6405      0.00000
      7       8.9031      0.00000
      8      13.1470      0.00000

 k-point     6 :      -0.3125    0.0625    0.0625
  band No.  band energies     occupation 
      1      -4.7766      2.00000
      2      -0.1335      2.00000
      3       4.1193      2.00000
      4       4.1202      2.00000
      5       7.2323      0.00000
      6       8.6359      0.00000
      7       9.1441      0.00000
      8      12.1865      0.00000

 k-point     7 :      -0.1875    0.0625    0.0625
  band No.  band energies     occupation 
      1      -5.5950      2.00000
      2       1.8661      2.00000
      3       4.3908      2.00000
      4       4.5720      2.00000
      5       7.5962      0.00000
      6       8.4675      0.00000
      7       9.1772      0.00000
      8      10.9823      0.00000

 k-point     8 :      -0.0625    0.0625    0.0625
  band No.  band energies     occupation 
      1      -6.1055      2.00000
      2       4.0619      2.00000
      3       4.8590      2.00000
      4       5.0045      2.00000
      5       7.7313      0.00000
      6       8.2318      0.00000
      7       8.5725      0.00000
      8       9.4030      0.00000

 k-point     9 :       0.1875    0.1875    0.0625
  band No.  band energies     occupation 
      1      -5.8453      2.00000
      2       3.1675      2.00000
      3       4.3201      2.00000
      4       4.3913      2.00000
      5       7.3253      0.00000
      6       8.9574      0.00000
      7       9.4059      0.00000
      8       9.8700      0.00000

 k-point    10 :       0.3125    0.1875    0.0625
  band No.  band energies     occupation 
      1      -5.3368      2.00000
      2       1.6989      2.00000
      3       3.3785      2.00000
      4       4.1416      2.00000
      5       7.4881      0.00000
      6       9.0617      0.00000
      7       9.7966      0.00000
      8      10.1852      0.00000

 k-point    11 :       0.4375    0.1875    0.0625
  band No.  band energies     occupation 
      1      -4.5201      2.00000
      2      -0.0974      2.00000
      3       2.8854      2.00000
      4       3.7478      2.00000
      5       7.6668      0.00000
      6       9.0450      0.00000
      7      10.2129      0.00000
      8      10.5150      0.00000

 k-point    12 :      -0.4375    0.1875    0.0625
  band No.  band energies     occupation 
      1      -3.7909      2.00000
      2      -1.2600      2.00000
      3       2.6011      2.00000
      4       3.6590      2.00000
      5       7.7198      0.00000
      6       8.7771      0.00000
      7      10.0760      0.00000
      8      12.4681      0.00000

 k-point    13 :      -0.3125    0.1875    0.0625
  band No.  band energies     occupation 
      1      -4.2282      2.00000
      2      -0.5979      2.00000
      3       2.5354      2.00000
      4       3.9326      2.00000
      5       7.9705      0.00000
      6       8.7106      0.00000
      7      10.0167      0.00000
      8      11.7421      0.00000

 k-point    14 :      -0.1875    0.1875    0.0625
  band No.  band energies     occupation 
      1      -5.0970      2.00000
      2       1.0698      2.00000
      3       2.8407      2.00000
      4       4.4216      2.00000
      5       8.2836      0.00000
      6       8.6047      0.00000
      7       9.8898      0.00000
      8      10.3839      0.00000

 k-point    15 :      -0.0625    0.1875    0.0625
  band No.  band energies     occupation 
      1      -5.7190      2.00000
      2       2.5169      2.00000
      3       3.9315      2.00000
      4       4.7816      2.00000
      5       7.8624      0.00000
      6       8.4528      0.00000
      7       9.2246      0.00000
      8      10.4066      0.00000

 k-point    16 :       0.3125    0.3125    0.0625
  band No.  band energies     occupation 
      1      -4.9480      2.00000
      2       1.1868      2.00000
      3       3.2419      2.00000
      4       3.3597      2.00000
      5       6.5408      0.00000
      6       8.1769      0.00000
      7      11.2067      0.00000
      8      11.3606      0.00000

 k-point    17 :       0.4375    0.3125    0.0625
  band No.  band energies     occupation 
      1      -4.2200      2.00000
      2      -0.0175      2.00000
      3       2.4826      2.00000
      4       3.0254      2.00000
      5       6.8495      0.00000
      6       8.0190      0.00000
      7      11.1721      0.00000
      8      12.3262      0.00000

 k-point    18 :      -0.4375    0.3125    0.0625
  band No.  band energies     occupation 
      1      -3.3556      2.00000
      2      -1.1720      2.00000
      3       1.6702      2.00000
      4       2.9944      2.00000
      5       7.0831      0.00000
      6       9.6381      0.00000
      7      10.7569      0.00000
      8      12.2391      0.00000

 k-point    19 :      -0.3125    0.3125    0.0625
  band No.  band energies     occupation 
      1      -3.4264      2.00000
      2      -1.0797      2.00000
      3       1.3325      2.00000
      4       3.3263      2.00000
      5       7.4689      0.00000
      6      10.3353      0.00000
      7      11.5853      0.00000
      8      11.9358      0.00000

 k-point    20 :      -0.1875    0.3125    0.0625
  band No.  band energies     occupation 
      1      -4.2902      2.00000
      2      -0.1465      2.00000
      3       1.9114      2.00000
      4       3.8905      2.00000
      5       8.0612      0.00000
      6       9.2555      0.00000
      7      10.6320      0.00000
      8      10.9358      0.00000

 k-point    21 :      -0.0625    0.3125    0.0625
  band No.  band energies     occupation 
      1      -4.9879      2.00000
      2       0.4968      2.00000
      3       3.4808      2.00000
      4       4.3246      2.00000
      5       7.7326      0.00000
      6       8.6423      0.00000
      7       9.4834      0.00000
      8      11.1429      0.00000

 k-point    22 :       0.4375    0.4375    0.0625
  band No.  band energies     occupation 
      1      -3.5855      2.00000
      2      -0.8592      2.00000
      3       2.5762      2.00000
      4       2.7833      2.00000
      5       6.1650      0.00091
      6       6.8704      0.00000
      7      13.4442      0.00000
      8      13.4711      0.00000

 k-point    23 :      -0.4375    0.4375    0.0625
  band No.  band energies     occupation 
      1      -2.7052      2.00000
      2      -1.8209      2.00000
      3       2.0421      2.00000
      4       2.5506      2.00000
      5       6.5892      0.00000
      6       7.2982      0.00000
      7      13.2122      0.00000
      8      14.1753      0.00000

 k-point    24 :      -0.3125    0.4375    0.0625
  band No.  band energies     occupation 
      1      -2.8069      2.00000
      2      -1.6548      2.00000
      3       1.3421      2.00000
      4       2.8552      2.00000
      5       6.9417      0.00000
      6       9.4821      0.00000
      7      11.7252      0.00000
      8      12.8290      0.00000

 k-point    25 :      -0.1875    0.4375    0.0625
  band No.  band energies     occupation 
      1      -3.5422      2.00000
      2      -1.2300      2.00000
      3       1.8553      2.00000
      4       3.4359      2.00000
      5       7.5801      0.00000
      6       9.4966      0.00000
      7      10.9971      0.00000
      8      12.2252      0.00000

 k-point    26 :      -0.0625    0.4375    0.0625
  band No.  band energies     occupation 
      1      -4.1305      2.00000
      2      -1.0649      2.00000
      3       3.3047      2.00000
      4       4.0014      2.00000
      5       7.5241      0.00000
      6       8.5749      0.00000
      7       9.3194      0.00000
      8      12.7892      0.00000

 k-point    27 :      -0.4375   -0.4375    0.0625
  band No.  band energies     occupation 
      1      -2.7531      2.00000
      2      -1.8366      2.00000
      3       2.4427      2.00000
      4       2.6654      2.00000
      5       6.1671      0.00087
      6       6.5189      0.00000
      7      14.4950      0.00000
      8      14.5490      0.00000

 k-point    28 :      -0.3125   -0.4375    0.0625
  band No.  band energies     occupation 
      1      -3.5038      2.00000
      2      -0.9218      2.00000
      3       2.1929      2.00000
      4       2.7057      2.00000
      5       6.6704      0.00000
      6       7.5469      0.00000
      7      12.1662      0.00000
      8      13.4529      0.00000

 k-point    29 :      -0.1875   -0.4375    0.0625
  band No.  band energies     occupation 
      1      -3.9640      2.00000
      2      -0.6431      2.00000
      3       2.2382      2.00000
      4       3.2848      2.00000
      5       7.3477      0.00000
      6       9.8173      0.00000
      7       9.9875      0.00000
      8      11.2075      0.00000

 k-point    30 :      -0.3125   -0.3125    0.0625
  band No.  band energies     occupation 
      1      -4.3210      2.00000
      2       0.1576      2.00000
      3       2.8430      2.00000
      4       3.0165      2.00000
      5       6.2881      0.00003
      6       7.4359      0.00000
      7      12.3088      0.00000
      8      12.4022      0.00000

 k-point    31 :      -0.1875   -0.3125    0.0625
  band No.  band energies     occupation 
      1      -4.8347      2.00000
      2       0.8589      2.00000
      3       2.8867      2.00000
      4       3.5157      2.00000
      5       7.1288      0.00000
      6       8.6701      0.00000
      7      10.2516      0.00000
      8      11.2260      0.00000

 k-point    32 :      -0.1875   -0.1875    0.0625
  band No.  band energies     occupation 
      1      -5.4581      2.00000
      2       2.1996      2.00000
      3       3.7669      2.00000
      4       3.8019      2.00000
      5       6.9007      0.00000
      6       8.9816      0.00000
      7      10.1980      0.00000
      8      10.3552      0.00000

 k-point    33 :       0.1875    0.1875    0.1875
  band No.  band energies     occupation 
      1      -5.8485      2.00000
      2       2.6215      2.00000
      3       4.8413      2.00000
      4       4.8413      2.00000
      5       7.4567      0.00000
      6       8.6145      0.00000
      7       8.6145      0.00000
      8      10.7785      0.00000

 k-point    34 :       0.3125    0.1875    0.1875
  band No.  band energies     occupation 
      1      -5.4682      2.00000
      2       1.7863      2.00000
      3       3.3768      2.00000
      4       4.8550      2.00000
      5       8.1093      0.00000
      6       8.7371      0.00000
      7       9.0129      0.00000
      8      10.9311      0.00000

 k-point    35 :       0.4375    0.1875    0.1875
  band No.  band energies     occupation 
      1      -4.7446      2.00000
      2       0.4441      2.00000
      3       2.3291      2.00000
      4       4.3665      2.00000
      5       8.0003      0.00000
      6       9.4775      0.00000
      7       9.6635      0.00000
      8      11.2165      0.00000

 k-point    36 :      -0.4375    0.1875    0.1875
  band No.  band energies     occupation 
      1      -3.8834      2.00000
      2      -0.9907      2.00000
      3       2.1700      2.00000
      4       3.8529      2.00000
      5       7.5356      0.00000
      6       9.6252      0.00000
      7       9.8761      0.00000
      8      13.0492      0.00000

 k-point    37 :      -0.3125    0.1875    0.1875
  band No.  band energies     occupation 
      1      -3.8680      2.00000
      2      -1.0184      2.00000
      3       2.4568      2.00000
      4       3.5461      2.00000
      5       7.2774      0.00000
      6       9.6854      0.00000
      7      10.2147      0.00000
      8      11.1635      0.00000

 k-point    38 :      -0.1875    0.1875    0.1875
  band No.  band energies     occupation 
      1      -4.7276      2.00000
      2       0.4409      2.00000
      3       3.0534      2.00000
      4       3.5248      2.00000
      5       7.2146      0.00000
      6       9.3442      0.00000
      7       9.9740      0.00000
      8      10.5650      0.00000

 k-point    39 :       0.3125    0.3125    0.1875
  band No.  band energies     occupation 
      1      -5.2192      2.00000
      2       1.1411      2.00000
      3       3.8515      2.00000
      4       3.9308      2.00000
      5       7.5797      0.00000
      6       8.8786      0.00000
      7       9.8357      0.00000
      8      10.2302      0.00000

 k-point    40 :       0.4375    0.3125    0.1875
  band No.  band energies     occupation 
      1      -4.6122      2.00000
      2       0.3720      2.00000
      3       2.3844      2.00000
      4       3.7395      2.00000
      5       8.0742      0.00000
      6       9.0596      0.00000
      7       9.5995      0.00000
      8      11.0539      0.00000

 k-point    41 :      -0.4375    0.3125    0.1875
  band No.  band energies     occupation 
      1      -3.7512      2.00000
      2      -0.7061      2.00000
      3       1.6229      2.00000
      4       3.1938      2.00000
      5       8.5181      0.00000
      6       8.9957      0.00000
      7      10.2444      0.00000
      8      12.1256      0.00000

 k-point    42 :      -0.3125    0.3125    0.1875
  band No.  band energies     occupation 
      1      -3.2830      2.00000
      2      -1.2955      2.00000
      3       1.6211      2.00000
      4       2.8933      2.00000
      5       8.0655      0.00000
      6       9.3160      0.00000
      7      11.0102      0.00000
      8      12.2442      0.00000

 k-point    43 :      -0.1875    0.3125    0.1875
  band No.  band energies     occupation 
      1      -4.0248      2.00000
      2      -0.3291      2.00000
      3       2.0342      2.00000
      4       3.0653      2.00000
      5       7.8013      0.00000
      6       9.0020      0.00000
      7       9.8134      0.00000
      8      12.2436      0.00000

 k-point    44 :       0.4375    0.4375    0.1875
  band No.  band energies     occupation 
      1      -4.1305      2.00000
      2      -0.2687      2.00000
      3       2.3537      2.00000
      4       3.2037      2.00000
      5       6.8512      0.00000
      6       8.8374      0.00000
      7      11.0015      0.00000
      8      11.3706      0.00000

 k-point    45 :      -0.4375    0.4375    0.1875
  band No.  band energies     occupation 
      1      -3.3523      2.00000
      2      -1.0573      2.00000
      3       1.8022      2.00000
      4       2.5483      2.00000
      5       7.6060      0.00000
      6       8.6024      0.00000
      7      10.6898      0.00000
      8      13.4166      0.00000

 k-point    46 :      -0.3125    0.4375    0.1875
  band No.  band energies     occupation 
      1      -2.5727      2.00000
      2      -1.7944      2.00000
      3       1.4993      2.00000
      4       2.0660      2.00000
      5       8.7056      0.00000
      6       9.6268      0.00000
      7      10.2431      0.00000
      8      11.2384      0.00000

 k-point    47 :      -0.1875    0.4375    0.1875
  band No.  band energies     occupation 
      1      -3.1566      2.00000
      2      -1.2560      2.00000
      3       1.4876      2.00000
      4       2.5247      2.00000
      5       8.8016      0.00000
      6       9.2100      0.00000
      7       9.9416      0.00000
      8      12.3776      0.00000

 k-point    48 :      -0.4375   -0.4375    0.1875
  band No.  band energies     occupation 
      1      -2.7286      2.00000
      2      -1.7699      2.00000
      3       1.5994      2.00000
      4       2.8711      2.00000
      5       6.4357      0.00000
      6       8.2886      0.00000
      7      13.1390      0.00000
      8      13.3040      0.00000

 k-point    49 :      -0.3125   -0.4375    0.1875
  band No.  band energies     occupation 
      1      -2.6310      2.00000
      2      -1.8029      2.00000
      3       1.6900      2.00000
      4       2.2706      2.00000
      5       7.5061      0.00000
      6       8.4012      0.00000
      7      11.6732      0.00000
      8      12.7601      0.00000

 k-point    50 :      -0.3125   -0.3125    0.1875
  band No.  band energies     occupation 
      1      -3.4463      2.00000
      2      -1.0173      2.00000
      3       1.8535      2.00000
      4       2.9831      2.00000
      5       6.5793      0.00000
      6       8.4705      0.00000
      7      12.1368      0.00000
      8      12.2540      0.00000

 k-point    51 :       0.3125    0.3125    0.3125
  band No.  band energies     occupation 
      1      -5.1160      2.00000
      2       0.4740      2.00000
      3       4.4379      2.00000
      4       4.4379      2.00000
      5       7.0037      0.00000
      6       8.8597      0.00000
      7       8.8597      0.00000
      8      12.8133      0.00000

 k-point    52 :       0.4375    0.3125    0.3125
  band No.  band energies     occupation 
      1      -4.6518      2.00000
      2      -0.0954      2.00000
      3       3.0104      2.00000
      4       4.3517      2.00000
      5       7.7360      0.00000
      6       9.0733      0.00000
      7       9.1256      0.00000
      8      12.2228      0.00000

 k-point    53 :      -0.4375    0.3125    0.3125
  band No.  band energies     occupation 
      1      -3.8855      2.00000
      2      -0.6372      2.00000
      3       1.5448      2.00000
      4       3.7913      2.00000
      5       7.4728      0.00000
      6      10.4767      0.00000
      7      10.6246      0.00000
      8      11.9647      0.00000

 k-point    54 :      -0.3125    0.3125    0.3125
  band No.  band energies     occupation 
      1      -3.0931      2.00000
      2      -1.4047      2.00000
      3       1.2241      2.00000
      4       3.2624      2.00000
      5       6.8856      0.00000
      6      10.7012      0.00000
      7      11.7171      0.00000
      8      11.9301      0.00000

 k-point    55 :       0.4375    0.4375    0.3125
  band No.  band energies     occupation 
      1      -4.3490      2.00000
      2      -0.6354      2.00000
      3       3.3291      2.00000
      4       3.8086      2.00000
      5       7.4858      0.00000
      6       8.8309      0.00000
      7       9.6009      0.00000
      8      11.5901      0.00000

 k-point    56 :      -0.4375    0.4375    0.3125
  band No.  band energies     occupation 
      1      -3.7501      2.00000
      2      -0.9988      2.00000
      3       2.0678      2.00000
      4       3.3526      2.00000
      5       8.2586      0.00000
      6       8.6266      0.00000
      7      11.0706      0.00000
      8      11.3500      0.00000

 k-point    57 :      -0.3125    0.4375    0.3125
  band No.  band energies     occupation 
      1      -2.9584      2.00000
      2      -1.4733      2.00000
      3       1.3134      2.00000
      4       2.6648      2.00000
      5       7.9428      0.00000
      6      10.1455      0.00000
      7      10.8977      0.00000
      8      11.4036      0.00000

 k-point    58 :      -0.4375   -0.4375    0.3125
  band No.  band energies     occupation 
      1      -3.4044      2.00000
      2      -1.2759      2.00000
      3       1.6947      2.00000
      4       3.3591      2.00000
      5       7.0272      0.00000
      6      10.6585      0.00000
      7      10.9571      0.00000
      8      10.9801      0.00000

 k-point    59 :       0.4375    0.4375    0.4375
  band No.  band energies     occupation 
      1      -4.2601      2.00000
      2      -1.1190      2.00000
      3       4.2214      2.00000
      4       4.2214      2.00000
      5       6.7518      0.00000
      6       8.7380      0.00000
      7       8.7380      0.00000
      8      13.0498      0.00000

 k-point    60 :      -0.4375    0.4375    0.4375
  band No.  band energies     occupation 
      1      -3.9223      2.00000
      2      -1.2935      2.00000
      3       3.0237      2.00000
      4       3.9635      2.00000
      5       7.4992      0.00000
      6       8.8415      0.00000
      7       9.3005      0.00000
      8      13.3823      0.00000


--------------------------------------------------------------------------------------------------------


 soft charge-density along one line, spin component           1
         0         1         2         3         4         5         6         7         8         9
 total charge-density along one line
 
 pseudopotential strength for first ion, spin component:           1
 18.468  -0.000  -0.000  -0.000  -0.000   0.000   0.000   0.000
 -0.000   0.006   0.000   0.000   0.000  -0.000  -0.000  -0.000
 -0.000   0.000   4.184  -0.000  -0.000  -0.004   0.000   0.000
 -0.000   0.000  -0.000   4.184  -0.000   0.000  -0.004   0.000
 -0.000   0.000  -0.000  -0.000   4.184   0.000   0.000  -0.004
  0.000  -0.000  -0.004   0.000   0.000   0.005  -0.000  -0.000
  0.000  -0.000   0.000  -0.004   0.000  -0.000   0.005  -0.000
  0.000  -0.000   0.000   0.000  -0.004  -0.000  -0.000   0.005
 total augmentation occupancy for first ion, spin component:           1
  1.501  -0.723  -0.000   0.000   0.000  -0.000   0.000   0.000
 -0.723   0.700   0.000   0.000   0.000   0.000   0.000   0.000
 -0.000   0.000   0.998   0.000   0.000  -0.534   0.000   0.000
  0.000   0.000   0.000   0.998  -0.000   0.000  -0.534   0.000
  0.000   0.000   0.000  -0.000   0.998  -0.000   0.000  -0.534
  0.000  -0.000  -0.534  -0.000  -0.000   0.337   0.000  -0.000
  0.000   0.000   0.000  -0.534   0.000   0.000   0.337  -0.000
  0.000   0.000   0.000  -0.000  -0.534   0.000  -0.000   0.337


------------------------ aborting loop because EDIFF is reached ----------------------------------------


    CHARGE:  cpu time    0.0600: real time    0.0609
    FORLOC:  cpu time    0.0040: real time    0.0008
    FORNL :  cpu time    0.0200: real time    0.0237
    STRESS:  cpu time    0.2760: real time    0.2758
    FORCOR:  cpu time    0.0240: real time    0.0208
    FORHAR:  cpu time    0.0040: real time    0.0050
    MIXING:  cpu time    0.0000: real time    0.0014
    OFIELD:  cpu time    0.0000: real time    0.0005

  FORCE on cell =-STRESS in cart. coord.  units (eV):
  Direction    XX          YY          ZZ          XY          YZ          ZX
  --------------------------------------------------------------------------------------
  Alpha Z     3.20488     3.20488     3.20488
  Ewald     -74.96614   -74.96614   -74.96614    -0.00000    -0.00000     0.00000
  Hartree     5.16593     5.16593     5.16593     0.00000     0.00000     0.00000
  E(xc)     -25.09175   -25.09175   -25.09175    -0.00000    -0.00000    -0.00000
  Local     -29.92169   -29.92169   -29.92169     0.00004     0.00004     0.00004
  n-local    76.90355    79.44932    74.70604     1.01659    -1.10646     0.04625
  augment   -11.64853   -11.64853   -11.64853    -0.00003    -0.00003    -0.00003
  Kinetic    57.05489    55.35835    54.49159     0.83598    -0.93149     0.04731
  Fock        0.00000     0.00000     0.00000     0.00000     0.00000     0.00000
  -------------------------------------------------------------------------------------
  Total      -0.60272    -0.60272    -0.60272    -0.00000     0.00000     0.00000
  in kB     -22.98380   -22.98380   -22.98380    -0.00000     0.00000     0.00000
  external pressure =      -22.98 kB  Pullay stress =        0.00 kB


 VOLUME and BASIS-vectors are now :
 -----------------------------------------------------------------------------
  energy-cutoff  :      350.00
  volume of cell :       42.01
      direct lattice vectors                 reciprocal lattice vectors
     0.000000000  2.759247000  2.759247000    -0.181208859  0.181208859  0.181208859
     2.759247000  0.000000000  2.759247000     0.181208859 -0.181208859  0.181208859
     2.759247000  2.759247000  0.000000000     0.181208859  0.181208859 -0.181208859

  length of vectors
     3.902164529  3.902164529  3.902164529     0.313862950  0.313862950  0.313862950


 FORCES acting on ions
    electron-ion (+dipol)            ewald-force                    non-local-force                 convergence-correction
 -----------------------------------------------------------------------------------------------
   0.168E-05 0.168E-05 0.173E-05   0.788E-14 -.956E-14 0.327E-14   -.270E-16 -.270E-16 -.273E-16   -.478E-06 -.478E-06 -.478E-06
   -.168E-05 -.168E-05 -.173E-05   -.821E-14 0.103E-13 -.380E-14   0.282E-16 0.282E-16 0.314E-16   0.478E-06 0.478E-06 0.478E-06
 -----------------------------------------------------------------------------------------------
   -.644E-13 -.766E-13 -.682E-13   -.327E-15 0.723E-15 -.538E-15   0.124E-17 0.124E-17 0.406E-17   -.268E-15 0.180E-14 0.173E-15
 
 
 POSITION                                       TOTAL-FORCE (eV/Angst)
 -----------------------------------------------------------------------------------
      2.75925      2.75925      2.75925        -0.000000     -0.000000     -0.000000
      4.13887      4.13887      4.13887         0.000000      0.000000      0.000000
 -----------------------------------------------------------------------------------
    total drift:                               -0.000000     -0.000000     -0.000000


--------------------------------------------------------------------------------------------------------



  FREE ENERGIE OF THE ION-ELECTRON SYSTEM (eV)
  ---------------------------------------------------
  free  energy   TOTEN  =       -10.83964597 eV

  energy  without entropy=      -10.83962517  energy(sigma->0) =      -10.83963557
 


--------------------------------------------------------------------------------------------------------


    POTLOK:  cpu time    0.0400: real time    0.0504


--------------------------------------------------------------------------------------------------------




--------------------------------------------------------------------------------------------------------


  
 reached required accuracy - stopping structural energy minimisation
 writing wavefunctions
     LOOP+:  cpu time    9.9440: real time   10.8416
    4ORBIT:  cpu time    0.0000: real time    0.0000

 total amount of memory used by VASP MPI-rank0    33921. kBytes
=======================================================================

   base      :      30000. kBytes
   nonl-proj :       2478. kBytes
   fftplans  :        247. kBytes
   grid      :        561. kBytes
   one-center:          6. kBytes
   wavefun   :        629. kBytes
 
  
  
 General timing and accounting informations for this job:
 ========================================================
  
                  Total CPU time used (sec):       14.832
                            User time (sec):       13.344
                          System time (sec):        1.488
                         Elapsed time (sec):       18.264
  
                   Maximum memory used (kb):       10188.
                   Average memory used (kb):           0.
  
                          Minor page faults:        38273
                          Major page faults:           30
                 Voluntary context switches:        39851
