unknown system                          
           1
     0.000000    2.759247    2.759247
     2.759247    0.000000    2.759247
     2.759247    2.759247    0.000000
   Si
   2
Direct configuration=     1
   0.50000000  0.50000000  0.50000000
   0.75000000  0.75000000  0.75000000
