unknown system                          
   1.00000000000000     
     0.000000    2.715000    2.715000
     2.715000    0.000000    2.715000
     2.715000    2.715000    0.000000
   Si
     2
Direct
  0.500000  0.500000  0.500000
  0.750000  0.750000  0.750000
 
   28   28   28
 0.88911125755E+00 0.91613202029E+00 0.99946463675E+00 0.11461645235E+01 0.13682286497E+01
 0.16814110689E+01 0.21015299386E+01 0.26381590054E+01 0.32870161595E+01 0.40232264300E+01
 0.47976575197E+01 0.55383216979E+01 0.61586991686E+01 0.65736103095E+01 0.67197386717E+01
 0.65735969765E+01 0.61587085492E+01 0.55383700164E+01 0.47977110526E+01 0.40232394291E+01
 0.32869829777E+01 0.26381143984E+01 0.21015070858E+01 0.16814136378E+01 0.13682401814E+01
 0.11461709587E+01 0.99946385237E+00 0.91612922887E+00 0.91613202029E+00 0.96171225664E+00
 0.10563168082E+01 0.12070580413E+01 0.14244618210E+01 0.17207257872E+01 0.21058773318E+01
 0.25821577855E+01 0.31380132197E+01 0.37436881594E+01 0.43503941689E+01 0.48945740217E+01
 0.53078802368E+01 0.55316109010E+01 0.55316123410E+01 0.53078932879E+01 0.48946036487E+01
 0.43504173891E+01 0.37436762893E+01 0.31379722040E+01 0.25821246919E+01 0.21058768334E+01
 0.17207471667E+01 0.14244807021E+01 0.12070650216E+01 0.10563182784E+01 0.96171424580E+00
 0.91613336387E+00 0.99946463675E+00 0.10563168082E+01 0.11556282574E+01 0.13041699560E+01
 0.15105951971E+01 0.17833740548E+01 0.21272181258E+01 0.25384809699E+01 0.30008459289E+01
 0.34830826218E+01 0.39404597805E+01 0.43206050057E+01 0.45733044256E+01 0.46620100289E+01
 0.45733098778E+01 0.43206118090E+01 0.39404557399E+01 0.34830591988E+01 0.30008163140E+01
 0.25384715446E+01 0.21272372592E+01 0.17834017643E+01 0.15106085324E+01 0.13041672879E+01
 0.11556229285E+01 0.10563170307E+01 0.99946750298E+00 0.98096642606E+00 0.11461645235E+01
 0.12070580413E+01 0.13041699560E+01 0.14436800095E+01 0.16321866673E+01 0.18746502632E+01
 0.21714008551E+01 0.25146994594E+01 0.28860282449E+01 0.32555942496E+01 0.35851458989E+01
 0.38342154750E+01 0.39685917004E+01 0.39685916414E+01 0.38342142180E+01 0.35851408014E+01
 0.32555855709E+01 0.28860241225E+01 0.25147090963E+01 0.21714198345E+01 0.18746614140E+01
 0.16321804650E+01 0.14436657882E+01 0.13041615996E+01 0.12070574539E+01 0.11461656446E+01
 0.11169145064E+01 0.11169142866E+01 0.13682286497E+01 0.14244618210E+01 0.15105951971E+01
 0.16321866673E+01 0.17939514345E+01 0.19979885249E+01 0.22415393673E+01 0.25146979851E+01
 0.27990424432E+01 0.30683190068E+01 0.32918399552E+01 0.34402703591E+01 0.34923411765E+01
 0.34402704000E+01 0.32918446077E+01 0.30683301644E+01 0.27990559518E+01 0.25147070355E+01
 0.22415381612E+01 0.19979754102E+01 0.17939332544E+01 0.16321765631E+01 0.15105995033E+01
 0.14244718857E+01 0.13682323694E+01 0.13368392814E+01 0.13267946351E+01 0.13368416018E+01
 0.16814110689E+01 0.17207257872E+01 0.17833740548E+01 0.18746502632E+01 0.19979885249E+01
 0.21536416593E+01 0.23372334411E+01 0.25384800806E+01 0.27408043627E+01 0.29226556624E+01
 0.30609016417E+01 0.31357564697E+01 0.31357577683E+01 0.30609078885E+01 0.29226669145E+01
 0.27408106469E+01 0.25384696825E+01 0.23372081688E+01 0.21536178105E+01 0.19979820491E+01
 0.18746637734E+01 0.17833969702E+01 0.17207436642E+01 0.16814159723E+01 0.16595559598E+01
 0.16501038119E+01 0.16501071512E+01 0.16595603886E+01 0.21015299386E+01 0.21058773318E+01
 0.21272181258E+01 0.21714008551E+01 0.22415393673E+01 0.23372334411E+01 0.24538710917E+01
 0.25821609990E+01 0.27083972531E+01 0.28160369587E+01 0.28887802404E+01 0.29145258407E+01
 0.28887850942E+01 0.28160387335E+01 0.27083843081E+01 0.25821298116E+01 0.24538366062E+01
 0.23372209811E+01 0.22415603872E+01 0.21714393774E+01 0.21272459935E+01 0.21058813274E+01
 0.21015196148E+01 0.21066409532E+01 0.21136063753E+01 0.21166470083E+01 0.21136092134E+01
 0.21066499907E+01 0.26381590054E+01 0.25821577855E+01 0.25384809699E+01 0.25146994594E+01
 0.25146979851E+01 0.25384800806E+01 0.25821609990E+01 0.26381626829E+01 0.26959328762E+01
 0.27435925046E+01 0.27705735246E+01 0.27705780940E+01 0.27435946706E+01 0.26959141181E+01
 0.26381256423E+01 0.25821340737E+01 0.25384906500E+01 0.25147429500E+01 0.25147452451E+01
 0.25384939570E+01 0.25821346612E+01 0.26381266088E+01 0.26959183825E+01 0.27435980984E+01
 0.27705767707E+01 0.27705709552E+01 0.27435925591E+01 0.26959325734E+01 0.32870161595E+01
 0.31380132197E+01 0.30008459289E+01 0.28860282449E+01 0.27990424432E+01 0.27408043627E+01
 0.27083972531E+01 0.26959328762E+01 0.26956722875E+01 0.26996467930E+01 0.27017461883E+01
 0.26996515875E+01 0.26956605090E+01 0.26959019168E+01 0.27083792359E+01 0.27408288218E+01
 0.27990958784E+01 0.28860654936E+01 0.30008377206E+01 0.31379723270E+01 0.32869788322E+01
 0.34325539397E+01 0.35562112400E+01 0.36396294547E+01 0.36691247274E+01 0.36396123495E+01
 0.35561961510E+01 0.34325631677E+01 0.40232264300E+01 0.37436881594E+01 0.34830826218E+01
 0.32555942496E+01 0.30683190068E+01 0.29226556624E+01 0.28160369587E+01 0.27435925046E+01
 0.26996467930E+01 0.26791701937E+01 0.26791695526E+01 0.26996348793E+01 0.27435637318E+01
 0.28160175015E+01 0.29226765479E+01 0.30683687714E+01 0.32556253245E+01 0.34830671025E+01
 0.37436471647E+01 0.40231994170E+01 0.43000446161E+01 0.45464961322E+01 0.47328448033E+01
 0.48334908911E+01 0.48334862434E+01 0.47328308963E+01 0.45464793135E+01 0.43000427471E+01
 0.47976575197E+01 0.43503941689E+01 0.39404597805E+01 0.35851458989E+01 0.32918399552E+01
 0.30609016417E+01 0.28887802404E+01 0.27705735246E+01 0.27017461883E+01 0.26791695526E+01
 0.27017265142E+01 0.27705375720E+01 0.28887523781E+01 0.30609133549E+01 0.32918876997E+01
 0.35851858042E+01 0.39404571247E+01 0.43503613059E+01 0.47976313422E+01 0.52535283054E+01
 0.56788882521E+01 0.60286209924E+01 0.62596259902E+01 0.63404796146E+01 0.62596264236E+01
 0.60286161338E+01 0.56788795567E+01 0.52535310957E+01 0.55383216979E+01 0.48945740217E+01
 0.43206050057E+01 0.38342154750E+01 0.34402703591E+01 0.31357564697E+01 0.29145258407E+01
 0.27705780940E+01 0.26996515875E+01 0.26996348793E+01 0.27705375720E+01 0.29144915697E+01
 0.31357643816E+01 0.34403248634E+01 0.38342750183E+01 0.43206217290E+01 0.48945417012E+01
 0.55382731701E+01 0.62174697733E+01 0.68808910708E+01 0.74647998880E+01 0.79024792525E+01
 0.81375636091E+01 0.81375531950E+01 0.79024567019E+01 0.74647832505E+01 0.68808955115E+01
 0.62175016072E+01 0.61586991686E+01 0.53078802368E+01 0.45733044256E+01 0.39685917004E+01
 0.34923411765E+01 0.31357577683E+01 0.28887850942E+01 0.27435946706E+01 0.26956605090E+01
 0.27435637318E+01 0.28887523781E+01 0.31357643816E+01 0.34924015007E+01 0.39686670243E+01
 0.45733320349E+01 0.53078346116E+01 0.61586141945E+01 0.70902750840E+01 0.80423865674E+01
 0.89321922312E+01 0.96645085928E+01 0.10148477839E+02 0.10317891248E+02 0.10148421424E+02
 0.96644343821E+01 0.89321472522E+01 0.80423988342E+01 0.70903421510E+01 0.65736103095E+01
 0.55316109010E+01 0.46620100289E+01 0.39685916414E+01 0.34402704000E+01 0.30609078885E+01
 0.28160387335E+01 0.26959141181E+01 0.26959019168E+01 0.28160175015E+01 0.30609133549E+01
 0.34403248634E+01 0.39686670243E+01 0.46620385134E+01 0.55315512744E+01 0.65734977156E+01
 0.77587988467E+01 0.90253273467E+01 0.10276484460E+02 0.11388618561E+02 0.12228930225E+02
 0.12682677309E+02 0.12682649301E+02 0.12228854795E+02 0.11388522980E+02 0.10276414384E+02
 0.90253297479E+01 0.77588830656E+01 0.67197386717E+01 0.55316123410E+01 0.45733098778E+01
 0.38342142180E+01 0.32918446077E+01 0.29226669145E+01 0.27083843081E+01 0.26381256423E+01
 0.27083792359E+01 0.29226765479E+01 0.32918876997E+01 0.38342750183E+01 0.45733320349E+01
 0.55315512744E+01 0.67196248147E+01 0.81228255883E+01 0.96882767444E+01 0.11317241597E+02
 0.12866204233E+02 0.14160943159E+02 0.15026517071E+02 0.15330769869E+02 0.15026536429E+02
 0.14160929847E+02 0.12866126947E+02 0.11317146137E+02 0.96882498640E+01 0.81229001027E+01
 0.65735969765E+01 0.53078932879E+01 0.43206118090E+01 0.35851408014E+01 0.30683301644E+01
 0.27408106469E+01 0.25821298116E+01 0.25821340737E+01 0.27408288218E+01 0.30683687714E+01
 0.35851858042E+01 0.43206217290E+01 0.53078346116E+01 0.65734977156E+01 0.81228255883E+01
 0.99228831520E+01 0.11888239136E+02 0.13872995835E+02 0.15673747693E+02 0.17043657301E+02
 0.17779815342E+02 0.17779880092E+02 0.17043782928E+02 0.15673801725E+02 0.13872922072E+02
 0.11888112561E+02 0.99228246452E+01 0.81228777122E+01 0.61587085492E+01 0.48946036487E+01
 0.39404557399E+01 0.32555855709E+01 0.27990559518E+01 0.25384696825E+01 0.24538366062E+01
 0.25384906500E+01 0.27990958784E+01 0.32556253245E+01 0.39404571247E+01 0.48945417012E+01
 0.61586141945E+01 0.77587988467E+01 0.96882767444E+01 0.11888239136E+02 0.14231316779E+02
 0.16506521672E+02 0.18406164319E+02 0.19656711764E+02 0.20091931742E+02 0.19656865244E+02
 0.18406336562E+02 0.16506569058E+02 0.14231214843E+02 0.11888091515E+02 0.96882073383E+01
 0.77588427435E+01 0.55383700164E+01 0.43504173891E+01 0.34830591988E+01 0.28860241225E+01
 0.25147070355E+01 0.23372081688E+01 0.23372209811E+01 0.25147429500E+01 0.28860654936E+01
 0.34830671025E+01 0.43503613059E+01 0.55382731701E+01 0.70902750840E+01 0.90253273467E+01
 0.11317241597E+02 0.13872995835E+02 0.16506521672E+02 0.18887177965E+02 0.20673121002E+02
 0.21625992976E+02 0.21626079475E+02 0.20673310685E+02 0.18887321393E+02 0.16506515325E+02
 0.13872861794E+02 0.11317096518E+02 0.90252773077E+01 0.70903338013E+01 0.47977110526E+01
 0.37436762893E+01 0.30008163140E+01 0.25147090963E+01 0.22415381612E+01 0.21536178105E+01
 0.22415603872E+01 0.25147452451E+01 0.30008377206E+01 0.37436471647E+01 0.47976313422E+01
 0.62174697733E+01 0.80423865674E+01 0.10276484460E+02 0.12866204233E+02 0.15673747693E+02
 0.18406164319E+02 0.20673121002E+02 0.22162766545E+02 0.22681226842E+02 0.22162930953E+02
 0.20673321026E+02 0.18406253953E+02 0.15673680030E+02 0.12866053130E+02 0.10276369410E+02
 0.80423765036E+01 0.62175425836E+01 0.40232394291E+01 0.31379722040E+01 0.25384715446E+01
 0.21714198345E+01 0.19979754102E+01 0.19979820491E+01 0.21714393774E+01 0.25384939570E+01
 0.31379723270E+01 0.40231994170E+01 0.52535283054E+01 0.68808910708E+01 0.89321922312E+01
 0.11388618561E+02 0.14160943159E+02 0.17043657301E+02 0.19656711764E+02 0.21625992976E+02
 0.22681226842E+02 0.22681325771E+02 0.21626206553E+02 0.19656871650E+02 0.17043662842E+02
 0.14160828339E+02 0.11388491987E+02 0.89321376592E+01 0.68809180232E+01 0.52535890052E+01
 0.32869829777E+01 0.25821246919E+01 0.21272372592E+01 0.18746614140E+01 0.17939332544E+01
 0.18746637734E+01 0.21272459935E+01 0.25821346612E+01 0.32869788322E+01 0.43000446161E+01
 0.56788882521E+01 0.74647998880E+01 0.96645085928E+01 0.12228930225E+02 0.15026517071E+02
 0.17779815342E+02 0.20091931742E+02 0.21626079475E+02 0.22162930953E+02 0.21626206553E+02
 0.20092066524E+02 0.17779848306E+02 0.15026448667E+02 0.12228840888E+02 0.96644655631E+01
 0.74648115237E+01 0.56789238768E+01 0.43000712499E+01 0.26381143984E+01 0.21058768334E+01
 0.17834017643E+01 0.16321804650E+01 0.16321765631E+01 0.17833969702E+01 0.21058813274E+01
 0.26381266088E+01 0.34325539397E+01 0.45464961322E+01 0.60286209924E+01 0.79024792525E+01
 0.10148477839E+02 0.12682677309E+02 0.15330769869E+02 0.17779880092E+02 0.19656865244E+02
 0.20673310685E+02 0.20673321026E+02 0.19656871650E+02 0.17779848306E+02 0.15330712701E+02
 0.12682642526E+02 0.10148489846E+02 0.79025179810E+01 0.60286533350E+01 0.45465066484E+01
 0.34325465451E+01 0.21015070858E+01 0.17207471667E+01 0.15106085324E+01 0.14436657882E+01
 0.15105995033E+01 0.17207436642E+01 0.21015196148E+01 0.26959183825E+01 0.35562112400E+01
 0.47328448033E+01 0.62596259902E+01 0.81375636091E+01 0.10317891248E+02 0.12682649301E+02
 0.15026536429E+02 0.17043782928E+02 0.18406336562E+02 0.18887321393E+02 0.18406253953E+02
 0.17043662842E+02 0.15026448667E+02 0.12682642526E+02 0.10317954312E+02 0.81376399813E+01
 0.62596679206E+01 0.47328449965E+01 0.35561886287E+01 0.26958937086E+01 0.16814136378E+01
 0.14244807021E+01 0.13041672879E+01 0.13041615996E+01 0.14244718857E+01 0.16814159723E+01
 0.21066409532E+01 0.27435980984E+01 0.36396294547E+01 0.48334908911E+01 0.63404796146E+01
 0.81375531950E+01 0.10148421424E+02 0.12228854795E+02 0.14160929847E+02 0.15673801725E+02
 0.16506569058E+02 0.16506515325E+02 0.15673680030E+02 0.14160828339E+02 0.12228840888E+02
 0.10148489846E+02 0.81376399813E+01 0.63405257401E+01 0.48334859905E+01 0.36395985772E+01
 0.27435666735E+01 0.21066219211E+01 0.13682401814E+01 0.12070650216E+01 0.11556229285E+01
 0.12070574539E+01 0.13682323694E+01 0.16595559598E+01 0.21136063753E+01 0.27705767707E+01
 0.36691247274E+01 0.48334862434E+01 0.62596264236E+01 0.79024567019E+01 0.96644343821E+01
 0.11388522980E+02 0.12866126947E+02 0.13872922072E+02 0.14231214843E+02 0.13872861794E+02
 0.12866053130E+02 0.11388491987E+02 0.96644655631E+01 0.79025179810E+01 0.62596679206E+01
 0.48334859905E+01 0.36690982932E+01 0.27705503680E+01 0.21135931580E+01 0.16595559191E+01
 0.11461709587E+01 0.10563182784E+01 0.10563170307E+01 0.11461656446E+01 0.13368392814E+01
 0.16501038119E+01 0.21166470083E+01 0.27705709552E+01 0.36396123495E+01 0.47328308963E+01
 0.60286161338E+01 0.74647832505E+01 0.89321472522E+01 0.10276414384E+02 0.11317146137E+02
 0.11888112561E+02 0.11888091515E+02 0.11317096518E+02 0.10276369410E+02 0.89321376592E+01
 0.74648115237E+01 0.60286533350E+01 0.47328449965E+01 0.36395985772E+01 0.27705503680E+01
 0.21166395330E+01 0.16501103937E+01 0.13368489551E+01 0.99946385237E+00 0.96171424580E+00
 0.99946750298E+00 0.11169145064E+01 0.13267946351E+01 0.16501071512E+01 0.21136092134E+01
 0.27435925591E+01 0.35561961510E+01 0.45464793135E+01 0.56788795567E+01 0.68808955115E+01
 0.80423988342E+01 0.90253297479E+01 0.96882498640E+01 0.99228246452E+01 0.96882073383E+01
 0.90252773077E+01 0.80423765036E+01 0.68809180232E+01 0.56789238768E+01 0.45465066484E+01
 0.35561886287E+01 0.27435666735E+01 0.21135931580E+01 0.16501103937E+01 0.13268041444E+01
 0.11169165320E+01 0.91612922887E+00 0.91613336387E+00 0.98096642606E+00 0.11169142866E+01
 0.13368416018E+01 0.16595603886E+01 0.21066499907E+01 0.26959325734E+01 0.34325631677E+01
 0.43000427471E+01 0.52535310957E+01 0.62175016072E+01 0.70903421510E+01 0.77588830656E+01
 0.81229001027E+01 0.81228777122E+01 0.77588427435E+01 0.70903338013E+01 0.62175425836E+01
 0.52535890052E+01 0.43000712499E+01 0.34325465451E+01 0.26958937086E+01 0.21066219211E+01
 0.16595559191E+01 0.13368489551E+01 0.11169165320E+01 0.98096052894E+00 0.91613209785E+00
 0.96171354128E+00 0.10563180879E+01 0.12070589002E+01 0.14244630993E+01 0.17207275942E+01
 0.21058784998E+01 0.25821577761E+01 0.31380126948E+01 0.37436872400E+01 0.43503921008E+01
 0.48945710841E+01 0.53078780461E+01 0.55316102491E+01 0.55316125294E+01 0.53078939999E+01
 0.48946055313E+01 0.43504202925E+01 0.37436788729E+01 0.31379738389E+01 0.25821259244E+01
 0.21058775569E+01 0.17207463061E+01 0.14244782411E+01 0.12070624444E+01 0.10563164710E+01
 0.96171277663E+00 0.91613222634E+00 0.96171354128E+00 0.10170813839E+01 0.11135917202E+01
 0.12576688723E+01 0.14576810773E+01 0.17219433773E+01 0.20551648601E+01 0.24538695594E+01
 0.29021516512E+01 0.33695543677E+01 0.38125877951E+01 0.41805404933E+01 0.44249788839E+01
 0.45107539348E+01 0.44249884091E+01 0.41805563478E+01 0.38125933872E+01 0.33695317754E+01
 0.29021099914E+01 0.24538432384E+01 0.20551750381E+01 0.17219747329E+01 0.14577044140E+01
 0.12576742176E+01 0.11135898890E+01 0.10170827796E+01 0.96171702478E+00 0.94367260222E+00
 0.10563180879E+01 0.11135917202E+01 0.12045266104E+01 0.13348049278E+01 0.15107704891E+01
 0.17374105652E+01 0.20153161077E+01 0.23372357636E+01 0.26855024906E+01 0.30317858944E+01
 0.33400604970E+01 0.35726333828E+01 0.36979436130E+01 0.36979462876E+01 0.35726359343E+01
 0.33400509967E+01 0.30317594464E+01 0.26854731985E+01 0.23372274886E+01 0.20153360605E+01
 0.17374396092E+01 0.15107854876E+01 0.13348029959E+01 0.12045207633E+01 0.11135908937E+01
 0.10563206111E+01 0.10286938696E+01 0.10286924740E+01 0.12070589002E+01 0.12576688723E+01
 0.13348049278E+01 0.14436214423E+01 0.15888365039E+01 0.17728796763E+01 0.19935127371E+01
 0.22415417000E+01 0.24996909719E+01 0.27436358312E+01 0.29454977341E+01 0.30791565904E+01
 0.31259667491E+01 0.30791574784E+01 0.29454924584E+01 0.27436230949E+01 0.24996824323E+01
 0.22415501574E+01 0.19935340531E+01 0.17728943360E+01 0.15888323002E+01 0.14436072740E+01
 0.13347967721E+01 0.12576695840E+01 0.12070603536E+01 0.11786047658E+01 0.11694497662E+01
 0.11786058569E+01 0.14244630993E+01 0.14576810773E+01 0.15107704891E+01 0.15888365039E+01
 0.16955697929E+01 0.18317244923E+01 0.19935117150E+01 0.21714006934E+01 0.23500720611E+01
 0.25100824034E+01 0.26311837011E+01 0.26965267333E+01 0.26965281105E+01 0.26311855411E+01
 0.25100826106E+01 0.23500742473E+01 0.21714089544E+01 0.19935212752E+01 0.18317245216E+01
 0.16955577207E+01 0.15888236863E+01 0.15107689766E+01 0.14576887264E+01 0.14244680058E+01
 0.14059011500E+01 0.13977906200E+01 0.13977933125E+01 0.14059036404E+01 0.17207275942E+01
 0.17219433773E+01 0.17374105652E+01 0.17728796763E+01 0.18317244923E+01 0.19139312017E+01
 0.20153155628E+01 0.21272189887E+01 0.22371065439E+01 0.23303525844E+01 0.23930525281E+01
 0.24151742203E+01 0.23930542383E+01 0.23303522987E+01 0.22371024685E+01 0.21272130839E+01
 0.20153098385E+01 0.19139263661E+01 0.18317226856E+01 0.17728839711E+01 0.17374199590E+01
 0.17219516950E+01 0.17207295233E+01 0.17268565823E+01 0.17337416496E+01 0.17366190051E+01
 0.17337456174E+01 0.17268602157E+01 0.21058784998E+01 0.20551648601E+01 0.20153161077E+01
 0.19935127371E+01 0.19935117150E+01 0.20153155628E+01 0.20551673186E+01 0.21058813926E+01
 0.21577423706E+01 0.22001744190E+01 0.22240519615E+01 0.22240520427E+01 0.22001701808E+01
 0.21577286693E+01 0.21058637716E+01 0.20551584187E+01 0.20153223040E+01 0.19935299544E+01
 0.19935316975E+01 0.20153249871E+01 0.20551593574E+01 0.21058650746E+01 0.21577322707E+01
 0.22001730072E+01 0.22240512307E+01 0.22240500032E+01 0.22001741516E+01 0.21577418087E+01
 0.25821577761E+01 0.24538695594E+01 0.23372357636E+01 0.22415417000E+01 0.21714006934E+01
 0.21272189887E+01 0.21058813926E+01 0.21015331996E+01 0.21066495393E+01 0.21136081085E+01
 0.21166473053E+01 0.21136046295E+01 0.21066354770E+01 0.21015149577E+01 0.21058806774E+01
 0.21272462013E+01 0.21714381590E+01 0.22415611638E+01 0.23372257685E+01 0.24538413324E+01
 0.25821315218E+01 0.27083859001E+01 0.28160418868E+01 0.28887858324E+01 0.29145219765E+01
 0.28887760520E+01 0.28160356721E+01 0.27083959840E+01 0.31380126948E+01 0.29021516512E+01
 0.26855024906E+01 0.24996909719E+01 0.23500720611E+01 0.22371065439E+01 0.21577423706E+01
 0.21066495393E+01 0.20775250725E+01 0.20646723368E+01 0.20646699349E+01 0.20775147602E+01
 0.21066360968E+01 0.21577486127E+01 0.22371456531E+01 0.23501185134E+01 0.24997019859E+01
 0.26854674531E+01 0.29021030395E+01 0.31379876807E+01 0.33745103603E+01 0.35871572736E+01
 0.37490928480E+01 0.38369254575E+01 0.38369198147E+01 0.37490766713E+01 0.35871373614E+01
 0.33745043187E+01 0.37436872400E+01 0.33695543677E+01 0.30317858944E+01 0.27436358312E+01
 0.25100824034E+01 0.23303525844E+01 0.22001744190E+01 0.21136081085E+01 0.20646723368E+01
 0.20489090977E+01 0.20646624184E+01 0.21135964127E+01 0.22001818444E+01 0.23303917841E+01
 0.25101278271E+01 0.27436399716E+01 0.30317362475E+01 0.33694945163E+01 0.37436683869E+01
 0.41306943804E+01 0.44967340112E+01 0.48011588464E+01 0.50039099520E+01 0.50751850304E+01
 0.50039108127E+01 0.48011437279E+01 0.44966989108E+01 0.41306680451E+01 0.43503921008E+01
 0.38125877951E+01 0.33400604970E+01 0.29454977341E+01 0.26311837011E+01 0.23930525281E+01
 0.22240519615E+01 0.21166473053E+01 0.20646699349E+01 0.20646624184E+01 0.21166348260E+01
 0.22240580400E+01 0.23930900900E+01 0.26312288517E+01 0.29455031866E+01 0.33400098747E+01
 0.38125233895E+01 0.43503710423E+01 0.49265937053E+01 0.54981795689E+01 0.60085039634E+01
 0.63955055580E+01 0.66049653993E+01 0.66049736999E+01 0.63955153394E+01 0.60084880585E+01
 0.54981365322E+01 0.49265621520E+01 0.48945710841E+01 0.41805404933E+01 0.35726333828E+01
 0.30791565904E+01 0.26965267333E+01 0.24151742203E+01 0.22240520427E+01 0.21136046295E+01
 0.20775147602E+01 0.21135964127E+01 0.22240580400E+01 0.24152109964E+01 0.26965749029E+01
 0.30791691825E+01 0.35725867735E+01 0.41804695424E+01 0.48945364725E+01 0.56882679926E+01
 0.65123236659E+01 0.72944931973E+01 0.79470523666E+01 0.83827030599E+01 0.85360498055E+01
 0.83827138186E+01 0.79470537758E+01 0.72944652478E+01 0.65122762540E+01 0.56882446763E+01
 0.53078780461E+01 0.44249788839E+01 0.36979436130E+01 0.31259667491E+01 0.26965281105E+01
 0.23930542383E+01 0.22001701808E+01 0.21066354770E+01 0.21066360968E+01 0.22001818444E+01
 0.23930900900E+01 0.26965749029E+01 0.31259823600E+01 0.36978980583E+01 0.44248969502E+01
 0.53078247860E+01 0.63266329180E+01 0.74319886124E+01 0.85409238997E+01 0.95406991220E+01
 0.10304715406E+02 0.10720285619E+02 0.10720295976E+02 0.10304731137E+02 0.95406879775E+01
 0.85408716814E+01 0.74319262617E+01 0.63266167742E+01 0.55316102491E+01 0.45107539348E+01
 0.36979462876E+01 0.30791574784E+01 0.26311855411E+01 0.23303522987E+01 0.21577286693E+01
 0.21015149577E+01 0.21577486127E+01 0.23303917841E+01 0.26312288517E+01 0.30791691825E+01
 0.36978980583E+01 0.45106638121E+01 0.55315445545E+01 0.67537877404E+01 0.81372548426E+01
 0.95982671304E+01 0.11006788093E+02 0.12197616762E+02 0.13000466653E+02 0.13284568500E+02
 0.13000530687E+02 0.12197676827E+02 0.11006774394E+02 0.95981784143E+01 0.81371630403E+01
 0.67537697110E+01 0.55316125294E+01 0.44249884091E+01 0.35726359343E+01 0.29454924584E+01
 0.25100826106E+01 0.22371024685E+01 0.21058637716E+01 0.21058806774E+01 0.22371456531E+01
 0.25101278271E+01 0.29455031866E+01 0.35725867735E+01 0.44248969502E+01 0.55315445545E+01
 0.69042792817E+01 0.85215841709E+01 0.10312551908E+02 0.12145169437E+02 0.13827391492E+02
 0.15131876023E+02 0.15848291880E+02 0.15848369897E+02 0.15132041742E+02 0.13827503637E+02
 0.12145141517E+02 0.10312420892E+02 0.85214636297E+01 0.69042548605E+01 0.53078939999E+01
 0.41805563478E+01 0.33400509967E+01 0.27436230949E+01 0.23500742473E+01 0.21272130839E+01
 0.20551584187E+01 0.21272462013E+01 0.23501185134E+01 0.27436399716E+01 0.33400098747E+01
 0.41804695424E+01 0.53078247860E+01 0.67537877404E+01 0.85215841709E+01 0.10565529379E+02
 0.12770781988E+02 0.14941034795E+02 0.16809140488E+02 0.18085542381E+02 0.18540416244E+02
 0.18085714350E+02 0.16809352448E+02 0.14941135332E+02 0.12770719136E+02 0.10565374957E+02
 0.85214595432E+01 0.67537673485E+01 0.48946055313E+01 0.38125933872E+01 0.30317594464E+01
 0.24996824323E+01 0.21714089544E+01 0.20153098385E+01 0.20153223040E+01 0.21714381590E+01
 0.24997019859E+01 0.30317362475E+01 0.38125233895E+01 0.48945364725E+01 0.63266329180E+01
 0.81372548426E+01 0.10312551908E+02 0.12770781988E+02 0.15337904239E+02 0.17739092173E+02
 0.19628375801E+02 0.20672045930E+02 0.20672117289E+02 0.19628540650E+02 0.17739240137E+02
 0.15337943902E+02 0.12770700920E+02 0.10312417753E+02 0.81371619946E+01 0.63266330455E+01
 0.43504202925E+01 0.33695317754E+01 0.26854731985E+01 0.22415501574E+01 0.19935212752E+01
 0.19139263661E+01 0.19935299544E+01 0.22415611638E+01 0.26854674531E+01 0.33694945163E+01
 0.43503710423E+01 0.56882679926E+01 0.74319886124E+01 0.95982671304E+01 0.12145169437E+02
 0.14941034795E+02 0.17739092173E+02 0.20179767304E+02 0.21852731105E+02 0.22448187443E+02
 0.21852781535E+02 0.20179841780E+02 0.17739149879E+02 0.14941040209E+02 0.12145115858E+02
 0.95981896411E+01 0.74319430687E+01 0.56882824075E+01 0.37436788729E+01 0.29021099914E+01
 0.23372274886E+01 0.19935340531E+01 0.18317245216E+01 0.18317226856E+01 0.19935316975E+01
 0.23372257685E+01 0.29021030395E+01 0.37436683869E+01 0.49265937053E+01 0.65123236659E+01
 0.85409238997E+01 0.11006788093E+02 0.13827391492E+02 0.16809140488E+02 0.19628375801E+02
 0.21852731105E+02 0.23081056536E+02 0.23081049771E+02 0.21852718812E+02 0.19628375182E+02
 0.16809159354E+02 0.13827414235E+02 0.11006789940E+02 0.85409022555E+01 0.65123025221E+01
 0.49265920004E+01 0.31379738389E+01 0.24538432384E+01 0.20153360605E+01 0.17728943360E+01
 0.16955577207E+01 0.17728839711E+01 0.20153249871E+01 0.24538413324E+01 0.31379876807E+01
 0.41306943804E+01 0.54981795689E+01 0.72944931973E+01 0.95406991220E+01 0.12197616762E+02
 0.15131876023E+02 0.18085542381E+02 0.20672045930E+02 0.22448187443E+02 0.23081049771E+02
 0.22448130125E+02 0.20671970355E+02 0.18085504762E+02 0.15131905481E+02 0.12197685343E+02
 0.95407484439E+01 0.72944928191E+01 0.54981473283E+01 0.41306635028E+01 0.25821259244E+01
 0.20551750381E+01 0.17374396092E+01 0.15888323002E+01 0.15888236863E+01 0.17374199590E+01
 0.20551593574E+01 0.25821315218E+01 0.33745103603E+01 0.44967340112E+01 0.60085039634E+01
 0.79470523666E+01 0.10304715406E+02 0.13000466653E+02 0.15848291880E+02 0.18540416244E+02
 0.20672117289E+02 0.21852781535E+02 0.21852718812E+02 0.20671970355E+02 0.18540283899E+02
 0.15848262272E+02 0.13000546828E+02 0.10304827554E+02 0.79471096902E+01 0.60084856845E+01
 0.44966825741E+01 0.33744737847E+01 0.21058775569E+01 0.17219747329E+01 0.15107854876E+01
 0.14436072740E+01 0.15107689766E+01 0.17219516950E+01 0.21058650746E+01 0.27083859001E+01
 0.35871572736E+01 0.48011588464E+01 0.63955055580E+01 0.83827030599E+01 0.10720285619E+02
 0.13284568500E+02 0.15848369897E+02 0.18085714350E+02 0.19628540650E+02 0.20179841780E+02
 0.19628375182E+02 0.18085504762E+02 0.15848262272E+02 0.13284617868E+02 0.10720421749E+02
 0.83828076734E+01 0.63955189336E+01 0.48011098107E+01 0.35871075078E+01 0.27083691170E+01
 0.17207463061E+01 0.14577044140E+01 0.13348029959E+01 0.13347967721E+01 0.14576887264E+01
 0.17207295233E+01 0.21577322707E+01 0.28160418868E+01 0.37490928480E+01 0.50039099520E+01
 0.66049653993E+01 0.85360498055E+01 0.10720295976E+02 0.13000530687E+02 0.15132041742E+02
 0.16809352448E+02 0.17739240137E+02 0.17739149879E+02 0.16809159354E+02 0.15131905481E+02
 0.13000546828E+02 0.10720421749E+02 0.85361655375E+01 0.66049929840E+01 0.50038644240E+01
 0.37490362867E+01 0.28160151040E+01 0.21577357802E+01 0.14244782411E+01 0.12576742176E+01
 0.12045207633E+01 0.12576695840E+01 0.14244680058E+01 0.17268565823E+01 0.22001730072E+01
 0.28887858324E+01 0.38369254575E+01 0.50751850304E+01 0.66049736999E+01 0.83827138186E+01
 0.10304731137E+02 0.12197676827E+02 0.13827503637E+02 0.14941135332E+02 0.15337943902E+02
 0.14941040209E+02 0.13827414235E+02 0.12197685343E+02 0.10304827554E+02 0.83828076734E+01
 0.66049929840E+01 0.50751367656E+01 0.38368662109E+01 0.28887570040E+01 0.22001749384E+01
 0.17268695530E+01 0.12070624444E+01 0.11135898890E+01 0.11135908937E+01 0.12070603536E+01
 0.14059011500E+01 0.17337416496E+01 0.22240512307E+01 0.29145219765E+01 0.38369198147E+01
 0.50039108127E+01 0.63955153394E+01 0.79470537758E+01 0.95406879775E+01 0.11006774394E+02
 0.12145141517E+02 0.12770719136E+02 0.12770700920E+02 0.12145115858E+02 0.11006789940E+02
 0.95407484439E+01 0.79471096902E+01 0.63955189336E+01 0.50038644240E+01 0.38368662109E+01
 0.29144984365E+01 0.22240609046E+01 0.17337630283E+01 0.14059144684E+01 0.10563164710E+01
 0.10170827796E+01 0.10563206111E+01 0.11786047658E+01 0.13977906200E+01 0.17366190051E+01
 0.22240500032E+01 0.28887760520E+01 0.37490766713E+01 0.48011437279E+01 0.60084880585E+01
 0.72944652478E+01 0.85408716814E+01 0.95981784143E+01 0.10312420892E+02 0.10565374957E+02
 0.10312417753E+02 0.95981896411E+01 0.85409022555E+01 0.72944928191E+01 0.60084856845E+01
 0.48011098107E+01 0.37490362867E+01 0.28887570040E+01 0.22240609046E+01 0.17366460814E+01
 0.13978118918E+01 0.11786094783E+01 0.96171277663E+00 0.96171702478E+00 0.10286938696E+01
 0.11694497662E+01 0.13977933125E+01 0.17337456174E+01 0.22001741516E+01 0.28160356721E+01
 0.35871373614E+01 0.44966989108E+01 0.54981365322E+01 0.65122762540E+01 0.74319262617E+01
 0.81371630403E+01 0.85214636297E+01 0.85214595432E+01 0.81371619946E+01 0.74319430687E+01
 0.65123025221E+01 0.54981473283E+01 0.44966825741E+01 0.35871075078E+01 0.28160151040E+01
 0.22001749384E+01 0.17337630283E+01 0.13978118918E+01 0.11694561648E+01 0.10286887197E+01
 0.91613222634E+00 0.94367260222E+00 0.10286924740E+01 0.11786058569E+01 0.14059036404E+01
 0.17268602157E+01 0.21577418087E+01 0.27083959840E+01 0.33745043187E+01 0.41306680451E+01
 0.49265621520E+01 0.56882446763E+01 0.63266167742E+01 0.67537697110E+01 0.69042548605E+01
 0.67537673485E+01 0.63266330455E+01 0.56882824075E+01 0.49265920004E+01 0.41306635028E+01
 0.33744737847E+01 0.27083691170E+01 0.21577357802E+01 0.17268695530E+01 0.14059144684E+01
 0.11786094783E+01 0.10286887197E+01 0.94366755520E+00 0.99946658892E+00 0.10563198911E+01
 0.11556303512E+01 0.13041707868E+01 0.15105964065E+01 0.17833755673E+01 0.21272179421E+01
 0.25384787853E+01 0.30008435031E+01 0.34830804220E+01 0.39404567904E+01 0.43206020136E+01
 0.45733038575E+01 0.46620121628E+01 0.45733126227E+01 0.43206144106E+01 0.39404592353E+01
 0.34830630803E+01 0.30008183699E+01 0.25384713307E+01 0.21272363128E+01 0.17834002319E+01
 0.15106051185E+01 0.13041627250E+01 0.11556198978E+01 0.10563162997E+01 0.99946751000E+00
 0.98096679950E+00 0.10563198911E+01 0.11135934416E+01 0.12045273716E+01 0.13348048773E+01
 0.15107704169E+01 0.17374102903E+01 0.20153148099E+01 0.23372336625E+01 0.26855006548E+01
 0.30317846618E+01 0.33400596137E+01 0.35726333491E+01 0.36979452220E+01 0.36979490343E+01
 0.35726384512E+01 0.33400528522E+01 0.30317610230E+01 0.26854741498E+01 0.23372269642E+01
 0.20153342415E+01 0.17374374655E+01 0.15107832685E+01 0.13348004887E+01 0.12045187026E+01
 0.11135904510E+01 0.10563216667E+01 0.10286953100E+01 0.10286939351E+01 0.11556303512E+01
 0.12045273716E+01 0.12788346570E+01 0.13835467810E+01 0.15233735453E+01 0.17008561024E+01