       N       E                     dE             d eps       ncg     rms          rms(c)
DAV:   1    -0.107975179798E+02   -0.10798E+02   -0.25421E-05   472   0.395E-02    0.144E-03
DAV:   2    -0.107975181644E+02   -0.18464E-06   -0.10750E-06   448   0.849E-03
   1 F= -.10797518E+02 E0= -.10797461E+02  d E =-.107975E+02
