unknown system                          
   1.00000000000000     
    -2.450000    2.450000    1.274000
     2.450000   -2.450000    1.274000
     2.450000    2.450000   -1.274000
   Si
     2
Direct
  0.250000  0.750000  0.500000
  0.000000  0.000000  0.000000
 
   32   32   32
 -5.3452     -4.1692     -1.0110      3.1747      7.2298      10.206      11.635      11.581      10.507      9.0384    
  7.5909      6.3093      5.2665      4.4837      3.9502      3.6431      3.5431      3.6431      3.9502      4.4837    
  5.2664      6.3093      7.5909      9.0384      10.507      11.581      11.635      10.206      7.2298      3.1747    
 -1.0110     -4.1692     -4.1692     -4.7790     -3.1118     0.30515      4.4485      8.2001      10.730      11.713    
  11.327      10.093      8.6145      7.2070      5.9893      5.0190      4.3071      3.8381      3.5892      3.5434    
  3.6966      4.0595      4.6532      5.4993      6.6029      7.9324      9.4019      10.835      11.743      11.520    
  9.7788      6.5723      2.4846     -1.4721     -1.0110     -3.1118     -3.1602     -1.1472      2.2853      6.1125    
  9.3200      11.238      11.694      10.967      9.6094      8.1472      6.7971      5.6564      4.7670      4.1307    
  3.7282      3.5372      3.5438      3.7475      4.1616      4.8083      5.7069      6.8566      8.2164      9.6899    
  11.069      11.834      11.423      9.5397      6.3400      2.4846      3.1747     0.30514     -1.1472     -.71527    
  1.4506      4.6498      7.9216      10.407      11.618      11.531      10.504      9.0790      7.6550      6.3779    
  5.3242      4.5209      3.9613      3.6242      3.4888      3.5443      3.7935      4.2519      4.9418      5.8797    
  7.0588      8.4298      9.8895      11.209      11.873      11.386      9.5397      6.5723      7.2298      4.4486    
  2.2853      1.4506      2.2231      4.3328      7.0803      9.6247      11.294      11.787      11.207      9.9575    
  8.5237      7.1574      5.9660      5.0056      4.2896      3.8050      3.5299      3.4456      3.5445      3.8324    
  4.3264      5.0478      6.0095      7.1994      8.5622      9.9917      11.256      11.873      11.423      9.7788    
  10.206      8.2001      6.1125      4.6498      4.3328      5.2753      7.1377      9.2770      11.010      11.863    
  11.704      10.735      9.3683      7.9655      6.6740      5.5771      4.7121      4.0811      3.6670      3.4482    
  3.4087      3.5442      3.8628      4.3819      5.1211      6.0900      7.2715      8.6072      9.9917      11.209    
  11.834      11.520      11.635      10.730      9.3200      7.9216      7.0803      7.1377      8.0817      9.5542    
  11.011      11.943      12.064      11.382      10.163      8.7746      7.4272      6.2238      5.2254      4.4536    
  3.9020      3.5514      3.3816      3.3796      3.5437      3.8834      4.4160      5.1587      6.1173      7.2715    
  8.5622      9.8895      11.069      11.743      11.581      11.713      11.238      10.407      9.6247      9.2770    
  9.5542      10.363      11.371      12.155      12.379      11.918      10.884      9.5618      8.2043      6.9317    
  5.8238      4.9229      4.2380      3.7575      3.4617      3.3324      3.3594      3.5432      3.8939      4.4276    
  5.1587      6.0900      7.1994      8.4298      9.6899      10.835      10.507      11.327      11.694      11.618    
  11.294      11.010      11.011      11.371      11.960      12.500      12.698      12.370      11.513      10.305    
  8.9838      7.6846      6.4993      5.4884      4.6789      4.0715      3.6517      3.4005      3.3021      3.3490    
  3.5430      3.8939      4.4160      5.1211      6.0095      7.0588      8.2164      9.4019      9.0384      10.093    
  10.967      11.531      11.787      11.863      11.943      12.155      12.500      12.844      12.979      12.730    
  12.034      10.976      9.7400      8.4625      7.2401      6.1471      5.2285      4.5003      3.9582      3.5871    
  3.3694      3.2919      3.3490      3.5432      3.8834      4.3819      5.0478      5.8797      6.8566      7.9324    
  7.5909      8.6144      9.6093      10.504      11.207      11.704      12.064      12.379      12.698      12.979    
  13.104      12.941      12.409      11.534      10.437      9.2369      8.0270      6.8905      5.8876      5.0514    
  4.3915      3.9010      3.5654      3.3694      3.3021      3.3594      3.5437      3.8628      4.3264      4.9418    
  5.7069      6.6029      6.3093      7.2070      8.1472      9.0790      9.9575      10.735      11.382      11.918    
  12.370      12.730      12.941      12.914      12.578      11.927      11.029      9.9675      8.8297      7.7002    
  6.6502      5.7289      4.9619      4.3550      3.9010      3.5871      3.4005      3.3324      3.3796      3.5442    
  3.8324      4.2519      4.8083      5.4993      5.2664      5.9893      6.7972      7.6550      8.5237      9.3683    
  10.163      10.884      11.513      12.034      12.409      12.578      12.484      12.103      11.459      10.602    
  9.6042      8.5441      7.4981      6.5280      5.6755      4.9619      4.3915      3.9582      3.6517      3.4617    
  3.3816      3.4087      3.5445      3.7935      4.1616      4.6532      4.4837      5.0189      5.6564      6.3779    
  7.1574      7.9655      8.7746      9.5618      10.305      10.976      11.534      11.927      12.103      12.023    
  11.676      11.085      10.295      9.3752      8.3972      7.4298      6.5280      5.7289      5.0514      4.5003    
  4.0715      3.7575      3.5514      3.4482      3.4456      3.5443      3.7475      4.0595      3.9502      4.3071    
  4.7670      5.3242      5.9660      6.6740      7.4272      8.2043      8.9838      9.7400      10.437      11.029    
  11.459      11.676      11.647      11.363      10.844      10.135      9.2971      8.3972      7.4981      6.6502    
  5.8876      5.2285      4.6789      4.2380      3.9020      3.6670      3.5299      3.4888      3.5438      3.6966    
  3.6431      3.8381      4.1307      4.5209      5.0057      5.5771      6.2238      6.9316      7.6846      8.4625    
  9.2369      9.9675      10.602      11.085      11.363      11.404      11.197      10.761      10.135      9.3752    
  8.5441      7.7002      6.8905      6.1471      5.4884      4.9229      4.4536      4.0811      3.8050      3.6242    
  3.5372      3.5434      3.5431      3.5893      3.7282      3.9614      4.2896      4.7121      5.2254      5.8238    
  6.4993      7.2401      8.0270      8.8297      9.6042      10.295      10.844      11.197      11.320      11.197    
  10.844      10.295      9.6042      8.8297      8.0270      7.2401      6.4993      5.8238      5.2254      4.7121    
  4.2896      3.9613      3.7282      3.5892      3.6431      3.5434      3.5373      3.6243      3.8051      4.0811    
  4.4536      4.9229      5.4884      6.1471      6.8905      7.7002      8.5441      9.3752      10.135      10.761    
  11.197      11.404      11.363      11.085      10.602      9.9675      9.2369      8.4625      7.6846      6.9317    
  6.2238      5.5771      5.0056      4.5209      4.1307      3.8381      3.9502      3.6966      3.5438      3.4889    
  3.5299      3.6671      3.9020      4.2380      4.6789      5.2285      5.8876      6.6502      7.4981      8.3972    
  9.2971      10.135      10.844      11.363      11.647      11.676      11.459      11.029      10.437      9.7400    
  8.9838      8.2043      7.4272      6.6740      5.9660      5.3242      4.7670      4.3071      4.4837      4.0595    
  3.7475      3.5443      3.4456      3.4482      3.5515      3.7575      4.0714      4.5003      5.0514      5.7289    
  6.5280      7.4298      8.3972      9.3752      10.295      11.085      11.676      12.023      12.103      11.927    
  11.534      10.976      10.305      9.5618      8.7746      7.9655      7.1574      6.3779      5.6564      5.0190    
  5.2665      4.6533      4.1617      3.7935      3.5445      3.4087      3.3816      3.4617      3.6517      3.9582    
  4.3915      4.9619      5.6755      6.5280      7.4981      8.5441      9.6042      10.602      11.459      12.103    
  12.484      12.578      12.409      12.034      11.513      10.884      10.163      9.3683      8.5237      7.6550    
  6.7971      5.9893      6.3093      5.4993      4.8084      4.2520      3.8324      3.5442      3.3796      3.3324    
  3.4004      3.5870      3.9010      4.3550      4.9619      5.7289      6.6502      7.7002      8.8297      9.9675    
  11.029      11.927      12.578      12.914      12.941      12.730      12.370      11.918      11.382      10.735    
  9.9575      9.0790      8.1472      7.2070      7.5909      6.6029      5.7069      4.9418      4.3264      3.8627    
  3.5437      3.3593      3.3021      3.3694      3.5654      3.9010      4.3915      5.0514      5.8876      6.8905    
  8.0270      9.2369      10.437      11.534      12.409      12.941      13.104      12.979      12.698      12.379    
  12.064      11.704      11.207      10.504      9.6094      8.6145      9.0384      7.9324      6.8566      5.8797    
  5.0477      4.3819      3.8834      3.5431      3.3489      3.2919      3.3694      3.5870      3.9582      4.5003    
  5.2285      6.1471      7.2401      8.4625      9.7400      10.976      12.034      12.730      12.979      12.844    
  12.500      12.155      11.943      11.863      11.787      11.531      10.967      10.093      10.507      9.4019    
  8.2164      7.0588      6.0095      5.1211      4.4160      3.8939      3.5429      3.3489      3.3021      3.4004    
  3.6517      4.0714      4.6789      5.4884      6.4993      7.6846      8.9838      10.305      11.513      12.370    
  12.698      12.500      11.960      11.371      11.011      11.010      11.294      11.618      11.694      11.327    
  11.581      10.835      9.6899      8.4298      7.1994      6.0900      5.1586      4.4275      3.8939      3.5431    
  3.3593      3.3324      3.4617      3.7575      4.2380      4.9229      5.8238      6.9316      8.2043      9.5618    
  10.884      11.918      12.379      12.155      11.371      10.363      9.5542      9.2770      9.6247      10.407    
  11.238      11.713      11.635      11.743      11.069      9.8895      8.5622      7.2715      6.1173      5.1586    
  4.4160      3.8834      3.5437      3.3796      3.3816      3.5515      3.9020      4.4536      5.2254      6.2238    
  7.4272      8.7746      10.163      11.382      12.064      11.943      11.011      9.5542      8.0817      7.1377    
  7.0803      7.9216      9.3200      10.730      10.206      11.520      11.834      11.209      9.9917      8.6072    
  7.2715      6.0900      5.1211      4.3819      3.8627      3.5442      3.4087      3.4482      3.6671      4.0811    
  4.7121      5.5771      6.6740      7.9655      9.3683      10.735      11.704      11.863      11.010      9.2770    
  7.1377      5.2753      4.3328      4.6498      6.1125      8.2001      7.2298      9.7788      11.423      11.873    
  11.256      9.9917      8.5622      7.1994      6.0095      5.0477      4.3264      3.8324      3.5445      3.4456    
  3.5299      3.8051      4.2896      5.0057      5.9660      7.1574      8.5237      9.9575      11.207      11.787    
  11.294      9.6247      7.0803      4.3328      2.2231      1.4506      2.2853      4.4485      3.1747      6.5723    
  9.5397      11.386      11.873      11.209      9.8895      8.4298      7.0588      5.8797      4.9418      4.2520    
  3.7935      3.5443      3.4889      3.6243      3.9614      4.5209      5.3242      6.3779      7.6550      9.0790    
  10.504      11.531      11.618      10.407      7.9216      4.6498      1.4506     -.71527     -1.1472     0.30515    
 -1.0110      2.4846      6.3399      9.5397      11.423      11.834      11.069      9.6899      8.2164      6.8566    
  5.7069      4.8084      4.1617      3.7475      3.5438      3.5373      3.7282      4.1307      4.7670      5.6564    
  6.7972      8.1472      9.6093      10.967      11.694      11.238      9.3200      6.1125      2.2853     -1.1472    
 -3.1602     -3.1118     -4.1692     -1.4721      2.4846      6.5723      9.7788      11.520      11.743      10.835    
  9.4019      7.9324      6.6029      5.4993      4.6533      4.0595      3.6966      3.5434      3.5893      3.8381    
  4.3071      5.0189      5.9893      7.2070      8.6144      10.093      11.327      11.713      10.730      8.2001    
  4.4486     0.30514     -3.1118     -4.7790     -4.1691     -3.3053     -.52355      3.3269      7.1577      10.037    
  11.464      11.453      10.420      8.9641      7.5136      6.2200      5.1602      4.3584      3.8045      3.4750    
  3.3491      3.4176      3.6860      4.1728      4.9019      5.8882      7.1179      8.5278      9.9923      11.168    
  11.460      10.387      7.8284      4.1649     0.24586     -2.8447     -3.3053     -4.1692     -2.8448     0.24588    
  4.1649      7.8283      10.387      11.460      11.168      9.9923      8.5277      7.1178      5.8882      4.9019    
  4.1728      3.6860      3.4176      3.3491      3.4750      3.8044      4.3584      5.1603      6.2201      7.5136    
  8.9640      10.420      11.453      11.464      10.036      7.1577      3.3270     -.52347     -.42974     -2.7430    
 -3.1117     -1.4287      1.7621      5.4920      8.7439      10.797      11.410      10.806      9.5063      8.0568    
  6.7034      5.5507      4.6466      3.9953      3.5779      3.3712      3.3595      3.5411      3.9288      4.5450    
  5.4115      6.5327      7.8747      9.3491      10.776      11.674      11.475      9.8396      6.8573      3.1139    
  3.5641     0.51599     -1.2375     -1.1472     0.73972      3.8015      7.0999      9.7393      11.160      11.265    
  10.362      8.9824      7.5682      6.2859      5.2204      4.4040      3.8323      3.4839      3.3371      3.3797    
  3.6136      4.0543      4.7249      5.6450      6.8127      8.1854      9.6664      11.052      11.847      11.532    
  9.8547      6.9880      7.5354      4.6119      2.1770     0.99847      1.4506      3.3581      6.0738      8.7466    
  10.643      11.379      10.991      9.8445      8.4403      7.0792      5.8807      4.9090      4.1823      3.6891    
  3.4070      3.3164      3.4087      3.6893      4.1757      4.8906      5.8503      7.0471      8.4312      9.9013    
  11.243      11.977      11.652      10.093      10.518      8.4123      6.1000      4.3166      3.6576      4.3327    
  6.0785      8.2750      10.203      11.312      11.390      10.582      9.2827      7.8985      6.6072      5.5018    
  4.6270      3.9886      3.5701      3.3492      3.3094      3.4455      3.7656      4.2882      5.0348      6.0178    
  7.2243      8.5995      10.041      11.340      12.061      11.822      12.007      11.049      9.4758      7.8088    
  6.6401      6.3921      7.1376      8.5706      10.143      11.295      11.659      11.176      10.068      8.7142    
  7.3763      6.1690      5.1623      4.3835      3.8286      3.4784      3.3122      3.3163      3.4888      3.8395    
  4.3871      5.1510      6.1395      7.3352      8.6810      10.077      11.338      12.085      12.026      12.151    
  11.581      10.554      9.4959      8.8475      8.8759      9.5542      10.578      11.502      11.931      11.668    
  10.771      9.5043      8.1647      6.8941      5.7805      4.8733      4.1854      3.7067      3.4168      3.2971    
  3.3370      3.5371      3.9084      4.4684      5.2337      6.2089      7.3735      8.6706      10.007      11.228    
  11.007      11.861      12.197      12.005      11.480      10.941      10.687      10.859      11.371      11.954    
  12.282      12.114      11.390      10.251      8.9513      7.6590      6.4713      5.4555      4.6435      4.0385    
  3.6261      3.3868      3.3044      3.3711      3.5891      3.9697      4.5284      5.2789      6.2225      7.3368    
  8.5678      9.8309      9.5573      10.675      11.572      12.094      12.231      12.122      11.983      11.993    
  12.201      12.500      12.678      12.523      11.926      10.930      9.7131      8.4432      7.2208      6.1249    
  5.2048      4.4799      3.9464      3.5889      3.3894      3.3341      3.4175      3.6429      4.0207      4.5643    
  5.2841      6.1790      7.2265      8.3773      8.1080      9.1977      10.245      11.156      11.815      12.205    
  12.406      12.545      12.708      12.888      12.979      12.836      12.349      11.508      10.418      9.2201    
  8.0096      6.8712      5.8682      5.0364      4.3865      3.9116      3.5962      3.4245      3.3854      3.4750    
  3.6965      4.0592      4.5740      5.2488      6.0804      7.0480      6.8098      7.7726      8.7683      9.7386    
  10.628      11.367      11.923      12.331      12.643      12.881      13.009      12.941      12.593      11.936    
  11.022      9.9513      8.8078      7.6754      6.6260      5.7105      4.9553      4.3662      3.9349      3.6479    
  3.4915      3.4569      3.5412      3.7475      4.0832      4.5570      5.1744      5.9316      5.7398      6.5238    
  7.3870      8.2880      9.1811      10.025      10.786      11.433      11.959      12.368      12.641      12.730    
  12.578      12.150      11.468      10.586      9.5730      8.5057      7.4594      6.4960      5.6573      4.9640    
  4.4194      4.0163      3.7429      3.5886      3.5462      3.6137      3.7935      4.0914      4.5138      5.0645    
  4.9245      5.5143      6.2033      6.9684      7.7778      8.5966      9.3926      10.140      10.819      11.404    
  11.866      12.165      12.256      12.103      11.699      11.066      10.250      9.3159      8.3346      7.3736    
  6.4870      5.7108      5.0627      4.5457      4.1541      3.8791      3.7128      3.6502      3.6895      3.8325    
  4.0832      4.4463      4.3580      4.7610      5.2658      5.8630      6.5354      7.2599      8.0107      8.7635    
  9.4958      10.184      10.799      11.300      11.640      11.776      11.677      11.337      10.780      10.048    
  9.2022      8.3070      7.4236      6.6008      5.8708      5.2500      4.7425      4.3453      4.0530      3.8607    
  3.7653      3.7657      3.8628      4.0592      4.0207      4.2530      4.5818      5.0055      5.5176      6.1064    
  6.7562      7.4494      8.1677      8.8913      9.5947      10.243      10.790      11.186      11.387      11.363    
  11.108      10.640      10.000      9.2427      8.4271      7.6095      6.8350      6.1337      5.5218      5.0054    
  4.5851      4.2596      4.0275      3.8877      3.8397      3.8836      3.8940      3.9697      4.1364      4.3948    
  4.7443      5.1812      5.6986      6.2873      6.9365      7.6332      8.3591      9.0871      9.7784      10.384    
  10.851      11.132      11.197      11.037      10.664      10.114      9.4382      8.6911      7.9254      7.1830    
  6.4927      5.8711      5.3273      4.8667      4.4926      4.2077      4.0129      3.9085      3.9697      3.8940    
  3.9085      4.0129      4.2076      4.4926      4.8667      5.3274      5.8711      6.4926      7.1831      7.9254    
  8.6911      9.4382      10.114      10.664      11.037      11.197      11.132      10.851      10.384      9.7784    
  9.0871      8.3591      7.6332      6.9365      6.2873      5.6986      5.1812      4.7444      4.3948      4.1363    
  4.2531      4.0207      3.8835      3.8396      3.8877      4.0275      4.2596      4.5851      5.0054      5.5218    
  6.1337      6.8350      7.6095      8.4271      9.2428      10.000      10.640      11.108      11.363      11.387    
  11.186      10.790      10.243      9.5947      8.8913      8.1677      7.4494      6.7562      6.1064      5.5176    
  5.0055      4.5819      4.7611      4.3580      4.0591      3.8628      3.7657      3.7653      3.8607      4.0529    
  4.3453      4.7425      5.2500      5.8708      6.6008      7.4236      8.3070      9.2022      10.048      10.780    
  11.337      11.676      11.776      11.640      11.300      10.799      10.184      9.4958      8.7635      8.0107    
  7.2599      6.5354      5.8630      5.2659      5.5143      4.9245      4.4463      4.0832      3.8324      3.6894    
  3.6501      3.7128      3.8791      4.1541      4.5457      5.0628      5.7109      6.4870      7.3736      8.3346    
  9.3159      10.250      11.066      11.699      12.103      12.256      12.165      11.866      11.404      10.819    
  10.140      9.3926      8.5966      7.7778      6.9684      6.2033      6.5238      5.7398      5.0646      4.5138    
  4.0913      3.7934      3.6136      3.5461      3.5885      3.7429      4.0163      4.4195      4.9640      5.6572    
  6.4959      7.4594      8.5057      9.5730      10.586      11.468      12.150      12.578      12.730      12.641    
  12.368      11.959      11.433      10.786      10.025      9.1812      8.2880      7.3869      7.7727      6.8099    
  5.9316      5.1744      4.5570      4.0832      3.7474      3.5411      3.4569      3.4915      3.6479      3.9349    
  4.3661      4.9553      5.7105      6.6260      7.6754      8.8078      9.9513      11.022      11.935      12.593    
  12.941      13.009      12.881      12.643      12.331      11.923      11.367      10.628      9.7386      8.7683    
  9.1978      8.1080      7.0479      6.0804      5.2488      4.5740      4.0592      3.6965      3.4749      3.3855    
  3.4246      3.5962      3.9115      4.3866      5.0364      5.8682      6.8712      8.0096      9.2201      10.418    
  11.508      12.349      12.836      12.979      12.888      12.708      12.545      12.406      12.205      11.815    
  11.156      10.245      10.675      9.5572      8.3773      7.2266      6.1790      5.2841      4.5642      4.0207    
  3.6429      3.4175      3.3341      3.3894      3.5889      3.9464      4.4798      5.2048      6.1249      7.2208    
  8.4432      9.7131      10.930      11.926      12.523      12.678      12.500      12.201      11.993      11.983    
  12.122      12.231      12.094      11.572      11.861      11.007      9.8310      8.5679      7.3368      6.2224    
  5.2789      4.5284      3.9697      3.5891      3.3711      3.3045      3.3869      3.6261      4.0385      4.6435    
  5.4555      6.4713      7.6589      8.9513      10.251      11.390      12.114      12.282      11.954      11.371    
  10.859      10.687      10.941      11.480      12.005      12.197      12.151      12.026      11.228      10.007    
  8.6706      7.3735      6.2090      5.2337      4.4684      3.9085      3.5372      3.3371      3.2972      3.4169    
  3.7067      4.1854      4.8732      5.7805      6.8941      8.1647      9.5043      10.771      11.668      11.931    
  11.502      10.578      9.5542      8.8759      8.8476      9.4960      10.554      11.581      11.049      12.007    
  12.085      11.338      10.078      8.6811      7.3352      6.1395      5.1510      4.3872      3.8396      3.4888    
  3.3163      3.3123      3.4785      3.8286      4.3834      5.1623      6.1690      7.3763      8.7142      10.068    
  11.176      11.659      11.295      10.143      8.5706      7.1377      6.3922      6.6400      7.8088      9.4759    
  8.4123      10.518      11.822      12.061      11.340      10.041      8.5995      7.2243      6.0179      5.0348    
  4.2882      3.7657      3.4455      3.3094      3.3492      3.5700      3.9886      4.6271      5.5018      6.6072    
  7.8985      9.2827      10.582      11.390      11.312      10.203      8.2751      6.0786      4.3328      3.6576    
  4.3167      6.1001      4.6119      7.5354      10.093      11.652      11.977      11.243      9.9012      8.4312    
  7.0471      5.8503      4.8906      4.1758      3.6894      3.4087      3.3163      3.4070      3.6891      4.1823    
  4.9090      5.8806      7.0793      8.4404      9.8444      10.991      11.379      10.643      8.7466      6.0738    
  3.3581      1.4507     0.99864      2.1771     0.51599      3.5641      6.9880      9.8547      11.532      11.847    
  11.052      9.6664      8.1854      6.8127      5.6450      4.7249      4.0543      3.6136      3.3797      3.3371    
  3.4839      3.8323      4.4040      5.2204      6.2859      7.5682      8.9823      10.362      11.265      11.160    
  9.7392      7.0999      3.8016     0.73987     -1.1471     -1.2375     -2.7429     -.42964      3.1139      6.8572    
  9.8396      11.475      11.674      10.776      9.3490      7.8747      6.5327      5.4115      4.5449      3.9288    
  3.5412      3.3595      3.3711      3.5779      3.9953      4.6467      5.5507      6.7033      8.0568      9.5064    
  10.806      11.410      10.797      8.7439      5.4921      1.7622     -1.4287     -3.1117     -1.0107     -.42956    
  1.8106      5.0044      8.2082      10.592      11.699      11.525      10.441      8.9880      7.5467      6.2569    
  5.1933      4.3804      3.8091      3.4568      3.3021      3.3341      3.5560      3.9841      4.6415      5.5461    
  6.6922      8.0306      9.4574      10.738      11.360      10.851      9.0308      6.1564      2.9173     0.24601    
 -.52339     -1.4720     -.52337      2.0125      5.3369      8.4847      10.674      11.536      11.159      9.9719    
  8.5225      7.1251      5.9007      4.9120      4.1741      3.6730      3.3854      3.2920      3.3854      3.6730    
  4.1741      4.9121      5.9007      7.1251      8.5225      9.9719      11.159      11.536      10.674      8.4847    
  5.3369      2.0124      1.8106     -.42957     -1.0107     0.24603      2.9173      6.1564      9.0308      10.851    
  11.360      10.738      9.4573      8.0305      6.6922      5.5461      4.6415      3.9840      3.5560      3.3341    
  3.3021      3.4568      3.8091      4.3804      5.1934      6.2569      7.5467      8.9880      10.441      11.525    
  11.699      10.592      8.2082      5.0044      5.2249      2.3489     0.51611     0.30529      1.7622      4.3810    
  7.3181      9.7252      11.041      11.132      10.260      8.9166      7.5293      6.2635      5.2059      4.3911    
  3.8164      3.4614      3.3044      3.3324      3.5461      3.9596      4.5955      5.4749      6.6009      7.9402    
  9.4087      10.848      11.842      11.879      10.662      8.2724      8.6846      5.9729      3.5508      2.1771    
  2.2854      3.8016      6.1779      8.6251      10.422      11.156      10.818      9.7298      8.3678      7.0350    
  5.8536      4.8912      4.1686      3.6762      3.3923      3.2972      3.3817      3.6500      4.1190      4.8114    
  5.7452      6.9178      8.2881      9.7657      11.180      12.108      12.092      10.902      11.289      9.3862    
  7.1377      5.2415      4.3167      4.6498      6.0737      8.0433      9.8682      10.982      11.128      10.404    
  9.1687      7.8265      6.5632      5.4753      4.6116      3.9806      3.5673      3.3501      3.3123      3.4482    
  3.7653      4.2816      5.0192      5.9925      7.1930      8.5736      10.041      11.422      12.317      12.327    
  12.554      11.759      10.266      8.5442      7.1795      6.6400      7.0801      8.2749      9.7239      10.867    
  11.303      10.921      9.9029      8.6071      7.3091      6.1287      5.1404      4.3753      3.8319      3.4923    
  3.3360      3.3493      3.5299      3.8877      4.4411      5.2102      6.2053      7.4127      8.7810      10.217    
  11.559      12.450      12.484      12.724      12.225      11.179      9.9848      9.0996      8.8474      9.2768    
  10.143      11.024      11.503      11.341      10.548      9.3560      8.0669      6.8331      5.7459      4.8589    
  4.1886      3.7264      3.4531      3.3502      3.4070      3.6242      4.0129      4.5910      5.3757      6.3730    
  7.5649      8.8983      10.283      11.578      11.470      12.395      12.785      12.591      11.978      11.258    
  10.761      10.687      11.010      11.502      11.835      11.740      11.115      10.059      8.8165      7.5690    
  6.4157      5.4271      4.6389      4.0565      3.6667      3.4506      3.3923      3.4840      3.7282      4.1364    
  4.7250      5.5078      6.4869      7.6410      8.9177      10.233      10.066      11.231      12.165      12.692    
  12.775      12.537      12.202      11.987      11.993      12.155      12.282      12.152      11.623      10.701    
  9.5395      8.3169      7.1348      6.0728      5.1830      4.4869      3.9822      3.6542      3.4852      3.4616    
  3.5780      3.8381      4.2531      4.8369      5.5998      6.5405      7.6360      8.8366      8.6585      9.7908    
  10.869      11.789      12.419      12.722      12.777      12.727      12.693      12.708      12.698      12.523    
  12.057      11.260      10.211      9.0539      7.8845      6.7846      5.8178      5.0213      4.4069      3.9680    
  3.6897      3.5561      3.5561      3.6860      3.9501      4.3581      4.9212      5.6468      6.5306      7.5497    
  7.3859      8.3920      9.4193      10.404      11.281      11.967      12.421      12.681      12.819      12.889    
  12.881      12.730      12.349      11.693      10.793      9.7470      8.6380      7.5440      6.5346      5.6603    
  4.9475      4.4017      4.0147      3.7726      3.6617      3.6732      3.8045      4.0595      4.4464      4.9738    
  5.6460      6.4572      6.3242      7.1532      8.0505      8.9698      9.8596      10.673      11.367      11.906    
  12.291      12.543      12.669      12.641      12.409      11.936      11.231      10.350      9.3572      8.3219    