   2   2   0   0
  0.1529437E+02  0.3691622E-09  0.3691622E-09  0.3691622E-09  0.5000000E-15
  1.000000000000000E-004
  CAR 
 unknown system                          
     23.03802348     -6.61571895  301      9.10808858      1.00000000
     -6.616  0.0000E+00  0.0000E+00
     -6.517  0.0000E+00  0.0000E+00
     -6.418  0.0000E+00  0.0000E+00
     -6.319  0.0000E+00  0.0000E+00
     -6.220  0.0000E+00  0.0000E+00
     -6.121  0.0000E+00  0.0000E+00
     -6.023  0.0000E+00  0.0000E+00
     -5.924  0.0000E+00  0.0000E+00
     -5.825  0.0000E+00  0.0000E+00
     -5.726  0.2082E-17  0.2058E-18
     -5.627  0.4377E-15  0.4347E-16
     -5.528  0.5663E-13  0.5641E-14
     -5.430  0.4566E-11  0.4570E-12
     -5.331  0.2307E-09  0.2326E-10
     -5.232  0.7357E-08  0.7504E-09
     -5.133  0.1497E-06  0.1554E-07
     -5.034  0.1972E-05  0.2104E-06
     -4.935  0.1716E-04  0.1906E-05
     -4.836  0.1012E-03  0.1191E-04
     -4.738  0.4170E-03  0.5313E-04
     -4.639  0.1239E-02  0.1756E-03
     -4.540  0.2738E-02  0.4462E-03
     -4.441  0.4697E-02  0.9105E-03
     -4.342  0.6743E-02  0.1577E-02
     -4.243  0.8680E-02  0.2435E-02
     -4.145  0.9906E-02  0.3414E-02
     -4.046  0.9875E-02  0.4390E-02
     -3.947  0.9962E-02  0.5375E-02
     -3.848  0.1202E-01  0.6563E-02
     -3.749  0.1519E-01  0.8065E-02
     -3.650  0.1687E-01  0.9733E-02
     -3.551  0.1627E-01  0.1134E-01
     -3.453  0.1494E-01  0.1282E-01
     -3.354  0.1446E-01  0.1425E-01
     -3.255  0.1509E-01  0.1574E-01
     -3.156  0.1674E-01  0.1739E-01
     -3.057  0.1926E-01  0.1930E-01
     -2.958  0.2129E-01  0.2140E-01
     -2.860  0.2121E-01  0.2350E-01
     -2.761  0.2025E-01  0.2550E-01
     -2.662  0.2045E-01  0.2752E-01
     -2.563  0.2076E-01  0.2957E-01
     -2.464  0.2048E-01  0.3160E-01
     -2.365  0.2195E-01  0.3377E-01
     -2.267  0.2569E-01  0.3631E-01
     -2.168  0.2817E-01  0.3909E-01
     -2.069  0.2648E-01  0.4171E-01
     -1.970  0.2267E-01  0.4395E-01
     -1.871  0.2047E-01  0.4597E-01
     -1.772  0.2029E-01  0.4798E-01
     -1.673  0.2114E-01  0.5007E-01
     -1.575  0.2414E-01  0.5245E-01
     -1.476  0.2948E-01  0.5537E-01
     -1.377  0.3421E-01  0.5875E-01
     -1.278  0.3550E-01  0.6226E-01
     -1.179  0.3313E-01  0.6553E-01
     -1.080  0.2953E-01  0.6845E-01
     -0.982  0.2769E-01  0.7119E-01
     -0.883  0.2821E-01  0.7398E-01
     -0.784  0.2926E-01  0.7687E-01
     -0.685  0.2882E-01  0.7972E-01
     -0.586  0.2730E-01  0.8242E-01
     -0.487  0.2759E-01  0.8514E-01
     -0.388  0.3008E-01  0.8812E-01
     -0.290  0.3128E-01  0.9121E-01
     -0.191  0.3109E-01  0.9428E-01
     -0.092  0.3383E-01  0.9762E-01
      0.007  0.3981E-01  0.1016E+00
      0.106  0.4482E-01  0.1060E+00
      0.205  0.4520E-01  0.1105E+00
      0.303  0.3970E-01  0.1144E+00
      0.402  0.3227E-01  0.1176E+00
      0.501  0.2907E-01  0.1204E+00
      0.600  0.3127E-01  0.1235E+00
      0.699  0.3587E-01  0.1271E+00
      0.798  0.3971E-01  0.1310E+00
      0.897  0.4175E-01  0.1351E+00
      0.995  0.4350E-01  0.1394E+00
      1.094  0.4517E-01  0.1439E+00
      1.193  0.4385E-01  0.1482E+00
      1.292  0.3887E-01  0.1521E+00
      1.391  0.3425E-01  0.1555E+00
      1.490  0.3337E-01  0.1588E+00
      1.588  0.3507E-01  0.1622E+00
      1.687  0.3530E-01  0.1657E+00
      1.786  0.3249E-01  0.1689E+00
      1.885  0.2975E-01  0.1719E+00
      1.984  0.3074E-01  0.1749E+00
      2.083  0.3500E-01  0.1784E+00
      2.182  0.3919E-01  0.1822E+00
      2.280  0.4198E-01  0.1864E+00
      2.379  0.4388E-01  0.1907E+00
      2.478  0.4392E-01  0.1951E+00
      2.577  0.4049E-01  0.1991E+00
      2.676  0.3582E-01  0.2026E+00
      2.775  0.3494E-01  0.2061E+00
      2.873  0.3892E-01  0.2099E+00
      2.972  0.4412E-01  0.2143E+00
      3.071  0.4556E-01  0.2188E+00
      3.170  0.4083E-01  0.2228E+00
      3.269  0.3405E-01  0.2262E+00
      3.368  0.3120E-01  0.2293E+00
      3.467  0.3328E-01  0.2325E+00
      3.565  0.3779E-01  0.2363E+00
      3.664  0.4286E-01  0.2405E+00
      3.763  0.4710E-01  0.2452E+00
      3.862  0.4824E-01  0.2499E+00
      3.961  0.4600E-01  0.2545E+00
      4.060  0.4356E-01  0.2588E+00
      4.158  0.4369E-01  0.2631E+00
      4.257  0.4664E-01  0.2677E+00
      4.356  0.5145E-01  0.2728E+00
      4.455  0.5538E-01  0.2783E+00
      4.554  0.5356E-01  0.2836E+00
      4.653  0.4533E-01  0.2881E+00
      4.752  0.3771E-01  0.2918E+00
      4.850  0.3668E-01  0.2954E+00
      4.949  0.4157E-01  0.2995E+00
      5.048  0.4821E-01  0.3043E+00
      5.147  0.5231E-01  0.3095E+00
      5.246  0.5393E-01  0.3148E+00
      5.345  0.5735E-01  0.3205E+00
      5.443  0.6327E-01  0.3267E+00
      5.542  0.6822E-01  0.3335E+00
      5.641  0.6800E-01  0.3402E+00
      5.740  0.5947E-01  0.3461E+00
      5.839  0.4647E-01  0.3506E+00
      5.938  0.3745E-01  0.3544E+00
      6.037  0.3532E-01  0.3578E+00
      6.135  0.3819E-01  0.3616E+00
      6.234  0.4492E-01  0.3661E+00
      6.333  0.5424E-01  0.3714E+00
      6.432  0.6442E-01  0.3778E+00
      6.531  0.7254E-01  0.3850E+00
      6.630  0.7269E-01  0.3921E+00
      6.728  0.6398E-01  0.3985E+00
      6.827  0.5675E-01  0.4041E+00
      6.926  0.5930E-01  0.4099E+00
      7.025  0.6575E-01  0.4164E+00
      7.124  0.6675E-01  0.4230E+00
      7.223  0.6301E-01  0.4293E+00
      7.322  0.6136E-01  0.4353E+00
      7.420  0.6304E-01  0.4416E+00
      7.519  0.6213E-01  0.4477E+00
      7.618  0.5808E-01  0.4534E+00
      7.717  0.5901E-01  0.4593E+00
      7.816  0.6743E-01  0.4659E+00
      7.915  0.7504E-01  0.4734E+00
      8.013  0.7318E-01  0.4806E+00
      8.112  0.6266E-01  0.4868E+00
      8.211  0.5225E-01  0.4919E+00
      8.310  0.4743E-01  0.4966E+00
      8.409  0.4613E-01  0.5012E+00
      8.508  0.4548E-01  0.5057E+00
      8.607  0.4473E-01  0.5101E+00
      8.705  0.4416E-01  0.5145E+00
      8.804  0.4463E-01  0.5189E+00
      8.903  0.4556E-01  0.5234E+00
      9.002  0.4680E-01  0.5280E+00
      9.101  0.4989E-01  0.5330E+00
      9.200  0.5378E-01  0.5383E+00
      9.298  0.5545E-01  0.5437E+00
      9.397  0.5383E-01  0.5491E+00
      9.496  0.5079E-01  0.5541E+00
      9.595  0.4866E-01  0.5589E+00
      9.694  0.4751E-01  0.5636E+00
      9.793  0.4624E-01  0.5682E+00
      9.892  0.4348E-01  0.5725E+00
      9.990  0.3806E-01  0.5762E+00
     10.089  0.3160E-01  0.5793E+00
     10.188  0.2838E-01  0.5822E+00
     10.287  0.3216E-01  0.5853E+00
     10.386  0.4221E-01  0.5895E+00
     10.485  0.5308E-01  0.5948E+00
     10.583  0.6090E-01  0.6008E+00
     10.682  0.6530E-01  0.6072E+00
     10.781  0.6603E-01  0.6138E+00
     10.880  0.6380E-01  0.6201E+00
     10.979  0.6121E-01  0.6261E+00
     11.078  0.5947E-01  0.6320E+00
     11.177  0.5856E-01  0.6378E+00
     11.275  0.6053E-01  0.6438E+00
     11.374  0.6695E-01  0.6504E+00
     11.473  0.7365E-01  0.6577E+00
     11.572  0.7326E-01  0.6649E+00
     11.671  0.6413E-01  0.6712E+00
     11.770  0.5278E-01  0.6765E+00
     11.868  0.4511E-01  0.6809E+00
     11.967  0.4210E-01  0.6851E+00
     12.066  0.4297E-01  0.6893E+00
     12.165  0.4656E-01  0.6939E+00
     12.264  0.5400E-01  0.6993E+00
     12.363  0.6705E-01  0.7059E+00
     12.462  0.8034E-01  0.7138E+00
     12.560  0.8416E-01  0.7222E+00
     12.659  0.7739E-01  0.7298E+00
     12.758  0.6925E-01  0.7366E+00
     12.857  0.6632E-01  0.7432E+00
     12.956  0.6763E-01  0.7499E+00
     13.055  0.7037E-01  0.7568E+00
     13.153  0.7235E-01  0.7640E+00
     13.252  0.7337E-01  0.7712E+00
     13.351  0.7355E-01  0.7785E+00
     13.450  0.7073E-01  0.7855E+00
     13.549  0.6511E-01  0.7919E+00
     13.648  0.6169E-01  0.7980E+00
     13.747  0.6487E-01  0.8045E+00
     13.845  0.7417E-01  0.8118E+00
     13.944  0.8480E-01  0.8202E+00
     14.043  0.8991E-01  0.8291E+00
     14.142  0.8550E-01  0.8375E+00
     14.241  0.7485E-01  0.8449E+00
     14.340  0.6504E-01  0.8513E+00
     14.438  0.5935E-01  0.8572E+00
     14.537  0.5598E-01  0.8627E+00
     14.636  0.5369E-01  0.8680E+00
     14.735  0.5413E-01  0.8734E+00
     14.834  0.5862E-01  0.8792E+00
     14.933  0.6416E-01  0.8855E+00
     15.032  0.6554E-01  0.8920E+00
     15.130  0.6337E-01  0.8983E+00
     15.229  0.6231E-01  0.9044E+00
     15.328  0.6183E-01  0.9105E+00
     15.427  0.5897E-01  0.9164E+00
     15.526  0.5620E-01  0.9219E+00
     15.625  0.5817E-01  0.9277E+00
     15.723  0.6389E-01  0.9340E+00
     15.822  0.6727E-01  0.9406E+00
     15.921  0.6261E-01  0.9468E+00
     16.020  0.5010E-01  0.9518E+00
     16.119  0.3870E-01  0.9556E+00
     16.218  0.3723E-01  0.9593E+00
     16.317  0.4436E-01  0.9637E+00
     16.415  0.5264E-01  0.9689E+00
     16.514  0.5640E-01  0.9745E+00
     16.613  0.5435E-01  0.9798E+00
     16.712  0.4858E-01  0.9846E+00
     16.811  0.4211E-01  0.9888E+00
     16.910  0.3777E-01  0.9925E+00
     17.008  0.3682E-01  0.9962E+00
     17.107  0.3654E-01  0.9998E+00
     17.206  0.3397E-01  0.1003E+01
     17.305  0.3036E-01  0.1006E+01
     17.404  0.2830E-01  0.1009E+01
     17.503  0.2766E-01  0.1012E+01
     17.602  0.2634E-01  0.1014E+01
     17.700  0.2478E-01  0.1017E+01
     17.799  0.2688E-01  0.1019E+01
     17.898  0.3279E-01  0.1023E+01
     17.997  0.3561E-01  0.1026E+01
     18.096  0.3132E-01  0.1029E+01
     18.195  0.2455E-01  0.1032E+01
     18.293  0.2171E-01  0.1034E+01
     18.392  0.2515E-01  0.1036E+01
     18.491  0.3129E-01  0.1039E+01
     18.590  0.3321E-01  0.1043E+01
     18.689  0.2896E-01  0.1046E+01
     18.788  0.2320E-01  0.1048E+01
     18.886  0.1944E-01  0.1050E+01
     18.985  0.1651E-01  0.1051E+01
     19.084  0.1295E-01  0.1053E+01
     19.183  0.1017E-01  0.1054E+01
     19.282  0.1004E-01  0.1055E+01
     19.381  0.1200E-01  0.1056E+01
     19.480  0.1374E-01  0.1057E+01
     19.578  0.1359E-01  0.1059E+01
     19.677  0.1198E-01  0.1060E+01
     19.776  0.1050E-01  0.1061E+01
     19.875  0.9476E-02  0.1062E+01
     19.974  0.7996E-02  0.1062E+01
     20.073  0.6513E-02  0.1063E+01
     20.171  0.6486E-02  0.1064E+01
     20.270  0.7311E-02  0.1064E+01
     20.369  0.6769E-02  0.1065E+01
     20.468  0.4442E-02  0.1066E+01
     20.567  0.2025E-02  0.1066E+01
     20.666  0.8485E-03  0.1066E+01
     20.765  0.9188E-03  0.1066E+01
     20.863  0.1585E-02  0.1066E+01
     20.962  0.2017E-02  0.1066E+01
     21.061  0.1746E-02  0.1067E+01
     21.160  0.1045E-02  0.1067E+01
     21.259  0.4365E-03  0.1067E+01
     21.358  0.1260E-03  0.1067E+01
     21.456  0.2449E-04  0.1067E+01
     21.555  0.3124E-05  0.1067E+01
     21.654  0.2559E-06  0.1067E+01
     21.753  0.1327E-07  0.1067E+01
     21.852  0.4314E-09  0.1067E+01
     21.951  0.8748E-11  0.1067E+01
     22.050  0.1102E-12  0.1067E+01
     22.148  0.8601E-15  0.1067E+01
     22.247  0.4051E-17  0.1067E+01
     22.346  0.0000E+00  0.1067E+01
     22.445  0.0000E+00  0.1067E+01
     22.544  0.0000E+00  0.1067E+01
     22.643  0.0000E+00  0.1067E+01
     22.741  0.0000E+00  0.1067E+01
     22.840  0.0000E+00  0.1067E+01
     22.939  0.0000E+00  0.1067E+01
     23.038  0.0000E+00  0.1067E+01
