   2   2   0   0
  0.1529437E+02  0.3691622E-09  0.3691622E-09  0.3691622E-09  0.5000000E-15
  1.000000000000000E-004
  CAR 
 unknown system                          
     19.52319682     -4.78840222  301      9.83074222      1.00000000
     -4.788  0.0000E+00  0.0000E+00
     -4.707  0.0000E+00  0.0000E+00
     -4.626  0.0000E+00  0.0000E+00
     -4.545  0.0000E+00  0.0000E+00
     -4.464  0.0000E+00  0.0000E+00
     -4.383  0.0000E+00  0.0000E+00
     -4.302  0.0000E+00  0.0000E+00
     -4.221  0.0000E+00  0.0000E+00
     -4.140  0.0000E+00  0.0000E+00
     -4.059  0.0000E+00  0.0000E+00
     -3.978  0.0000E+00  0.0000E+00
     -3.897  0.1872E-14  0.1517E-15
     -3.816  0.1507E-12  0.1236E-13
     -3.735  0.8856E-11  0.7301E-12
     -3.654  0.3766E-09  0.3125E-10
     -3.573  0.1159E-07  0.9704E-09
     -3.492  0.2583E-06  0.2190E-07
     -3.411  0.4170E-05  0.3598E-06
     -3.330  0.4879E-04  0.4313E-05
     -3.249  0.4139E-03  0.3786E-04
     -3.168  0.2547E-02  0.2443E-03
     -3.087  0.1138E-01  0.1166E-02
     -3.006  0.3689E-01  0.4156E-02
     -2.925  0.8685E-01  0.1119E-01
     -2.843  0.1485E+00  0.2323E-01
     -2.762  0.1846E+00  0.3819E-01
     -2.681  0.1666E+00  0.5169E-01
     -2.600  0.1093E+00  0.6055E-01
     -2.519  0.5205E-01  0.6476E-01
     -2.438  0.1801E-01  0.6622E-01
     -2.357  0.4524E-02  0.6659E-01
     -2.276  0.8248E-03  0.6666E-01
     -2.195  0.1091E-03  0.6667E-01
     -2.114  0.1047E-04  0.6667E-01
     -2.033  0.7279E-06  0.6667E-01
     -1.952  0.3667E-07  0.6667E-01
     -1.871  0.1338E-08  0.6667E-01
     -1.790  0.3535E-10  0.6667E-01
     -1.709  0.6755E-12  0.6667E-01
     -1.628  0.9407E-14  0.6667E-01
     -1.547  0.9133E-16  0.6667E-01
     -1.466  0.0000E+00  0.6667E-01
     -1.385  0.0000E+00  0.6667E-01
     -1.304  0.0000E+00  0.6667E-01
     -1.223  0.0000E+00  0.6667E-01
     -1.142  0.0000E+00  0.6667E-01
     -1.061  0.0000E+00  0.6667E-01
     -0.980  0.0000E+00  0.6667E-01
     -0.899  0.0000E+00  0.6667E-01
     -0.818  0.0000E+00  0.6667E-01
     -0.736  0.0000E+00  0.6667E-01
     -0.655  0.0000E+00  0.6667E-01
     -0.574  0.1233E-14  0.6667E-01
     -0.493  0.9668E-13  0.6667E-01
     -0.412  0.5575E-11  0.6667E-01
     -0.331  0.2326E-09  0.6667E-01
     -0.250  0.7022E-08  0.6667E-01
     -0.169  0.1535E-06  0.6667E-01
     -0.088  0.2432E-05  0.6667E-01
     -0.007  0.2792E-04  0.6667E-01
      0.074  0.2324E-03  0.6669E-01
      0.155  0.1404E-02  0.6680E-01
      0.236  0.6152E-02  0.6730E-01
      0.317  0.1957E-01  0.6889E-01
      0.398  0.4522E-01  0.7255E-01
      0.479  0.7590E-01  0.7870E-01
      0.560  0.9255E-01  0.8620E-01
      0.641  0.8198E-01  0.9285E-01
      0.722  0.5276E-01  0.9712E-01
      0.803  0.2466E-01  0.9912E-01
      0.884  0.8374E-02  0.9980E-01
      0.965  0.2064E-02  0.9997E-01
      1.046  0.3693E-03  0.1000E+00
      1.127  0.4793E-04  0.1000E+00
      1.208  0.4512E-05  0.1000E+00
      1.289  0.3078E-06  0.1000E+00
      1.371  0.1522E-07  0.1000E+00
      1.452  0.5448E-09  0.1000E+00
      1.533  0.1412E-10  0.1000E+00
      1.614  0.2647E-12  0.1000E+00
      1.695  0.3608E-14  0.1000E+00
      1.776  0.4567E-16  0.1000E+00
      1.857  0.0000E+00  0.1000E+00
      1.938  0.1370E-15  0.1000E+00
      2.019  0.1270E-13  0.1000E+00
      2.100  0.8994E-12  0.1000E+00
      2.181  0.4612E-10  0.1000E+00
      2.262  0.1713E-08  0.1000E+00
      2.343  0.4615E-07  0.1000E+00
      2.424  0.9025E-06  0.1000E+00
      2.505  0.1283E-04  0.1000E+00
      2.586  0.1330E-03  0.1000E+00
      2.667  0.1007E-02  0.1001E+00
      2.748  0.5592E-02  0.1005E+00
      2.829  0.2288E-01  0.1024E+00
      2.910  0.6939E-01  0.1080E+00
      2.991  0.1569E+00  0.1207E+00
      3.072  0.2663E+00  0.1423E+00
      3.153  0.3409E+00  0.1700E+00
      3.234  0.3302E+00  0.1967E+00
      3.315  0.2418E+00  0.2163E+00
      3.397  0.1334E+00  0.2271E+00
      3.478  0.5518E-01  0.2316E+00
      3.559  0.1699E-01  0.2330E+00
      3.640  0.3896E-02  0.2333E+00
      3.721  0.8750E-03  0.2333E+00
      3.802  0.1626E-02  0.2335E+00
      3.883  0.7755E-02  0.2341E+00
      3.964  0.2857E-01  0.2364E+00
      4.045  0.7823E-01  0.2428E+00
      4.126  0.1614E+00  0.2558E+00
      4.207  0.2557E+00  0.2766E+00
      4.288  0.3167E+00  0.3022E+00
      4.369  0.3106E+00  0.3274E+00
      4.450  0.2408E+00  0.3469E+00
      4.531  0.1456E+00  0.3587E+00
      4.612  0.6736E-01  0.3642E+00
      4.693  0.2341E-01  0.3661E+00
      4.774  0.6033E-02  0.3666E+00
      4.855  0.1142E-02  0.3667E+00
      4.936  0.1580E-03  0.3667E+00
      5.017  0.1591E-04  0.3667E+00
      5.098  0.1164E-05  0.3667E+00
      5.179  0.6182E-07  0.3667E+00
      5.260  0.2378E-08  0.3667E+00
      5.341  0.6632E-10  0.3667E+00
      5.422  0.4382E-11  0.3667E+00
      5.504  0.1336E-09  0.3667E+00
      5.585  0.4240E-08  0.3667E+00
      5.666  0.9752E-07  0.3667E+00
      5.747  0.1625E-05  0.3667E+00
      5.828  0.1966E-04  0.3667E+00
      5.909  0.1728E-03  0.3667E+00
      5.990  0.1106E-02  0.3668E+00
      6.071  0.5172E-02  0.3672E+00
      6.152  0.1781E-01  0.3686E+00
      6.233  0.4560E-01  0.3723E+00
      6.314  0.8833E-01  0.3795E+00
      6.395  0.1323E+00  0.3902E+00
      6.476  0.1569E+00  0.4029E+00
      6.557  0.1493E+00  0.4150E+00
      6.638  0.1136E+00  0.4242E+00
      6.719  0.6799E-01  0.4297E+00
      6.800  0.3297E-01  0.4324E+00
      6.881  0.2036E-01  0.4341E+00
      6.962  0.3561E-01  0.4370E+00
      7.043  0.8081E-01  0.4435E+00
      7.124  0.1423E+00  0.4550E+00
      7.205  0.1831E+00  0.4699E+00
      7.286  0.1711E+00  0.4837E+00
      7.367  0.1162E+00  0.4932E+00
      7.448  0.5735E-01  0.4978E+00
      7.529  0.2055E-01  0.4995E+00
      7.611  0.5346E-02  0.4999E+00
      7.692  0.1010E-02  0.5000E+00
      7.773  0.1383E-03  0.5000E+00
      7.854  0.1375E-04  0.5000E+00
      7.935  0.9903E-06  0.5000E+00
      8.016  0.5169E-07  0.5000E+00
      8.097  0.1954E-08  0.5000E+00
      8.178  0.5348E-10  0.5000E+00
      8.259  0.1059E-11  0.5000E+00
      8.340  0.1516E-13  0.5000E+00
      8.421  0.1827E-15  0.5000E+00
      8.502  0.0000E+00  0.5000E+00
      8.583  0.0000E+00  0.5000E+00
      8.664  0.4567E-16  0.5000E+00
      8.745  0.6667E-14  0.5000E+00
      8.826  0.4920E-12  0.5000E+00
      8.907  0.2639E-10  0.5000E+00
      8.988  0.1024E-08  0.5000E+00
      9.069  0.2877E-07  0.5000E+00
      9.150  0.5854E-06  0.5000E+00
      9.231  0.8628E-05  0.5000E+00
      9.312  0.9219E-04  0.5000E+00
      9.393  0.7143E-03  0.5001E+00
      9.474  0.4015E-02  0.5004E+00
      9.555  0.1638E-01  0.5017E+00
      9.636  0.4853E-01  0.5057E+00
      9.718  0.1044E+00  0.5141E+00
      9.799  0.1631E+00  0.5273E+00
      9.880  0.1852E+00  0.5423E+00
      9.961  0.1528E+00  0.5547E+00
     10.042  0.9154E-01  0.5621E+00
     10.123  0.3984E-01  0.5654E+00
     10.204  0.1259E-01  0.5664E+00
     10.285  0.2890E-02  0.5666E+00
     10.366  0.4813E-03  0.5667E+00
     10.447  0.5814E-04  0.5667E+00
     10.528  0.5093E-05  0.5667E+00
     10.609  0.3234E-06  0.5667E+00
     10.690  0.1488E-07  0.5667E+00
     10.771  0.4955E-09  0.5667E+00
     10.852  0.1195E-10  0.5667E+00
     10.933  0.2083E-12  0.5667E+00
     11.014  0.2649E-14  0.5667E+00
     11.095  0.0000E+00  0.5667E+00
     11.176  0.0000E+00  0.5667E+00
     11.257  0.0000E+00  0.5667E+00
     11.338  0.0000E+00  0.5667E+00
     11.419  0.0000E+00  0.5667E+00
     11.500  0.0000E+00  0.5667E+00
     11.581  0.0000E+00  0.5667E+00
     11.662  0.0000E+00  0.5667E+00
     11.743  0.0000E+00  0.5667E+00
     11.825  0.0000E+00  0.5667E+00
     11.906  0.7307E-15  0.5667E+00
     11.987  0.6473E-13  0.5667E+00
     12.068  0.4056E-11  0.5667E+00
     12.149  0.1839E-09  0.5667E+00
     12.230  0.6036E-08  0.5667E+00
     12.311  0.1435E-06  0.5667E+00
     12.392  0.2472E-05  0.5667E+00
     12.473  0.3089E-04  0.5667E+00
     12.554  0.2803E-03  0.5667E+00
     12.635  0.1850E-02  0.5668E+00
     12.716  0.8902E-02  0.5676E+00
     12.797  0.3135E-01  0.5701E+00
     12.878  0.8124E-01  0.5767E+00
     12.959  0.1563E+00  0.5894E+00
     13.040  0.2262E+00  0.6077E+00
     13.121  0.2499E+00  0.6279E+00
     13.202  0.2143E+00  0.6453E+00
     13.283  0.1441E+00  0.6570E+00
     13.364  0.7596E-01  0.6631E+00
     13.445  0.3106E-01  0.6657E+00
     13.526  0.9731E-02  0.6664E+00
     13.607  0.2600E-02  0.6667E+00
     13.688  0.2485E-02  0.6669E+00
     13.769  0.9742E-02  0.6677E+00
     13.850  0.3264E-01  0.6703E+00
     13.932  0.7981E-01  0.6768E+00
     14.013  0.1418E+00  0.6883E+00
     14.094  0.1831E+00  0.7031E+00
     14.175  0.1727E+00  0.7171E+00
     14.256  0.1231E+00  0.7271E+00
     14.337  0.8118E-01  0.7336E+00
     14.418  0.8378E-01  0.7404E+00
     14.499  0.1287E+00  0.7509E+00
     14.580  0.1762E+00  0.7651E+00
     14.661  0.1810E+00  0.7798E+00
     14.742  0.1356E+00  0.7908E+00
     14.823  0.7390E-01  0.7968E+00
     14.904  0.2924E-01  0.7992E+00
     14.985  0.8404E-02  0.7998E+00
     15.066  0.1753E-02  0.8000E+00
     15.147  0.2654E-03  0.8000E+00
     15.228  0.2914E-04  0.8000E+00
     15.309  0.2320E-05  0.8000E+00
     15.390  0.1474E-06  0.8000E+00
     15.471  0.3033E-06  0.8000E+00
     15.552  0.4734E-05  0.8000E+00
     15.633  0.5458E-04  0.8000E+00
     15.714  0.4566E-03  0.8000E+00
     15.795  0.2777E-02  0.8003E+00
     15.876  0.1231E-01  0.8013E+00
     15.957  0.3998E-01  0.8045E+00
     16.039  0.9615E-01  0.8123E+00
     16.120  0.1748E+00  0.8265E+00
     16.201  0.2483E+00  0.8466E+00
     16.282  0.2880E+00  0.8699E+00
     16.363  0.2815E+00  0.8927E+00
     16.444  0.2305E+00  0.9114E+00
     16.525  0.1523E+00  0.9238E+00
     16.606  0.7783E-01  0.9301E+00
     16.687  0.2985E-01  0.9325E+00
     16.768  0.8447E-02  0.9332E+00
     16.849  0.1759E-02  0.9333E+00
     16.930  0.3766E-03  0.9333E+00
     17.011  0.9213E-03  0.9334E+00
     17.092  0.5162E-02  0.9338E+00
     17.173  0.2193E-01  0.9356E+00
     17.254  0.6877E-01  0.9412E+00
     17.335  0.1596E+00  0.9541E+00
     17.416  0.2747E+00  0.9764E+00
     17.497  0.3514E+00  0.1005E+01
     17.578  0.3347E+00  0.1032E+01
     17.659  0.2371E+00  0.1051E+01
     17.740  0.1248E+00  0.1061E+01
     17.821  0.4869E-01  0.1065E+01
     17.902  0.1404E-01  0.1066E+01
     17.983  0.2984E-02  0.1067E+01
     18.065  0.4659E-03  0.1067E+01
     18.146  0.5327E-04  0.1067E+01
     18.227  0.4450E-05  0.1067E+01
     18.308  0.2710E-06  0.1067E+01
     18.389  0.1201E-07  0.1067E+01
     18.470  0.3864E-09  0.1067E+01
     18.551  0.9026E-11  0.1067E+01
     18.632  0.1528E-12  0.1067E+01
     18.713  0.1827E-14  0.1067E+01
     18.794  0.0000E+00  0.1067E+01
     18.875  0.0000E+00  0.1067E+01
     18.956  0.0000E+00  0.1067E+01
     19.037  0.0000E+00  0.1067E+01
     19.118  0.0000E+00  0.1067E+01
     19.199  0.0000E+00  0.1067E+01
     19.280  0.0000E+00  0.1067E+01
     19.361  0.0000E+00  0.1067E+01
     19.442  0.0000E+00  0.1067E+01
     19.523  0.0000E+00  0.1067E+01
