    2    2   15    1
  0.1529437E+02  0.3691622E-09  0.3691622E-09  0.3691622E-09  0.5000000E-15
  1.000000000000000E-004
  CAR 
 unknown system                          
      8      3      8
 
  0.2500000E+00  0.2500000E+00  0.2500000E+00  0.2500000E+00
    1        3.195355   1.000000
    2        3.195357   1.000000
    3        4.356505   1.000000
    4        4.356507   1.000000
    5       14.077223   0.000000
    6       14.077226   0.000000
    7       16.170724   0.000000
    8       16.170726   0.000000
 
 -0.2500000E+00  0.2500000E+00  0.2500000E+00  0.5000000E+00
    1       -2.788402   1.000000
    2        3.092754   1.000000
    3        4.205678   1.000000
    4        9.830742   0.500000
    5       14.587910   0.000000
    6       16.370379   0.000000
    7       17.444398   0.000000
    8       17.523197   0.000000
 
 -0.2500000E+00 -0.2500000E+00  0.2500000E+00  0.2500000E+00
    1        0.529400   1.000000
    2        6.376699   1.000000
    3        6.538481   1.000000
    4        7.188233   1.000000
    5        7.188237   1.000000
    6       13.030182   0.000000
    7       13.030201   0.000000
    8       13.172477   0.000000
