 vasp.5.4.4.18Apr17-6-g9f103f2a35 (build Dec 09 2018 21:25:21) complex          
  
 executed on IFC18.0.1.163_CrayMP date 2019.03.20  09:13:06
 running on    8 total cores
 distrk:  each k-point on    8 cores,    1 groups
 distr:  one band on NCORES_PER_BAND=   1 cores,    8 groups


--------------------------------------------------------------------------------------------------------


 INCAR:
 POTCAR:   PAW_PBE Si 05Jan2001                   

 ----------------------------------------------------------------------------- 
|                                                                             |
|           W    W    AA    RRRRR   N    N  II  N    N   GGGG   !!!           |
|           W    W   A  A   R    R  NN   N  II  NN   N  G    G  !!!           |
|           W    W  A    A  R    R  N N  N  II  N N  N  G       !!!           |
|           W WW W  AAAAAA  RRRRR   N  N N  II  N  N N  G  GGG   !            |
|           WW  WW  A    A  R   R   N   NN  II  N   NN  G    G                |
|           W    W  A    A  R    R  N    N  II  N    N   GGGG   !!!           |
|                                                                             |
|      For optimal performance we recommend to set                            |
|        NCORE= 4 - approx SQRT( number of cores)                             |
|      NCORE specifies how many cores store one orbital (NPAR=cpu/NCORE).     |
|      This setting can  greatly improve the performance of VASP for DFT.     |
|      The default,   NCORE=1            might be grossly inefficient         |
|      on modern multi-core architectures or massively parallel machines.     |
|      Do your own testing !!!!                                               |
|      Unfortunately you need to use the default for GW and RPA calculations. |
|      (for HF NCORE is supported but not extensively tested yet)             |
|                                                                             |
 ----------------------------------------------------------------------------- 

 POTCAR:   PAW_PBE Si 05Jan2001                   
   VRHFIN =Si: s2p2                                                             
   LEXCH  = PE                                                                  
   EATOM  =   103.0669 eV,    7.5752 Ry                                         
                                                                                
   TITEL  = PAW_PBE Si 05Jan2001                                                
   LULTRA =        F    use ultrasoft PP ?                                      
   IUNSCR =        1    unscreen: 0-lin 1-nonlin 2-no                           
   RPACOR =    1.500    partial core radius                                     
   POMASS =   28.085; ZVAL   =    4.000    mass and valenz                      
   RCORE  =    1.900    outmost cutoff radius                                   
   RWIGS  =    2.480; RWIGS  =    1.312    wigner-seitz radius (au A)           
   ENMAX  =  245.345; ENMIN  =  184.009 eV                                      
   ICORE  =        2    local potential                                         
   LCOR   =        T    correct aug charges                                     
   LPAW   =        T    paw PP                                                  
   EAUG   =  322.069                                                            
   DEXC   =    -.007                                                            
   RMAX   =    2.944    core radius for proj-oper                               
   RAUG   =    1.300    factor for augmentation sphere                          
   RDEP   =    1.993    radius for radial grids                                 
   QCUT   =   -4.246; QGAM   =    8.493    optimization parameters              
                                                                                
   Description                                                                  
     l     E      TYP  RCUT    TYP  RCUT                                        
     0   .000     23  1.900                                                     
     0   .000     23  1.900                                                     
     1   .000     23  1.900                                                     
     1   .000     23  1.900                                                     
     2   .000      7  1.900                                                     
  local pseudopotential read in
  partial core-charges read in
  atomic valenz-charges read in
  non local Contribution for L=           0  read in
    real space projection operators read in
  non local Contribution for L=           0  read in
    real space projection operators read in
  non local Contribution for L=           1  read in
    real space projection operators read in
  non local Contribution for L=           1  read in
    real space projection operators read in
    PAW grid and wavefunctions read in
 
   number of l-projection  operators is LMAX  =           4
   number of lm-projection operators is LMMAX =           8
 
 PAW_PBE Si 05Jan2001                   :
 energy of atom  1       EATOM= -103.0669
 kinetic energy error for atom=    0.0107 (will be added to EATOM!!)
 
 
 POSCAR: Si2                                     
  positions in direct lattice
  No initial velocities read in
 exchange correlation table for  LEXCH =        8
   RHO(1)=    0.500       N(1)  =     2000
   RHO(2)=  100.500       N(2)  =     4000
 


--------------------------------------------------------------------------------------------------------


 ion  position               nearest neighbor table
   1  0.250  0.750  0.500-   2 2.53   2 2.53   2 2.53   2 2.53   2 3.11   2 3.11   2 3.11   2 3.11

   2  0.000  0.000  0.000-   1 2.53   1 2.53   1 2.53   1 2.53   1 3.11   1 3.11   1 3.11   1 3.11

 
  LATTYP: Found a body centered tetragonal cell.
 ALAT       =     4.9000000000
 C/A-ratio  =     0.5200000000
  
  Lattice vectors:
  
 A1 = (  -2.4500000000,   2.4500000000,   1.2740000000)
 A2 = (   2.4500000000,  -2.4500000000,   1.2740000000)
 A3 = (   2.4500000000,   2.4500000000,  -1.2740000000)


Analysis of symmetry for initial positions (statically):
=====================================================================
 Subroutine PRICEL returns:
 Original cell was already a primitive cell.
 

 Routine SETGRP: Setting up the symmetry group for a 
 body centered tetragonal supercell.


 Subroutine GETGRP returns: Found 16 space group operations
 (whereof  8 operations were pure point group operations)
 out of a pool of 16 trial point group operations.


The static configuration has the point symmetry D_2d.
 The point group associated with its full space group is D_4h.


Analysis of symmetry for dynamics (positions and initial velocities):
=====================================================================
 Subroutine PRICEL returns:
 Original cell was already a primitive cell.
 

 Routine SETGRP: Setting up the symmetry group for a 
 body centered tetragonal supercell.


 Subroutine GETGRP returns: Found 16 space group operations
 (whereof  8 operations were pure point group operations)
 out of a pool of 16 trial point group operations.


The dynamic configuration has the point symmetry D_2d.
 The point group associated with its full space group is D_4h.


 Subroutine INISYM returns: Found 16 space group operations
 (whereof  8 operations are pure point group operations),
 and found     1 'primitive' translations

 
 
 KPOINTS: Automatic kpoint scheme                 

Automatic generation of k-mesh.
Space group operators:
 irot       det(A)        alpha          n_x          n_y          n_z        tau_x        tau_y        tau_z
    1     1.000000     0.000000     1.000000     0.000000     0.000000     0.000000     0.000000     0.000000
    2    -1.000000    90.000000    -0.000000    -0.000000    -1.000000     0.000000     0.000000     0.000000
    3     1.000000   180.000000    -0.000000    -0.000000    -1.000000     0.000000     0.000000     0.000000
    4    -1.000000    90.000000    -0.000000     0.000000     1.000000     0.000000     0.000000     0.000000
    5    -1.000000   180.000000     0.000000    -1.000000     0.000000     0.000000     0.000000     0.000000
    6     1.000000   180.000000     0.707107     0.707107    -0.000000     0.000000     0.000000     0.000000
    7    -1.000000   180.000000     1.000000     0.000000     0.000000     0.000000     0.000000     0.000000
    8     1.000000   180.000000     0.707107    -0.707107     0.000000     0.000000     0.000000     0.000000
    9    -1.000000     0.000000     1.000000     0.000000     0.000000     0.250000     0.750000     0.500000
   10     1.000000    90.000000    -0.000000    -0.000000    -1.000000     0.250000     0.750000     0.500000
   11    -1.000000   180.000000    -0.000000    -0.000000    -1.000000     0.250000     0.750000     0.500000
   12     1.000000    90.000000    -0.000000     0.000000     1.000000     0.250000     0.750000     0.500000
   13     1.000000   180.000000     0.000000    -1.000000     0.000000     0.250000     0.750000     0.500000
   14    -1.000000   180.000000     0.707107     0.707107    -0.000000     0.250000     0.750000     0.500000
   15     1.000000   180.000000     1.000000     0.000000     0.000000     0.250000     0.750000     0.500000
   16    -1.000000   180.000000     0.707107    -0.707107     0.000000     0.250000     0.750000     0.500000
 
 Subroutine IBZKPT returns following result:
 ===========================================
 
 Found      3 irreducible k-points:
 
 Following reciprocal coordinates:
            Coordinates               Weight
  0.250000  0.250000  0.250000     32.000000
 -0.250000  0.250000  0.250000     64.000000
 -0.250000 -0.250000  0.250000     32.000000
 
 Following cartesian coordinates:
            Coordinates               Weight
  0.102041  0.102041  0.196232     32.000000
  0.102041  0.000000  0.000000     64.000000
 -0.000000  0.000000 -0.196232     32.000000
 


--------------------------------------------------------------------------------------------------------




 Dimension of arrays:
   k-points           NKPTS =      3   k-points in BZ     NKDIM =      3   number of bands    NBANDS=      8
   number of dos      NEDOS =    301   number of ions     NIONS =      2
   non local maximal  LDIM  =      4   non local SUM 2l+1 LMDIM =      8
   total plane-waves  NPLWV =   2744
   max r-space proj   IRMAX =      1   max aug-charges    IRDMAX=   3198
   dimension x,y,z NGX =    14 NGY =   14 NGZ =   14
   dimension x,y,z NGXF=    28 NGYF=   28 NGZF=   28
   support grid    NGXF=    28 NGYF=   28 NGZF=   28
   ions per type =               2
   NGX,Y,Z   is equivalent  to a cutoff of   6.30,  6.30,  6.30 a.u.
   NGXF,Y,Z  is equivalent  to a cutoff of  12.61, 12.61, 12.61 a.u.

 SYSTEM =  unknown system                          
 POSCAR =  Si2                                     

 Startparameter for this run:
   NWRITE =      2    write-flag & timer
   PREC   = normal    normal or accurate (medium, high low for compatibility)
   ISTART =      0    job   : 0-new  1-cont  2-samecut
   ICHARG =      2    charge: 1-file 2-atom 10-const
   ISPIN  =      1    spin polarized calculation?
   LNONCOLLINEAR =      F non collinear calculations
   LSORBIT =      F    spin-orbit coupling
   INIWAV =      1    electr: 0-lowe 1-rand  2-diag
   LASPH  =      F    aspherical Exc in radial PAW
   METAGGA=      F    non-selfconsistent MetaGGA calc.

 Electronic Relaxation 1
   ENCUT  =  200.0 eV  14.70 Ry    3.83 a.u.   4.26  4.26  4.26*2*pi/ulx,y,z
   ENINI  =  200.0     initial cutoff
   ENAUG  =  322.1 eV  augmentation charge cutoff
   NELM   =     60;   NELMIN=  2; NELMDL= -5     # of ELM steps 
   EDIFF  = 0.4E-03   stopping-criterion for ELM
   LREAL  =      F    real-space projection
   NLSPLINE    = F    spline interpolate recip. space projectors
   LCOMPAT=      F    compatible to vasp.4.4
   GGA_COMPAT  = T    GGA compatible to vasp.4.4-vasp.4.6
   LMAXPAW     = -100 max onsite density
   LMAXMIX     =    2 max onsite mixed and CHGCAR
   VOSKOWN=      0    Vosko Wilk Nusair interpolation
   ROPT   =    0.00000
 Ionic relaxation
   EDIFFG = -.1E-01   stopping-criterion for IOM
   NSW    =     15    number of steps for IOM
   NBLOCK =      1;   KBLOCK =     15    inner block; outer block 
   IBRION =      2    ionic relax: 0-MD 1-quasi-New 2-CG
   NFREE  =      1    steps in history (QN), initial steepest desc. (CG)
   ISIF   =      3    stress and relaxation
   IWAVPR =     11    prediction:  0-non 1-charg 2-wave 3-comb
   ISYM   =      2    0-nonsym 1-usesym 2-fastsym
   LCORR  =      T    Harris-Foulkes like correction to forces

   POTIM  = 0.5000    time-step for ionic-motion
   TEIN   =    0.0    initial temperature
   TEBEG  =    0.0;   TEEND  =   0.0 temperature during run
   SMASS  =  -3.00    Nose mass-parameter (am)
   estimated Nose-frequenzy (Omega)   =  0.10E-29 period in steps =****** mass=  -0.311E-27a.u.
   SCALEE = 1.0000    scale energy and forces
   NPACO  =    256;   APACO  = 16.0  distance and # of slots for P.C.
   PSTRESS=    0.0 pullay stress

  Mass of Ions in am
   POMASS =  28.09
  Ionic Valenz
   ZVAL   =   4.00
  Atomic Wigner-Seitz radii
   RWIGS  =  -1.00
  virtual crystal weights 
   VCA    =   1.00
   NELECT =       8.0000    total number of electrons
   NUPDOWN=      -1.0000    fix difference up-down

 DOS related values:
   EMIN   =  10.00;   EMAX   =-10.00  energy-range for DOS
   EFERMI =   0.00
   ISMEAR =     0;   SIGMA  =   0.20  broadening in eV -4-tet -1-fermi 0-gaus

 Electronic relaxation 2 (details)
   IALGO  =     38    algorithm
   LDIAG  =      T    sub-space diagonalisation (order eigenvalues)
   LSUBROT=      F    optimize rotation matrix (better conditioning)
   TURBO    =      0    0=normal 1=particle mesh
   IRESTART =      0    0=no restart 2=restart with 2 vectors
   NREBOOT  =      0    no. of reboots
   NMIN     =      0    reboot dimension
   EREF     =   0.00    reference energy to select bands
   IMIX   =      4    mixing-type and parameters
     AMIX     =   0.40;   BMIX     =  1.00
     AMIX_MAG =   1.60;   BMIX_MAG =  1.00
     AMIN     =   0.10
     WC   =   100.;   INIMIX=   1;  MIXPRE=   1;  MAXMIX= -45

 Intra band minimization:
   WEIMIN = 0.0010     energy-eigenvalue tresh-hold
   EBREAK =  0.13E-04  absolut break condition
   DEPER  =   0.30     relativ break condition  

   TIME   =   0.40     timestep for ELM

  volume/ion in A,a.u.               =      15.29       103.21
  Fermi-wavevector in a.u.,A,eV,Ry     =   1.046930  1.978411 14.912834  1.096062
  Thomas-Fermi vector in A             =   2.181789
 
 Write flags
   LWAVE        =      T    write WAVECAR
   LDOWNSAMPLE  =      F    k-point downsampling of WAVECAR
   LCHARG       =      T    write CHGCAR
   LVTOT        =      F    write LOCPOT, total local potential
   LVHAR        =      F    write LOCPOT, Hartree potential only
   LELF         =      F    write electronic localiz. function (ELF)
   LORBIT       =      0    0 simple, 1 ext, 2 COOP (PROOUT), +10 PAW based schemes


 Dipole corrections
   LMONO  =      F    monopole corrections only (constant potential shift)
   LDIPOL =      F    correct potential (dipole corrections)
   IDIPOL =      0    1-x, 2-y, 3-z, 4-all directions 
   EPSILON=  1.0000000 bulk dielectric constant

 Exchange correlation treatment:
   GGA     =    --    GGA type
   LEXCH   =     8    internal setting for exchange type
   VOSKOWN=      0    Vosko Wilk Nusair interpolation
   LHFCALC =     F    Hartree Fock is set to
   LHFONE  =     F    Hartree Fock one center treatment
   AEXX    =    0.0000 exact exchange contribution

 Linear response parameters
   LEPSILON=     F    determine dielectric tensor
   LRPA    =     F    only Hartree local field effects (RPA)
   LNABLA  =     F    use nabla operator in PAW spheres
   LVEL    =     F    velocity operator in full k-point grid
   LINTERFAST=   F  fast interpolation
   KINTER  =     0    interpolate to denser k-point grid
   CSHIFT  =0.1000    complex shift for real part using Kramers Kronig
   OMEGAMAX=  -1.0    maximum frequency
   DEG_THRESHOLD= 0.2000000E-02 threshold for treating states as degnerate
   RTIME   =   -0.100 relaxation time in fs
  (WPLASMAI=    0.000 imaginary part of plasma frequency in eV, 0.658/RTIME)
   DFIELD  = 0.0000000 0.0000000 0.0000000 field for delta impulse in time
 
 Orbital magnetization related:
   ORBITALMAG=     F  switch on orbital magnetization
   LCHIMAG   =     F  perturbation theory with respect to B field
   DQ        =  0.001000  dq finite difference perturbation B field
   LLRAUG    =     F  two centre corrections for induced B field



--------------------------------------------------------------------------------------------------------


 conjugate gradient relaxation of ions
 charge density and potential will be updated during run
 non-spin polarized calculation
 Variant of blocked Davidson
 Davidson routine will perform the subspace rotation
 perform sub-space diagonalisation
    after iterative eigenvector-optimisation
 modified Broyden-mixing scheme, WC =      100.0
 initial mixing is a Kerker type mixing with AMIX =  0.4000 and BMIX =      1.0000
 Hartree-type preconditioning will be used
 using additional bands            4
 reciprocal scheme for non local part
 use partial core corrections
 calculate Harris-corrections to forces 
   (improved forces if not selfconsistent)
 use gradient corrections 
 use of overlap-Matrix (Vanderbilt PP)
 Gauss-broadening in eV      SIGMA  =   0.20


--------------------------------------------------------------------------------------------------------


  energy-cutoff  :      200.00
  volume of cell :       30.59
      direct lattice vectors                 reciprocal lattice vectors
    -2.450000000  2.450000000  1.274000000     0.000000000  0.204081633  0.392464678
     2.450000000 -2.450000000  1.274000000     0.204081633  0.000000000  0.392464678
     2.450000000  2.450000000 -1.274000000     0.204081633  0.204081633 -0.000000000

  length of vectors
     3.691622408  3.691622408  3.691622408     0.442354876  0.442354876  0.288615013


 
 k-points in units of 2pi/SCALE and weight: Automatic kpoint scheme                 
   0.10204082  0.10204082  0.19623234       0.250
   0.10204082  0.00000000 -0.00000000       0.500
   0.00000000  0.00000000 -0.19623234       0.250
 
 k-points in reciprocal lattice and weights: Automatic kpoint scheme                 
   0.25000000  0.25000000  0.25000000       0.250
  -0.25000000  0.25000000  0.25000000       0.500
  -0.25000000 -0.25000000  0.25000000       0.250
 
 position of ions in fractional coordinates (direct lattice) 
   0.25000000  0.75000000  0.50000000
   0.00000000  0.00000000  0.00000000
 
 position of ions in cartesian coordinates  (Angst):
   2.45000000  0.00000000  0.63700000
   0.00000000  0.00000000  0.00000000
 


--------------------------------------------------------------------------------------------------------


 k-point  1 :   0.2500 0.2500 0.2500  plane waves:     204
 k-point  2 :  -0.2500 0.2500 0.2500  plane waves:     194
 k-point  3 :  -0.2500-0.2500 0.2500  plane waves:     191

 maximum and minimum number of plane-waves per node :       204      191

 maximum number of plane-waves:       204
 maximum index in each direction: 
   IXMAX=    4   IYMAX=    4   IZMAX=    3
   IXMIN=   -4   IYMIN=   -4   IZMIN=   -4


 serial   3D FFT for wavefunctions
 parallel 3D FFT for charge:
    minimum data exchange during FFTs selected (reduces bandwidth)


 total amount of memory used by VASP MPI-rank0    30451. kBytes
=======================================================================

   base      :      30000. kBytes
   nonl-proj :         46. kBytes
   fftplans  :        119. kBytes
   grid      :        270. kBytes
   one-center:          6. kBytes
   wavefun   :         10. kBytes
 
     INWAV:  cpu time    0.0000: real time    0.0010
 Broyden mixing: mesh for mixing (old mesh)
   NGX =  9   NGY =  9   NGZ =  9
  (NGX  = 28   NGY  = 28   NGZ  = 28)
  gives a total of    729 points

 initial charge density was supplied:
 charge density of overlapping atoms calculated
 number of electron       8.0000000 magnetization 
 keeping initial charge density in first step


--------------------------------------------------------------------------------------------------------


 Maximum index for augmentation-charges          442 (set IRDMAX)


--------------------------------------------------------------------------------------------------------


 First call to EWALD:  gamma=   0.567
 Maximum number of real-space cells 4x 4x 3
 Maximum number of reciprocal cells 3x 3x 3

    FEWALD:  cpu time    0.0080: real time    0.0072


--------------------------------------- Iteration      1(   1)  ---------------------------------------


    POTLOK:  cpu time    0.0280: real time    0.0314
    SETDIJ:  cpu time    0.0080: real time    0.0088
     EDDAV:  cpu time    0.0280: real time    0.0306
       DOS:  cpu time    0.0000: real time    0.0016
    --------------------------------------------
      LOOP:  cpu time    0.0640: real time    0.0730

 eigenvalue-minimisations  :    48
 total energy-change (2. order) :-0.3763716E+01  (-0.2165076E+03)
 number of electron       8.0000000 magnetization 
 augmentation part        8.0000000 magnetization 

 Free energy of the ion-electron system (eV)
  ---------------------------------------------------
  alpha Z        PSCENC =         4.40202223
  Ewald energy   TEWEN  =      -265.18101312
  -Hartree energ DENC   =        -2.30415367
  -exchange      EXHF   =         0.00000000
  -V(xc)+E(xc)   XCENC  =       -17.81545108
  PAW double counting   =        65.95520812      -30.76852678
  entropy T*S    EENTRO =        -0.05641896
  eigenvalues    EBANDS =        35.89214471
  atomic energy  EATOM  =       206.11247263
  Solvation  Ediel_sol  =         0.00000000
  ---------------------------------------------------
  free energy    TOTEN  =        -3.76371592 eV

  energy without entropy =       -3.70729696  energy(sigma->0) =       -3.73550644


--------------------------------------------------------------------------------------------------------




--------------------------------------- Iteration      1(   2)  ---------------------------------------


     EDDAV:  cpu time    0.0440: real time    0.0583
       DOS:  cpu time    0.0000: real time    0.0014
    --------------------------------------------
      LOOP:  cpu time    0.0440: real time    0.0596

 eigenvalue-minimisations  :    72
 total energy-change (2. order) :-0.8185905E+01  (-0.8185905E+01)
 number of electron       8.0000000 magnetization 
 augmentation part        8.0000000 magnetization 

 Free energy of the ion-electron system (eV)
  ---------------------------------------------------
  alpha Z        PSCENC =         4.40202223
  Ewald energy   TEWEN  =      -265.18101312
  -Hartree energ DENC   =        -2.30415367
  -exchange      EXHF   =         0.00000000
  -V(xc)+E(xc)   XCENC  =       -17.81545108
  PAW double counting   =        65.95520812      -30.76852678
  entropy T*S    EENTRO =        -0.05641896
  eigenvalues    EBANDS =        27.70623949
  atomic energy  EATOM  =       206.11247263
  Solvation  Ediel_sol  =         0.00000000
  ---------------------------------------------------
  free energy    TOTEN  =       -11.94962114 eV

  energy without entropy =      -11.89320218  energy(sigma->0) =      -11.92141166


--------------------------------------------------------------------------------------------------------




--------------------------------------- Iteration      1(   3)  ---------------------------------------


     EDDAV:  cpu time    0.0400: real time    0.0438
       DOS:  cpu time    0.0000: real time    0.0012
    --------------------------------------------
      LOOP:  cpu time    0.0400: real time    0.0451

 eigenvalue-minimisations  :    64
 total energy-change (2. order) :-0.5765234E-01  (-0.5765234E-01)
 number of electron       8.0000000 magnetization 
 augmentation part        8.0000000 magnetization 

 Free energy of the ion-electron system (eV)
  ---------------------------------------------------
  alpha Z        PSCENC =         4.40202223
  Ewald energy   TEWEN  =      -265.18101312
  -Hartree energ DENC   =        -2.30415367
  -exchange      EXHF   =         0.00000000
  -V(xc)+E(xc)   XCENC  =       -17.81545108
  PAW double counting   =        65.95520812      -30.76852678
  entropy T*S    EENTRO =        -0.05641896
  eigenvalues    EBANDS =        27.64858715
  atomic energy  EATOM  =       206.11247263
  Solvation  Ediel_sol  =         0.00000000
  ---------------------------------------------------
  free energy    TOTEN  =       -12.00727348 eV

  energy without entropy =      -11.95085453  energy(sigma->0) =      -11.97906400


--------------------------------------------------------------------------------------------------------




--------------------------------------- Iteration      1(   4)  ---------------------------------------


     EDDAV:  cpu time    0.0360: real time    0.0416
       DOS:  cpu time    0.0000: real time    0.0014
    --------------------------------------------
      LOOP:  cpu time    0.0360: real time    0.0429

 eigenvalue-minimisations  :    64
 total energy-change (2. order) :-0.6638915E-04  (-0.6638925E-04)
 number of electron       8.0000000 magnetization 
 augmentation part        8.0000000 magnetization 

 Free energy of the ion-electron system (eV)
  ---------------------------------------------------
  alpha Z        PSCENC =         4.40202223
  Ewald energy   TEWEN  =      -265.18101312
  -Hartree energ DENC   =        -2.30415367
  -exchange      EXHF   =         0.00000000
  -V(xc)+E(xc)   XCENC  =       -17.81545108
  PAW double counting   =        65.95520812      -30.76852678
  entropy T*S    EENTRO =        -0.05641896
  eigenvalues    EBANDS =        27.64852076
  atomic energy  EATOM  =       206.11247263
  Solvation  Ediel_sol  =         0.00000000
  ---------------------------------------------------
  free energy    TOTEN  =       -12.00733987 eV

  energy without entropy =      -11.95092091  energy(sigma->0) =      -11.97913039


--------------------------------------------------------------------------------------------------------




--------------------------------------- Iteration      1(   5)  ---------------------------------------


     EDDAV:  cpu time    0.0280: real time    0.0338
       DOS:  cpu time    0.0000: real time    0.0015
    CHARGE:  cpu time    0.0080: real time    0.0080
    MIXING:  cpu time    0.0040: real time    0.0017
    --------------------------------------------
      LOOP:  cpu time    0.0400: real time    0.0450

 eigenvalue-minimisations  :    48
 total energy-change (2. order) :-0.7701692E-07  (-0.7654681E-07)
 number of electron       7.9999993 magnetization 
 augmentation part       -0.4700802 magnetization 

 Broyden mixing:
  rms(total) = 0.13915E+00    rms(broyden)= 0.13913E+00
  rms(prec ) = 0.32114E+00
  weight for this iteration     100.00

 Free energy of the ion-electron system (eV)
  ---------------------------------------------------
  alpha Z        PSCENC =         4.40202223
  Ewald energy   TEWEN  =      -265.18101312
  -Hartree energ DENC   =        -2.30415367
  -exchange      EXHF   =         0.00000000
  -V(xc)+E(xc)   XCENC  =       -17.81545108
  PAW double counting   =        65.95520812      -30.76852678
  entropy T*S    EENTRO =        -0.05641896
  eigenvalues    EBANDS =        27.64852068
  atomic energy  EATOM  =       206.11247263
  Solvation  Ediel_sol  =         0.00000000
  ---------------------------------------------------
  free energy    TOTEN  =       -12.00733995 eV

  energy without entropy =      -11.95092099  energy(sigma->0) =      -11.97913047


--------------------------------------------------------------------------------------------------------




--------------------------------------- Iteration      1(   6)  ---------------------------------------


    POTLOK:  cpu time    0.0160: real time    0.0245
    SETDIJ:  cpu time    0.0080: real time    0.0083
     EDDAV:  cpu time    0.0320: real time    0.0308
       DOS:  cpu time    0.0000: real time    0.0013
    CHARGE:  cpu time    0.0080: real time    0.0070
    MIXING:  cpu time    0.0000: real time    0.0015
    --------------------------------------------
      LOOP:  cpu time    0.0640: real time    0.0735

 eigenvalue-minimisations  :    64
 total energy-change (2. order) : 0.1268402E-01  (-0.4574545E-03)
 number of electron       7.9999993 magnetization 
 augmentation part       -0.4726164 magnetization 

 Broyden mixing:
  rms(total) = 0.86459E-01    rms(broyden)= 0.86458E-01
  rms(prec ) = 0.19868E+00
  weight for this iteration     100.00

 eigenvalues of (default mixing * dielectric matrix)
  average eigenvalue GAMMA=   2.6327
  2.6327

 Free energy of the ion-electron system (eV)
  ---------------------------------------------------
  alpha Z        PSCENC =         4.40202223
  Ewald energy   TEWEN  =      -265.18101312
  -Hartree energ DENC   =        -2.23834798
  -exchange      EXHF   =         0.00000000
  -V(xc)+E(xc)   XCENC  =       -17.74201980
  PAW double counting   =        67.82888050      -32.67063092
  entropy T*S    EENTRO =        -0.05641896
  eigenvalues    EBANDS =        27.55039948
  atomic energy  EATOM  =       206.11247263
  Solvation  Ediel_sol  =         0.00000000
  ---------------------------------------------------
  free energy    TOTEN  =       -11.99465593 eV

  energy without entropy =      -11.93823697  energy(sigma->0) =      -11.96644645


--------------------------------------------------------------------------------------------------------




--------------------------------------- Iteration      1(   7)  ---------------------------------------


    POTLOK:  cpu time    0.0160: real time    0.0239
    SETDIJ:  cpu time    0.0120: real time    0.0083
     EDDAV:  cpu time    0.0200: real time    0.0222
       DOS:  cpu time    0.0000: real time    0.0013
    CHARGE:  cpu time    0.0080: real time    0.0067
    MIXING:  cpu time    0.0000: real time    0.0013
    --------------------------------------------
      LOOP:  cpu time    0.0560: real time    0.0637

 eigenvalue-minimisations  :    48
 total energy-change (2. order) : 0.8207421E-02  (-0.1109569E-02)
 number of electron       7.9999993 magnetization 
 augmentation part       -0.4768836 magnetization 

 Broyden mixing:
  rms(total) = 0.44621E-02    rms(broyden)= 0.44565E-02
  rms(prec ) = 0.11784E-01
  weight for this iteration     100.00

 eigenvalues of (default mixing * dielectric matrix)
  average eigenvalue GAMMA=   2.4987
  2.4987  2.4987

 Free energy of the ion-electron system (eV)
  ---------------------------------------------------
  alpha Z        PSCENC =         4.40202223
  Ewald energy   TEWEN  =      -265.18101312
  -Hartree energ DENC   =        -2.22370472
  -exchange      EXHF   =         0.00000000
  -V(xc)+E(xc)   XCENC  =       -17.60794213
  PAW double counting   =        70.80702162      -35.69984421
  entropy T*S    EENTRO =        -0.05641896
  eigenvalues    EBANDS =        27.46095815
  atomic energy  EATOM  =       206.11247263
  Solvation  Ediel_sol  =         0.00000000
  ---------------------------------------------------
  free energy    TOTEN  =       -11.98644850 eV

  energy without entropy =      -11.93002955  energy(sigma->0) =      -11.95823903


--------------------------------------------------------------------------------------------------------




--------------------------------------- Iteration      1(   8)  ---------------------------------------


    POTLOK:  cpu time    0.0200: real time    0.0237
    SETDIJ:  cpu time    0.0080: real time    0.0083
     EDDAV:  cpu time    0.0280: real time    0.0280
       DOS:  cpu time    0.0000: real time    0.0014
    --------------------------------------------
      LOOP:  cpu time    0.0560: real time    0.0613

 eigenvalue-minimisations  :    56
 total energy-change (2. order) : 0.4168343E-04  (-0.1391642E-04)
 number of electron       7.9999993 magnetization 
 augmentation part       -0.4768836 magnetization 

 Free energy of the ion-electron system (eV)
  ---------------------------------------------------
  alpha Z        PSCENC =         4.40202223
  Ewald energy   TEWEN  =      -265.18101312
  -Hartree energ DENC   =        -2.25136873
  -exchange      EXHF   =         0.00000000
  -V(xc)+E(xc)   XCENC  =       -17.60448244
  PAW double counting   =        70.78036611      -35.67935936
  entropy T*S    EENTRO =        -0.05641896
  eigenvalues    EBANDS =        27.49137482
  atomic energy  EATOM  =       206.11247263
  Solvation  Ediel_sol  =         0.00000000
  ---------------------------------------------------
  free energy    TOTEN  =       -11.98640682 eV

  energy without entropy =      -11.92998786  energy(sigma->0) =      -11.95819734


--------------------------------------------------------------------------------------------------------




 average (electrostatic) potential at core
  the test charge radii are     0.9892
  (the norm of the test charge is              1.0000)
       1 -80.6806       2 -80.6806
 
 
 
 E-fermi :   8.5387     XC(G=0): -10.9127     alpha+bet :-15.6819


 k-point     1 :       0.2500    0.2500    0.2500
  band No.  band energies     occupation 
      1       3.3799      2.00000
      2       3.3799      2.00000
      3       4.0301      2.00000
      4       4.0301      2.00000
      5      13.2231      0.00000
      6      13.2231      0.00000
      7      15.0200      0.00000
      8      15.0200      0.00000

 k-point     2 :      -0.2500    0.2500    0.2500
  band No.  band energies     occupation 
      1      -3.1640      2.00000
      2       1.8925      2.00000
      3       3.6193      2.00000
      4       8.5387      1.00000
      5      12.8924      0.00000
      6      16.1161      0.00000
      7      17.3246      0.00000
      8      18.2629      0.00000

 k-point     3 :      -0.2500   -0.2500    0.2500
  band No.  band energies     occupation 
      1       0.8313      2.00000
      2       5.7403      2.00000
      3       5.8291      2.00000
      4       7.2640      2.00000
      5       7.2640      2.00000
      6      11.5272      0.00000
      7      12.2841      0.00000
      8      12.2841      0.00000


--------------------------------------------------------------------------------------------------------


 soft charge-density along one line, spin component           1
         0         1         2         3         4         5         6         7         8         9
 total charge-density along one line
 
 pseudopotential strength for first ion, spin component:           1
 18.077  -0.003   0.000  -0.000  -0.000  -0.000   0.000   0.000
 -0.003   0.005  -0.000   0.000   0.000   0.000  -0.000  -0.000
  0.000  -0.000   4.117   0.000   0.000  -0.006  -0.000  -0.000
 -0.000   0.000   0.000   4.118   0.000  -0.000  -0.006  -0.000
 -0.000   0.000   0.000   0.000   4.117  -0.000  -0.000  -0.006
 -0.000   0.000  -0.006  -0.000  -0.000   0.005   0.000   0.000
  0.000  -0.000  -0.000  -0.006  -0.000   0.000   0.005   0.000
  0.000  -0.000  -0.000  -0.000  -0.006   0.000   0.000   0.005
 total augmentation occupancy for first ion, spin component:           1
  1.653  -0.599   0.000   0.000  -0.000   0.000   0.000  -0.000
 -0.599   0.937   0.000   0.000   0.000   0.000   0.000  -0.000
  0.000   0.000   0.817   0.000  -0.000  -0.580  -0.000   0.000
  0.000   0.000   0.000   0.896   0.000   0.000  -0.747   0.000
 -0.000   0.000  -0.000   0.000   0.817   0.000   0.000  -0.580
  0.000   0.000  -0.580   0.000   0.000   0.485  -0.000  -0.000
  0.000   0.000  -0.000  -0.747   0.000  -0.000   0.652  -0.000
 -0.000  -0.000   0.000   0.000  -0.580  -0.000  -0.000   0.485


------------------------ aborting loop because EDIFF is reached ----------------------------------------


    CHARGE:  cpu time    0.0040: real time    0.0062
    FORLOC:  cpu time    0.0040: real time    0.0005
    FORNL :  cpu time    0.0040: real time    0.0060
    STRESS:  cpu time    0.0200: real time    0.0212
    FORCOR:  cpu time    0.0120: real time    0.0113
    FORHAR:  cpu time    0.0040: real time    0.0032
    MIXING:  cpu time    0.0000: real time    0.0009
    OFIELD:  cpu time    0.0000: real time    0.0005

  FORCE on cell =-STRESS in cart. coord.  units (eV):
  Direction    XX          YY          ZZ          XY          YZ          ZX
  --------------------------------------------------------------------------------------
  Alpha Z     4.40202     4.40202     4.40202
  Ewald     -90.96023   -90.96023   -83.26083    -0.00000     0.00000     0.00000
  Hartree     0.52450     0.52450     1.20508     0.00000    -0.00000    -0.00000
  E(xc)     -25.35604   -25.35604   -25.28792     0.00003     0.00001     0.00001
  Local     -11.22675   -11.22675   -16.50969    -0.00005    -0.00005    -0.00005
  n-local    76.94159    77.74324    76.38237     0.00002    -0.00005     0.00000
  augment   -12.07237   -12.07237   -12.27343     0.00005     0.00005     0.00005
  Kinetic    51.87590    53.79575    59.89321    -0.00003     0.00001     0.00001
  Fock        0.00000     0.00000     0.00000     0.00000     0.00000     0.00000
  -------------------------------------------------------------------------------------
  Total      -4.51062    -4.51062     4.55081     0.00000    -0.00000     0.00000
  in kB    -236.25745  -236.25745   238.36219     0.00000    -0.00000     0.00000
  external pressure =      -78.05 kB  Pullay stress =        0.00 kB


 VOLUME and BASIS-vectors are now :
 -----------------------------------------------------------------------------
  energy-cutoff  :      200.00
  volume of cell :       30.59
      direct lattice vectors                 reciprocal lattice vectors
    -2.450000000  2.450000000  1.274000000     0.000000000  0.204081633  0.392464678
     2.450000000 -2.450000000  1.274000000     0.204081633  0.000000000  0.392464678
     2.450000000  2.450000000 -1.274000000     0.204081633  0.204081633 -0.000000000

  length of vectors
     3.691622408  3.691622408  3.691622408     0.442354876  0.442354876  0.288615013


 FORCES acting on ions
    electron-ion (+dipol)            ewald-force                    non-local-force                 convergence-correction
 -----------------------------------------------------------------------------------------------
   0.135E-05 -.135E-05 0.174E-15   0.198E-14 0.156E-15 0.342E-17   -.143E-18 -.788E-18 0.385E-18   -.628E-07 0.628E-07 0.658E-16
   -.135E-05 0.135E-05 -.139E-14   -.185E-14 0.943E-16 0.891E-15   0.190E-18 0.316E-18 -.278E-17   0.628E-07 -.628E-07 0.109E-16
 -----------------------------------------------------------------------------------------------
   -.132E-13 0.135E-13 -.122E-14   0.139E-15 0.250E-15 0.894E-15   0.471E-19 -.472E-18 -.239E-17   0.386E-16 0.755E-17 0.767E-16
 
 
 POSITION                                       TOTAL-FORCE (eV/Angst)
 -----------------------------------------------------------------------------------
      2.45000      0.00000      0.63700         0.000000      0.000000      0.000000
      0.00000      0.00000      0.00000        -0.000000     -0.000000     -0.000000
 -----------------------------------------------------------------------------------
    total drift:                               -0.000000      0.000000     -0.000000


--------------------------------------------------------------------------------------------------------



  FREE ENERGIE OF THE ION-ELECTRON SYSTEM (eV)
  ---------------------------------------------------
  free  energy   TOTEN  =       -11.98640682 eV

  energy  without entropy=      -11.92998786  energy(sigma->0) =      -11.95819734
 


--------------------------------------------------------------------------------------------------------


    POTLOK:  cpu time    0.0320: real time    0.0411


--------------------------------------------------------------------------------------------------------




--------------------------------------------------------------------------------------------------------


    WAVPRE:  cpu time    0.4520: real time    0.6840
    FEWALD:  cpu time    0.0000: real time    0.0007
    GENKIN:  cpu time    0.0040: real time    0.0012
    ORTHCH:  cpu time    0.0000: real time    0.0020
     LOOP+:  cpu time    0.9680: real time    1.2973


--------------------------------------- Iteration      2(   1)  ---------------------------------------


    POTLOK:  cpu time    0.0200: real time    0.0213
    SETDIJ:  cpu time    0.0080: real time    0.0085
     EDDAV:  cpu time    0.0200: real time    0.0218
       DOS:  cpu time    0.0040: real time    0.0013
    CHARGE:  cpu time    0.0040: real time    0.0067
    MIXING:  cpu time    0.0040: real time    0.0011
    --------------------------------------------
      LOOP:  cpu time    0.0600: real time    0.0612

 eigenvalue-minimisations  :    48
 total energy-change (2. order) :-0.1262378E+00  (-0.2946179E+01)
 number of electron       8.0000009 magnetization 
 augmentation part       -0.4935025 magnetization 

 Broyden mixing:
  rms(total) = 0.32946E+00    rms(broyden)= 0.32933E+00
  rms(prec ) = 0.10516E+01
  weight for this iteration     100.00

 Free energy of the ion-electron system (eV)
  ---------------------------------------------------
  alpha Z        PSCENC =         4.99425214
  Ewald energy   TEWEN  =      -275.22881378
  -Hartree energ DENC   =        -2.25202096
  -exchange      EXHF   =         0.00000000
  -V(xc)+E(xc)   XCENC  =       -16.99049946
  PAW double counting   =        70.78661021      -35.68611982
  entropy T*S    EENTRO =        -0.05641896
  eigenvalues    EBANDS =        36.20785165
  atomic energy  EATOM  =       206.11247263
  Solvation  Ediel_sol  =         0.00000000
  ---------------------------------------------------
  free energy    TOTEN  =       -12.11268634 eV

  energy without entropy =      -12.05626739  energy(sigma->0) =      -12.08447687


--------------------------------------------------------------------------------------------------------




--------------------------------------- Iteration      2(   2)  ---------------------------------------


    POTLOK:  cpu time    0.0160: real time    0.0248
    SETDIJ:  cpu time    0.0080: real time    0.0083
     EDDAV:  cpu time    0.0360: real time    0.0348
       DOS:  cpu time    0.0000: real time    0.0013
    CHARGE:  cpu time    0.0080: real time    0.0066
    MIXING:  cpu time    0.0000: real time    0.0011
    --------------------------------------------
      LOOP:  cpu time    0.0680: real time    0.0770

 eigenvalue-minimisations  :    72
 total energy-change (2. order) : 0.2705478E+00  (-0.4550996E-01)
 number of electron       8.0000009 magnetization 
 augmentation part       -0.4934566 magnetization 

 Broyden mixing:
  rms(total) = 0.19096E+00    rms(broyden)= 0.19096E+00
  rms(prec ) = 0.60734E+00
  weight for this iteration     100.00

 eigenvalues of (default mixing * dielectric matrix)
  average eigenvalue GAMMA=   2.3777
  2.3777

 Free energy of the ion-electron system (eV)
  ---------------------------------------------------
  alpha Z        PSCENC =         4.99425214
  Ewald energy   TEWEN  =      -275.22881378
  -Hartree energ DENC   =        -2.20353521
  -exchange      EXHF   =         0.00000000
  -V(xc)+E(xc)   XCENC  =       -16.92966789
  PAW double counting   =        73.36446968      -38.33051576
  entropy T*S    EENTRO =        -0.05641896
  eigenvalues    EBANDS =        36.43561862
  atomic energy  EATOM  =       206.11247263
  Solvation  Ediel_sol  =         0.00000000
  ---------------------------------------------------
  free energy    TOTEN  =       -11.84213853 eV

  energy without entropy =      -11.78571957  energy(sigma->0) =      -11.81392905


--------------------------------------------------------------------------------------------------------




--------------------------------------- Iteration      2(   3)  ---------------------------------------


    POTLOK:  cpu time    0.0160: real time    0.0237
    SETDIJ:  cpu time    0.0080: real time    0.0083
     EDDAV:  cpu time    0.0280: real time    0.0256
       DOS:  cpu time    0.0000: real time    0.0013
    CHARGE:  cpu time    0.0080: real time    0.0067
    MIXING:  cpu time    0.0000: real time    0.0012
    --------------------------------------------
      LOOP:  cpu time    0.0600: real time    0.0668

 eigenvalue-minimisations  :    56
 total energy-change (2. order) : 0.1397205E+00  (-0.3268921E-01)
 number of electron       8.0000009 magnetization 
 augmentation part       -0.4927794 magnetization 

 Broyden mixing:
  rms(total) = 0.18402E-01    rms(broyden)= 0.18400E-01
  rms(prec ) = 0.53363E-01
  weight for this iteration     100.00

 eigenvalues of (default mixing * dielectric matrix)
  average eigenvalue GAMMA=   1.3157
  2.3629  0.2686

 Free energy of the ion-electron system (eV)
  ---------------------------------------------------
  alpha Z        PSCENC =         4.99425214
  Ewald energy   TEWEN  =      -275.22881378
  -Hartree energ DENC   =        -2.60251607
  -exchange      EXHF   =         0.00000000
  -V(xc)+E(xc)   XCENC  =       -16.78717108
  PAW double counting   =        76.97158770      -42.03110227
  entropy T*S    EENTRO =        -0.05641896
  eigenvalues    EBANDS =        36.92529169
  atomic energy  EATOM  =       206.11247263
  Solvation  Ediel_sol  =         0.00000000
  ---------------------------------------------------
  free energy    TOTEN  =       -11.70241799 eV

  energy without entropy =      -11.64599903  energy(sigma->0) =      -11.67420851


--------------------------------------------------------------------------------------------------------




--------------------------------------- Iteration      2(   4)  ---------------------------------------


    POTLOK:  cpu time    0.0160: real time    0.0237
    SETDIJ:  cpu time    0.0080: real time    0.0084
     EDDAV:  cpu time    0.0280: real time    0.0254
       DOS:  cpu time    0.0000: real time    0.0014
    CHARGE:  cpu time    0.0040: real time    0.0067
    MIXING:  cpu time    0.0040: real time    0.0013
    --------------------------------------------
      LOOP:  cpu time    0.0600: real time    0.0668

 eigenvalue-minimisations  :    56
 total energy-change (2. order) :-0.6267748E-03  (-0.7906134E-03)
 number of electron       8.0000009 magnetization 
 augmentation part       -0.4929745 magnetization 

 Broyden mixing:
  rms(total) = 0.18074E-01    rms(broyden)= 0.18074E-01
  rms(prec ) = 0.50199E-01
  weight for this iteration     100.00

 eigenvalues of (default mixing * dielectric matrix)
  average eigenvalue GAMMA=   1.0955
  2.3625  0.4620  0.4620

 Free energy of the ion-electron system (eV)
  ---------------------------------------------------
  alpha Z        PSCENC =         4.99425214
  Ewald energy   TEWEN  =      -275.22881378
  -Hartree energ DENC   =        -2.59347683
  -exchange      EXHF   =         0.00000000
  -V(xc)+E(xc)   XCENC  =       -16.78811653
  PAW double counting   =        76.93529537      -41.99401454
  entropy T*S    EENTRO =        -0.05641896
  eigenvalues    EBANDS =        36.91577574
  atomic energy  EATOM  =       206.11247263
  Solvation  Ediel_sol  =         0.00000000
  ---------------------------------------------------
  free energy    TOTEN  =       -11.70304476 eV

  energy without entropy =      -11.64662580  energy(sigma->0) =      -11.67483528


--------------------------------------------------------------------------------------------------------




--------------------------------------- Iteration      2(   5)  ---------------------------------------


    POTLOK:  cpu time    0.0160: real time    0.0238
    SETDIJ:  cpu time    0.0080: real time    0.0083
     EDDAV:  cpu time    0.0160: real time    0.0161
       DOS:  cpu time    0.0000: real time    0.0013
    --------------------------------------------
      LOOP:  cpu time    0.0400: real time    0.0494

 eigenvalue-minimisations  :    32
 total energy-change (2. order) : 0.1777924E-03  (-0.7159521E-05)
 number of electron       8.0000009 magnetization 
 augmentation part       -0.4929745 magnetization 

 Free energy of the ion-electron system (eV)
  ---------------------------------------------------
  alpha Z        PSCENC =         4.99425214
  Ewald energy   TEWEN  =      -275.22881378
  -Hartree energ DENC   =        -2.58063357
  -exchange      EXHF   =         0.00000000
  -V(xc)+E(xc)   XCENC  =       -16.78845968
  PAW double counting   =        76.92207592      -41.98055761
  entropy T*S    EENTRO =        -0.05641896
  eigenvalues    EBANDS =        36.90321594
  atomic energy  EATOM  =       206.11247263
  Solvation  Ediel_sol  =         0.00000000
  ---------------------------------------------------
  free energy    TOTEN  =       -11.70286697 eV

  energy without entropy =      -11.64644801  energy(sigma->0) =      -11.67465749


--------------------------------------------------------------------------------------------------------




 average (electrostatic) potential at core
  the test charge radii are     0.9892
  (the norm of the test charge is              1.0000)
       1 -78.6974       2 -78.6974
 
 
 
 E-fermi :  11.7045     XC(G=0): -11.3863     alpha+bet :-17.7917


 k-point     1 :       0.2500    0.2500    0.2500
  band No.  band energies     occupation 
      1       3.2180      2.00000
      2       3.2180      2.00000
      3       4.8470      2.00000
      4       4.8470      2.00000
      5      15.6803      0.00000
      6      15.6803      0.00000
      7      18.3234      0.00000
      8      18.3234      0.00000

 k-point     2 :      -0.2500    0.2500    0.2500
  band No.  band energies     occupation 
      1      -2.2319      2.00000
      2       4.9006      2.00000
      3       5.1869      2.00000
      4      11.7045      1.00000
      5      14.7643      0.00000
      6      15.3828      0.00000
      7      19.2744      0.00000
      8      19.5169      0.00000

 k-point     3 :      -0.2500   -0.2500    0.2500
  band No.  band energies     occupation 
      1       0.2555      2.00000
      2       7.3814      2.00000
      3       7.3814      2.00000
      4       7.4651      2.00000
      5       7.7771      2.00000
      6      14.4538      0.00000
      7      14.4539      0.00000
      8      15.9462      0.00000


--------------------------------------------------------------------------------------------------------


 soft charge-density along one line, spin component           1
         0         1         2         3         4         5         6         7         8         9
 total charge-density along one line
 
 pseudopotential strength for first ion, spin component:           1
 17.877  -0.005  -0.000  -0.000   0.000   0.000   0.000  -0.000
 -0.005   0.005   0.000   0.000  -0.000  -0.000  -0.000   0.000
 -0.000   0.000   4.099   0.000   0.000  -0.007  -0.000  -0.000
 -0.000   0.000   0.000   4.099   0.000  -0.000  -0.007  -0.000
  0.000  -0.000   0.000   0.000   4.099  -0.000  -0.000  -0.007
  0.000  -0.000  -0.007  -0.000  -0.000   0.005   0.000   0.000
  0.000  -0.000  -0.000  -0.007  -0.000   0.000   0.005   0.000
 -0.000   0.000  -0.000  -0.000  -0.007   0.000   0.000   0.005
 total augmentation occupancy for first ion, spin component:           1
  1.685  -0.826   0.000   0.000  -0.000   0.000   0.000  -0.000
 -0.826   1.451   0.000   0.000   0.000   0.000   0.000   0.000
  0.000   0.000   1.027  -0.000   0.000  -0.798  -0.000   0.000
  0.000   0.000  -0.000   0.753  -0.000   0.000  -0.667   0.000
 -0.000   0.000   0.000  -0.000   1.027   0.000   0.000  -0.798
  0.000  -0.000  -0.798   0.000   0.000   0.729   0.000  -0.000
  0.000   0.000  -0.000  -0.667   0.000   0.000   0.659  -0.000
  0.000   0.000   0.000   0.000  -0.798  -0.000  -0.000   0.729


------------------------ aborting loop because EDIFF is reached ----------------------------------------


    CHARGE:  cpu time    0.0080: real time    0.0064
    FORLOC:  cpu time    0.0000: real time    0.0005
    FORNL :  cpu time    0.0040: real time    0.0057
    STRESS:  cpu time    0.0240: real time    0.0207
    FORCOR:  cpu time    0.0080: real time    0.0114
    FORHAR:  cpu time    0.0040: real time    0.0030
    MIXING:  cpu time    0.0000: real time    0.0009
    OFIELD:  cpu time    0.0000: real time    0.0005

  FORCE on cell =-STRESS in cart. coord.  units (eV):
  Direction    XX          YY          ZZ          XY          YZ          ZX
  --------------------------------------------------------------------------------------
  Alpha Z     4.99425     4.99425     4.99425
  Ewald     -83.83253   -83.83253  -107.56392    -0.00000    -0.00000     0.00000
  Hartree     1.27074     1.27074    -0.06966    -0.00000    -0.00000    -0.00000
  E(xc)     -26.59996   -26.59996   -26.27331    -0.00003    -0.00002    -0.00002
  Local     -21.53392   -21.53392     4.85687    -0.00004    -0.00004    -0.00004
  n-local    83.61883    83.09094    77.16944    -0.00006    -0.00004    -0.00004
  augment   -12.69729   -12.69729   -12.00452     0.00004     0.00004     0.00004
  Kinetic    59.43089    64.53290    54.94573    -0.00002    -0.00001    -0.00001
  Fock        0.00000     0.00000     0.00000     0.00000     0.00000     0.00000
  -------------------------------------------------------------------------------------
  Total       6.93808     6.93808    -3.94514    -0.00000     0.00000    -0.00000
  in kB     412.29330   412.29330  -234.43861    -0.00000     0.00000    -0.00000
  external pressure =      196.72 kB  Pullay stress =        0.00 kB


 VOLUME and BASIS-vectors are now :
 -----------------------------------------------------------------------------
  energy-cutoff  :      200.00
  volume of cell :       26.96
      direct lattice vectors                 reciprocal lattice vectors
    -2.183434586  2.183434586  1.413848884     0.000000000  0.228997014  0.353644584
     2.183434586 -2.183434586  1.413848884     0.228997014  0.000000000  0.353644584
     2.183434586  2.183434586 -1.413848884     0.228997014  0.228997014 -0.000000000

  length of vectors
     3.396136312  3.396136312  3.396136312     0.421312383  0.421312383  0.323850683


 FORCES acting on ions
    electron-ion (+dipol)            ewald-force                    non-local-force                 convergence-correction
 -----------------------------------------------------------------------------------------------
   0.674E-06 -.674E-06 0.148E-13   0.140E-14 -.133E-14 -.292E-15   0.170E-18 0.101E-16 0.244E-16   0.622E-06 -.622E-06 -.785E-16
   -.674E-06 0.674E-06 0.503E-14   -.152E-14 0.120E-14 -.434E-15   -.308E-17 -.316E-17 -.870E-17   -.622E-06 0.622E-06 0.245E-16
 -----------------------------------------------------------------------------------------------
   -.177E-13 0.154E-13 0.198E-13   -.125E-15 -.126E-15 -.726E-15   -.291E-17 0.690E-17 0.157E-16   -.218E-16 -.340E-15 -.540E-16
 
 
 POSITION                                       TOTAL-FORCE (eV/Angst)
 -----------------------------------------------------------------------------------
      2.18343      0.00000      0.70692         0.000000     -0.000000      0.000000
     -0.00000     -0.00000     -0.00000        -0.000000      0.000000     -0.000000
 -----------------------------------------------------------------------------------
    total drift:                               -0.000000      0.000000      0.000000


--------------------------------------------------------------------------------------------------------



  FREE ENERGIE OF THE ION-ELECTRON SYSTEM (eV)
  ---------------------------------------------------
  free  energy   TOTEN  =       -11.70286697 eV

  energy  without entropy=      -11.64644801  energy(sigma->0) =      -11.67465749
 
 d Force = 0.0000000E+00[ 0.000E+00, 0.000E+00]  d Energy =-0.2835399E+00 0.284E+00
 d Force = 0.0000000E+00[ 0.000E+00, 0.000E+00]  d Ewald  = 0.1004780E+02-0.100E+02


--------------------------------------------------------------------------------------------------------


    POTLOK:  cpu time    0.0320: real time    0.0402


--------------------------------------------------------------------------------------------------------


 Steepest descent step on ions:
 trial-energy change:    0.283540  1 .order    0.230870   -1.481080    1.942819
  (g-gl).g = 0.148E+01      g.g   = 0.148E+01  gl.gl    = 0.000E+00
 g(Force)  = 0.104E-45   g(Stress)= 0.148E+01 ortho     = 0.000E+00
 gamma     =   0.00000
 trial     =   1.00000
 opt step  =   0.41024  (harmonic =   0.43257) maximal distance =0.00000000
 next E    =   -12.286570   (d E  =  -0.30016)


--------------------------------------------------------------------------------------------------------


    WAVPRE:  cpu time    0.0080: real time    0.0264
    FEWALD:  cpu time    0.0000: real time    0.0006
    GENKIN:  cpu time    0.0040: real time    0.0013
    ORTHCH:  cpu time    0.0000: real time    0.0019
     LOOP+:  cpu time    0.4160: real time    0.5061


--------------------------------------- Iteration      3(   1)  ---------------------------------------


    POTLOK:  cpu time    0.0200: real time    0.0207
    SETDIJ:  cpu time    0.0080: real time    0.0083
     EDDAV:  cpu time    0.0200: real time    0.0219
       DOS:  cpu time    0.0040: real time    0.0013
    CHARGE:  cpu time    0.0040: real time    0.0067
    MIXING:  cpu time    0.0040: real time    0.0011
    --------------------------------------------
      LOOP:  cpu time    0.0600: real time    0.0608

 eigenvalue-minimisations  :    48
 total energy-change (2. order) :-0.7286003E+00  (-0.1010030E+01)
 number of electron       7.9999994 magnetization 
 augmentation part       -0.4779098 magnetization 

 Broyden mixing:
  rms(total) = 0.18069E+00    rms(broyden)= 0.18063E+00
  rms(prec ) = 0.55568E+00
  weight for this iteration     100.00

 Free energy of the ion-electron system (eV)
  ---------------------------------------------------
  alpha Z        PSCENC =         4.61512787
  Ewald energy   TEWEN  =      -269.41206712
  -Hartree energ DENC   =        -2.32423988
  -exchange      EXHF   =         0.00000000
  -V(xc)+E(xc)   XCENC  =       -17.21616418
  PAW double counting   =        76.83913194      -41.89678760
  entropy T*S    EENTRO =        -0.05641896
  eigenvalues    EBANDS =        30.90730022
  atomic energy  EATOM  =       206.11247263
  Solvation  Ediel_sol  =         0.00000000
  ---------------------------------------------------
  free energy    TOTEN  =       -12.43164508 eV

  energy without entropy =      -12.37522612  energy(sigma->0) =      -12.40343560


--------------------------------------------------------------------------------------------------------




--------------------------------------- Iteration      3(   2)  ---------------------------------------


    POTLOK:  cpu time    0.0160: real time    0.0241
    SETDIJ:  cpu time    0.0080: real time    0.0083
     EDDAV:  cpu time    0.0240: real time    0.0254
       DOS:  cpu time    0.0040: real time    0.0014
    CHARGE:  cpu time    0.0040: real time    0.0070
    MIXING:  cpu time    0.0040: real time    0.0014
    --------------------------------------------
      LOOP:  cpu time    0.0600: real time    0.0677

 eigenvalue-minimisations  :    56
 total energy-change (2. order) : 0.8233778E-01  (-0.1398649E-01)
 number of electron       7.9999994 magnetization 
 augmentation part       -0.4822890 magnetization 

 Broyden mixing:
  rms(total) = 0.10445E+00    rms(broyden)= 0.10444E+00
  rms(prec ) = 0.32021E+00
  weight for this iteration     100.00

 eigenvalues of (default mixing * dielectric matrix)
  average eigenvalue GAMMA=   2.3383
  2.3383

 Free energy of the ion-electron system (eV)
  ---------------------------------------------------
  alpha Z        PSCENC =         4.61512787
  Ewald energy   TEWEN  =      -269.41206712
  -Hartree energ DENC   =        -2.11993071
  -exchange      EXHF   =         0.00000000
  -V(xc)+E(xc)   XCENC  =       -17.27147802
  PAW double counting   =        74.82839362      -39.83256143
  entropy T*S    EENTRO =        -0.05641896
  eigenvalues    EBANDS =        30.78715482
  atomic energy  EATOM  =       206.11247263
  Solvation  Ediel_sol  =         0.00000000
  ---------------------------------------------------
  free energy    TOTEN  =       -12.34930730 eV

  energy without entropy =      -12.29288834  energy(sigma->0) =      -12.32109782


--------------------------------------------------------------------------------------------------------




--------------------------------------- Iteration      3(   3)  ---------------------------------------


    POTLOK:  cpu time    0.0160: real time    0.0245
    SETDIJ:  cpu time    0.0080: real time    0.0085
     EDDAV:  cpu time    0.0240: real time    0.0269
       DOS:  cpu time    0.0040: real time    0.0013
    CHARGE:  cpu time    0.0040: real time    0.0067
    MIXING:  cpu time    0.0000: real time    0.0012
    --------------------------------------------
      LOOP:  cpu time    0.0560: real time    0.0691

 eigenvalue-minimisations  :    56
 total energy-change (2. order) : 0.4458612E-01  (-0.1026124E-01)
 number of electron       7.9999994 magnetization 
 augmentation part       -0.4811543 magnetization 

 Broyden mixing:
  rms(total) = 0.98724E-02    rms(broyden)= 0.98715E-02
  rms(prec ) = 0.24136E-01
  weight for this iteration     100.00

 eigenvalues of (default mixing * dielectric matrix)
  average eigenvalue GAMMA=   1.6098
  0.9311  2.2884

 Free energy of the ion-electron system (eV)
  ---------------------------------------------------
  alpha Z        PSCENC =         4.61512787
  Ewald energy   TEWEN  =      -269.41206712
  -Hartree energ DENC   =        -2.02831938
  -exchange      EXHF   =         0.00000000
  -V(xc)+E(xc)   XCENC  =       -17.33022639
  PAW double counting   =        72.29695566      -37.23840445
  entropy T*S    EENTRO =        -0.05641896
  eigenvalues    EBANDS =        30.73615896
  atomic energy  EATOM  =       206.11247263
  Solvation  Ediel_sol  =         0.00000000
  ---------------------------------------------------
  free energy    TOTEN  =       -12.30472118 eV

  energy without entropy =      -12.24830222  energy(sigma->0) =      -12.27651170


--------------------------------------------------------------------------------------------------------




--------------------------------------- Iteration      3(   4)  ---------------------------------------


    POTLOK:  cpu time    0.0200: real time    0.0242
    SETDIJ:  cpu time    0.0080: real time    0.0083
     EDDAV:  cpu time    0.0200: real time    0.0218
       DOS:  cpu time    0.0000: real time    0.0013
    --------------------------------------------
      LOOP:  cpu time    0.0520: real time    0.0556

 eigenvalue-minimisations  :    48
 total energy-change (2. order) :-0.1246384E-03  (-0.2563281E-03)
 number of electron       7.9999994 magnetization 
 augmentation part       -0.4811543 magnetization 

 Free energy of the ion-electron system (eV)
  ---------------------------------------------------
  alpha Z        PSCENC =         4.61512787
  Ewald energy   TEWEN  =      -269.41206712
  -Hartree energ DENC   =        -2.04310971
  -exchange      EXHF   =         0.00000000
  -V(xc)+E(xc)   XCENC  =       -17.33004563
  PAW double counting   =        72.29639905      -37.23697500
  entropy T*S    EENTRO =        -0.05641896
  eigenvalues    EBANDS =        30.74977105
  atomic energy  EATOM  =       206.11247263
  Solvation  Ediel_sol  =         0.00000000
  ---------------------------------------------------
  free energy    TOTEN  =       -12.30484582 eV

  energy without entropy =      -12.24842686  energy(sigma->0) =      -12.27663634


--------------------------------------------------------------------------------------------------------




 average (electrostatic) potential at core
  the test charge radii are     0.9892
  (the norm of the test charge is              1.0000)
       1 -80.0202       2 -80.0202
 
 
 
 E-fermi :   9.7837     XC(G=0): -11.1032     alpha+bet :-16.4411


 k-point     1 :       0.2500    0.2500    0.2500
  band No.  band energies     occupation 
      1       3.1966      2.00000
      2       3.1966      2.00000
      3       4.3451      2.00000
      4       4.3451      2.00000
      5      14.0419      0.00000
      6      14.0419      0.00000
      7      16.1251      0.00000
      8      16.1251      0.00000

 k-point     2 :      -0.2500    0.2500    0.2500
  band No.  band energies     occupation 
      1      -2.8025      2.00000
      2       3.0488      2.00000
      3       4.1837      2.00000
      4       9.7837      1.00000
      5      14.5426      0.00000
      6      16.4002      0.00000
      7      17.3975      0.00000
      8      17.5219      0.00000

 k-point     3 :      -0.2500   -0.2500    0.2500
  band No.  band energies     occupation 
      1       0.5369      2.00000
      2       6.3516      2.00000
      3       6.5104      2.00000
      4       7.1867      2.00000
      5       7.1867      2.00000
      6      13.0008      0.00000
      7      13.0008      0.00000
      8      13.1080      0.00000


--------------------------------------------------------------------------------------------------------


 soft charge-density along one line, spin component           1
         0         1         2         3         4         5         6         7         8         9
 total charge-density along one line
 
 pseudopotential strength for first ion, spin component:           1
 18.008  -0.003   0.000  -0.000  -0.000  -0.000   0.000   0.000
 -0.003   0.005  -0.000   0.000   0.000   0.000  -0.000  -0.000
  0.000  -0.000   4.110   0.000   0.000  -0.006  -0.000  -0.000
 -0.000   0.000   0.000   4.111   0.000  -0.000  -0.006  -0.000
 -0.000   0.000   0.000   0.000   4.110  -0.000  -0.000  -0.006
 -0.000   0.000  -0.006  -0.000  -0.000   0.005   0.000   0.000
  0.000  -0.000  -0.000  -0.006  -0.000   0.000   0.005   0.000
  0.000  -0.000  -0.000  -0.000  -0.006   0.000   0.000   0.005
 total augmentation occupancy for first ion, spin component:           1
  1.663  -0.657  -0.000   0.000   0.000   0.000   0.000  -0.000
 -0.657   1.033   0.000   0.000  -0.000   0.000   0.000   0.000
  0.000   0.000   0.895  -0.000  -0.000  -0.661   0.000   0.000
  0.000   0.000  -0.000   0.806  -0.000   0.000  -0.678   0.000
  0.000  -0.000  -0.000  -0.000   0.895   0.000   0.000  -0.661
 -0.000   0.000  -0.661   0.000   0.000   0.574   0.000  -0.000
  0.000   0.000   0.000  -0.678   0.000   0.000   0.607  -0.000
  0.000   0.000   0.000   0.000  -0.661  -0.000  -0.000   0.574


------------------------ aborting loop because EDIFF is reached ----------------------------------------


    CHARGE:  cpu time    0.0080: real time    0.0067
    FORLOC:  cpu time    0.0000: real time    0.0005
    FORNL :  cpu time    0.0040: real time    0.0058
    STRESS:  cpu time    0.0200: real time    0.0209
    FORCOR:  cpu time    0.0080: real time    0.0111
    FORHAR:  cpu time    0.0040: real time    0.0030
    MIXING:  cpu time    0.0000: real time    0.0009
    OFIELD:  cpu time    0.0040: real time    0.0004

  FORCE on cell =-STRESS in cart. coord.  units (eV):
  Direction    XX          YY          ZZ          XY          YZ          ZX
  --------------------------------------------------------------------------------------
  Alpha Z     4.61513     4.61513     4.61513
  Ewald     -87.55330   -87.55330   -94.30568    -0.00000     0.00000     0.00000
  Hartree     0.77733     0.77733     0.50503     0.00000    -0.00000    -0.00000
  E(xc)     -25.73727   -25.73727   -25.53607     0.00002     0.00001     0.00001
  Local     -15.54428   -15.54428    -6.10614    -0.00005    -0.00004    -0.00004
  n-local    79.06464    79.36875    75.82001     0.00006     0.00002     0.00003
  augment   -12.31024   -12.31024   -12.07388     0.00005     0.00005     0.00005
  Kinetic    54.82758    57.41696    56.70221    -0.00001    -0.00001    -0.00001
  Fock        0.00000     0.00000     0.00000     0.00000     0.00000     0.00000
  -------------------------------------------------------------------------------------
  Total      -0.41366    -0.41366    -0.37939     0.00000     0.00000    -0.00000
  in kB     -22.71578   -22.71578   -20.83370     0.00000     0.00000    -0.00000
  external pressure =      -22.09 kB  Pullay stress =        0.00 kB


 VOLUME and BASIS-vectors are now :
 -----------------------------------------------------------------------------
  energy-cutoff  :      200.00
  volume of cell :       29.18
      direct lattice vectors                 reciprocal lattice vectors
    -2.340644176  2.340644176  1.331371621    -0.000000000  0.213616407  0.375552545
     2.340644176 -2.340644176  1.331371621     0.213616407 -0.000000000  0.375552545
     2.340644176  2.340644176 -1.331371621     0.213616407  0.213616407 -0.000000000

  length of vectors
     3.567881824  3.567881824  3.567881824     0.432055185  0.432055185  0.302099221


 FORCES acting on ions
    electron-ion (+dipol)            ewald-force                    non-local-force                 convergence-correction
 -----------------------------------------------------------------------------------------------
   0.121E-05 -.121E-05 0.434E-14   0.271E-15 0.248E-14 0.291E-15   0.284E-17 -.472E-18 -.224E-17   -.215E-06 0.215E-06 -.198E-15
   -.121E-05 0.121E-05 0.834E-14   -.192E-15 -.218E-14 0.392E-15   0.171E-17 -.123E-17 0.477E-17   0.215E-06 -.215E-06 -.134E-15
 -----------------------------------------------------------------------------------------------
   -.159E-13 0.140E-13 0.127E-13   0.791E-16 0.300E-15 0.683E-15   0.455E-17 -.170E-17 0.253E-17   -.104E-15 -.286E-15 -.332E-15
 
 
 POSITION                                       TOTAL-FORCE (eV/Angst)
 -----------------------------------------------------------------------------------
      2.34064      0.00000      0.66569        -0.000000     -0.000000      0.000000
     -0.00000     -0.00000     -0.00000         0.000000      0.000000     -0.000000
 -----------------------------------------------------------------------------------
    total drift:                               -0.000000      0.000000      0.000000


--------------------------------------------------------------------------------------------------------



  FREE ENERGIE OF THE ION-ELECTRON SYSTEM (eV)
  ---------------------------------------------------
  free  energy   TOTEN  =       -12.30484582 eV

  energy  without entropy=      -12.24842686  energy(sigma->0) =      -12.27663634
 
 d Force = 0.0000000E+00[ 0.000E+00, 0.000E+00]  d Energy = 0.6019788E+00-0.602E+00
 d Force = 0.0000000E+00[ 0.000E+00, 0.000E+00]  d Ewald  =-0.5816747E+01 0.582E+01


--------------------------------------------------------------------------------------------------------


    POTLOK:  cpu time    0.0280: real time    0.0408


--------------------------------------------------------------------------------------------------------




--------------------------------------------------------------------------------------------------------


    WAVPRE:  cpu time    0.0080: real time    0.0332
    FEWALD:  cpu time    0.0000: real time    0.0007
    GENKIN:  cpu time    0.0040: real time    0.0013
    ORTHCH:  cpu time    0.0000: real time    0.0019
     LOOP+:  cpu time    0.3520: real time    0.4413


--------------------------------------- Iteration      4(   1)  ---------------------------------------


    POTLOK:  cpu time    0.0200: real time    0.0220
    SETDIJ:  cpu time    0.0080: real time    0.0083
     EDDAV:  cpu time    0.0200: real time    0.0218
       DOS:  cpu time    0.0040: real time    0.0014
    CHARGE:  cpu time    0.0040: real time    0.0067
    MIXING:  cpu time    0.0000: real time    0.0011
    --------------------------------------------
      LOOP:  cpu time    0.0600: real time    0.0620

 eigenvalue-minimisations  :    48
 total energy-change (2. order) :-0.6201708E-03  (-0.5966267E-03)
 number of electron       7.9999995 magnetization 
 augmentation part       -0.4807555 magnetization 

 Broyden mixing:
  rms(total) = 0.49603E-02    rms(broyden)= 0.49582E-02
  rms(prec ) = 0.15187E-01
  weight for this iteration     100.00

 Free energy of the ion-electron system (eV)
  ---------------------------------------------------
  alpha Z        PSCENC =         4.62326705
  Ewald energy   TEWEN  =      -269.55573921
  -Hartree energ DENC   =        -2.06162870
  -exchange      EXHF   =         0.00000000
  -V(xc)+E(xc)   XCENC  =       -17.32371161
  PAW double counting   =        72.13782223      -37.07289339
  entropy T*S    EENTRO =        -0.05641896
  eigenvalues    EBANDS =        30.89148861
  atomic energy  EATOM  =       206.11247263
  Solvation  Ediel_sol  =         0.00000000
  ---------------------------------------------------
  free energy    TOTEN  =       -12.30534135 eV

  energy without entropy =      -12.24892239  energy(sigma->0) =      -12.27713187


--------------------------------------------------------------------------------------------------------




--------------------------------------- Iteration      4(   2)  ---------------------------------------


    POTLOK:  cpu time    0.0200: real time    0.0266
    SETDIJ:  cpu time    0.0080: real time    0.0083
     EDDAV:  cpu time    0.0120: real time    0.0128
       DOS:  cpu time    0.0000: real time    0.0012
    --------------------------------------------
      LOOP:  cpu time    0.0400: real time    0.0489

 eigenvalue-minimisations  :    24
 total energy-change (2. order) : 0.6251729E-04  (-0.8925527E-05)
 number of electron       7.9999995 magnetization 
 augmentation part       -0.4807555 magnetization 

 Free energy of the ion-electron system (eV)
  ---------------------------------------------------
  alpha Z        PSCENC =         4.62326705
  Ewald energy   TEWEN  =      -269.55573921
  -Hartree energ DENC   =        -2.06057536
  -exchange      EXHF   =         0.00000000
  -V(xc)+E(xc)   XCENC  =       -17.32288211
  PAW double counting   =        72.17068186      -37.10652451
  entropy T*S    EENTRO =        -0.05641896
  eigenvalues    EBANDS =        30.89043978
  atomic energy  EATOM  =       206.11247263
  Solvation  Ediel_sol  =         0.00000000
  ---------------------------------------------------
  free energy    TOTEN  =       -12.30527883 eV

  energy without entropy =      -12.24885987  energy(sigma->0) =      -12.27706935


--------------------------------------------------------------------------------------------------------




 average (electrostatic) potential at core
  the test charge radii are     0.9892
  (the norm of the test charge is              1.0000)
       1 -79.9737       2 -79.9737
 
 
 
 E-fermi :   9.8306     XC(G=0): -11.1082     alpha+bet :-16.4701


 k-point     1 :       0.2500    0.2500    0.2500
  band No.  band energies     occupation 
      1       3.1943      2.00000
      2       3.1943      2.00000
      3       4.3587      2.00000
      4       4.3587      2.00000
      5      14.0769      0.00000
      6      14.0769      0.00000
      7      16.1711      0.00000
      8      16.1711      0.00000

 k-point     2 :      -0.2500    0.2500    0.2500
  band No.  band energies     occupation 
      1      -2.7880      2.00000
      2       3.0947      2.00000
      3       4.2043      2.00000
      4       9.8306      1.00000
      5      14.5902      0.00000
      6      16.3724      0.00000
      7      17.4419      0.00000
      8      17.5254      0.00000

 k-point     3 :      -0.2500   -0.2500    0.2500
  band No.  band energies     occupation 
      1       0.5294      2.00000
      2       6.3789      2.00000
      3       6.5413      2.00000
      4       7.1864      2.00000
      5       7.1864      2.00000
      6      13.0307      0.00000
      7      13.0307      0.00000
      8      13.1766      0.00000


--------------------------------------------------------------------------------------------------------


 soft charge-density along one line, spin component           1
         0         1         2         3         4         5         6         7         8         9
 total charge-density along one line
 
 pseudopotential strength for first ion, spin component:           1
 18.001  -0.003   0.000  -0.000  -0.000  -0.000   0.000   0.000
 -0.003   0.005  -0.000   0.000   0.000   0.000  -0.000  -0.000
  0.000  -0.000   4.108   0.000   0.000  -0.006  -0.000  -0.000
 -0.000   0.000   0.000   4.109   0.000  -0.000  -0.006  -0.000
 -0.000   0.000   0.000   0.000   4.108  -0.000  -0.000  -0.006
 -0.000   0.000  -0.006  -0.000  -0.000   0.005   0.000   0.000
  0.000  -0.000  -0.000  -0.006  -0.000   0.000   0.005   0.000
  0.000  -0.000  -0.000  -0.000  -0.006   0.000   0.000   0.005
 total augmentation occupancy for first ion, spin component:           1
  1.661  -0.673   0.000   0.000   0.000   0.000   0.000  -0.000
 -0.673   1.062  -0.000   0.000   0.000   0.000   0.000   0.000
  0.000   0.000   0.898   0.000  -0.000  -0.660   0.000   0.000
  0.000   0.000   0.000   0.800   0.000   0.000  -0.686  -0.000
 -0.000   0.000  -0.000   0.000   0.898  -0.000  -0.000  -0.660
  0.000   0.000  -0.660   0.000  -0.000   0.569   0.000   0.000
  0.000   0.000   0.000  -0.686  -0.000   0.000   0.626   0.000
  0.000   0.000   0.000  -0.000  -0.660   0.000   0.000   0.569


------------------------ aborting loop because EDIFF is reached ----------------------------------------


    CHARGE:  cpu time    0.0080: real time    0.0062
    FORLOC:  cpu time    0.0000: real time    0.0005
    FORNL :  cpu time    0.0040: real time    0.0059
    STRESS:  cpu time    0.0240: real time    0.0208
    FORCOR:  cpu time    0.0080: real time    0.0111
    FORHAR:  cpu time    0.0040: real time    0.0031
    MIXING:  cpu time    0.0000: real time    0.0007
    OFIELD:  cpu time    0.0000: real time    0.0004

  FORCE on cell =-STRESS in cart. coord.  units (eV):
  Direction    XX          YY          ZZ          XY          YZ          ZX
  --------------------------------------------------------------------------------------
  Alpha Z     4.62327     4.62327     4.62327
  Ewald     -87.44562   -87.44562   -94.66472     0.00000    -0.00000     0.00000
  Hartree     0.78758     0.78758     0.48307     0.00000    -0.00000    -0.00000
  E(xc)     -25.76108   -25.76108   -25.55864     0.00001     0.00000     0.00000
  Local     -15.70723   -15.70723    -5.72531    -0.00004    -0.00004    -0.00004
  n-local    79.12989    79.41203    75.75048     0.00001    -0.00001    -0.00000
  augment   -12.30524   -12.30524   -12.05844     0.00005     0.00005     0.00005
  Kinetic    54.93279    57.55235    56.60576    -0.00002    -0.00001    -0.00001
  Fock        0.00000     0.00000     0.00000     0.00000     0.00000     0.00000
  -------------------------------------------------------------------------------------
  Total      -0.29479    -0.29479    -0.54454     0.00000    -0.00000     0.00000
  in kB     -16.21680   -16.21680   -29.95524     0.00000    -0.00000     0.00000
  external pressure =      -20.80 kB  Pullay stress =        0.00 kB


 VOLUME and BASIS-vectors are now :
 -----------------------------------------------------------------------------
  energy-cutoff  :      200.00
[...]
  -exchange      EXHF   =         0.00000000
  -V(xc)+E(xc)   XCENC  =       -17.32161614
  PAW double counting   =        72.22201036      -37.15911972
  entropy T*S    EENTRO =        -0.05641896
  eigenvalues    EBANDS =        30.88779633
  atomic energy  EATOM  =       206.11247263
  Solvation  Ediel_sol  =         0.00000000
  ---------------------------------------------------
  free energy    TOTEN  =       -12.30524799 eV

  energy without entropy =      -12.24882904  energy(sigma->0) =      -12.27703851


--------------------------------------------------------------------------------------------------------




 average (electrostatic) potential at core
  the test charge radii are     0.9892
  (the norm of the test charge is              1.0000)
       1 -79.9798       2 -79.9798
 
 
 
 E-fermi :   9.8307     XC(G=0): -11.1086     alpha+bet :-16.4701


 k-point     1 :       0.2500    0.2500    0.2500
  band No.  band energies     occupation 
      1       3.1954      2.00000
      2       3.1954      2.00000
      3       4.3565      2.00000
      4       4.3565      2.00000
      5      14.0772      0.00000
      6      14.0772      0.00000
      7      16.1707      0.00000
      8      16.1707      0.00000

 k-point     2 :      -0.2500    0.2500    0.2500
  band No.  band energies     occupation 
      1      -2.7884      2.00000
      2       3.0928      2.00000
      3       4.2057      2.00000
      4       9.8307      1.00000
      5      14.5879      0.00000
      6      16.3704      0.00000
      7      17.4444      0.00000
      8      17.5232      0.00000

 k-point     3 :      -0.2500   -0.2500    0.2500
  band No.  band energies     occupation 
      1       0.5294      2.00000
      2       6.3767      2.00000
      3       6.5385      2.00000
      4       7.1882      2.00000
      5       7.1882      2.00000
      6      13.0302      0.00000
      7      13.0302      0.00000
      8      13.1725      0.00000


--------------------------------------------------------------------------------------------------------


 soft charge-density along one line, spin component           1
         0         1         2         3         4         5         6         7         8         9
 total charge-density along one line
 
 pseudopotential strength for first ion, spin component:           1
 18.002  -0.003   0.000  -0.000  -0.000  -0.000   0.000   0.000
 -0.003   0.005  -0.000   0.000   0.000   0.000  -0.000  -0.000
  0.000  -0.000   4.109   0.000   0.000  -0.006  -0.000  -0.000
 -0.000   0.000   0.000   4.110   0.000  -0.000  -0.006  -0.000
 -0.000   0.000   0.000   0.000   4.109  -0.000  -0.000  -0.006
 -0.000   0.000  -0.006  -0.000  -0.000   0.005   0.000   0.000
  0.000  -0.000  -0.000  -0.006  -0.000   0.000   0.005   0.000
  0.000  -0.000  -0.000  -0.000  -0.006   0.000   0.000   0.005
 total augmentation occupancy for first ion, spin component:           1
  1.661  -0.672   0.000   0.000   0.000   0.000   0.000   0.000
 -0.672   1.062   0.000   0.000   0.000   0.000   0.000  -0.000
  0.000   0.000   0.898   0.000   0.000  -0.659   0.000  -0.000
  0.000   0.000   0.000   0.801  -0.000   0.000  -0.687   0.000
  0.000   0.000   0.000  -0.000   0.898  -0.000   0.000  -0.659
  0.000  -0.000  -0.659   0.000  -0.000   0.567   0.000   0.000
  0.000   0.000   0.000  -0.687   0.000   0.000   0.628  -0.000
  0.000   0.000  -0.000   0.000  -0.659   0.000  -0.000   0.567


------------------------ aborting loop because EDIFF is reached ----------------------------------------


    CHARGE:  cpu time    0.0040: real time    0.0063
    FORLOC:  cpu time    0.0000: real time    0.0005
    FORNL :  cpu time    0.0080: real time    0.0058
    STRESS:  cpu time    0.0200: real time    0.0210
    FORCOR:  cpu time    0.0120: real time    0.0111
    FORHAR:  cpu time    0.0040: real time    0.0031
    MIXING:  cpu time    0.0000: real time    0.0007
    OFIELD:  cpu time    0.0000: real time    0.0004

  FORCE on cell =-STRESS in cart. coord.  units (eV):
  Direction    XX          YY          ZZ          XY          YZ          ZX
  --------------------------------------------------------------------------------------
  Alpha Z     4.62327     4.62327     4.62327
  Ewald     -87.44560   -87.44560   -94.66477     0.00000    -0.00000    -0.00000
  Hartree     0.78614     0.78614     0.48561     0.00000    -0.00000    -0.00000
  E(xc)     -25.75766   -25.75766   -25.55904     0.00001     0.00000     0.00000
  Local     -15.68297   -15.68297    -5.77893    -0.00004    -0.00004    -0.00004
  n-local    79.12513    79.40983    75.78425     0.00003     0.00000     0.00001
  augment   -12.30895   -12.30895   -12.06059     0.00005     0.00005     0.00005
  Kinetic    54.93802    57.55655    56.60096    -0.00002    -0.00001    -0.00001
  Fock        0.00000     0.00000     0.00000     0.00000     0.00000     0.00000
  -------------------------------------------------------------------------------------
  Total      -0.27101    -0.27101    -0.56925    -0.00000     0.00000    -0.00000
  in kB     -14.90840   -14.90840   -31.31452    -0.00000     0.00000    -0.00000
  external pressure =      -20.38 kB  Pullay stress =        0.00 kB


 VOLUME and BASIS-vectors are now :
 -----------------------------------------------------------------------------
  energy-cutoff  :      200.00
  volume of cell :       29.12
      direct lattice vectors                 reciprocal lattice vectors
    -2.336824859  2.336824859  1.333375359    -0.000000000  0.213965543  0.374988181
     2.336824859 -2.336824859  1.333375359     0.213965543 -0.000000000  0.374988181
     2.336824859  2.336824859 -1.333375359     0.213965543  0.213965543 -0.000000000

  length of vectors
     3.563620447  3.563620447  3.563620447     0.431737639  0.431737639  0.302592973


 FORCES acting on ions
    electron-ion (+dipol)            ewald-force                    non-local-force                 convergence-correction
 -----------------------------------------------------------------------------------------------
   0.121E-05 -.121E-05 0.167E-13   0.292E-15 0.243E-16 -.535E-15   -.457E-17 -.360E-17 0.191E-17   -.592E-11 0.592E-11 -.886E-16
   -.121E-05 0.121E-05 -.233E-14   -.436E-15 -.168E-15 -.265E-15   0.348E-17 0.288E-17 -.140E-17   0.592E-11 -.592E-11 0.240E-15
 -----------------------------------------------------------------------------------------------
   -.139E-13 0.114E-13 0.143E-13   -.143E-15 -.144E-15 -.800E-15   -.109E-17 -.724E-18 0.514E-18   -.205E-15 0.129E-15 0.152E-15
 
 
 POSITION                                       TOTAL-FORCE (eV/Angst)
 -----------------------------------------------------------------------------------
      2.33682      0.00000      0.66669        -0.000000      0.000000      0.000000
     -0.00000     -0.00000     -0.00000         0.000000     -0.000000     -0.000000
 -----------------------------------------------------------------------------------
    total drift:                               -0.000000      0.000000      0.000000


--------------------------------------------------------------------------------------------------------



  FREE ENERGIE OF THE ION-ELECTRON SYSTEM (eV)
  ---------------------------------------------------
  free  energy   TOTEN  =       -12.30524799 eV

  energy  without entropy=      -12.24882904  energy(sigma->0) =      -12.27703851
 
 d Force = 0.0000000E+00[ 0.000E+00, 0.000E+00]  d Energy =-0.4544262E-08 0.454E-08
 d Force = 0.0000000E+00[ 0.000E+00, 0.000E+00]  d Ewald  =-0.1782780E-04 0.178E-04


--------------------------------------------------------------------------------------------------------


    POTLOK:  cpu time    0.0280: real time    0.0414


--------------------------------------------------------------------------------------------------------




--------------------------------------------------------------------------------------------------------


    WAVPRE:  cpu time    0.0120: real time    0.0211
    FEWALD:  cpu time    0.0000: real time    0.0007
    GENKIN:  cpu time    0.0000: real time    0.0013
    ORTHCH:  cpu time    0.0040: real time    0.0019
     LOOP+:  cpu time    0.2160: real time    0.2815


--------------------------------------- Iteration     15(   1)  ---------------------------------------


    POTLOK:  cpu time    0.0160: real time    0.0214
    SETDIJ:  cpu time    0.0080: real time    0.0083
     EDDAV:  cpu time    0.0160: real time    0.0131
       DOS:  cpu time    0.0000: real time    0.0014
    CHARGE:  cpu time    0.0080: real time    0.0068
    MIXING:  cpu time    0.0000: real time    0.0011
    --------------------------------------------
      LOOP:  cpu time    0.0480: real time    0.0527

 eigenvalue-minimisations  :    24
 total energy-change (2. order) : 0.2255263E-08  (-0.1699973E-11)
 number of electron       7.9999995 magnetization 
 augmentation part       -0.4808102 magnetization 

 Broyden mixing:
  rms(total) = 0.15227E-05    rms(broyden)= 0.30595E-06
  rms(prec ) = 0.94373E-06
  weight for this iteration     100.00
  WARNING: grid for Broyden might be to small

 Free energy of the ion-electron system (eV)
  ---------------------------------------------------
  alpha Z        PSCENC =         4.62326756
  Ewald energy   TEWEN  =      -269.55574812
  -Hartree energ DENC   =        -2.05788350
  -exchange      EXHF   =         0.00000000
  -V(xc)+E(xc)   XCENC  =       -17.32161686
  PAW double counting   =        72.22200519      -37.15911442
  entropy T*S    EENTRO =        -0.05641896
  eigenvalues    EBANDS =        30.88778849
  atomic energy  EATOM  =       206.11247263
  Solvation  Ediel_sol  =         0.00000000
  ---------------------------------------------------
  free energy    TOTEN  =       -12.30524799 eV

  energy without entropy =      -12.24882903  energy(sigma->0) =      -12.27703851


--------------------------------------------------------------------------------------------------------




--------------------------------------- Iteration     15(   2)  ---------------------------------------


    POTLOK:  cpu time    0.0160: real time    0.0264
    SETDIJ:  cpu time    0.0080: real time    0.0085
     EDDAV:  cpu time    0.0160: real time    0.0130
       DOS:  cpu time    0.0000: real time    0.0013
    --------------------------------------------
      LOOP:  cpu time    0.0400: real time    0.0492

 eigenvalue-minimisations  :    24
 total energy-change (2. order) : 0.1233502E-10  (-0.5057066E-13)
 number of electron       7.9999995 magnetization 
 augmentation part       -0.4808102 magnetization 

 Free energy of the ion-electron system (eV)
  ---------------------------------------------------
  alpha Z        PSCENC =         4.62326756
  Ewald energy   TEWEN  =      -269.55574812
  -Hartree energ DENC   =        -2.05788355
  -exchange      EXHF   =         0.00000000
  -V(xc)+E(xc)   XCENC  =       -17.32161692
  PAW double counting   =        72.22200320      -37.15911236
  entropy T*S    EENTRO =        -0.05641896
  eigenvalues    EBANDS =        30.88778853
  atomic energy  EATOM  =       206.11247263
  Solvation  Ediel_sol  =         0.00000000
  ---------------------------------------------------
  free energy    TOTEN  =       -12.30524799 eV

  energy without entropy =      -12.24882903  energy(sigma->0) =      -12.27703851


--------------------------------------------------------------------------------------------------------




 average (electrostatic) potential at core
  the test charge radii are     0.9892
  (the norm of the test charge is              1.0000)
       1 -79.9798       2 -79.9798
 
 
 
 E-fermi :   9.8307     XC(G=0): -11.1086     alpha+bet :-16.4701


 k-point     1 :       0.2500    0.2500    0.2500
  band No.  band energies     occupation 
      1       3.1954      2.00000
      2       3.1954      2.00000
      3       4.3565      2.00000
      4       4.3565      2.00000
      5      14.0772      0.00000
      6      14.0772      0.00000
      7      16.1707      0.00000
      8      16.1707      0.00000

 k-point     2 :      -0.2500    0.2500    0.2500
  band No.  band energies     occupation 
      1      -2.7884      2.00000
      2       3.0928      2.00000
      3       4.2057      2.00000
      4       9.8307      1.00000
      5      14.5879      0.00000
      6      16.3704      0.00000
      7      17.4444      0.00000
      8      17.5232      0.00000

 k-point     3 :      -0.2500   -0.2500    0.2500
  band No.  band energies     occupation 
      1       0.5294      2.00000
      2       6.3767      2.00000
      3       6.5385      2.00000
      4       7.1882      2.00000
      5       7.1882      2.00000
      6      13.0302      0.00000
      7      13.0302      0.00000
      8      13.1725      0.00000


--------------------------------------------------------------------------------------------------------


 soft charge-density along one line, spin component           1
         0         1         2         3         4         5         6         7         8         9
 total charge-density along one line
 
 pseudopotential strength for first ion, spin component:           1
 18.002  -0.003   0.000  -0.000  -0.000  -0.000   0.000   0.000
 -0.003   0.005  -0.000   0.000   0.000   0.000  -0.000  -0.000
  0.000  -0.000   4.109   0.000   0.000  -0.006  -0.000  -0.000
 -0.000   0.000   0.000   4.110   0.000  -0.000  -0.006  -0.000
 -0.000   0.000   0.000   0.000   4.109  -0.000  -0.000  -0.006
 -0.000   0.000  -0.006  -0.000  -0.000   0.005   0.000   0.000
  0.000  -0.000  -0.000  -0.006  -0.000   0.000   0.005   0.000
  0.000  -0.000  -0.000  -0.000  -0.006   0.000   0.000   0.005
 total augmentation occupancy for first ion, spin component:           1
  1.661  -0.672   0.000   0.000   0.000   0.000   0.000  -0.000
 -0.672   1.062  -0.000   0.000   0.000   0.000   0.000   0.000
  0.000   0.000   0.898  -0.000  -0.000  -0.659  -0.000   0.000
  0.000   0.000  -0.000   0.801   0.000   0.000  -0.687   0.000
 -0.000   0.000  -0.000   0.000   0.898   0.000   0.000  -0.659
  0.000   0.000  -0.659   0.000   0.000   0.567   0.000  -0.000
  0.000   0.000  -0.000  -0.687   0.000   0.000   0.628  -0.000
  0.000   0.000   0.000   0.000  -0.659  -0.000  -0.000   0.567


------------------------ aborting loop because EDIFF is reached ----------------------------------------


    CHARGE:  cpu time    0.0040: real time    0.0065
    FORLOC:  cpu time    0.0000: real time    0.0005
    FORNL :  cpu time    0.0080: real time    0.0058
    STRESS:  cpu time    0.0200: real time    0.0209
    FORCOR:  cpu time    0.0120: real time    0.0111
    FORHAR:  cpu time    0.0040: real time    0.0031
    MIXING:  cpu time    0.0000: real time    0.0007
    OFIELD:  cpu time    0.0000: real time    0.0004

  FORCE on cell =-STRESS in cart. coord.  units (eV):
  Direction    XX          YY          ZZ          XY          YZ          ZX
  --------------------------------------------------------------------------------------
  Alpha Z     4.62327     4.62327     4.62327
  Ewald     -87.44561   -87.44561   -94.66475    -0.00000     0.00000    -0.00000
  Hartree     0.78613     0.78613     0.48561     0.00000    -0.00000    -0.00000
  E(xc)     -25.75766   -25.75766   -25.55904     0.00001     0.00000     0.00000
  Local     -15.68297   -15.68297    -5.77895    -0.00004    -0.00004    -0.00004
  n-local    79.12512    79.40983    75.78424     0.00003     0.00000     0.00001
  augment   -12.30894   -12.30894   -12.06059     0.00005     0.00005     0.00005
  Kinetic    54.93801    57.55654    56.60097    -0.00002    -0.00001    -0.00001
  Fock        0.00000     0.00000     0.00000     0.00000     0.00000     0.00000
  -------------------------------------------------------------------------------------
  Total      -0.27102    -0.27102    -0.56924     0.00000    -0.00000     0.00000
  in kB     -14.90901   -14.90901   -31.31395     0.00000    -0.00000     0.00000
  external pressure =      -20.38 kB  Pullay stress =        0.00 kB


 VOLUME and BASIS-vectors are now :
 -----------------------------------------------------------------------------
  energy-cutoff  :      200.00
  volume of cell :       29.12
      direct lattice vectors                 reciprocal lattice vectors
    -2.336825096  2.336825096  1.333375235    -0.000000000  0.213965521  0.374988216
     2.336825096 -2.336825096  1.333375235     0.213965521 -0.000000000  0.374988216
     2.336825096  2.336825096 -1.333375235     0.213965521  0.213965521  0.000000000

  length of vectors
     3.563620711  3.563620711  3.563620711     0.431737659  0.431737659  0.302592942


 FORCES acting on ions
    electron-ion (+dipol)            ewald-force                    non-local-force                 convergence-correction
 -----------------------------------------------------------------------------------------------
   0.121E-05 -.121E-05 0.733E-14   0.887E-15 -.284E-15 0.207E-15   -.222E-18 -.216E-17 0.145E-17   -.296E-11 0.296E-11 -.396E-15
   -.121E-05 0.121E-05 0.142E-13   -.915E-15 0.145E-15 0.672E-15   0.298E-17 -.396E-18 -.501E-17   0.296E-11 -.296E-11 -.205E-15
 -----------------------------------------------------------------------------------------------
   -.200E-13 0.955E-14 0.215E-13   -.282E-16 -.139E-15 0.880E-15   0.276E-17 -.256E-17 -.356E-17   -.524E-16 -.172E-15 -.601E-15
 
 
 POSITION                                       TOTAL-FORCE (eV/Angst)
 -----------------------------------------------------------------------------------
      2.33683      0.00000      0.66669        -0.000000      0.000000     -0.000000
     -0.00000     -0.00000     -0.00000         0.000000     -0.000000      0.000000
 -----------------------------------------------------------------------------------
    total drift:                               -0.000000      0.000000      0.000000


--------------------------------------------------------------------------------------------------------



  FREE ENERGIE OF THE ION-ELECTRON SYSTEM (eV)
  ---------------------------------------------------
  free  energy   TOTEN  =       -12.30524799 eV

  energy  without entropy=      -12.24882903  energy(sigma->0) =      -12.27703851
 
 d Force = 0.0000000E+00[ 0.000E+00, 0.000E+00]  d Energy =-0.9401617E-09 0.940E-09
 d Force = 0.0000000E+00[ 0.000E+00, 0.000E+00]  d Ewald  =-0.8913899E-05 0.891E-05


--------------------------------------------------------------------------------------------------------


    POTLOK:  cpu time    0.0280: real time    0.0444


--------------------------------------------------------------------------------------------------------




--------------------------------------------------------------------------------------------------------


 writing wavefunctions
     LOOP+:  cpu time    0.2160: real time    0.3364
    4ORBIT:  cpu time    0.0000: real time    0.0000

 total amount of memory used by VASP MPI-rank0    30451. kBytes
=======================================================================

   base      :      30000. kBytes
   nonl-proj :         46. kBytes
   fftplans  :        119. kBytes
   grid      :        270. kBytes
   one-center:          6. kBytes
   wavefun   :         10. kBytes
 
  
  
 General timing and accounting informations for this job:
 ========================================================
  
                  Total CPU time used (sec):        8.492
                            User time (sec):        6.248
                          System time (sec):        2.244
                         Elapsed time (sec):       10.508
  
                   Maximum memory used (kb):        9344.
                   Average memory used (kb):           0.
  
                          Minor page faults:        38034
                          Major page faults:           33
                 Voluntary context switches:        35312
