unknown system                          
           1
    -2.450000    2.450000    1.274000
     2.450000   -2.450000    1.274000
     2.450000    2.450000   -1.274000
   Si
   2
Direct configuration=     1
   0.25000000  0.75000000  0.50000000
   0.00000000  0.00000000  0.00000000
unknown system                          
           1
    -2.183435    2.183435    1.413849
     2.183435   -2.183435    1.413849
     2.183435    2.183435   -1.413849
   Si
   2
Direct configuration=     2
   0.25000000  0.75000000  0.50000000
  -0.00000000 -0.00000000 -0.00000000
unknown system                          
           1
    -2.340644    2.340644    1.331372
     2.340644   -2.340644    1.331372
     2.340644    2.340644   -1.331372
   Si
   2
Direct configuration=     3
   0.25000000  0.75000000  0.50000000
  -0.00000000 -0.00000000 -0.00000000
unknown system                          
           1
    -2.336825    2.336825    1.333375
     2.336825   -2.336825    1.333375
     2.336825    2.336825   -1.333375
   Si
   2
Direct configuration=     4
   0.25000000  0.75000000  0.50000000
  -0.00000000 -0.00000000 -0.00000000
unknown system                          
           1
    -2.336447    2.336447    1.333574
     2.336447   -2.336447    1.333574
     2.336447    2.336447   -1.333574
   Si
   2
Direct configuration=     5
   0.25000000  0.75000000  0.50000000
  -0.00000000 -0.00000000 -0.00000000
unknown system                          
           1
    -2.336692    2.336692    1.333445
     2.336692   -2.336692    1.333445
     2.336692    2.336692   -1.333445
   Si
   2
Direct configuration=     6
   0.25000000  0.75000000  0.50000000
  -0.00000000 -0.00000000 -0.00000000
unknown system                          
           1
    -2.336767    2.336767    1.333405
     2.336767   -2.336767    1.333405
     2.336767    2.336767   -1.333405
   Si
   2
Direct configuration=     7
   0.25000000  0.75000000  0.50000000
  -0.00000000 -0.00000000 -0.00000000
unknown system                          
           1
    -2.336796    2.336796    1.333390
     2.336796   -2.336796    1.333390
     2.336796    2.336796   -1.333390
   Si
   2
Direct configuration=     8
   0.25000000  0.75000000  0.50000000
  -0.00000000 -0.00000000 -0.00000000
unknown system                          
           1
    -2.336810    2.336810    1.333383
     2.336810   -2.336810    1.333383
     2.336810    2.336810   -1.333383
   Si
   2
Direct configuration=     9
   0.25000000  0.75000000  0.50000000
  -0.00000000 -0.00000000 -0.00000000
unknown system                          
           1
    -2.336818    2.336818    1.333379
     2.336818   -2.336818    1.333379
     2.336818    2.336818   -1.333379
   Si
   2
Direct configuration=    10
   0.25000000  0.75000000  0.50000000
  -0.00000000 -0.00000000 -0.00000000
unknown system                          
           1
    -2.336822    2.336822    1.333377
     2.336822   -2.336822    1.333377
     2.336822    2.336822   -1.333377
   Si
   2
Direct configuration=    11
   0.25000000  0.75000000  0.50000000
  -0.00000000 -0.00000000 -0.00000000
unknown system                          
           1
    -2.336823    2.336823    1.333376
     2.336823   -2.336823    1.333376
     2.336823    2.336823   -1.333376
   Si
   2
Direct configuration=    12
   0.25000000  0.75000000  0.50000000
  -0.00000000 -0.00000000 -0.00000000
unknown system                          
           1
    -2.336824    2.336824    1.333376
     2.336824   -2.336824    1.333376
     2.336824    2.336824   -1.333376
   Si
   2
Direct configuration=    13
   0.25000000  0.75000000  0.50000000
  -0.00000000 -0.00000000 -0.00000000
unknown system                          
           1
    -2.336825    2.336825    1.333375
     2.336825   -2.336825    1.333375
     2.336825    2.336825   -1.333375
   Si
   2
Direct configuration=    14
   0.25000000  0.75000000  0.50000000
  -0.00000000 -0.00000000 -0.00000000
unknown system                          
           1
    -2.336825    2.336825    1.333375
     2.336825   -2.336825    1.333375
     2.336825    2.336825   -1.333375
   Si
   2
Direct configuration=    15
   0.25000000  0.75000000  0.50000000
  -0.00000000 -0.00000000 -0.00000000
