unknown system                          
   1.00000000000000     
     0.000000    2.715000    2.715000
     2.715000    0.000000    2.715000
     2.715000    2.715000    0.000000
   Si
     2
Direct
  0.500000  0.500000  0.500000
  0.750000  0.750000  0.750000
 
   32   32   32
 0.87662     0.89826     0.96432      1.0785      1.2467      1.4774      1.7799      2.1637      2.6348      3.1919    
  3.8222      4.4974      5.1735      5.7939      6.2966      6.6249      6.7391      6.6249      6.2965      5.7938    
  5.1734      4.4973      3.8221      3.1920      2.6349      2.1639      1.7801      1.4775      1.2468      1.0784    
 0.96426     0.89821     0.89826     0.93559      1.0122      1.1320      1.3005      1.5242      1.8100      2.1636    
  2.5866      3.0733      3.6076      4.1605      4.6912      5.1511      5.4916      5.6730      5.6729      5.4915    
  5.1510      4.6911      4.1605      3.6076      3.0734      2.5868      2.1638      1.8102      1.5242      1.3005    
  1.1320      1.0122     0.93555     0.89823     0.96432      1.0122      1.0947      1.2155      1.3791      1.5907    
  1.8548      2.1738      2.5458      2.9620      3.4043      3.8449      4.2476      4.5730      4.7852      4.8589    
  4.7851      4.5729      4.2476      3.8449      3.4044      2.9621      2.5459      2.1739      1.8549      1.5908    
  1.3791      1.2154      1.0947      1.0122     0.96431     0.94862      1.0785      1.1320      1.2155      1.3321    
  1.4858      1.6802      1.9179      2.1989      2.5185      2.8660      3.2228      3.5632      3.8569      4.0736    
  4.1888      4.1888      4.0735      3.8568      3.5632      3.2229      2.8661      2.5186      2.1989      1.9179    
  1.6801      1.4857      1.3320      1.2154      1.1320      1.0785      1.0523      1.0523      1.2467      1.3005    
  1.3791      1.4858      1.6237      1.7955      2.0024      2.2423      2.5090      2.7904      3.0687      3.3216    
  3.5250      3.6572      3.7030      3.6571      3.5250      3.3216      3.0688      2.7905      2.5090      2.2424    
  2.0024      1.7954      1.6236      1.4857      1.3791      1.3005      1.2468      1.2155      1.2053      1.2155    
  1.4774      1.5242      1.5907      1.6802      1.7955      1.9388      2.1099      2.3056      2.5185      2.7366    
  2.9438      3.1217      3.2525      3.3218      3.3217      3.2524      3.1217      2.9438      2.7366      2.5185    
  2.3056      2.1099      1.9387      1.7954      1.6801      1.5907      1.5242      1.4774      1.4477      1.4333    
  1.4332      1.4476      1.7799      1.8100      1.8548      1.9179      2.0024      2.1099      2.2396      2.3874    
  2.5458      2.7034      2.8468      2.9619      3.0366      3.0624      3.0366      2.9619      2.8468      2.7034    
  2.5458      2.3874      2.2396      2.1098      2.0023      1.9178      1.8548      1.8101      1.7800      1.7611    
  1.7508      1.7475      1.7507      1.7610      2.1637      2.1636      2.1738      2.1989      2.2423      2.3056    
  2.3874      2.4835      2.5866      2.6872      2.7746      2.8393      2.8736      2.8736      2.8393      2.7747    
  2.6872      2.5866      2.4836      2.3875      2.3056      2.2423      2.1988      2.1738      2.1637      2.1638    
  2.1691      2.1752      2.1791      2.1791      2.1752      2.1690      2.6348      2.5866      2.5458      2.5185    
  2.5090      2.5185      2.5458      2.5866      2.6348      2.6829      2.7235      2.7505      2.7600      2.7505    
  2.7236      2.6830      2.6349      2.5867      2.5458      2.5186      2.5090      2.5186      2.5458      2.5867    
  2.6349      2.6830      2.7236      2.7505      2.7600      2.7505      2.7235      2.6829      3.1919      3.0733    
  2.9620      2.8660      2.7904      2.7366      2.7034      2.6872      2.6829      2.6854      2.6898      2.6928    
  2.6929      2.6898      2.6855      2.6830      2.6873      2.7035      2.7367      2.7905      2.8661      2.9620    
  3.0734      3.1920      3.3070      3.4066      3.4800      3.5189      3.5189      3.4800      3.4066      3.3070    
  3.8222      3.6076      3.4043      3.2228      3.0687      2.9438      2.8468      2.7746      2.7235      2.6898    
  2.6707      2.6645      2.6707      2.6899      2.7237      2.7748      2.8469      2.9439      3.0688      3.2229    
  3.4044      3.6076      3.8221      4.0331      4.2229      4.3737      4.4709      4.5044      4.4709      4.3738    
  4.2230      4.0332      4.4974      4.1605      3.8449      3.5632      3.3216      3.1217      2.9619      2.8393    
  2.7505      2.6928      2.6645      2.6645      2.6930      2.7507      2.8395      2.9621      3.1218      3.3217    
  3.5632      3.8449      4.1604      4.4973      4.8360      5.1521      5.4190      5.6123      5.7138      5.7138    
  5.6124      5.4191      5.1523      4.8362      5.1735      4.6912      4.2476      3.8569      3.5250      3.2525    
  3.0366      2.8736      2.7600      2.6929      2.6707      2.6930      2.7602      2.8738      3.0368      3.2526    
  3.5251      3.8568      4.2475      4.6911      5.1734      5.6710      6.1516      6.5782      6.9140      7.1288    
  7.2027      7.1288      6.9141      6.5783      6.1518      5.6711      5.7939      5.1511      4.5730      4.0736    
  3.6572      3.3218      3.0624      2.8736      2.7505      2.6898      2.6899      2.7507      2.8738      3.0626    
  3.3219      3.6572      4.0735      4.5729      5.1510      5.7938      6.4750      7.1555      7.7869      8.3177    
  8.7011      8.9021      8.9021      8.7012      8.3178      7.7870      7.1556      6.4751      6.2966      5.4916    
  4.7852      4.1888      3.7030      3.3217      3.0366      2.8393      2.7236      2.6855      2.7237      2.8395    
  3.0368      3.3219      3.7031      4.1888      4.7850      5.4914      6.2964      7.1735      8.0792      8.9553    
  9.7344      10.350      10.744      10.880      10.744      10.349      9.7343      8.9552      8.0792      7.1736    
  6.6249      5.6730      4.8589      4.1888      3.6571      3.2524      2.9619      2.7747      2.6830      2.6830    
  2.7748      2.9621      3.2526      3.6572      4.1888      4.8588      5.6728      6.6248      7.6916      8.8299    
  9.9754      11.048      11.958      12.621      12.971      12.971      12.621      11.957      11.047      9.9753    
  8.8299      7.6917      6.7391      5.6729      4.7851      4.0735      3.5250      3.1217      2.8468      2.6872    
  2.6349      2.6873      2.8469      3.1218      3.5251      4.0735      4.7850      5.6728      6.7390      7.9680    
  9.3215      10.736      12.124      13.378      14.385      15.038      15.265      15.038      14.384      13.378    
  12.123      10.736      9.3215      7.9681      6.6249      5.4915      4.5729      3.8568      3.3216      2.9438    
  2.7034      2.5866      2.5867      2.7035      2.9439      3.3217      3.8568      4.5729      5.4914      6.6248    
  7.9680      9.4928      11.143      12.833      14.448      15.847      16.876      17.419      17.419      16.876    
  15.847      14.448      12.833      11.143      9.4928      7.9681      6.2965      5.1510      4.2476      3.5632    
  3.0688      2.7366      2.5458      2.4836      2.5458      2.7367      3.0688      3.5632      4.2475      5.1510    
  6.2964      7.6916      9.3215      11.143      13.082      15.026      16.817      18.255      19.183      19.504    
  19.183      18.255      16.817      15.026      13.082      11.143      9.3215      7.6916      5.7938      4.6911    
  3.8449      3.2229      2.7905      2.5185      2.3874      2.3875      2.5186      2.7905      3.2229      3.8449    
  4.6911      5.7938      7.1735      8.8299      10.736      12.833      15.026      17.156      18.995      20.342    
  21.054      21.054      20.343      18.995      17.156      15.026      12.833      10.736      8.8298      7.1735    
  5.1734      4.1605      3.4044      2.8661      2.5090      2.3056      2.2396      2.3056      2.5090      2.8661    
  3.4044      4.1604      5.1734      6.4750      8.0792      9.9754      12.124      14.448      16.817      18.995    
  20.747      21.882      22.276      21.882      20.747      18.995      16.817      14.449      12.124      9.9753    
  8.0791      6.4749      4.4973      3.6076      2.9621      2.5186      2.2424      2.1099      2.1098      2.2423    
  2.5186      2.9620      3.6076      4.4973      5.6710      7.1555      8.9553      11.048      13.378      15.847    
  18.255      20.342      21.882      22.700      22.700      21.882      20.342      18.255      15.847      13.378    
  11.047      8.9551      7.1554      5.6709      3.8221      3.0734      2.5459      2.1989      2.0024      1.9387    
  2.0023      2.1988      2.5458      3.0734      3.8221      4.8360      6.1516      7.7869      9.7344      11.958    
  14.385      16.876      19.183      21.054      22.276      22.700      22.275      21.054      19.183      16.876    
  14.384      11.958      9.7343      7.7868      6.1515      4.8360      3.1920      2.5868      2.1739      1.9179    
  1.7954      1.7954      1.9178      2.1738      2.5867      3.1920      4.0331      5.1521      6.5782      8.3177    
  10.350      12.621      15.038      17.419      19.504      21.054      21.882      21.882      21.054      19.504    
  17.418      15.038      12.621      10.349      8.3176      6.5781      5.1520      4.0330      2.6349      2.1638    
  1.8549      1.6801      1.6236      1.6801      1.8548      2.1637      2.6349      3.3070      4.2229      5.4190    
  6.9140      8.7011      10.744      12.971      15.265      17.419      19.183      20.343      20.747      20.342    
  19.183      17.418      15.264      12.971      10.744      8.7010      6.9139      5.4189      4.2228      3.3070    
  2.1639      1.8102      1.5908      1.4857      1.4857      1.5907      1.8101      2.1638      2.6830      3.4066    
  4.3737      5.6123      7.1288      8.9021      10.880      12.971      15.038      16.876      18.255      18.995    
  18.995      18.255      16.876      15.038      12.971      10.880      8.9020      7.1286      5.6122      4.3737    
  3.4066      2.6830      1.7801      1.5242      1.3791      1.3320      1.3791      1.5242      1.7800      2.1691    
  2.7236      3.4800      4.4709      5.7138      7.2027      8.9021      10.744      12.621      14.384      15.847    
  16.817      17.156      16.817      15.847      14.384      12.621      10.744      8.9020      7.2025      5.7137    
  4.4708      3.4800      2.7236      2.1692      1.4775      1.3005      1.2154      1.2154      1.3005      1.4774    
  1.7611      2.1752      2.7505      3.5189      4.5044      5.7138      7.1288      8.7012      10.349      11.957    
  13.378      14.448      15.026      15.026      14.449      13.378      11.958      10.349      8.7010      7.1286    
  5.7137      4.5043      3.5189      2.7506      2.1753      1.7612      1.2468      1.1320      1.0947      1.1320    
  1.2468      1.4477      1.7508      2.1791      2.7600      3.5189      4.4709      5.6124      6.9141      8.3178    
  9.7343      11.047      12.123      12.833      13.082      12.833      12.124      11.047      9.7343      8.3176    
  6.9139      5.6122      4.4708      3.5189      2.7601      2.1792      1.7509      1.4477      1.0784      1.0122    
  1.0122      1.0785      1.2155      1.4333      1.7475      2.1791      2.7505      3.4800      4.3738      5.4191    
  6.5783      7.7870      8.9552      9.9753      10.736      11.143      11.143      10.736      9.9753      8.9551    
  7.7868      6.5781      5.4189      4.3737      3.4800      2.7506      2.1792      1.7476      1.4333      1.2155    
 0.96426     0.93555     0.96431      1.0523      1.2053      1.4332      1.7507      2.1752      2.7235      3.4066    
  4.2230      5.1523      6.1518      7.1556      8.0792      8.8299      9.3215      9.4928      9.3215      8.8298    
  8.0791      7.1554      6.1515      5.1520      4.2228      3.4066      2.7236      2.1753      1.7509      1.4333    
  1.2053      1.0523     0.89821     0.89823     0.94862      1.0523      1.2155      1.4476      1.7610      2.1690    
  2.6829      3.3070      4.0332      4.8362      5.6711      6.4751      7.1736      7.6917      7.9681      7.9681    
  7.6916      7.1735      6.4749      5.6709      4.8360      4.0330      3.3070      2.6830      2.1692      1.7612    
  1.4477      1.2155      1.0523     0.94856     0.89826     0.93560      1.0122      1.1320      1.3005      1.5242    
  1.8100      2.1636      2.5866      3.0733      3.6076      4.1605      4.6912      5.1511      5.4916      5.6730    
  5.6729      5.4915      5.1510      4.6911      4.1605      3.6076      3.0734      2.5868      2.1638      1.8102    
  1.5242      1.3005      1.1320      1.0122     0.93555     0.89824     0.93560     0.98235      1.0629      1.1811    
  1.3413      1.5486      1.8073      2.1196      2.4835      2.8904      3.3227      3.7531      4.1465      4.4644    
  4.6718      4.7439      4.6718      4.4644      4.1464      3.7531      3.3227      2.8905      2.4837      2.1197    
  1.8074      1.5487      1.3413      1.1810      1.0629     0.98231     0.93557     0.92028      1.0122      1.0629    
  1.1422      1.2534      1.4003      1.5863      1.8138      2.0823      2.3874      2.7188      3.0589      3.3834    
  3.6636      3.8704      3.9805      3.9805      3.8704      3.6636      3.3835      3.0590      2.7189      2.3876    
  2.0824      1.8138      1.5863      1.4002      1.2533      1.1421      1.0629      1.0122     0.98757     0.98757    
  1.1320      1.1811      1.2534      1.3521      1.4805      1.6408      1.8338      2.0574      2.3056      2.5674    
  2.8264      3.0620      3.2516      3.3750      3.4178      3.3750      3.2516      3.0620      2.8265      2.5675    
  2.3057      2.0574      1.8338      1.6407      1.4804      1.3521      1.2533      1.1810      1.1321      1.1038    
  1.0945      1.1038      1.3005      1.3413      1.4003      1.4805      1.5848      1.7149      1.8706      2.0486    
  2.2423      2.4408      2.6296      2.7920      2.9115      2.9750      2.9750      2.9115      2.7920      2.6296    
  2.4408      2.2424      2.0487      1.8706      1.7149      1.5847      1.4804      1.4002      1.3413      1.3005    
  1.2750      1.2627      1.2627      1.2750      1.5242      1.5486      1.5863      1.6408      1.7149      1.8101    
  1.9255      2.0574      2.1989      2.3400      2.4687      2.5723      2.6396      2.6630      2.6396      2.5723    
  2.4687      2.3400      2.1989      2.0574      1.9255      1.8101      1.7149      1.6407      1.5863      1.5486    
  1.5242      1.5096      1.5019      1.4995      1.5018      1.5095      1.8100      1.8073      1.8138      1.8338    
  1.8706      1.9255      1.9974      2.0823      2.1738      2.2633      2.3415      2.3995      2.4303      2.4303    
  2.3995      2.3415      2.2634      2.1738      2.0823      1.9974      1.9255      1.8705      1.8337      1.8137    
  1.8073      1.8101      1.8172      1.8246      1.8290      1.8290      1.8245      1.8172      2.1636      2.1196    
  2.0823      2.0574      2.0486      2.0574      2.0823      2.1196      2.1636      2.2076      2.2448      2.2695    
  2.2782      2.2695      2.2448      2.2077      2.1637      2.1196      2.0823      2.0574      2.0486      2.0574    
  2.0823      2.1196      2.1637      2.2077      2.2448      2.2695      2.2782      2.2695      2.2448      2.2076    
  2.5866      2.4835      2.3874      2.3056      2.2423      2.1989      2.1738      2.1636      2.1637      2.1690    
  2.1752      2.1791      2.1791      2.1752      2.1691      2.1638      2.1637      2.1738      2.1988      2.2423    
  2.3056      2.3875      2.4836      2.5866      2.6872      2.7747      2.8393      2.8736      2.8736      2.8393    
  2.7746      2.6872      3.0733      2.8904      2.7188      2.5674      2.4408      2.3400      2.2633      2.2076    
  2.1690      2.1441      2.1301      2.1257      2.1302      2.1442      2.1692      2.2077      2.2634      2.3400    
  2.4408      2.5674      2.7188      2.8904      3.0733      3.2547      3.4192      3.5508      3.6359      3.6653    
  3.6359      3.5508      3.4192      3.2548      3.6076      3.3227      3.0589      2.8264      2.6296      2.4687    
  2.3415      2.2448      2.1752      2.1301      2.1080      2.1081      2.1303      2.1754      2.2449      2.3416    
  2.4687      2.6295      2.8264      3.0589      3.3227      3.6076      3.8974      4.1709      4.4040      4.5742    
  4.6641      4.6642      4.5743      4.4041      4.1710      3.8975      4.1605      3.7531      3.3834      3.0620    
  2.7920      2.5723      2.3995      2.2695      2.1791      2.1257      2.1081      2.1258      2.1792      2.2697    
  2.3996      2.5723      2.7919      3.0619      3.3834      3.7530      4.1604      4.5866      5.0040      5.3793    
  5.6781      5.8707      5.9373      5.8708      5.6782      5.3794      5.0041      4.5867      4.6912      4.1465    
  3.6636      3.2516      2.9115      2.6396      2.4303      2.2782      2.1791      2.1302      2.1303      2.1792    
  2.2784      2.4304      2.6396      2.9114      3.2515      3.6634      4.1464      4.6911      5.2772      5.8721    
  6.4325      6.9100      7.2586      7.4427      7.4427      7.2587      6.9100      6.4325      5.8722      5.2773    
  5.1511      4.4644      3.8704      3.3750      2.9750      2.6630      2.4303      2.2695      2.1752      2.1442    
  2.1754      2.2697      2.4304      2.6630      2.9749      3.3749      3.8703      4.4643      5.1510      5.9112    
  6.7094      7.4940      8.2020      8.7677      9.1335      9.2601      9.1335      8.7677      8.2020      7.4940    
  6.7095      5.9113      5.4916      4.6718      3.9805      3.4178      2.9750      2.6396      2.3995      2.2448    
  2.1691      2.1692      2.2449      2.3996      2.6396      2.9749      3.4177      3.9803      4.6716      5.4914    
  6.4249      7.4377      8.4735      9.4570      10.302      10.923      11.252      11.252      10.923      10.302    
  9.4570      8.4735      7.4377      6.4251      5.6730      4.7439      3.9805      3.3750      2.9115      2.5723    
  2.3415      2.2077      2.1638      2.2077      2.3416      2.5723      2.9114      3.3749      3.9803      4.7437    
  5.6728      6.7605      7.9783      9.2710      10.557      11.731      12.680      13.300      13.515      13.300    
  12.680      11.731      10.557      9.2710      7.9784      6.7607      5.6729      4.6718      3.8704      3.2516    
  2.7920      2.4687      2.2634      2.1637      2.1637      2.2634      2.4687      2.7919      3.2515      3.8703    
  4.6716      5.6728      6.8773      8.2668      9.7940      11.378      12.906      14.240      15.234      15.766    
  15.766      15.234      14.240      12.906      11.378      9.7940      8.2669      6.8774      5.4915      4.4644    
  3.6636      3.0620      2.6296      2.3400      2.1738      2.1196      2.1738      2.3400      2.6295      3.0619    
  3.6634      4.4643      5.4914      6.7605      8.2668      9.9763      11.819      13.683      15.418      16.844    
  17.788      18.119      17.788      16.844      15.418      13.683      11.819      9.9764      8.2669      6.7606    
  5.1510      4.1464      3.3835      2.8265      2.4408      2.1989      2.0823      2.0823      2.1988      2.4408    
  2.8264      3.3834      4.1464      5.1510      6.4249      7.9783      9.7940      11.819      13.956      16.055    
  17.920      19.331      20.091      20.091      19.331      17.920      16.055      13.956      11.819      9.7940    
  7.9783      6.4250      4.6911      3.7531      3.0590      2.5675      2.2424      2.0574      1.9974      2.0574    
  2.2423      2.5674      3.0589      3.7530      4.6911      5.9112      7.4377      9.2710      11.378      13.683    
  16.055      18.299      20.167      21.408      21.843      21.408      20.168      18.299      16.055      13.683    
  11.378      9.2710      7.4377      5.9112      4.1605      3.3227      2.7189      2.3057      2.0487      1.9255    
  1.9255      2.0486      2.3056      2.7188      3.3227      4.1604      5.2772      6.7094      8.4735      10.557    
  12.906      15.418      17.920      20.167      21.871      22.791      22.791      21.871      20.167      17.920    
  15.418      12.906      10.557      8.4734      6.7093      5.2772      3.6076      2.8905      2.3876      2.0574    
  1.8706      1.8101      1.8705      2.0574      2.3875      2.8904      3.6076      4.5866      5.8721      7.4940    
  9.4570      11.731      14.240      16.844      19.331      21.408      22.791      23.276      22.791      21.408    
  19.331      16.844      14.240      11.731      9.4569      7.4939      5.8720      4.5866      3.0734      2.4837    
  2.0824      1.8338      1.7149      1.7149      1.8337      2.0823      2.4836      3.0733      3.8974      5.0040    
  6.4325      8.2020      10.302      12.680      15.234      17.788      20.091      21.843      22.791      22.791    
  21.843      20.091      17.788      15.233      12.680      10.302      8.2019      6.4324      5.0040      3.8975    
  2.5868      2.1197      1.8138      1.6407      1.5847      1.6407      1.8137      2.1196      2.5866      3.2547    
  4.1709      5.3793      6.9100      8.7677      10.923      13.300      15.766      18.119      20.091      21.408    
  21.871      21.408      20.091      18.119      15.766      13.300      10.923      8.7676      6.9099      5.3793    
  4.1709      3.2549      2.1638      1.8074      1.5863      1.4804      1.4804      1.5863      1.8073      2.1637    
  2.6872      3.4192      4.4040      5.6781      7.2586      9.1335      11.252      13.515      15.766      17.788    
  19.331      20.168      20.167      19.331      17.788      15.766      13.515      11.252      9.1334      7.2585    
  5.6780      4.4041      3.4193      2.6873      1.8102      1.5487      1.4002      1.3521      1.4002      1.5486    
  1.8101      2.2077      2.7747      3.5508      4.5742      5.8707      7.4427      9.2601      11.252      13.300    
  15.234      16.844      17.920      18.299      17.920      16.844      15.233      13.300      11.252      9.2600    
  7.4426      5.8707      4.5743      3.5510      2.7748      2.2078      1.5242      1.3413      1.2533      1.2533    
  1.3413      1.5242      1.8172      2.2448      2.8393      3.6359      4.6641      5.9373      7.4427      9.1335    
  10.923      12.680      14.240      15.418      16.055      16.055      15.418      14.240      12.680      10.923    
  9.1334      7.4426      5.9373      4.6642      3.6361      2.8395      2.2450      1.8173      1.3005      1.1810    
  1.1421      1.1810      1.3005      1.5096      1.8246      2.2695      2.8736      3.6653      4.6642      5.8708    
  7.2587      8.7677      10.302      11.731      12.906      13.683      13.956      13.683      12.906      11.731    
  10.302      8.7676      7.2585      5.8707      4.6642      3.6655      2.8738      2.2697      1.8247      1.5096    
  1.1320      1.0629      1.0629      1.1321      1.2750      1.5019      1.8290      2.2782      2.8736      3.6359    
  4.5743      5.6782      6.9100      8.2020      9.4570      10.557      11.378      11.819      11.819      11.378    
  10.557      9.4569      8.2019      6.9099      5.6780      4.5743      3.6361      2.8738      2.2784      1.8291    
  1.5019      1.2750      1.0122     0.98231      1.0122      1.1038      1.2627      1.4995      1.8290      2.2695    
  2.8393      3.5508      4.4041      5.3794      6.4325      7.4940      8.4735      9.2710      9.7940      9.9764    
  9.7940      9.2710      8.4734      7.4939      6.4324      5.3793      4.4041      3.5510      2.8395      2.2697    
  1.8291      1.4995      1.2627      1.1037     0.93555     0.93557     0.98757      1.0945      1.2627      1.5018    
  1.8245      2.2448      2.7746      3.4192      4.1710      5.0041      5.8722      6.7095      7.4377      7.9784    
  8.2669      8.2669      7.9783      7.4377      6.7093      5.8720      5.0040      4.1709      3.4193      2.7748    
  2.2450      1.8247      1.5019      1.2627      1.0945     0.98751     0.89824     0.92028     0.98757      1.1038    
  1.2750      1.5095      1.8172      2.2076      2.6872      3.2548      3.8975      4.5867      5.2773      5.9113    
  6.4251      6.7607      6.8774      6.7606      6.4250      5.9112      5.2772      4.5866      3.8975      3.2549    
  2.6873      2.2078      1.8173      1.5096      1.2750      1.1037     0.98751     0.92023     0.96433      1.0122    
  1.0947      1.2155      1.3791      1.5907      1.8548      2.1738      2.5458      2.9620      3.4043      3.8449    
  4.2476      4.5730      4.7852      4.8589      4.7851      4.5729      4.2476      3.8449      3.4044      2.9621    
  2.5459      2.1739      1.8549      1.5908      1.3791      1.2154      1.0947      1.0122     0.96431     0.94862    
  1.0122      1.0629      1.1422      1.2534      1.4003      1.5863      1.8138      2.0823      2.3874      2.7188    
  3.0589      3.3834      3.6636      3.8704      3.9805      3.9805      3.8704      3.6635      3.3835      3.0590    
  2.7189      2.3876      2.0824      1.8138      1.5863      1.4002      1.2533      1.1421      1.0629      1.0122    
 0.98757     0.98757      1.0947      1.1422      1.2125      1.3087      1.4340      1.5906      1.7790      1.9974    
  2.2396      2.4950      2.7476      2.9775      3.1626      3.2831      3.3250      3.2831      3.1626      2.9775    
  2.7477      2.4950      2.2397      1.9974      1.7791      1.5905      1.4339      1.3086      1.2124      1.1422    
  1.0947      1.0674      1.0585      1.0674      1.2155      1.2534      1.3087      1.3845      1.4837      1.6076    
  1.7559      1.9255      2.1099      2.2988      2.4787      2.6336      2.7477      2.8084      2.8084      2.7477    
  2.6335      2.4787      2.2989      2.1099      1.9255      1.7559      1.6076      1.4836      1.3845      1.3086    
  1.2534      1.2155      1.1921      1.1809      1.1809      1.1920      1.3791      1.4003      1.4340      1.4837    
  1.5521      1.6405      1.7478      1.8706      2.0024      2.1340      2.2543      2.3513      2.4145      2.4364    
  2.4145      2.3513      2.2543      2.1340      2.0024      1.8706      1.7478      1.6404      1.5521      1.4836    
  1.4339      1.4003      1.3792      1.3670      1.3610      1.3592      1.3610      1.3670      1.5907      1.5863    
  1.5906      1.6076      1.6405      1.6903      1.7559      1.8338      1.9179      2.0005      2.0728      2.1266    
  2.1553      2.1553      2.1266      2.0728      2.0005      1.9179      1.8338      1.7559      1.6903      1.6404    
  1.6076      1.5905      1.5863      1.5908      1.5992      1.6075      1.6125      1.6124      1.6075      1.5992    
  1.8548      1.8138      1.7790      1.7559      1.7478      1.7559      1.7790      1.8138      1.8548      1.8959    
  1.9308      1.9541      1.9623      1.9541      1.9309      1.8960      1.8548      1.8138      1.7790      1.7559    
  1.7478      1.7559      1.7790      1.8138      1.8548      1.8960      1.9309      1.9541      1.9623      1.9541    
  1.9308      1.8959      2.1738      2.0823      1.9974      1.9255      1.8706      1.8338      1.8138      1.8073    
  1.8100      1.8172      1.8245      1.8290      1.8290      1.8246      1.8172      1.8101      1.8073      1.8137    
  1.8337      1.8705      1.9255      1.9973      2.0823      2.1738      2.2634      2.3415      2.3995      2.4303    
  2.4303      2.3995      2.3415      2.2633      2.5458      2.3874      2.2396      2.1099      2.0024      1.9179    
  1.8548      1.8100      1.7799      1.7610      1.7507      1.7475      1.7508      1.7611      1.7800      1.8101    
  1.8548      1.9178      2.0023      2.1098      2.2396      2.3874      2.5458      2.7034      2.8468      2.9619    
  3.0366      3.0624      3.0366      2.9619      2.8468      2.7034      2.9620      2.7188      2.4950      2.2988    
  2.1340      2.0005      1.8959      1.8172      1.7610      1.7249      1.7073      1.7073      1.7250      1.7611    
  1.8172      1.8959      2.0004      2.1339      2.2987      2.4949      2.7188      2.9620      3.2106      3.4462    
  3.6480      3.7960      3.8743      3.8743      3.7960      3.6481      3.4462      3.2106      3.4043      3.0589    
  2.7476      2.4787      2.2543      2.0728      1.9308      1.8245      1.7507      1.7073      1.6929      1.7073    
  1.7508      1.8246      1.9308      2.0728      2.2542      2.4785      2.7475      3.0589      3.4043      3.7680    
  4.1265      4.4508      4.7104      4.8784      4.9366      4.8784      4.7104      4.4509      4.1266      3.7680    
  3.8449      3.3834      2.9775      2.6336      2.3513      2.1266      1.9541      1.8290      1.7475      1.7073    
  1.7073      1.7476      1.8291      1.9542      2.1265      2.3512      2.6334      2.9773      3.3833      3.8448    
  4.3455      4.8576      5.3436      5.7604      6.0663      6.2284      6.2284      6.0664      5.7605      5.3436    
  4.8576      4.3455      4.2476      3.6636      3.1626      2.7477      2.4145      2.1553      1.9623      1.8290    
  1.7508      1.7250      1.7508      1.8291      1.9623      2.1552      2.4143      2.7475      3.1624      3.6634    