unknown system                          
   1.00000000000000     
     0.000000    2.715000    2.715000
     2.715000    0.000000    2.715000
     2.715000    2.715000    0.000000
   Si
     2
Direct
  0.500000  0.500000  0.500000
  0.750000  0.750000  0.750000
 
   32   32   32
 0.87661851695E+00 0.89825500012E+00 0.96432438088E+00 0.10784718678E+01 0.12467462443E+01
 0.14773601374E+01 0.17799212494E+01 0.21637230258E+01 0.26348118037E+01 0.31919438445E+01
 0.38221639461E+01 0.44973725570E+01 0.51735471126E+01 0.57939423656E+01 0.62965804868E+01
 0.66249107049E+01 0.67391248465E+01 0.66248631271E+01 0.62964897953E+01 0.57938193133E+01
 0.51734134204E+01 0.44972628351E+01 0.38221156673E+01 0.31919785643E+01 0.26349224200E+01
 0.21638757130E+01 0.17800684003E+01 0.14774579740E+01 0.12467726043E+01 0.10784364210E+01
 0.96426315304E+00 0.89821059707E+00 0.89825500012E+00 0.93559472059E+00 0.10122396499E+01
 0.11320465892E+01 0.13004861241E+01 0.15241855961E+01 0.18100493573E+01 0.21636394639E+01
 0.25866062054E+01 0.30733387975E+01 0.36076061607E+01 0.41605117700E+01 0.46911941463E+01
 0.51511115702E+01 0.54915816631E+01 0.56729553823E+01 0.56729359046E+01 0.54915276504E+01
 0.51510363985E+01 0.46911213363E+01 0.41604744450E+01 0.36076356012E+01 0.30734429619E+01
 0.25867573524E+01 0.21637885161E+01 0.18101566558E+01 0.15242386675E+01 0.13004920590E+01
 0.11320170707E+01 0.10121891076E+01 0.93554613371E+00 0.89823475238E+00 0.96432438088E+00
 0.10122396499E+01 0.10947262422E+01 0.12154723294E+01 0.13791291600E+01 0.15907432795E+01
 0.18548168667E+01 0.21737787617E+01 0.25457636970E+01 0.29619630837E+01 0.34043440016E+01
 0.38449172855E+01 0.42476028313E+01 0.45729844984E+01 0.47851517103E+01 0.48588885760E+01
 0.47851211534E+01 0.45729434316E+01 0.42475819261E+01 0.38449428253E+01 0.34044242750E+01
 0.29620837514E+01 0.25458944881E+01 0.21738871931E+01 0.18548811952E+01 0.15907587024E+01
 0.13791060252E+01 0.12154290870E+01 0.10946812451E+01 0.10122054170E+01 0.96430656808E+00
 0.94861789426E+00 0.10784718678E+01 0.11320465892E+01 0.12154723294E+01 0.13320936881E+01
 0.14857621070E+01 0.16801790678E+01 0.19178932092E+01 0.21988505728E+01 0.25185300025E+01
 0.28660235636E+01 0.32228185141E+01 0.35631998037E+01 0.38568659716E+01 0.40735789118E+01
 0.41888060760E+01 0.41887916237E+01 0.40735472955E+01 0.38568477633E+01 0.35632279725E+01
 0.32229035247E+01 0.28661397599E+01 0.25186303419E+01 0.21988992901E+01 0.19178857572E+01
 0.16801344685E+01 0.14857035832E+01 0.13320389336E+01 0.12154338018E+01 0.11320297339E+01
 0.10784709139E+01 0.10523235609E+01 0.10523215859E+01 0.12467462443E+01 0.13004861241E+01
 0.13791291600E+01 0.14857621070E+01 0.16236599625E+01 0.17955155475E+01 0.20023792085E+01
 0.22423229799E+01 0.25089834361E+01 0.27903956666E+01 0.30687487531E+01 0.33216432377E+01
 0.35250050582E+01 0.36571563640E+01 0.37030003513E+01 0.36571315334E+01 0.35249757753E+01
 0.33216366290E+01 0.30687802090E+01 0.27904572525E+01 0.25090461396E+01 0.22423516326E+01
 0.20023515529E+01 0.17954349735E+01 0.16235548544E+01 0.14856715217E+01 0.13790823634E+01
 0.13004877419E+01 0.12467758702E+01 0.12155286934E+01 0.12052656008E+01 0.12155025348E+01
 0.14773601374E+01 0.15241855961E+01 0.15907432795E+01 0.16801790678E+01 0.17955155475E+01
 0.19387661275E+01 0.21098782475E+01 0.23056054467E+01 0.25185306075E+01 0.27366309790E+01
 0.29438244928E+01 0.31217316565E+01 0.32524575226E+01 0.33217566946E+01 0.33217425298E+01
 0.32524260837E+01 0.31217057996E+01 0.29438192130E+01 0.27366439011E+01 0.25185472061E+01
 0.23056083104E+01 0.21098520943E+01 0.19387026527E+01 0.17954221815E+01 0.16800839315E+01
 0.15906847818E+01 0.15241882041E+01 0.14774142683E+01 0.14477008875E+01 0.14332573314E+01
 0.14332291201E+01 0.14476364435E+01 0.17799212494E+01 0.18100493573E+01 0.18548168667E+01
 0.19178932092E+01 0.20023792085E+01 0.21098782475E+01 0.22395737497E+01 0.23874342423E+01
 0.25457636879E+01 0.27034025838E+01 0.28468067767E+01 0.29619421904E+01 0.30365843993E+01
 0.30624361925E+01 0.30365684299E+01 0.29619210062E+01 0.28467946220E+01 0.27034069780E+01
 0.25457787018E+01 0.23874423297E+01 0.22395561354E+01 0.21098283659E+01 0.20023102548E+01
 0.19178338311E+01 0.18547966602E+01 0.18100822256E+01 0.17799961287E+01 0.17610976471E+01
 0.17507747236E+01 0.17474794919E+01 0.17507195392E+01 0.17610132355E+01 0.21637230258E+01
 0.21636394639E+01 0.21737787617E+01 0.21988505728E+01 0.22423229799E+01 0.23056054467E+01
 0.23874342423E+01 0.24835189082E+01 0.25866055836E+01 0.26871518807E+01 0.27746447260E+01
 0.28392913391E+01 0.28736209297E+01 0.28736219895E+01 0.28392949147E+01 0.27746530385E+01
 0.26871694150E+01 0.25866350492E+01 0.24835544462E+01 0.23874598737E+01 0.23056054551E+01
 0.22422987941E+01 0.21988276957E+01 0.21737915921E+01 0.21637034394E+01 0.21638204748E+01
 0.21691249954E+01 0.21752458619E+01 0.21790820081E+01 0.21790608798E+01 0.21751831091E+01
 0.21690305625E+01 0.26348118037E+01 0.25866062054E+01 0.25457636970E+01 0.25185300025E+01
 0.25089834361E+01 0.25185306075E+01 0.25457636879E+01 0.25866055836E+01 0.26348117909E+01
 0.26829184506E+01 0.27235187548E+01 0.27505100721E+01 0.27599629020E+01 0.27505317600E+01
 0.27235588551E+01 0.26829722598E+01 0.26348733977E+01 0.25866673215E+01 0.25458190664E+01
 0.25185789624E+01 0.25090296888E+01 0.25185795674E+01 0.25458190573E+01 0.25866666997E+01
 0.26348733849E+01 0.26829728578E+01 0.27235588461E+01 0.27505311451E+01 0.27599629020E+01
 0.27505106869E+01 0.27235187639E+01 0.26829178525E+01 0.31919438445E+01 0.30733387975E+01
 0.29619630837E+01 0.28660235636E+01 0.27903956666E+01 0.27366309790E+01 0.27034025838E+01
 0.26871518807E+01 0.26829184506E+01 0.26853612244E+01 0.26897828021E+01 0.26928484561E+01
 0.26928727574E+01 0.26898487809E+01 0.26854545274E+01 0.26830255255E+01 0.26872588121E+01
 0.27034949564E+01 0.27367050545E+01 0.27904648087E+01 0.28661026435E+01 0.29620455115E+01
 0.30733977459E+01 0.31919589942E+01 0.33069638481E+01 0.34066040138E+01 0.34799751140E+01
 0.35188519499E+01 0.35188618862E+01 0.34800031861E+01 0.34066405075E+01 0.33069866998E+01
 0.38221639461E+01 0.36076061607E+01 0.34043440016E+01 0.32228185141E+01 0.30687487531E+01
 0.29438244928E+01 0.28468067767E+01 0.27746447260E+01 0.27235187548E+01 0.26897828021E+01
 0.26706507699E+01 0.26644769703E+01 0.26707247026E+01 0.26899100272E+01 0.27236711426E+01
 0.27747971975E+01 0.28469401490E+01 0.29439285135E+01 0.30688248771E+01 0.32228732369E+01
 0.34043764447E+01 0.36076062841E+01 0.38221238781E+01 0.40330829934E+01 0.42228618609E+01
 0.43737489895E+01 0.44708504952E+01 0.45043707861E+01 0.44709051514E+01 0.43738380811E+01
 0.42229569802E+01 0.40331589085E+01 0.44973725570E+01 0.41605117700E+01 0.38449172855E+01
 0.35631998037E+01 0.33216432377E+01 0.31217316565E+01 0.29619421904E+01 0.28392913391E+01
 0.27505100721E+01 0.26928484561E+01 0.26644769703E+01 0.26645252115E+01 0.26929815501E+01
 0.27506962650E+01 0.28394879512E+01 0.29621099663E+01 0.31218492243E+01 0.33217100712E+01
 0.35632228384E+01 0.38448957672E+01 0.41604411089E+01 0.44972599723E+01 0.48360283203E+01
 0.51521354850E+01 0.54189949095E+01 0.56122902898E+01 0.57137883448E+01 0.57138196738E+01
 0.56123740246E+01 0.54191107725E+01 0.51522673961E+01 0.48361614812E+01 0.51735471126E+01
 0.46911941463E+01 0.42476028313E+01 0.38568659716E+01 0.35250050582E+01 0.32524575226E+01
 0.30365843993E+01 0.28736209297E+01 0.27599629020E+01 0.26928727574E+01 0.26707247026E+01
 0.26929815501E+01 0.27601511625E+01 0.28738406861E+01 0.30367836950E+01 0.32525943530E+01
 0.35250595909E+01 0.38568444590E+01 0.42475272285E+01 0.46910860354E+01 0.51734205187E+01
 0.56709779728E+01 0.61516189997E+01 0.65781871075E+01 0.69140340211E+01 0.71287785678E+01
 0.72026516700E+01 0.71288329731E+01 0.69141304723E+01 0.65783093897E+01 0.61517534377E+01
 0.56711133803E+01 0.57939423656E+01 0.51511115702E+01 0.45729844984E+01 0.40735789118E+01
 0.36571563640E+01 0.33217566946E+01 0.30624361925E+01 0.28736219895E+01 0.27505317600E+01
 0.26898487809E+01 0.26899100272E+01 0.27506962650E+01 0.28738406861E+01 0.30626497732E+01
 0.33219130503E+01 0.36572215637E+01 0.40735449969E+01 0.45728729694E+01 0.51509663332E+01
 0.57938089315E+01 0.64749900054E+01 0.71554973176E+01 0.77869064213E+01 0.83177100606E+01
 0.87011284965E+01 0.89021361581E+01 0.89021494506E+01 0.87011621745E+01 0.83177520428E+01
 0.77869530321E+01 0.71555601747E+01 0.64750866729E+01 0.62965804868E+01 0.54915816631E+01
 0.47851517103E+01 0.41888060760E+01 0.37030003513E+01 0.33217425298E+01 0.30365684299E+01
 0.28392949147E+01 0.27235588551E+01 0.26854545274E+01 0.27236711426E+01 0.28394879512E+01
 0.30367836950E+01 0.33219130503E+01 0.37030783249E+01 0.41887800800E+01 0.47850434870E+01
 0.54914334900E+01 0.62964412920E+01 0.71734950002E+01 0.80792128389E+01 0.89552825926E+01
 0.97344328040E+01 0.10349571608E+02 0.10743934641E+02 0.10879767721E+02 0.10743875622E+02
 0.10349479094E+02 0.97343448833E+01 0.89552354916E+01 0.80792311512E+01 0.71735839250E+01
 0.66249107049E+01 0.56729553823E+01 0.48588885760E+01 0.41887916237E+01 0.36571315334E+01
 0.32524260837E+01 0.29619210062E+01 0.27746530385E+01 0.26829722598E+01 0.26830255255E+01
 0.27747971975E+01 0.29621099663E+01 0.32525943530E+01 0.36572215637E+01 0.41887800800E+01
 0.48587914124E+01 0.56728157085E+01 0.66247806486E+01 0.76916278169E+01 0.88298590261E+01
 0.99753788968E+01 0.11047547326E+02 0.11957674729E+02 0.12621187927E+02 0.12971347037E+02
 0.12971280984E+02 0.12621024636E+02 0.11957489101E+02 0.11047401785E+02 0.99753029876E+01
 0.88298614938E+01 0.76917052186E+01 0.67391248465E+01 0.56729359046E+01 0.47851211534E+01
 0.40735472955E+01 0.35249757753E+01 0.31217057996E+01 0.28467946220E+01 0.26871694150E+01
 0.26348733977E+01 0.26872588121E+01 0.28469401490E+01 0.31218492243E+01 0.35250595909E+01
 0.40735449969E+01 0.47850434870E+01 0.56728157085E+01 0.67390040681E+01 0.79680214263E+01
 0.93215038408E+01 0.10735920326E+02 0.12123558539E+02 0.13377862398E+02 0.14384521530E+02
 0.15038198540E+02 0.15264527235E+02 0.15038118060E+02 0.14384389033E+02 0.13377714780E+02
 0.12123430019E+02 0.10735844203E+02 0.93215052253E+01 0.79680984619E+01 0.66248631271E+01
 0.54915276504E+01 0.45729434316E+01 0.38568477633E+01 0.33216366290E+01 0.29438192130E+01
 0.27034069780E+01 0.25866350492E+01 0.25866673215E+01 0.27034949564E+01 0.29439285135E+01
 0.33217100712E+01 0.38568444590E+01 0.45728729694E+01 0.54914334900E+01 0.66247806486E+01
 0.79680214263E+01 0.94928062323E+01 0.11143182324E+02 0.12833433248E+02 0.14448481072E+02
 0.15847295982E+02 0.16875626295E+02 0.17418636155E+02 0.17418645464E+02 0.16875638050E+02
 0.15847279955E+02 0.14448428837E+02 0.12833372603E+02 0.11143152048E+02 0.94928226130E+01
 0.79680768286E+01 0.62964897953E+01 0.51510363985E+01 0.42475819261E+01 0.35632279725E+01
 0.30687802090E+01 0.27366439011E+01 0.25457787018E+01 0.24835544462E+01 0.25458190664E+01
 0.27367050545E+01 0.30688248771E+01 0.35632228384E+01 0.42475272285E+01 0.51509663332E+01
 0.62964412920E+01 0.76916278169E+01 0.93215038408E+01 0.11143182324E+02 0.13081818387E+02
 0.15026353215E+02 0.16816518258E+02 0.18254840508E+02 0.19183364011E+02 0.19503980885E+02
 0.19183443787E+02 0.18254964373E+02 0.16816633726E+02 0.15026421038E+02 0.13081833879E+02
 0.11143169559E+02 0.93214927422E+01 0.76916415798E+01 0.57938193133E+01 0.46911213363E+01
 0.38449428253E+01 0.32229035247E+01 0.27904572525E+01 0.25185472061E+01 0.23874423297E+01
 0.23874598737E+01 0.25185789624E+01 0.27904648087E+01 0.32228732369E+01 0.38448957672E+01
 0.46910860354E+01 0.57938089315E+01 0.71734950002E+01 0.88298590261E+01 0.10735920326E+02
 0.12833433248E+02 0.15026353215E+02 0.17155804198E+02 0.18994719501E+02 0.20342398102E+02
 0.21054370958E+02 0.21054432005E+02 0.20342566605E+02 0.18994943464E+02 0.17156000316E+02
 0.15026452387E+02 0.12833430999E+02 0.10735869530E+02 0.88298136936E+01 0.71734771583E+01
 0.51734134204E+01 0.41604744450E+01 0.34044242750E+01 0.28661397599E+01 0.25090461396E+01
 0.23056083104E+01 0.22395561354E+01 0.23056054551E+01 0.25090296888E+01 0.28661026435E+01
 0.34043764447E+01 0.41604411089E+01 0.51734205187E+01 0.64749900054E+01 0.80792128389E+01
 0.99753788968E+01 0.12123558539E+02 0.14448481072E+02 0.16816518258E+02 0.18994719501E+02
 0.20746625509E+02 0.21882133557E+02 0.22275500325E+02 0.21882257822E+02 0.20746824162E+02
 0.18994916351E+02 0.16816646705E+02 0.14448510126E+02 0.12123501110E+02 0.99752776980E+01
 0.80791153851E+01 0.64749316796E+01 0.44972628351E+01 0.36076356012E+01 0.29620837514E+01
 0.25186303419E+01 0.22423516326E+01 0.21098520943E+01 0.21098283659E+01 0.22422987941E+01
 0.25185795674E+01 0.29620455115E+01 0.36076062841E+01 0.44972599723E+01 0.56709779728E+01
 0.71554973176E+01 0.89552825926E+01 0.11047547326E+02 0.13377862398E+02 0.15847295982E+02
 0.18254840508E+02 0.20342398102E+02 0.21882133557E+02 0.22700140430E+02 0.22700178327E+02
 0.21882218384E+02 0.20342475743E+02 0.18254880853E+02 0.15847292510E+02 0.13377801508E+02
 0.11047419758E+02 0.89551182197E+01 0.71553616709E+01 0.56709170356E+01 0.38221156673E+01
 0.30734429619E+01 0.25458944881E+01 0.21988992901E+01 0.20023515529E+01 0.19387026527E+01
 0.20023102548E+01 0.21988276957E+01 0.25458190573E+01 0.30733977459E+01 0.38221238781E+01
 0.48360283203E+01 0.61516189997E+01 0.77869064213E+01 0.97344328040E+01 0.11957674729E+02
 0.14384521530E+02 0.16875626295E+02 0.19183364011E+02 0.21054370958E+02 0.22275500325E+02
 0.22700178327E+02 0.22275483146E+02 0.21054323700E+02 0.19183278985E+02 0.16875509304E+02
 0.14384379374E+02 0.11957511715E+02 0.97342620542E+01 0.77867501531E+01 0.61515002716E+01
 0.48359614397E+01 0.31919785643E+01 0.25867573524E+01 0.21738871931E+01 0.19178857572E+01
 0.17954349735E+01 0.17954221815E+01 0.19178338311E+01 0.21737915921E+01 0.25866666997E+01
 0.31919589942E+01 0.40330829934E+01 0.51521354850E+01 0.65781871075E+01 0.83177100606E+01
 0.10349571608E+02 0.12621187927E+02 0.15038198540E+02 0.17418636155E+02 0.19503980885E+02
 0.21054432005E+02 0.21882257822E+02 0.21882218384E+02 0.21054323700E+02 0.19503822909E+02
 0.17418442663E+02 0.15037981275E+02 0.12620970782E+02 0.10349388021E+02 0.83175695489E+01
 0.65780683685E+01 0.51520272735E+01 0.40330177177E+01 0.26349224200E+01 0.21637885161E+01
 0.18548811952E+01 0.16801344685E+01 0.16235548544E+01 0.16800839315E+01 0.18547966602E+01
 0.21637034394E+01 0.26348733849E+01 0.33069638481E+01 0.42228618609E+01 0.54189949095E+01
 0.69140340211E+01 0.87011284965E+01 0.10743934641E+02 0.12971347037E+02 0.15264527235E+02
 0.17418645464E+02 0.19183443787E+02 0.20342566605E+02 0.20746824162E+02 0.20342475743E+02
 0.19183278985E+02 0.17418442663E+02 0.15264325915E+02 0.12971164899E+02 0.10743769163E+02
 0.87009757345E+01 0.69139009603E+01 0.54188940547E+01 0.42228034554E+01 0.33069580681E+01
 0.21638757130E+01 0.18101566558E+01 0.15907587024E+01 0.14857035832E+01 0.14856715217E+01
 0.15906847818E+01 0.18100822256E+01 0.21638204748E+01 0.26829728578E+01 0.34066040138E+01
 0.43737489895E+01 0.56122902898E+01 0.71287785678E+01 0.89021361581E+01 0.10879767721E+02
 0.12971280984E+02 0.15038118060E+02 0.16875638050E+02 0.18254964373E+02 0.18994943464E+02
 0.18994916351E+02 0.18254880853E+02 0.16875509304E+02 0.15037981275E+02 0.12971164899E+02
 0.10879659601E+02 0.89020047844E+01 0.71286303407E+01 0.56121748992E+01 0.43737025262E+01
 0.34066151809E+01 0.26830110991E+01 0.17800684003E+01 0.15242386675E+01 0.13791060252E+01
 0.13320389336E+01 0.13790823634E+01 0.15241882041E+01 0.17799961287E+01 0.21691249954E+01
 0.27235588461E+01 0.34799751140E+01 0.44708504952E+01 0.57137883448E+01 0.72026516700E+01
 0.89021494506E+01 0.10743875622E+02 0.12621024636E+02 0.14384389033E+02 0.15847279955E+02
 0.16816633726E+02 0.17156000316E+02 0.16816646705E+02 0.15847292510E+02 0.14384379374E+02
 0.12620970782E+02 0.10743769163E+02 0.89020047844E+01 0.72025046049E+01 0.57136789101E+01
 0.44708008382E+01 0.34799848715E+01 0.27236128065E+01 0.21692005586E+01 0.14774579740E+01
 0.13004920590E+01 0.12154290870E+01 0.12154338018E+01 0.13004877419E+01 0.14774142683E+01
 0.17610976471E+01 0.21752458619E+01 0.27505311451E+01 0.35188519499E+01 0.45043707861E+01
 0.57138196738E+01 0.71288329731E+01 0.87011621745E+01 0.10349479094E+02 0.11957489101E+02
 0.13377714780E+02 0.14448428837E+02 0.15026421038E+02 0.15026452387E+02 0.14448510126E+02
 0.13377801508E+02 0.11957511715E+02 0.10349388021E+02 0.87009757345E+01 0.71286303407E+01
 0.57136789101E+01 0.45043192126E+01 0.35188749045E+01 0.27506040183E+01 0.21753423485E+01
 0.17611827894E+01 0.12467726043E+01 0.11320170707E+01 0.10946812451E+01 0.11320297339E+01
 0.12467758702E+01 0.14477008875E+01 0.17507747236E+01 0.21790820081E+01 0.27599629020E+01
 0.35188618862E+01 0.44709051514E+01 0.56123740246E+01 0.69141304723E+01 0.83177520428E+01
 0.97343448833E+01 0.11047401785E+02 0.12123430019E+02 0.12833372603E+02 0.13081833879E+02
 0.12833430999E+02 0.12123501110E+02 0.11047419758E+02 0.97342620542E+01 0.83175695489E+01
 0.69139009603E+01 0.56121748992E+01 0.44708008382E+01 0.35188749045E+01 0.27600644370E+01
 0.21792092770E+01 0.17508687571E+01 0.14477384787E+01 0.10784364210E+01 0.10121891076E+01
 0.10122054170E+01 0.10784709139E+01 0.12155286934E+01 0.14332573314E+01 0.17474794919E+01
 0.21790608798E+01 0.27505106869E+01 0.34800031861E+01 0.43738380811E+01 0.54191107725E+01
 0.65783093897E+01 0.77869530321E+01 0.89552354916E+01 0.99753029876E+01 0.10735844203E+02
 0.11143152048E+02 0.11143169559E+02 0.10735869530E+02 0.99752776980E+01 0.89551182197E+01
 0.77867501531E+01 0.65780683685E+01 0.54188940547E+01 0.43737025262E+01 0.34799848715E+01
 0.27506040183E+01 0.21792092770E+01 0.17476039579E+01 0.14333089474E+01 0.12155155558E+01
 0.96426315304E+00 0.93554613371E+00 0.96430656808E+00 0.10523235609E+01 0.12052656008E+01
 0.14332291201E+01 0.17507195392E+01 0.21751831091E+01 0.27235187639E+01 0.34066405075E+01
 0.42229569802E+01 0.51522673961E+01 0.61517534377E+01 0.71555601747E+01 0.80792311512E+01
 0.88298614938E+01 0.93215052253E+01 0.94928226130E+01 0.93214927422E+01 0.88298136936E+01
 0.80791153851E+01 0.71553616709E+01 0.61515002716E+01 0.51520272735E+01 0.42228034554E+01
 0.34066151809E+01 0.27236128065E+01 0.21753423485E+01 0.17508687571E+01 0.14333089474E+01
 0.12052632260E+01 0.10522738397E+01 0.89821059707E+00 0.89823475238E+00 0.94861789426E+00
 0.10523215859E+01 0.12155025348E+01 0.14476364435E+01 0.17610132355E+01 0.21690305625E+01
 0.26829178525E+01 0.33069866998E+01 0.40331589085E+01 0.48361614812E+01 0.56711133803E+01
 0.64750866729E+01 0.71735839250E+01 0.76917052186E+01 0.79680984619E+01 0.79680768286E+01
 0.76916415798E+01 0.71734771583E+01 0.64749316796E+01 0.56709170356E+01 0.48359614397E+01
 0.40330177177E+01 0.33069580681E+01 0.26830110991E+01 0.21692005586E+01 0.17611827894E+01
 0.14477384787E+01 0.12155155558E+01 0.10522738397E+01 0.94856083297E+00 0.89825571756E+00
 0.93559501946E+00 0.10122396766E+01 0.11320467097E+01 0.13004862672E+01 0.15241854642E+01
 0.18100490678E+01 0.21636393708E+01 0.25866063028E+01 0.30733389157E+01 0.36076065265E+01
 0.41605127384E+01 0.46911955693E+01 0.51511130280E+01 0.54915831005E+01 0.56729569051E+01
 0.56729371799E+01 0.54915281520E+01 0.51510360697E+01 0.46911204294E+01 0.41604729476E+01
 0.36076334449E+01 0.30734405726E+01 0.25867553448E+01 0.21637870125E+01 0.18101554794E+01
 0.15242379640E+01 0.13004920971E+01 0.11320176419E+01 0.10121897558E+01 0.93554678859E+00
 0.89823555035E+00 0.93559501946E+00 0.98234671522E+00 0.10629340229E+01 0.11810608281E+01
 0.13413275545E+01 0.15486471856E+01 0.18073271425E+01 0.21196027272E+01 0.24835198049E+01
 0.28904065142E+01 0.33226757435E+01 0.37530848890E+01 0.41464901973E+01 0.44644287727E+01
 0.46717872605E+01 0.47438649840E+01 0.46717584936E+01 0.44643784181E+01 0.41464412198E+01
 0.37530750504E+01 0.33227364273E+01 0.28905362108E+01 0.24836784140E+01 0.21197358955E+01
 0.18074007214E+01 0.15486626095E+01 0.13413082437E+01 0.11810280334E+01 0.10628970023E+01
 0.98231114247E+00 0.93557177321E+00 0.92027906485E+00 0.10122396766E+01 0.10629340229E+01
 0.11421854074E+01 0.12533825263E+01 0.14002799030E+01 0.15863299618E+01 0.18137597291E+01
 0.20822826469E+01 0.23874342582E+01 0.27188171457E+01 0.30589284184E+01 0.33834427585E+01
 0.36635751776E+01 0.38704441703E+01 0.39804986547E+01 0.39804852877E+01 0.38704128748E+01
 0.36635503385E+01 0.33834549697E+01 0.30589966183E+01 0.27189328936E+01 0.23875626686E+01
 0.20823816607E+01 0.18138031745E+01 0.15863185661E+01 0.14002354673E+01 0.12533323426E+01
 0.11421480180E+01 0.10629140804E+01 0.10122322813E+01 0.98756617903E+00 0.98756770545E+00
 0.11320467097E+01 0.11810608281E+01 0.12533825263E+01 0.13521493545E+01 0.14804933143E+01
 0.16407947792E+01 0.18337705466E+01 0.20573796683E+01 0.23056049526E+01 0.25674080593E+01
 0.28264196821E+01 0.30619559885E+01 0.32516026585E+01 0.33749929474E+01 0.34178316758E+01
 0.33749742074E+01 0.32515804161E+01 0.30619578112E+01 0.28264684840E+01 0.25674979811E+01
 0.23056977912E+01 0.20574324740E+01 0.18337670132E+01 0.16407489798E+01 0.14804298427E+01
 0.13520884225E+01 0.12533401711E+01 0.11810482546E+01 0.11320602261E+01 0.11037776635E+01
 0.10945312441E+01 0.11037598349E+01 0.13004862672E+01 0.13413275545E+01 0.14002799030E+01
 0.14804933143E+01 0.15848041693E+01 0.17149266516E+01 0.18705863647E+01 0.20486449574E+01
 0.22423231119E+01 0.24407986592E+01 0.26295835298E+01 0.27919783094E+01 0.29115350702E+01
 0.29750093462E+01 0.29750020383E+01 0.29115172250E+01 0.27919637373E+01 0.26295922365E+01
 0.24408401477E+01 0.22423805229E+01 0.20486819407E+01 0.18705742702E+01 0.17148651871E+01
 0.15847174859E+01 0.14804122867E+01 0.14002293340E+01 0.13413203092E+01 0.13005168028E+01
 0.12749993481E+01 0.12627437140E+01 0.12627245579E+01 0.12749575852E+01 0.15241854642E+01
 0.15486471856E+01 0.15863299618E+01 0.16407947792E+01 0.17149266516E+01 0.18101145506E+01
 0.19255020116E+01 0.20573800173E+01 0.21988510317E+01 0.23399864814E+01 0.24686909350E+01
 0.25722966467E+01 0.26396173248E+01 0.26629651467E+01 0.26396062291E+01 0.25722848348E+01
 0.24686905968E+01 0.23400019197E+01 0.21988750334E+01 0.20573971216E+01 0.19254953657E+01
 0.18100740684E+01 0.17148566327E+01 0.16407167632E+01 0.15862751421E+01 0.15486392742E+01
 0.15242245408E+01 0.15095532384E+01 0.15018722934E+01 0.14994828591E+01 0.15018288721E+01
 0.15094931997E+01 0.18100490678E+01 0.18073271425E+01 0.18137597291E+01 0.18337705466E+01
 0.18705863647E+01 0.19255020116E+01 0.19973590673E+01 0.20822823394E+01 0.21737784614E+01
 0.22633307938E+01 0.23415164244E+01 0.23994621965E+01 0.24303015605E+01 0.24303026317E+01
 0.23994676736E+01 0.23415313072E+01 0.22633572098E+01 0.21738093053E+01 0.20823015085E+01
 0.19973515239E+01 0.19254657346E+01 0.18705348253E+01 0.18337247229E+01 0.18137379870E+01
 0.18073393052E+01 0.18100934020E+01 0.18172434326E+01 0.18245657524E+01 0.18290018613E+01
 0.18289805507E+01 0.18245120765E+01 0.18171818843E+01 0.21636393708E+01 0.21196027272E+01
 0.20822826469E+01 0.20573796683E+01 0.20486449574E+01 0.20573800173E+01 0.20822823394E+01
 0.21196017498E+01 0.21636387631E+01 0.22076111831E+01 0.22447740065E+01 0.22695206011E+01
 0.22781978964E+01 0.22695443007E+01 0.22448177563E+01 0.22076676903E+01 0.21636953332E+01
 0.21196405176E+01 0.20822886133E+01 0.20573544482E+01 0.20486063752E+01 0.20573538003E+01
 0.20822865616E+01 0.21196374230E+01 0.21636925667E+01 0.22076655993E+01 0.22448156242E+01
 0.22695422889E+01 0.22781970447E+01 0.22695208730E+01 0.22447742869E+01 0.22076112546E+01
 0.25866063028E+01 0.24835198049E+01 0.23874342582E+01 0.23056049526E+01 0.22423231119E+01
 0.21988510317E+01 0.21737784614E+01 0.21636387631E+01 0.21637231250E+01 0.21690312883E+01
 0.21751834822E+01 0.21790612573E+01 0.21790834456E+01 0.21752479344E+01 0.21691264401E+01
 0.21638213997E+01 0.21637047164E+01 0.21737926915E+01 0.21988273560E+01 0.22422972726E+01
 0.23056039466E+01 0.23874583082E+01 0.24835520460E+01 0.25866324340E+01 0.26871679132E+01
 0.27746524698E+01 0.28392942186E+01 0.28736214368E+01 0.28736215155E+01 0.28392926018E+01
 0.27746453882E+01 0.26871520808E+01 0.30733389157E+01 0.28904065142E+01 0.27188171457E+01
 0.25674080593E+01 0.24407986592E+01 0.23399864814E+01 0.22633307938E+01 0.22076111831E+01
 0.21690312883E+01 0.21440854576E+01 0.21301487232E+01 0.21256908579E+01 0.21302192012E+01
 0.21442097181E+01 0.21691722924E+01 0.22077183153E+01 0.22633665490E+01 0.23399563885E+01
 0.24407506159E+01 0.25673916819E+01 0.27188402179E+01 0.28904344744E+01 0.30733347476E+01
 0.32547430091E+01 0.34191921950E+01 0.35507987101E+01 0.36359017147E+01 0.36653468380E+01
 0.36359253560E+01 0.35508447190E+01 0.34192488429E+01 0.32547848507E+01 0.36076065265E+01
 0.33226757435E+01 0.30589284184E+01 0.28264196821E+01 0.26295835298E+01 0.24686909350E+01
 0.23415164244E+01 0.22447740065E+01 0.21751834822E+01 0.21301487232E+01 0.21080302179E+01
 0.21080808255E+01 0.21302851924E+01 0.21753593451E+01 0.22449215808E+01 0.23415798114E+01
 0.24686634027E+01 0.26295106256E+01 0.28263574387E+01 0.30588967005E+01 0.33226530624E+01
 0.36075632025E+01 0.38974240258E+01 0.41708618716E+01 0.44040004964E+01 0.45742496386E+01
 0.46641298041E+01 0.46641558178E+01 0.45743185256E+01 0.44040916300E+01 0.41709535140E+01
 0.38974970835E+01 0.41605127384E+01 0.37530848890E+01 0.33834427585E+01 0.30619559885E+01
 0.27919783094E+01 0.25722966467E+01 0.23994621965E+01 0.22695206011E+01 0.21790612573E+01
 0.21256908579E+01 0.21080808255E+01 0.21258063114E+01 0.21792474038E+01 0.22696977348E+01
 0.23995525697E+01 0.25722745422E+01 0.27918839679E+01 0.30618512565E+01 0.33833548579E+01
 0.37529994428E+01 0.41604118226E+01 0.45865768206E+01 0.50039851271E+01 0.53792766622E+01
 0.56780807351E+01 0.58707412729E+01 0.59373175264E+01 0.58707930546E+01 0.56781637662E+01
 0.53793736557E+01 0.50040921607E+01 0.45866882861E+01 0.46911955693E+01 0.41464901973E+01
 0.36635751776E+01 0.32516026585E+01 0.29115350702E+01 0.26396173248E+01 0.24303015605E+01
 0.22781978964E+01 0.21790834456E+01 0.21302192012E+01 0.21302851924E+01 0.21792474038E+01
 0.22783756465E+01 0.24304059948E+01 0.26396083964E+01 0.29114354643E+01 0.32514656800E+01
 0.36634385080E+01 0.41463603861E+01 0.46910672665E+01 0.52772111902E+01 0.58720725703E+01
 0.64324539344E+01 0.69099684445E+01 0.72586373501E+01 0.74427127420E+01 0.74427291632E+01
 0.72586828233E+01 0.69100365495E+01 0.64325425854E+01 0.58721817560E+01 0.52773349867E+01
 0.51511130280E+01 0.44644287727E+01 0.38704441703E+01 0.33749929474E+01 0.29750093462E+01
 0.26629651467E+01 0.24303026317E+01 0.22695443007E+01 0.21752479344E+01 0.21442097181E+01
 0.21753593451E+01 0.22696977348E+01 0.24304059948E+01 0.26629642808E+01 0.29749144603E+01
 0.33748500783E+01 0.38702878613E+01 0.44642692030E+01 0.51509589312E+01 0.59111692311E+01
 0.67093766801E+01 0.74939931320E+01 0.82020111131E+01 0.87677098762E+01 0.91334926213E+01
 0.92600660421E+01 0.91334979571E+01 0.87677168350E+01 0.82020230731E+01 0.74940279398E+01
 0.67094556065E+01 0.59112955157E+01 0.54915831005E+01 0.46717872605E+01 0.39804986547E+01
 0.34178316758E+01 0.29750020383E+01 0.26396062291E+01 0.23994676736E+01 0.22448177563E+01
 0.21691264401E+01 0.21691722924E+01 0.22449215808E+01 0.23995525697E+01 0.26396083964E+01
 0.29749144603E+01 0.34176937854E+01 0.39803464853E+01 0.46716271453E+01 0.54914166542E+01
 0.64249066176E+01 0.74376648976E+01 0.84735082379E+01 0.94570229592E+01 0.10301664199E+02
 0.10922666731E+02 0.11252083814E+02 0.11252061738E+02 0.10922605772E+02 0.10301583017E+02
 0.94569572949E+01 0.84735020445E+01 0.74377424158E+01 0.64250503945E+01 0.56729569051E+01
 0.47438649840E+01 0.39804852877E+01 0.33749742074E+01 0.29115172250E+01 0.25722848348E+01
 0.23415313072E+01 0.22076676903E+01 0.21638213997E+01 0.22077183153E+01 0.23415798114E+01
 0.25722745422E+01 0.29114354643E+01 0.33748500783E+01 0.39803464853E+01 0.47437137473E+01
 0.56727936244E+01 0.67605295119E+01 0.79782735340E+01 0.92710398862E+01 0.10556688444E+02
 0.11731059916E+02 0.12680347349E+02 0.13299885862E+02 0.13515354126E+02 0.13299810054E+02
 0.12680230897E+02 0.11730947506E+02 0.10556617806E+02 0.92710410184E+01 0.79783584582E+01
 0.67606759694E+01 0.56729371799E+01 0.46717584936E+01 0.38704128748E+01 0.32515804161E+01
 0.27919637373E+01 0.24686905968E+01 0.22633572098E+01 0.21636953332E+01 0.21637047164E+01
 0.22633665490E+01 0.24686634027E+01 0.27918839679E+01 0.32514656800E+01 0.38702878613E+01
 0.46716271453E+01 0.56727936244E+01 0.68772952104E+01 0.82667766712E+01 0.97940163264E+01
 0.11378447701E+02 0.12906450301E+02 0.14239610988E+02 0.15233544534E+02 0.15765903436E+02
 0.15765890308E+02 0.15233508284E+02 0.14239557545E+02 0.12906390259E+02 0.11378407683E+02
 0.97940338420E+01 0.82668675403E+01 0.68774333691E+01 0.54915281520E+01 0.44643784181E+01
 0.36635503385E+01 0.30619578112E+01 0.26295922365E+01 0.23400019197E+01 0.21738093053E+01
 0.21196405176E+01 0.21737926915E+01 0.23399563885E+01 0.26295106256E+01 0.30618512565E+01
 0.36634385080E+01 0.44642692030E+01 0.54914166542E+01 0.67605295119E+01 0.82667766712E+01
 0.99763451318E+01 0.11819063377E+02 0.13683436571E+02 0.15417899835E+02 0.16844387081E+02
 0.17788115416E+02 0.18118738171E+02 0.17788170689E+02 0.16844461992E+02 0.15417949908E+02
 0.13683446727E+02 0.11819062331E+02 0.99763768316E+01 0.82668573616E+01 0.67606384333E+01
 0.51510360697E+01 0.41464412198E+01 0.33834549697E+01 0.28264684840E+01 0.24408401477E+01
 0.21988750334E+01 0.20823015085E+01 0.20822886133E+01 0.21988273560E+01 0.24407506159E+01
 0.28263574387E+01 0.33833548579E+01 0.41463603861E+01 0.51509589312E+01 0.64249066176E+01
 0.79782735340E+01 0.97940163264E+01 0.11819063377E+02 0.13955550167E+02 0.16054592133E+02
 0.17920220541E+02 0.19330839986E+02 0.20091091845E+02 0.20091138342E+02 0.19330966700E+02
 0.17920384175E+02 0.16054726988E+02 0.13955613123E+02 0.11819071874E+02 0.97940274643E+01