unknown system                          
   1.00000000000000     
    -2.442589    2.442589    1.277011
     2.442589   -2.442589    1.277011
     2.442589    2.442589   -1.277011
   Si
     2
Direct
  0.250000  0.750000  0.500000
  0.000000  0.000000  0.000000
 
   36   36   36
 -5.2606     -4.3340     -1.7885      1.7547      5.4917      8.6751      10.800      11.689      11.472      10.500    
  9.2092      7.9094      6.7170      5.7000      4.8887      4.2846      3.8734      3.6364      3.5592      3.6364    
  3.8734      4.2846      4.8887      5.7000      6.7170      7.9094      9.2092      10.500      11.472      11.689    
  10.800      8.6751      5.4916      1.7547     -1.7885     -4.3340     -4.3340     -4.8124     -3.4854     -.69021    
  2.8964      6.4769      9.3622      11.132      11.691      11.233      10.139      8.8322      7.5563      6.4091    
  5.4480      4.6950      4.1462      3.7851      3.5936      3.5591      3.6786      3.9600      4.4191      5.0741    
  5.9368      7.0000      8.2252      9.5362      10.792      11.637      11.644      10.504      8.1533      4.8453    
  1.1476     -2.1693     -1.7885     -3.4854     -3.5185     -1.8843     0.99962      4.4377      7.6773      10.116    
  11.433      11.616      10.914      9.7201      8.4174      7.1785      6.0871      5.1897      4.4996      4.0083    
  3.6981      3.5517      3.5588      3.7190      4.0421      4.5448      5.2445      6.1497      7.2475      8.4928    
  9.8026      11.012      11.742      11.591      10.301      7.8719      4.6203      1.1476      1.7547     -.69023    
 -1.8843     -1.5237     0.29081      3.0912      6.2013      8.9463      10.831      11.640      11.439      10.516    
  9.2607      7.9782      6.7885      5.7622      4.9339      4.3091      3.8756      3.6152      3.5121      3.5585    
  3.7563      4.1169      4.6574      5.3936      6.3305      7.4504      8.7023      9.9994      11.158      11.798    
  11.556      10.228      7.8719      4.8453      5.4916      2.8964     0.99962     0.29081     0.95361      2.8042    
  5.3582      7.9930      10.136      11.411      11.703      11.148      10.052      8.7762      7.5286      6.3993    
  5.4448      4.6886      4.1292      3.7519      3.5388      3.4761      3.5583      3.7894      4.1820      4.7527    
  5.5157      6.4726      7.6011      8.8464      10.120      11.230      11.816      11.556      10.301      8.1533    
  8.6751      6.4769      4.4377      3.0912      2.8042      3.6527      5.3974      7.5704      9.6301      11.121    
  11.784      11.598      10.747      9.5451      8.2814      7.0827      6.0229      5.1445      4.4608      3.9649    
  3.6407      3.4712      3.4448      3.5583      3.8174      4.2350      4.8273      5.6063      6.5703      7.6938    
  8.9197      10.160      11.230      11.798      11.591      10.504      10.800      9.3622      7.6773      6.2013    
  5.3582      5.3974      6.3079      7.8253      9.5262      10.967      11.812      11.912      11.324      10.264    
  9.0240      7.7918      6.6543      5.6704      4.8695      4.2564      3.8203      3.5446      3.4140      3.4191    
  3.5585      3.8392      4.2743      4.8786      5.6621      6.6202      7.7251      8.9197      10.120      11.158    
  11.742      11.644      11.689      11.132      10.116      8.9463      7.9930      7.5704      7.8253      8.6857    
  9.8894      11.078      11.911      12.169      11.798      10.911      9.7389      8.5072      7.3230      6.2564    
  5.3515      4.6267      4.0800      3.6984      3.4658      3.3685      3.3994      3.5588      3.8542      4.2984    
  4.9048      5.6809      6.6202      7.6938      8.8464      9.9994      11.012      11.637      11.472      11.691    
  11.433      10.831      10.136      9.6302      9.5262      9.8894      10.613      11.460      12.146      12.435    
  12.205      11.481      10.413      9.2127      8.0132      6.8906      5.9005      5.0745      4.4215      3.9353    
  3.6017      3.4056      3.3356      3.3863      3.5591      3.8619      4.3065      4.9048      5.6621      6.5703    
  7.6011      8.7023      9.8026      10.792      10.500      11.233      11.617      11.640      11.411      11.121    
  10.967      11.078      11.460      11.996      12.486      12.725      12.568      11.977      11.031      9.8933    
  8.7097      7.5604      6.5084      5.5966      4.8457      4.2582      3.8248      3.5316      3.3651      3.3157    
  3.3797      3.5592      3.8619      4.2984      4.8786      5.6063      6.4726      7.4504      8.4928      9.5362    
  9.2092      10.139      10.914      11.439      11.703      11.784      11.812      11.911      12.146      12.486    
  12.819      12.992      12.872      12.391      11.573      10.531      9.3964      8.2522      7.1657      6.1886    
  5.3525      4.6702      4.1396      3.7503      3.4892      3.3447      3.3091      3.3797      3.5591      3.8542    
  4.2743      4.8273      5.5157      6.3305      7.2475      8.2252      7.9094      8.8322      9.7201      10.516    
  11.148      11.598      11.912      12.169      12.435      12.725      12.992      13.140      13.064      12.692    
  12.015      11.100      10.052      8.9494      7.8606      6.8439      5.9407      5.1742      4.5513      4.0677    
  3.7128      3.4751      3.3447      3.3157      3.3863      3.5588      3.8392      4.2350      4.7527      5.3936    
  6.1497      7.0000      6.7170      7.5563      8.4174      9.2607      10.052      10.747      11.324      11.798    
  12.205      12.568      12.872      13.064      13.072      12.832      12.319      11.566      10.648      9.6286    
  8.5761      7.5521      6.6061      5.7717      5.0656      4.4914      4.0436      3.7128      3.4892      3.3651    
  3.3356      3.3994      3.5585      3.8174      4.1820      4.6574      5.2445      5.9368      5.7000      6.4091    
  7.1785      7.9782      8.7762      9.5451      10.264      10.911      11.481      11.977      12.391      12.692    
  12.832      12.758      12.441      11.890      11.146      10.258      9.2871      8.2958      7.3394      6.4604    
  5.6861      5.0292      4.4914      4.0677      3.7503      3.5316      3.4056      3.3685      3.4191      3.5583    
  3.7894      4.1169      4.5448      5.0741      4.8887      5.4480      6.0871      6.7885      7.5286      8.2814    
  9.0240      9.7389      10.413      11.031      11.573      12.015      12.319      12.441      12.350      12.034    
  11.505      10.797      9.9590      9.0480      8.1221      7.2309      6.4113      5.6861      5.0656      4.5513    
  4.1396      3.8248      3.6017      3.4658      3.4140      3.4448      3.5583      3.7563      4.0421      4.4191    
  4.2846      4.6950      5.1897      5.7622      6.3993      7.0827      7.7918      8.5072      9.2127      9.8933    
  10.531      11.100      11.566      11.890      12.034      11.969      11.688      11.204      10.549      9.7715    
  8.9251      8.0634      7.2309      6.4604      5.7717      5.1742      4.6702      4.2582      3.9353      3.6984    
  3.5446      3.4712      3.4761      3.5585      3.7190      3.9600      3.8734      4.1462      4.4996      4.9339    
  5.4448      6.0229      6.6543      7.3230      8.0132      8.7097      9.3964      10.052      10.648      11.146    
  11.505      11.688      11.669      11.440      11.013      10.421      9.7076      8.9251      8.1221      7.3394    
  6.6061      5.9407      5.3525      4.8457      4.4215      4.0800      3.8203      3.6407      3.5388      3.5121    
  3.5588      3.6786      3.6364      3.7851      4.0084      4.3091      4.6886      5.1445      5.6704      6.2564    
  6.8906      7.5604      8.2522      8.9494      9.6286      10.258      10.797      11.204      11.440      11.478    
  11.310      10.948      10.421      9.7715      9.0480      8.2958      7.5521      6.8439      6.1886      5.5966    
  5.0745      4.6267      4.2564      3.9649      3.7519      3.6152      3.5517      3.5591      3.5592      3.5936    
  3.6981      3.8756      4.1292      4.4608      4.8695      5.3515      5.9005      6.5084      7.1657      7.8606    
  8.5761      9.2871      9.9590      10.549      11.013      11.310      11.413      11.310      11.013      10.549    
  9.9590      9.2871      8.5761      7.8606      7.1657      6.5084      5.9005      5.3515      4.8695      4.4608    
  4.1292      3.8756      3.6981      3.5936      3.6364      3.5591      3.5517      3.6152      3.7519      3.9649    
  4.2564      4.6267      5.0745      5.5966      6.1886      6.8439      7.5521      8.2958      9.0480      9.7715    
  10.421      10.948      11.310      11.478      11.440      11.204      10.797      10.258      9.6286      8.9494    
  8.2522      7.5604      6.8906      6.2564      5.6704      5.1445      4.6886      4.3091      4.0083      3.7851    
  3.8734      3.6786      3.5588      3.5121      3.5388      3.6407      3.8203      4.0800      4.4216      4.8457    
  5.3525      5.9407      6.6061      7.3394      8.1221      8.9251      9.7076      10.421      11.013      11.440    
  11.669      11.688      11.505      11.146      10.648      10.052      9.3964      8.7097      8.0132      7.3230    
  6.6543      6.0229      5.4448      4.9339      4.4996      4.1462      4.2846      3.9600      3.7190      3.5585    
  3.4761      3.4711      3.5446      3.6984      3.9353      4.2582      4.6702      5.1742      5.7717      6.4604    
  7.2309      8.0634      8.9251      9.7715      10.549      11.204      11.688      11.969      12.034      11.890    
  11.566      11.100      10.531      9.8933      9.2127      8.5072      7.7918      7.0827      6.3993      5.7622    
  5.1897      4.6950      4.8887      4.4191      4.0421      3.7563      3.5583      3.4448      3.4140      3.4658    
  3.6017      3.8249      4.1396      4.5513      5.0656      5.6861      6.4113      7.2309      8.1221      9.0480    
  9.9590      10.797      11.505      12.034      12.350      12.441      12.319      12.015      11.573      11.031    
  10.413      9.7389      9.0240      8.2814      7.5286      6.7885      6.0871      5.4480      5.7000      5.0741    
  4.5448      4.1169      3.7894      3.5583      3.4190      3.3685      3.4056      3.5316      3.7503      4.0677    
  4.4914      5.0292      5.6861      6.4604      7.3394      8.2958      9.2871      10.258      11.146      11.890    
  12.441      12.758      12.832      12.692      12.391      11.977      11.481      10.911      10.264      9.5451    
  8.7762      7.9782      7.1785      6.4091      6.7170      5.9368      5.2445      4.6574      4.1820      3.8173    
  3.5585      3.3994      3.3356      3.3651      3.4893      3.7128      4.0436      4.4914      5.0656      5.7717    
  6.6061      7.5521      8.5761      9.6286      10.648      11.566      12.319      12.832      13.072      13.064    
  12.872      12.568      12.205      11.798      11.324      10.747      10.052      9.2607      8.4174      7.5563    
  7.9094      7.0000      6.1497      5.3936      4.7527      4.2350      3.8392      3.5588      3.3863      3.3157    
  3.3447      3.4751      3.7128      4.0677      4.5513      5.1742      5.9407      6.8439      7.8606      8.9494    
  10.052      11.100      12.015      12.692      13.064      13.140      12.992      12.725      12.435      12.169    
  11.912      11.598      11.148      10.516      9.7201      8.8322      9.2092      8.2253      7.2475      6.3306    
  5.5157      4.8273      4.2743      3.8542      3.5591      3.3797      3.3091      3.3447      3.4893      3.7503    
  4.1396      4.6702      5.3525      6.1886      7.1657      8.2522      9.3964      10.531      11.573      12.391    
  12.872      12.992      12.819      12.486      12.146      11.911      11.812      11.784      11.703      11.439    
  10.914      10.139      10.500      9.5363      8.4928      7.4505      6.4726      5.6063      4.8787      4.2984    
  3.8619      3.5592      3.3797      3.3157      3.3651      3.5316      3.8249      4.2582      4.8457      5.5966    
  6.5084      7.5604      8.7097      9.8933      11.031      11.977      12.568      12.725      12.486      11.996    
  11.460      11.078      10.967      11.121      11.411      11.640      11.616      11.233      11.472      10.792    
  9.8027      8.7023      7.6011      6.5704      5.6621      4.9048      4.3066      3.8619      3.5591      3.3863    
  3.3356      3.4056      3.6017      3.9353      4.4216      5.0745      5.9005      6.8906      8.0132      9.2127    
  10.413      11.481      12.205      12.435      12.146      11.460      10.613      9.8894      9.5262      9.6301    
  10.136      10.831      11.433      11.691      11.689      11.637      11.012      9.9994      8.8464      7.6938    
  6.6202      5.6809      4.9048      4.2984      3.8542      3.5588      3.3994      3.3685      3.4658      3.6984    
  4.0800      4.6267      5.3515      6.2564      7.3230      8.5072      9.7389      10.911      11.798      12.169    
  11.911      11.078      9.8894      8.6857      7.8253      7.5704      7.9930      8.9463      10.116      11.132    
  10.800      11.644      11.742      11.158      10.120      8.9198      7.7251      6.6202      5.6621      4.8787    
  4.2743      3.8392      3.5585      3.4190      3.4140      3.5446      3.8203      4.2564      4.8695      5.6704    
  6.6543      7.7918      9.0240      10.264      11.324      11.912      11.812      10.967      9.5262      7.8253    
  6.3079      5.3974      5.3582      6.2013      7.6773      9.3622      8.6751      10.504      11.591      11.798    
  11.230      10.160      8.9198      7.6938      6.5704      5.6063      4.8273      4.2350      3.8173      3.5583    
  3.4448      3.4711      3.6407      3.9649      4.4608      5.1445      6.0229      7.0827      8.2814      9.5451    
  10.747      11.598      11.784      11.121      9.6302      7.5704      5.3974      3.6527      2.8042      3.0912    
  4.4377      6.4769      5.4917      8.1533      10.301      11.556      11.816      11.230      10.120      8.8464    
  7.6011      6.4726      5.5157      4.7527      4.1820      3.7894      3.5583      3.4761      3.5388      3.7519    
  4.1292      4.6886      5.4448      6.3993      7.5286      8.7762      10.052      11.148      11.703      11.411    
  10.136      7.9930      5.3582      2.8042     0.95361     0.29081     0.99962      2.8964      1.7547      4.8453    
  7.8719      10.228      11.556      11.798      11.158      9.9994      8.7023      7.4505      6.3306      5.3936    
  4.6574      4.1169      3.7563      3.5585      3.5121      3.6152      3.8756      4.3091      4.9339      5.7622    
  6.7885      7.9782      9.2607      10.516      11.439      11.640      10.831      8.9463      6.2013      3.0912    
 0.29081     -1.5237     -1.8843     -.69021     -1.7885      1.1476      4.6203      7.8719      10.301      11.591    
  11.742      11.012      9.8027      8.4928      7.2475      6.1497      5.2445      4.5448      4.0421      3.7190    
  3.5588      3.5517      3.6981      4.0084      4.4996      5.1897      6.0871      7.1785      8.4174      9.7201    
  10.914      11.617      11.433      10.116      7.6773      4.4377     0.99962     -1.8843     -3.5185     -3.4854    
 -4.3340     -2.1693      1.1476      4.8453      8.1533      10.504      11.644      11.637      10.792      9.5363    
  8.2253      7.0000      5.9368      5.0741      4.4191      3.9600      3.6786      3.5591      3.5936      3.7851    
  4.1462      4.6950      5.4480      6.4091      7.5563      8.8322      10.139      11.233      11.691      11.132    
  9.3622      6.4769      2.8964     -.69023     -3.4854     -4.8124     -4.3340     -3.6488     -1.3904      1.8868    
  5.4283      8.5061      10.605      11.519      11.346      10.409      9.1313      7.8320      6.6331      5.6048    
  4.7796      4.1602      3.7325      3.4774      3.3796      3.4324      3.6399      4.0155      4.5782      5.3441    
  6.3159      7.4693      8.7434      10.036      11.084      11.467      10.826      9.0019      6.1271      2.6492    
 -.74058     -3.2747     -3.6488     -4.3340     -3.2747     -.74057      2.6492      6.1271      9.0019      10.826    
  11.467      11.084      10.036      8.7435      7.4693      6.3159      5.3441      4.5782      4.0155      3.6399    
  3.4324      3.3796      3.4774      3.7324      4.1602      4.7796      5.6048      6.6331      7.8320      9.1313    
  10.409      11.346      11.519      10.605      8.5061      5.4283      1.8868     -1.3904     -1.3173     -3.1964    
 -3.4854     -2.1171     0.55576      3.8804      7.1127      9.6282      11.065      11.371      10.761      9.6135    
  8.3242      7.0868      5.9894      5.0819      4.3802      3.8768      3.5542      3.3945      3.3862      3.5282    
  3.8293      4.3063      4.9779      5.8553      6.9304      8.1630      9.4758      10.725      11.555      11.559    
  10.460      8.2205      5.1102      1.6873      2.0766     -.52904     -1.9690     -1.8843     -.30767      2.3484    
  5.4318      8.2557      10.287      11.261      11.203      10.373      9.1565      7.8861      6.6969      5.6642    
  4.8265      4.1916      3.7483      3.4781      3.3647      3.3994      3.5833      3.9275      4.4493      5.1664    
  6.0870      7.1972      8.4510      9.7658      10.977      11.719      11.613      10.431      8.1939      5.2178    
  5.7406      3.0093     0.88383     -.10494     0.29080      1.9518      4.4349      7.1221      9.4117      10.878    
  11.356      10.943      9.9279      8.6804      7.4419      6.3114      5.3503      4.5857      4.0181      3.6335    
  3.4136      3.3443      3.4190      3.6415      4.0241      4.5845      5.3387      6.2914      7.4241      8.6857    
  9.9910      11.163      11.844      11.694      10.535      8.4364      8.9184      6.6144      4.3761      2.7614    
  2.1903      2.8042      4.4188      6.5904      8.7644      10.444      11.316      11.312      10.587      9.4425    
  8.1980      7.0046      5.9418      5.0568      4.3661      3.8642      3.5355      3.3628      3.3338      3.4448    
  3.7012      4.1163      4.7074      5.4886      6.4611      7.6023      8.8582      10.143      11.279      11.931    
  11.803      10.764      11.085      9.5752      7.7319      6.0192      4.8975      4.6738      5.3973      6.8448    
  8.6004      10.194      11.242      11.544      11.114      10.148      8.9423      7.7226      6.5867      5.5984    
  4.7914      4.1731      3.7337      3.4568      3.3269      3.3338      3.4761      3.7606      4.2011      4.8138    
  5.6107      6.5897      7.7251      8.9616      10.216      11.321      11.975      11.926      12.036      11.444    
  10.317      8.9577      7.7558      7.0688      7.0993      7.8253      9.0108      10.290      11.290      11.741    
  11.542      10.776      9.6590      8.4462      7.2683      6.2000      5.2902      4.5605      4.0110      3.6293    
  3.3991      3.3067      3.3443      3.5121      3.8181      4.2758      4.9000      5.7004      6.6719      7.7871    
  8.9913      10.205      11.283      11.963      11.881      12.099      11.779      11.044      10.149      9.4038    
  9.0666      9.2516      9.8894      10.754      11.547      11.991      11.924      11.329      10.335      9.1600    
  7.9704      6.8488      5.8552      5.0247      4.3691      3.8830      3.5528      3.3632      3.3024      3.3648    
  3.5517      3.8717      4.3377      4.9628      5.7540      6.7043      7.7855      8.9451      10.110      11.161    
  10.952      11.715      12.082      12.028      11.658      11.175      10.807      10.724      10.973      11.460    
  11.987      12.326      12.297      11.824      10.957      9.8502      8.6780      7.5315      6.4773      5.5616    
  4.8081      4.2208      3.7913      3.5055      3.3497      3.3140      3.3945      3.5936      3.9197      4.3846    
  4.9995      5.7692      6.6851      7.7197      8.8240      9.9315      9.6767      10.658      11.455      11.954    
  12.137      12.082      11.936      11.855      11.936      12.180      12.486      12.697      12.655      12.262    
  11.512      10.501      9.3751      8.2338      7.1457      6.1652      5.3268      4.6449      4.1184      3.7372    
  3.4879      3.3584      3.3408      3.4324      3.6364      3.9604      4.4148      5.0087      5.7451      6.6147    
  7.5916      8.6318      8.3756      9.3538      10.286      11.099      11.702      12.075      12.268      12.377    
  12.496      12.667      12.862      12.992      12.941      12.615      11.981      11.086      10.041      8.9387    
  7.8476      6.8276      5.9224      5.1566      4.5384      4.0635      3.7213      3.4998      3.3887      3.3818    
  3.4774      3.6786      3.9922      4.4269      4.9898      5.6823      6.4955      7.4061      7.1701      8.0648    
  8.9739      9.8525      10.656      11.326      11.834      12.206      12.492      12.736      12.945      13.079    
  13.064      12.826      12.324      11.573      10.647      9.6226      8.5653      7.5373      6.5893      5.7561    
  5.0554      4.4909      4.0570      3.7439      3.5409      3.4400      3.4360      3.5282      3.7190      4.0141    
  4.4203      4.9432      5.5831      6.3321      6.1310      6.8931      7.7112      8.5506      9.3742      10.149    
  10.846      11.436      11.921      12.318      12.635      12.857      12.941      12.832      12.492      11.919    
  11.155      10.253      9.2734      8.2761      7.3171      6.4397      5.6716      5.0257      4.5035      4.0992    
  3.8044      3.6104      3.5110      3.5022      3.5833      3.7563      4.0252      4.3953      4.8706      5.4514    
  5.2924      5.9002      6.5858      7.3279      8.0985      8.8675      9.6077      10.299      10.925      11.473    
  11.933      12.292      12.522      12.584      12.441      12.082      11.522      10.791      9.9372      9.0170    
  8.0872      7.1975      6.3848      5.6720      5.0689      4.5764      4.1896      3.9019      3.7071      3.6004    
  3.5788      3.6415      3.7894      4.0252      4.3527      4.7749      4.6598      5.1124      5.6488      6.2597    
  6.9286      7.6334      8.3496      9.0550      9.7313      10.364      10.939      11.436      11.826      12.076    
  12.154      12.034      11.709      11.192      10.514      9.7227      8.8703      8.0095      7.1845      6.4276    
  5.7582      5.1849      4.7087      4.3268      4.0350      3.8293      3.7064      3.6641      3.7011      3.8173    
  4.0141      4.2940      4.2215      4.5297      4.9185      5.3863      5.9266      6.5271      7.1707      7.8381    
  8.5110      9.1734      9.8100      10.403      10.928      11.353      11.641      11.761      11.688      11.417    
  10.960      10.349      9.6264      8.8437      8.0483      7.2803      6.5681      5.9292      5.3718      4.8984    
  4.5088      4.2014      3.9747      3.8269      3.7561      3.7606      3.8392      3.9922      3.9604      4.1380    
  4.3897      4.7177      5.1218      5.5977      6.1366      6.7256      7.3502      7.9960      8.6488      9.2934    
  9.9092      10.469      10.937      11.276      11.452      11.440      11.235      10.847      10.308      9.6566    
  8.9407      8.2040      7.4829      6.8033      6.1814      5.6261      5.1421      4.7321      4.3980      4.1405    
  3.9591      3.8524      3.8181      3.8542      3.8619      3.9197      4.0465      4.2448      4.5171      4.8641    
  5.2833      5.7689      6.3120      6.9023      7.5290      8.1801      8.8400      9.4866      10.089      10.611    
  11.010      11.252      11.310      11.178      10.864      10.396      9.8135      9.1582      8.4715      7.7864    
  7.1270      6.5088      5.9421      5.4345      4.9923      4.6206      4.3228      4.0997      3.9502      3.8717    
  3.9197      3.8619      3.8717      3.9502      4.0997      4.3228      4.6206      4.9923      5.4345      5.9421    
  6.5088      7.1270      7.7864      8.4715      9.1582      9.8134      10.396      10.864      11.178      11.310    
  11.252      11.010      10.611      10.089      9.4866      8.8400      8.1801      7.5290      6.9023      6.3120    
  5.7689      5.2834      4.8641      4.5170      4.2448      4.0465      4.1380      3.9604      3.8542      3.8181    
  3.8524      3.9591      4.1405      4.3980      4.7321      5.1421      5.6261      6.1814      6.8033      7.4829    
  8.2040      8.9407      9.6566      10.308      10.847      11.235      11.440      11.452      11.276      10.937    
  10.469      9.9092      9.2934      8.6489      7.9960      7.3502      6.7256      6.1366      5.5978      5.1218    
  4.7177      4.3897      4.5297      4.2215      3.9922      3.8392      3.7606      3.7562      3.8269      3.9747    
  4.2014      4.5088      4.8984      5.3718      5.9292      6.5681      7.2803      8.0483      8.8437      9.6264    
  10.349      10.960      11.417      11.688      11.761      11.641      11.353      10.928      10.403      9.8100    
  9.1734      8.5110      7.8381      7.1707      6.5271      5.9266      5.3863      4.9185      5.1124      4.6598    
  4.2940      4.0141      3.8174      3.7011      3.6641      3.7064      3.8293      4.0350      4.3268      4.7087    
  5.1849      5.7582      6.4276      7.1845      8.0095      8.8703      9.7227      10.514      11.192      11.709    
  12.034      12.154      12.076      11.826      11.436      10.939      10.364      9.7313      9.0550      8.3496    
  7.6334      6.9286      6.2597      5.6488      5.9002      5.2924      4.7749      4.3526      4.0252      3.7894    
  3.6415      3.5788      3.6004      3.7071      3.9019      4.1896      4.5764      5.0690      5.6720      6.3848    
  7.1975      8.0872      9.0170      9.9372      10.791      11.522      12.082      12.441      12.584      12.522    
  12.292      11.933      11.473      10.925      10.299      9.6077      8.8675      8.0985      7.3278      6.5858    
  6.8931      6.1310      5.4514      4.8706      4.3953      4.0252      3.7563      3.5833      3.5022      3.5110    
  3.6104      3.8044      4.0992      4.5035      5.0257      5.6716      6.4397      7.3172      8.2761      9.2734    
  10.253      11.155      11.919      12.492      12.832      12.940      12.857      12.635      12.318      11.921    
  11.436      10.846      10.149      9.3742      8.5506      7.7112      8.0648      7.1701      6.3320      5.5831    
  4.9432      4.4203      4.0141      3.7190      3.5282      3.4361      3.4400      3.5409      3.7439      4.0570    
  4.4909      5.0554      5.7561      6.5893      7.5373      8.5653      9.6226      10.647      11.573      12.324    
  12.826      13.064      13.079      12.945      12.736      12.492      12.206      11.834      11.326      10.656    
  9.8525      8.9739      9.3538      8.3756      7.4060      6.4955      5.6823      4.9898      4.4269      3.9922    
  3.6786      3.4774      3.3818      3.3887      3.4998      3.7214      4.0635      4.5384      5.1566      5.9224    
  6.8277      7.8476      8.9387      10.041      11.086      11.981      12.615      12.941      12.992      12.862    
  12.667      12.496      12.377      12.268      12.075      11.702      11.099      10.286      10.658      9.6767    
  8.6318      7.5916      6.6147      5.7451      5.0087      4.4148      3.9604      3.6364      3.4324      3.3408    
  3.3584      3.4879      3.7372      4.1184      4.6449      5.3268      6.1652      7.1457      8.2338      9.3751    
  10.501      11.512      12.262      12.655      12.697      12.486      12.180      11.936      11.855      11.936    
  12.082      12.137      11.954      11.455      11.715      10.952      9.9315      8.8240      7.7197      6.6851    
  5.7692      4.9996      4.3846      3.9197      3.5936      3.3945      3.3140      3.3497      3.5055      3.7913    
  4.2209      4.8081      5.5616      6.4773      7.5315      8.6780      9.8502      10.957      11.824      12.297    
  12.326      11.987      11.460      10.973      10.724      10.807      11.175      11.658      12.027      12.082    
  12.099      11.881      11.161      10.109      8.9451      7.7855      6.7043      5.7540      4.9628      4.3377    
  3.8717      3.5517      3.3647      3.3024      3.3632      3.5528      3.8831      4.3691      5.0248      5.8552    
  6.8488      7.9704      9.1600      10.335      11.329      11.924      11.991      11.547      10.754      9.8894    
  9.2516      9.0666      9.4038      10.149      11.044      11.779      11.444      12.036      11.963      11.283    
  10.205      8.9913      7.7871      6.6719      5.7004      4.9000      4.2758      3.8181      3.5121      3.3443    
  3.3066      3.3991      3.6293      4.0110      4.5606      5.2902      6.2000      7.2683      8.4462      9.6590    
  10.776      11.542      11.741      11.290      10.290      9.0108      7.8253      7.0993      7.0688      7.7558    
  8.9577      10.317      9.5752      11.085      11.926      11.975      11.321      10.216      8.9617      7.7251    
  6.5897      5.6107      4.8138      4.2011      3.7606      3.4761      3.3338      3.3269      3.4568      3.7337    
  4.1731      4.7915      5.5984      6.5867      7.7226      8.9422      10.148      11.114      11.544      11.242    
  10.194      8.6004      6.8449      5.3974      4.6738      4.8975      6.0192      7.7319      6.6144      8.9184    