unknown system                          
   1.00000000000000     
    -2.450000    2.450000    1.274000
     2.450000   -2.450000    1.274000
     2.450000    2.450000   -1.274000
   Si
     2
Direct
  0.250000  0.750000  0.500000
  0.000000  0.000000  0.000000
 
   36   36   36
 -5.2554     -4.3293     -1.7849      1.7569      5.4925      8.6751      10.800      11.689      11.472      10.500    
  9.2100      7.9101      6.7174      5.7000      4.8882      4.2837      3.8721      3.6349      3.5576      3.6349    
  3.8721      4.2837      4.8882      5.7000      6.7174      7.9101      9.2100      10.500      11.472      11.689    
  10.800      8.6751      5.4925      1.7569     -1.7849     -4.3293     -4.3293     -4.8075     -3.4811     -.68713    
  2.8981      6.4773      9.3619      11.131      11.691      11.233      10.139      8.8329      7.5569      6.4093    
  5.4478      4.6943      4.1451      3.7838      3.5921      3.5575      3.6772      3.9588      4.4183      5.0738    
  5.9369      7.0005      8.2260      9.5371      10.793      11.638      11.644      10.504      8.1535      4.8465    
  1.1501     -2.1654     -1.7849     -3.4811     -3.5142     -1.8808      1.0019      4.4387      7.6773      10.116    
  11.432      11.616      10.914      9.7207      8.4180      7.1789      6.0872      5.1894      4.4989      4.0072    
  3.6967      3.5502      3.5572      3.7176      4.0410      4.5441      5.2443      6.1499      7.2482      8.4936    
  9.8035      11.013      11.742      11.591      10.300      7.8722      4.6215      1.1501      1.7569     -.68713    
 -1.8808     -1.5204     0.29329      3.0925      6.2016      8.9458      10.831      11.639      11.439      10.516    
  9.2613      7.9787      6.7888      5.7621      4.9334      4.3082      3.8744      3.6137      3.5105      3.5569    
  3.7549      4.1159      4.6567      5.3934      6.3309      7.4512      8.7033      10.000      11.158      11.799    
  11.556      10.228      7.8722      4.8465      5.4925      2.8981      1.0019     0.29329     0.95575      2.8056    
  5.3586      7.9926      10.136      11.411      11.703      11.148      10.052      8.7768      7.5290      6.3994    
  5.4446      4.6879      4.1282      3.7506      3.5373      3.4745      3.5567      3.7881      4.1810      4.7521    
  5.5156      6.4730      7.6019      8.8474      10.121      11.231      11.816      11.556      10.300      8.1535    
  8.6751      6.4773      4.4387      3.0925      2.8056      3.6536      5.3976      7.5700      9.6292      11.120    
  11.783      11.597      10.748      9.5455      8.2820      7.0830      6.0229      5.1441      4.4600      3.9638    
  3.6392      3.4695      3.4431      3.5567      3.8161      4.2341      4.8268      5.6063      6.5708      7.6946    
  8.9207      10.161      11.231      11.799      11.591      10.504      10.800      9.3619      7.6773      6.2016    
  5.3586      5.3977      6.3078      7.8247      9.5251      10.966      11.811      11.912      11.324      10.264    
  9.0245      7.7922      6.6545      5.6703      4.8690      4.2555      3.8190      3.5431      3.4123      3.4174    
  3.5569      3.8379      4.2734      4.8782      5.6621      6.6207      7.7259      8.9207      10.121      11.158    
  11.742      11.644      11.689      11.131      10.116      8.9458      7.9926      7.5700      7.8247      8.6847    
  9.8881      11.076      11.910      12.168      11.798      10.911      9.7392      8.5077      7.3234      6.2565    
  5.3513      4.6261      4.0790      3.6971      3.4642      3.3668      3.3977      3.5573      3.8530      4.2975    
  4.9043      5.6809      6.6207      7.6946      8.8474      10.000      11.013      11.638      11.472      11.691    
  11.432      10.831      10.136      9.6292      9.5251      9.8881      10.612      11.458      12.144      12.433    
  12.205      11.481      10.413      9.2131      8.0137      6.8909      5.9006      5.0742      4.4208      3.9342    
  3.6003      3.4040      3.3338      3.3845      3.5575      3.8606      4.3057      4.9043      5.6621      6.5708    
  7.6019      8.7033      9.8035      10.793      10.500      11.233      11.616      11.639      11.411      11.120    
  10.966      11.076      11.458      11.994      12.484      12.723      12.567      11.976      11.030      9.8934    
  8.7101      7.5608      6.5087      5.5966      4.8453      4.2574      3.8237      3.5302      3.3634      3.3139    
  3.3779      3.5577      3.8606      4.2975      4.8782      5.6063      6.4730      7.4512      8.4936      9.5371    
  9.2100      10.139      10.914      11.439      11.703      11.783      11.811      11.910      12.144      12.484    
  12.817      12.990      12.870      12.389      11.573      10.531      9.3966      8.2526      7.1661      6.1888    
  5.3525      4.6697      4.1388      3.7491      3.4877      3.3430      3.3073      3.3779      3.5575      3.8530    
  4.2734      4.8268      5.5156      6.3309      7.2482      8.2260      7.9101      8.8329      9.7207      10.516    
  11.148      11.597      11.912      12.168      12.433      12.723      12.990      13.138      13.063      12.691    
  12.014      11.099      10.052      8.9497      7.8610      6.8443      5.9409      5.1741      4.5509      4.0668    
  3.7116      3.4735      3.3430      3.3139      3.3845      3.5573      3.8379      4.2341      4.7521      5.3934    
  6.1499      7.0005      6.7174      7.5569      8.4180      9.2613      10.052      10.748      11.324      11.798    
  12.205      12.567      12.870      13.063      13.071      12.830      12.318      11.566      10.647      9.6286    
  8.5764      7.5524      6.6065      5.7719      5.0655      4.4909      4.0427      3.7116      3.4877      3.3634    
  3.3338      3.3977      3.5569      3.8161      4.1810      4.6567      5.2443      5.9369      5.7000      6.4093    
  7.1789      7.9788      8.7768      9.5455      10.264      10.911      11.481      11.976      12.389      12.691    
  12.830      12.757      12.440      11.889      11.145      10.257      9.2870      8.2960      7.3397      6.4608    
  5.6863      5.0291      4.4909      4.0668      3.7491      3.5302      3.4040      3.3668      3.4174      3.5567    
  3.7881      4.1159      4.5441      5.0738      4.8882      5.4478      6.0872      6.7888      7.5290      8.2820    
  9.0245      9.7392      10.413      11.030      11.573      12.014      12.318      12.440      12.348      12.032    
  11.504      10.796      9.9585      9.0480      8.1224      7.2313      6.4117      5.6863      5.0655      4.5509    
  4.1388      3.8237      3.6003      3.4642      3.4123      3.4431      3.5567      3.7549      4.0410      4.4183    
  4.2837      4.6944      5.1894      5.7621      6.3994      7.0830      7.7922      8.5077      9.2131      9.8934    
  10.531      11.099      11.566      11.889      12.032      11.968      11.687      11.203      10.548      9.7710    
  8.9251      8.0636      7.2313      6.4608      5.7719      5.1741      4.6697      4.2574      3.9342      3.6971    
  3.5431      3.4695      3.4745      3.5569      3.7176      3.9588      3.8721      4.1452      4.4989      4.9334    
  5.4446      6.0229      6.6545      7.3234      8.0137      8.7101      9.3966      10.052      10.647      11.145    
  11.504      11.687      11.668      11.438      11.012      10.420      9.7071      8.9251      8.1224      7.3397    
  6.6065      5.9409      5.3525      4.8453      4.4208      4.0790      3.8190      3.6392      3.5373      3.5105    
  3.5572      3.6772      3.6349      3.7838      4.0072      4.3082      4.6879      5.1441      5.6703      6.2565    
  6.8909      7.5608      8.2526      8.9496      9.6286      10.257      10.796      11.203      11.438      11.477    
  11.309      10.946      10.420      9.7710      9.0480      8.2960      7.5524      6.8443      6.1888      5.5966    
  5.0742      4.6261      4.2555      3.9638      3.7506      3.6137      3.5502      3.5575      3.5576      3.5921    
  3.6967      3.8744      4.1282      4.4600      4.8690      5.3513      5.9006      6.5087      7.1661      7.8610    
  8.5764      9.2870      9.9585      10.548      11.012      11.309      11.411      11.309      11.012      10.548    
  9.9585      9.2870      8.5764      7.8610      7.1661      6.5087      5.9006      5.3513      4.8690      4.4600    
  4.1282      3.8744      3.6967      3.5921      3.6349      3.5575      3.5502      3.6137      3.7506      3.9638    
  4.2555      4.6261      5.0742      5.5966      6.1888      6.8443      7.5524      8.2960      9.0480      9.7710    
  10.420      10.946      11.309      11.477      11.438      11.203      10.796      10.257      9.6286      8.9497    
  8.2526      7.5608      6.8909      6.2565      5.6703      5.1441      4.6879      4.3082      4.0072      3.7838    
  3.8721      3.6772      3.5572      3.5105      3.5372      3.6392      3.8190      4.0790      4.4208      4.8453    
  5.3525      5.9409      6.6065      7.3397      8.1224      8.9251      9.7071      10.420      11.012      11.438    
  11.668      11.687      11.504      11.145      10.647      10.052      9.3966      8.7101      8.0137      7.3234    
  6.6545      6.0229      5.4446      4.9334      4.4989      4.1451      4.2837      3.9588      3.7176      3.5569    
  3.4745      3.4695      3.5431      3.6971      3.9342      4.2574      4.6697      5.1741      5.7719      6.4608    
  7.2313      8.0636      8.9251      9.7710      10.548      11.203      11.687      11.968      12.032      11.889    
  11.566      11.099      10.531      9.8934      9.2131      8.5077      7.7922      7.0830      6.3994      5.7621    
  5.1894      4.6943      4.8882      4.4183      4.0410      3.7549      3.5567      3.4431      3.4123      3.4642    
  3.6003      3.8237      4.1388      4.5509      5.0655      5.6863      6.4117      7.2313      8.1224      9.0480    
  9.9585      10.796      11.504      12.032      12.348      12.440      12.318      12.014      11.573      11.030    
  10.413      9.7392      9.0245      8.2820      7.5290      6.7888      6.0872      5.4478      5.7000      5.0738    
  4.5441      4.1159      3.7881      3.5567      3.4174      3.3668      3.4040      3.5302      3.7491      4.0668    
  4.4909      5.0291      5.6863      6.4608      7.3397      8.2960      9.2870      10.257      11.145      11.889    
  12.440      12.757      12.830      12.691      12.389      11.976      11.481      10.911      10.264      9.5455    
  8.7768      7.9787      7.1789      6.4093      6.7174      5.9369      5.2443      4.6567      4.1810      3.8160    
  3.5569      3.3977      3.3339      3.3634      3.4877      3.7116      4.0427      4.4909      5.0655      5.7719    
  6.6065      7.5524      8.5764      9.6286      10.647      11.566      12.318      12.830      13.071      13.063    
  12.870      12.567      12.205      11.798      11.324      10.748      10.052      9.2613      8.4180      7.5569    
  7.9101      7.0005      6.1499      5.3934      4.7521      4.2341      3.8379      3.5573      3.3846      3.3139    
  3.3430      3.4735      3.7116      4.0668      4.5509      5.1741      5.9409      6.8443      7.8610      8.9496    
  10.052      11.099      12.014      12.691      13.063      13.138      12.990      12.723      12.433      12.168    
  11.912      11.597      11.148      10.516      9.7207      8.8329      9.2100      8.2260      7.2482      6.3309    
  5.5156      4.8268      4.2734      3.8530      3.5576      3.3779      3.3073      3.3430      3.4877      3.7491    
  4.1388      4.6697      5.3525      6.1888      7.1661      8.2526      9.3966      10.531      11.573      12.389    
  12.870      12.990      12.817      12.484      12.144      11.910      11.811      11.783      11.703      11.439    
  10.914      10.139      10.500      9.5371      8.4936      7.4512      6.4730      5.6063      4.8782      4.2975    
  3.8607      3.5577      3.3779      3.3139      3.3634      3.5302      3.8237      4.2574      4.8453      5.5966    
  6.5087      7.5608      8.7101      9.8934      11.030      11.976      12.567      12.723      12.484      11.994    
  11.458      11.076      10.966      11.120      11.411      11.639      11.616      11.233      11.472      10.793    
  9.8035      8.7033      7.6019      6.5708      5.6621      4.9043      4.3057      3.8607      3.5576      3.3846    
  3.3339      3.4040      3.6003      3.9342      4.4208      5.0742      5.9006      6.8909      8.0137      9.2131    
  10.413      11.481      12.205      12.433      12.144      11.458      10.612      9.8881      9.5251      9.6292    
  10.136      10.831      11.432      11.691      11.689      11.638      11.013      10.000      8.8474      7.6946    
  6.6207      5.6809      4.9043      4.2975      3.8530      3.5573      3.3977      3.3668      3.4642      3.6971    
  4.0790      4.6261      5.3513      6.2565      7.3234      8.5077      9.7392      10.911      11.798      12.168    
  11.910      11.076      9.8881      8.6847      7.8247      7.5700      7.9926      8.9458      10.116      11.131    
  10.800      11.644      11.742      11.158      10.121      8.9207      7.7259      6.6207      5.6621      4.8782    
  4.2734      3.8379      3.5569      3.4174      3.4123      3.5431      3.8190      4.2555      4.8690      5.6703    
  6.6545      7.7922      9.0245      10.264      11.324      11.912      11.811      10.966      9.5251      7.8247    
  6.3078      5.3976      5.3586      6.2016      7.6773      9.3619      8.6751      10.504      11.591      11.799    
  11.231      10.161      8.9207      7.6946      6.5708      5.6063      4.8268      4.2341      3.8160      3.5567    
  3.4431      3.4695      3.6392      3.9638      4.4600      5.1441      6.0229      7.0830      8.2820      9.5455    
  10.748      11.597      11.783      11.120      9.6292      7.5700      5.3977      3.6536      2.8056      3.0925    
  4.4387      6.4773      5.4925      8.1535      10.300      11.556      11.816      11.231      10.121      8.8474    
  7.6019      6.4730      5.5156      4.7521      4.1810      3.7881      3.5567      3.4745      3.5372      3.7506    
  4.1282      4.6879      5.4446      6.3994      7.5290      8.7768      10.052      11.148      11.703      11.411    
  10.136      7.9926      5.3586      2.8056     0.95575     0.29329      1.0019      2.8981      1.7569      4.8465    
  7.8722      10.228      11.556      11.799      11.158      10.000      8.7033      7.4512      6.3309      5.3934    
  4.6567      4.1159      3.7549      3.5569      3.5105      3.6137      3.8744      4.3082      4.9334      5.7621    
  6.7888      7.9788      9.2613      10.516      11.439      11.639      10.831      8.9458      6.2016      3.0925    
 0.29329     -1.5204     -1.8808     -.68713     -1.7849      1.1501      4.6215      7.8722      10.300      11.591    
  11.742      11.013      9.8035      8.4936      7.2482      6.1499      5.2443      4.5441      4.0410      3.7176    
  3.5572      3.5502      3.6967      4.0072      4.4989      5.1894      6.0872      7.1789      8.4180      9.7207    
  10.914      11.616      11.432      10.116      7.6773      4.4387      1.0019     -1.8808     -3.5142     -3.4811    
 -4.3293     -2.1654      1.1501      4.8465      8.1535      10.504      11.644      11.638      10.793      9.5371    
  8.2260      7.0005      5.9369      5.0738      4.4183      3.9588      3.6772      3.5575      3.5921      3.7838    
  4.1452      4.6944      5.4478      6.4093      7.5569      8.8329      10.139      11.233      11.691      11.131    
  9.3619      6.4773      2.8981     -.68713     -3.4811     -4.8075     -4.3293     -3.6443     -1.3869      1.8890    
  5.4292      8.5062      10.605      11.519      11.347      10.410      9.1321      7.8327      6.6335      5.6047    
  4.7790      4.1591      3.7311      3.4758      3.3779      3.4308      3.6384      4.0144      4.5774      5.3438    
  6.3161      7.4698      8.7442      10.036      11.085      11.467      10.826      9.0019      6.1278      2.6510    
 -.73740     -3.2704     -3.6443     -4.3293     -3.2704     -.73741      2.6510      6.1278      9.0019      10.826    
  11.467      11.085      10.036      8.7442      7.4698      6.3161      5.3438      4.5774      4.0144      3.6384    
  3.4308      3.3779      3.4758      3.7311      4.1591      4.7790      5.6047      6.6335      7.8327      9.1321    
  10.410      11.347      11.519      10.605      8.5062      5.4293      1.8890     -1.3869     -1.3138     -3.1922    
 -3.4811     -2.1134     0.55831      3.8817      7.1130      9.6279      11.065      11.371      10.761      9.6141    
  8.3248      7.0872      5.9894      5.0814      4.3792      3.8756      3.5527      3.3928      3.3845      3.5266    
  3.8280      4.3054      4.9774      5.8554      6.9309      8.1638      9.4767      10.725      11.555      11.559    
  10.460      8.2207      5.1113      1.6896      2.0787     -.52596     -1.9654     -1.8808     -.30487      2.3501    
  5.4325      8.2556      10.286      11.260      11.203      10.373      9.1571      7.8866      6.6971      5.6640    
  4.8259      4.1906      3.7469      3.4765      3.3630      3.3977      3.5818      3.9262      4.4485      5.1661    
  6.0871      7.1979      8.4519      9.7667      10.978      11.719      11.613      10.431      8.1941      5.2189    
  5.7413      3.0110     0.88623     -.10223     0.29328      1.9536      4.4357      7.1221      9.4113      10.877    
  11.356      10.943      9.9283      8.6809      7.4423      6.3115      5.3500      4.5849      4.0170      3.6320    
  3.4120      3.3425      3.4174      3.6400      4.0230      4.5838      5.3385      6.2917      7.4248      8.6866    
  9.9919      11.164      11.844      11.694      10.535      8.4365      8.9183      6.6148      4.3771      2.7630    
  2.1920      2.8056      4.4195      6.5904      8.7639      10.443      11.316      11.312      10.587      9.4429    
  8.1984      7.0049      5.9418      5.0564      4.3652      3.8630      3.5340      3.3611      3.3321      3.4431    
  3.6997      4.1152      4.7068      5.4885      6.4615      7.6031      8.8592      10.144      11.280      11.931    
  11.803      10.764      11.084      9.5749      7.7318      6.0195      4.8981      4.6744      5.3976      6.8446    
  8.5997      10.193      11.241      11.544      11.114      10.149      8.9427      7.7230      6.5869      5.5982    
  4.7908      4.1721      3.7324      3.4552      3.3251      3.3321      3.4745      3.7593      4.2001      4.8133    
  5.6107      6.5901      7.7259      8.9626      10.217      11.321      11.975      11.926      12.036      11.443    
  10.317      8.9572      7.7555      7.0685      7.0989      7.8247      9.0098      10.289      11.289      11.740    
  11.542      10.776      9.6593      8.4467      7.2686      6.2001      5.2899      4.5598      4.0099      3.6278    
  3.3974      3.3049      3.3425      3.5106      3.8168      4.2749      4.8996      5.7004      6.6724      7.7880    
  8.9923      10.206      11.284      11.963      11.881      12.099      11.779      11.043      10.148      9.4029    
  9.0656      9.2505      9.8881      10.753      11.545      11.990      11.923      11.329      10.335      9.1603    
  7.9708      6.8491      5.8552      5.0243      4.3683      3.8819      3.5514      3.3615      3.3007      3.3630    
  3.5502      3.8705      4.3369      4.9624      5.7540      6.7048      7.7864      8.9461      10.110      11.161    
  10.952      11.715      12.081      12.027      11.657      11.174      10.806      10.723      10.972      11.458    
  11.985      12.325      12.296      11.823      10.956      9.8504      8.6784      7.5319      6.4775      5.5615    
  4.8076      4.2200      3.7901      3.5040      3.3480      3.3122      3.3928      3.5921      3.9186      4.3838    
  4.9992      5.7693      6.6856      7.7205      8.8249      9.9324      9.6775      10.658      11.455      11.954    
  12.136      12.081      11.935      11.854      11.935      12.178      12.484      12.695      12.654      12.261    
  11.512      10.500      9.3753      8.2342      7.1461      6.1654      5.3267      4.6444      4.1175      3.7360    
  3.4863      3.3567      3.3390      3.4308      3.6349      3.9592      4.4140      5.0084      5.7452      6.6151    
  7.5924      8.6327      8.3764      9.3545      10.287      11.099      11.702      12.074      12.267      12.376    
  12.494      12.665      12.860      12.990      12.939      12.613      11.980      11.086      10.041      8.9389    
  7.8480      6.8280      5.9225      5.1565      4.5379      4.0626      3.7201      3.4983      3.3870      3.3801    
  3.4758      3.6772      3.9911      4.4261      4.9894      5.6823      6.4959      7.4067      7.1707      8.0655    
  8.9746      9.8531      10.657      11.326      11.834      12.205      12.491      12.735      12.944      13.078    
  13.063      12.825      12.323      11.572      10.646      9.6225      8.5655      7.5376      6.5897      5.7563    
  5.0552      4.4904      4.0562      3.7427      3.5395      3.4383      3.4344      3.5266      3.7176      4.0130    
  4.4196      4.9428      5.5831      6.3324      6.1312      6.8936      7.7118      8.5513      9.3748      10.150    
  10.846      11.436      11.921      12.317      12.634      12.856      12.939      12.830      12.491      11.918    
  11.154      10.253      9.2733      8.2763      7.3175      6.4401      5.6718      5.0256      4.5030      4.0984    
  3.8032      3.6090      3.5094      3.5006      3.5818      3.7549      4.0241      4.3945      4.8702      5.4513    
  5.2922      5.9003      6.5861      7.3284      8.0991      8.8681      9.6082      10.299      10.925      11.472    
  11.932      12.291      12.521      12.582      12.440      12.081      11.520      10.790      9.9368      9.0169    
  8.0875      7.1979      6.3852      5.6722      5.0689      4.5760      4.1888      3.9009      3.7058      3.5989    
  3.5773      3.6400      3.7881      4.0241      4.3518      4.7744      4.6592      5.1121      5.6488      6.2599    
  6.9290      7.6339      8.3502      9.0555      9.7317      10.364      10.939      11.435      11.825      12.075    
  12.152      12.032      11.707      11.191      10.514      9.7223      8.8703      8.0097      7.1849      6.4280    
  5.7585      5.1849      4.7084      4.3262      4.0341      3.8281      3.7051      3.6627      3.6997      3.8160    
  4.0130      4.2931      4.2206      4.5291      4.9181      5.3861      5.9267      6.5274      7.1711      7.8386    
  8.5115      9.1738      9.8102      10.403      10.927      11.352      11.640      11.760      11.687      11.416    
  10.959      10.348      9.6260      8.8437      8.0486      7.2807      6.5685      5.9295      5.3718      4.8982    
  4.5082      4.2006      3.9736      3.8257      3.7548      3.7593      3.8379      3.9911      3.9592      4.1370    
  4.3890      4.7172      5.1215      5.5977      6.1367      6.7260      7.3507      7.9965      8.6493      9.2936    
  9.9092      10.468      10.936      11.275      11.450      11.438      11.233      10.846      10.307      9.6562    
  8.9407      8.2043      7.4834      6.8038      6.1818      5.6262      5.1419      4.7317      4.3973      4.1395    
  3.9580      3.8512      3.8168      3.8530      3.8606      3.9186      4.0454      4.2439      4.5164      4.8636    
  5.2831      5.7690      6.3123      6.9028      7.5295      8.1806      8.8403      9.4866      10.089      10.610    
  11.009      11.250      11.309      11.176      10.863      10.396      9.8130      9.1582      8.4717      7.7869    
  7.1274      6.5092      5.9423      5.4345      4.9920      4.6200      4.3220      4.0987      3.9491      3.8705    
  3.9186      3.8606      3.8705      3.9491      4.0987      4.3220      4.6200      4.9920      5.4344      5.9423    
  6.5092      7.1274      7.7869      8.4717      9.1582      9.8130      10.396      10.863      11.176      11.309    
  11.250      11.009      10.610      10.089      9.4866      8.8403      8.1806      7.5295      6.9028      6.3123    
  5.7690      5.2831      4.8636      4.5164      4.2439      4.0454      4.1370      3.9592      3.8530      3.8168    
  3.8512      3.9580      4.1395      4.3973      4.7317      5.1419      5.6262      6.1817      6.8038      7.4834    
  8.2043      8.9407      9.6562      10.307      10.846      11.233      11.438      11.450      11.275      10.936    
  10.468      9.9092      9.2936      8.6493      7.9965      7.3507      6.7260      6.1367      5.5977      5.1215    
  4.7172      4.3890      4.5291      4.2206      3.9911      3.8379      3.7593      3.7548      3.8257      3.9736    
  4.2006      4.5082      4.8982      5.3718      5.9295      6.5685      7.2807      8.0486      8.8437      9.6260    
  10.348      10.959      11.416      11.687      11.760      11.640      11.352      10.927      10.403      9.8102    
  9.1738      8.5115      7.8386      7.1711      6.5274      5.9267      5.3861      4.9181      5.1121      4.6592    
  4.2931      4.0130      3.8161      3.6997      3.6627      3.7051      3.8281      4.0341      4.3262      4.7084    
  5.1849      5.7585      6.4280      7.1849      8.0097      8.8703      9.7223      10.514      11.191      11.707    
  12.032      12.152      12.075      11.825      11.435      10.939      10.364      9.7317      9.0555      8.3502    
  7.6339      6.9290      6.2599      5.6488      5.9003      5.2922      4.7744      4.3518      4.0241      3.7881    
  3.6400      3.5773      3.5989      3.7058      3.9009      4.1888      4.5760      5.0689      5.6722      6.3852    
  7.1979      8.0875      9.0169      9.9368      10.790      11.520      12.081      12.440      12.582      12.521    
  12.291      11.932      11.472      10.925      10.299      9.6082      8.8681      8.0991      7.3284      6.5861    
  6.8936      6.1312      5.4513      4.8702      4.3945      4.0241      3.7549      3.5818      3.5006      3.5094    
  3.6090      3.8032      4.0984      4.5030      5.0256      5.6718      6.4401      7.3175      8.2763      9.2733    
  10.253      11.154      11.918      12.491      12.830      12.939      12.856      12.634      12.317      11.921    
  11.436      10.846      10.150      9.3748      8.5512      7.7118      8.0655      7.1707      6.3324      5.5831    
  4.9428      4.4196      4.0130      3.7176      3.5266      3.4344      3.4383      3.5395      3.7427      4.0562    
  4.4904      5.0553      5.7563      6.5897      7.5376      8.5655      9.6225      10.646      11.572      12.323    
  12.825      13.063      13.078      12.944      12.735      12.491      12.205      11.834      11.326      10.657    
  9.8531      8.9746      9.3545      8.3764      7.4067      6.4959      5.6823      4.9894      4.4261      3.9911    
  3.6772      3.4758      3.3801      3.3870      3.4983      3.7201      4.0626      4.5379      5.1565      5.9225    
  6.8280      7.8480      8.9389      10.041      11.086      11.980      12.613      12.939      12.990      12.860    
  12.665      12.494      12.376      12.267      12.074      11.702      11.099      10.287      10.658      9.6775    
  8.6327      7.5924      6.6151      5.7452      5.0084      4.4140      3.9592      3.6349      3.4308      3.3390    
  3.3567      3.4863      3.7360      4.1176      4.6444      5.3267      6.1654      7.1461      8.2342      9.3753    
  10.500      11.512      12.261      12.654      12.695      12.484      12.178      11.935      11.854      11.935    
  12.081      12.136      11.954      11.455      11.715      10.952      9.9324      8.8249      7.7205      6.6856    
  5.7693      4.9992      4.3839      3.9186      3.5921      3.3928      3.3122      3.3480      3.5040      3.7901    
  4.2200      4.8076      5.5615      6.4775      7.5319      8.6784      9.8504      10.956      11.823      12.296    
  12.325      11.985      11.458      10.972      10.723      10.806      11.174      11.657      12.027      12.081    
  12.099      11.881      11.161      10.110      8.9461      7.7864      6.7048      5.7540      4.9624      4.3369    
  3.8705      3.5502      3.3630      3.3006      3.3615      3.5514      3.8819      4.3683      5.0243      5.8552    
  6.8491      7.9708      9.1603      10.335      11.329      11.923      11.990      11.545      10.753      9.8881    
  9.2505      9.0656      9.4029      10.148      11.043      11.778      11.443      12.036      11.963      11.284    
  10.206      8.9923      7.7880      6.6724      5.7004      4.8996      4.2749      3.8168      3.5105      3.3425    
  3.3049      3.3974      3.6278      4.0099      4.5598      5.2899      6.2001      7.2686      8.4467      9.6593    
  10.776      11.542      11.740      11.289      10.289      9.0098      7.8247      7.0989      7.0685      7.7555    
  8.9572      10.317      9.5749      11.084      11.926      11.975      11.321      10.217      8.9626      7.7259    
  6.5901      5.6107      4.8133      4.2001      3.7593      3.4745      3.3321      3.3251      3.4552      3.7324    
  4.1721      4.7908      5.5982      6.5869      7.7230      8.9427      10.149      11.114      11.544      11.241    
  10.193      8.5997      6.8446      5.3977      4.6744      4.8981      6.0195      7.7318      6.6148      8.9183    