    2    2   15    1
  0.1529437E+02  0.3691622E-09  0.3691622E-09  0.3691622E-09  0.5000000E-15
  1.000000000000000E-004
  CAR 
 unknown system                          
      8     28      8
 
  0.8333333E-01  0.8333333E-01  0.8333333E-01  0.3703704E-01
    1       -3.667962   1.000000
    2        3.908856   1.000000
    3        7.122964   1.000000
    4        8.625266   0.999903
    5       12.807586   0.000000
    6       13.701613   0.000000
    7       13.940106   0.000000
    8       15.775179   0.000000
 
  0.2500000E+00  0.8333333E-01  0.8333333E-01  0.7407407E-01
    1       -1.343098   1.000000
    2        4.281158   1.000000
    3        7.491118   1.000000
    4        7.969564   1.000000
    5        9.722416   0.000028
    6       12.294350   0.000000
    7       13.541604   0.000000
    8       14.357389   0.000000
 
  0.4166667E+00  0.8333333E-01  0.8333333E-01  0.3703704E-01
    1        2.189930   1.000000
    2        2.736394   1.000000
    3        6.026543   1.000000
    4        6.119331   1.000000
    5        9.569995   0.001569
    6       11.332643   0.000000
    7       13.659674   0.000000
    8       14.482464   0.000000
 
 -0.8333333E-01  0.8333333E-01  0.8333333E-01  0.1851852E-01
    1       -4.450625   1.000000
    2        4.505873   1.000000
    3        5.692789   1.000000
    4        8.243954   1.000000
    5       11.434879   0.000000
    6       14.306246   0.000000
    7       17.500179   0.000000
    8       18.083244   0.000000
 
  0.2500000E+00  0.2500000E+00  0.8333333E-01  0.3703704E-01
    1        2.095066   1.000000
    2        3.993106   1.000000
    3        4.096187   1.000000
    4        5.847216   1.000000
    5       10.974744   0.000000
    6       12.183848   0.000000
    7       13.785534   0.000000
    8       14.294406   0.000000
 
  0.4166667E+00  0.2500000E+00  0.8333333E-01  0.7407407E-01
    1       -0.052998   1.000000
    2        1.848275   1.000000
    3        6.993770   1.000000
    4        8.301735   1.000000
    5        9.951750   0.000000
    6       11.764002   0.000000
    7       13.546518   0.000000
    8       15.193411   0.000000
 
 -0.4166667E+00  0.2500000E+00  0.8333333E-01  0.3703704E-01
    1       -2.683517   1.000000
    2        1.167881   1.000000
    3        8.015686   1.000000
    4        9.825308   0.000001
    5       11.430582   0.000000
    6       12.897683   0.000000
    7       14.070087   0.000000
    8       14.317055   0.000000
 
 -0.2500000E+00  0.2500000E+00  0.8333333E-01  0.3703704E-01
    1       -3.791071   1.000000
    2        1.944860   1.000000
    3        5.956965   1.000000
    4        9.827071   0.000001
    5       11.435531   0.000000
    6       14.463426   0.000000
    7       15.318800   0.000000
    8       18.890000   0.000000
 
 -0.8333333E-01  0.2500000E+00  0.8333333E-01  0.3703704E-01
    1       -3.339712   1.000000
    2        3.653288   1.000000
    3        5.174977   1.000000
    4       10.672328   0.000000
    5       11.793226   0.000000
    6       13.230023   0.000000
    7       13.983315   0.000000
    8       15.933543   0.000000
 
  0.4166667E+00  0.4166667E+00  0.8333333E-01  0.1851852E-01
    1       -1.060010   1.000000
    2       -1.060010   1.000000
    3        9.468565   0.012655
    4        9.468566   0.012654
    5       11.348823   0.000000
    6       11.348825   0.000000
    7       13.708073   0.000000
    8       13.708076   0.000000
 
 -0.4166667E+00  0.4166667E+00  0.8333333E-01  0.3703704E-01
    1       -2.481943   1.000000
    2       -0.548074   1.000000
    3        7.174029   1.000000
    4        9.016488   0.831476
    5       11.235715   0.000000
    6       13.065296   0.000000
    7       18.199471   0.000000
    8       18.521542   0.000000
 
 -0.2500000E+00  0.4166667E+00  0.8333333E-01  0.7407407E-01
    1       -2.360486   1.000000
    2        1.430088   1.000000
    3        5.568766   1.000000
    4        9.169094   0.452610
    5       11.358000   0.000000
    6       13.459175   0.000000
    7       15.520183   0.000000
    8       16.722401   0.000000
 
 -0.8333333E-01  0.4166667E+00  0.8333333E-01  0.3703704E-01
    1       -0.699536   1.000000
    2        4.263125   1.000000
    3        5.877188   1.000000
    4        6.471608   1.000000
    5       10.067274   0.000000
    6       12.292385   0.000000
    7       13.319114   0.000000
    8       15.382809   0.000000
 
 -0.4166667E+00 -0.4166667E+00  0.8333333E-01  0.3703704E-01
    1       -0.752651   1.000000
    2       -0.747803   1.000000
    3        7.054163   1.000000
    4        7.072989   1.000000
    5       11.265326   0.000000
    6       14.471921   0.000000
    7       15.272073   0.000000
    8       15.365835   0.000000
 
 -0.2500000E+00 -0.4166667E+00  0.8333333E-01  0.7407407E-01
    1        0.571018   1.000000
    2        2.407544   1.000000
    3        5.805230   1.000000
    4        6.555395   1.000000
    5        8.233234   1.000000
    6       11.829551   0.000000
    7       15.375586   0.000000
    8       16.965966   0.000000
 
 -0.8333333E-01 -0.4166667E+00  0.8333333E-01  0.3703704E-01
    1        1.472882   1.000000
    2        3.439343   1.000000
    3        6.375442   1.000000
    4        7.604321   1.000000
    5        8.190201   1.000000
    6       10.777434   0.000000
    7       11.628229   0.000000
    8       15.678117   0.000000
 
 -0.2500000E+00 -0.2500000E+00  0.8333333E-01  0.3703704E-01
    1        1.167608   1.000000
    2        4.883100   1.000000
    3        4.931406   1.000000
    4        7.730481   1.000000
    5        8.709683   0.999124
    6       10.264870   0.000000
    7       12.627604   0.000000
    8       13.473382   0.000000
 
 -0.8333333E-01 -0.2500000E+00  0.8333333E-01  0.3703704E-01
    1       -1.993663   1.000000
    2        6.711208   1.000000
    3        7.716826   1.000000
    4        8.484962   0.999999
    5        9.874160   0.000000
    6       11.128666   0.000000
    7       12.358940   0.000000
    8       13.534963   0.000000
 
 -0.8333333E-01 -0.8333333E-01  0.8333333E-01  0.9259259E-02
    1       -3.997654   1.000000
    2        6.752743   1.000000
    3        6.823271   1.000000
    4        6.823272   1.000000
    5       11.134338   0.000000
    6       14.496567   0.000000
    7       14.774038   0.000000
    8       16.711064   0.000000
 
  0.2500000E+00  0.2500000E+00  0.2500000E+00  0.9259259E-02
    1        3.398278   1.000000
    2        3.398278   1.000000
    3        4.059086   1.000000
    4        4.059087   1.000000
    5       13.206736   0.000000
    6       13.206738   0.000000
    7       15.022262   0.000000
    8       15.022276   0.000000
 
 -0.2500000E+00  0.2500000E+00  0.2500000E+00  0.1851852E-01
    1       -3.138256   1.000000
    2        1.929327   1.000000
    3        3.627115   1.000000
    4        8.537135   0.999993
    5       12.887087   0.000000
    6       16.015501   0.000000
    7       17.244812   0.000000
    8       18.273877   0.000000
 
 -0.4166667E+00  0.4166667E+00  0.2500000E+00  0.3703704E-01
    1       -1.847932   1.000000
    2        0.022701   1.000000
    3        4.268945   1.000000
    4        6.086062   1.000000
    5       14.726304   0.000000
    6       16.161928   0.000000
    7       17.817294   0.000000
    8       18.182395   0.000000
 
 -0.2500000E+00  0.4166667E+00  0.2500000E+00  0.3703704E-01
    1       -1.401442   1.000000
    2        1.712962   1.000000
    3        3.467258   1.000000
    4        6.498320   1.000000
    5       10.817719   0.000000
    6       16.468728   0.000000
    7       17.508629   0.000000
    8       18.360198   0.000000
 
 -0.4166667E+00 -0.4166667E+00  0.2500000E+00  0.3703704E-01
    1        0.134625   1.000000
    2        0.144929   1.000000
    3        4.391627   1.000000
    4        4.394375   1.000000
    5       10.557529   0.000000
    6       17.624221   0.000000
    7       18.221878   0.000000
    8       19.007307   0.000000
 
 -0.2500000E+00 -0.4166667E+00  0.2500000E+00  0.3703704E-01
    1        1.767332   1.000000
    2        2.986657   1.000000
    3        4.739561   1.000000
    4        5.249710   1.000000
    5        5.999256   1.000000
    6       13.949264   0.000000
    7       15.329255   0.000000
    8       17.236686   0.000000
 
 -0.2500000E+00 -0.2500000E+00  0.2500000E+00  0.9259259E-02
    1        0.852822   1.000000
    2        5.773289   1.000000
    3        5.865847   1.000000
    4        7.262912   1.000000
    5        7.262912   1.000000
    6       11.586747   0.000000
    7       12.246691   0.000000
    8       12.246696   0.000000
 
 -0.4166667E+00  0.4166667E+00  0.4166667E+00  0.1851852E-01
    1       -0.629526   1.000000
    2        0.616400   1.000000
    3        2.435203   1.000000
    4        3.663228   1.000000
    5       16.174438   0.000000
    6       16.383380   0.000000
    7       19.381965   0.000000
    8       20.484028   0.000000
 
 -0.4166667E+00 -0.4166667E+00  0.4166667E+00  0.9259259E-02
    1        1.048550   1.000000
    2        1.066155   1.000000
    3        2.865832   1.000000
    4        2.865832   1.000000
    5       10.283944   0.000000
    6       19.169753   0.000000
    7       20.303676   0.000000
    8       20.303678   0.000000
