    2    2   15    1
  0.1529437E+02  0.3691622E-09  0.3691622E-09  0.3691622E-09  0.5000000E-15
  1.000000000000000E-004
  CAR 
 unknown system                          
      8     28      8
 
  0.8333333E-01  0.8333333E-01  0.8333333E-01  0.3703704E-01
    1       -3.659593   1.000000
    2        3.946596   1.000000
    3        7.157638   1.000000
    4        8.679949   0.999863
    5       12.834227   0.000000
    6       13.729042   0.000000
    7       13.945223   0.000000
    8       15.812196   0.000000
 
  0.2500000E+00  0.8333333E-01  0.8333333E-01  0.7407407E-01
    1       -1.337865   1.000000
    2        4.307887   1.000000
    3        7.490951   1.000000
    4        7.991305   1.000000
    5        9.736979   0.000063
    6       12.340837   0.000000
    7       13.567012   0.000000
    8       14.392248   0.000000
 
  0.4166667E+00  0.8333333E-01  0.8333333E-01  0.3703704E-01
    1        2.186270   1.000000
    2        2.741162   1.000000
    3        6.036833   1.000000
    4        6.142733   1.000000
    5        9.590405   0.002559
    6       11.352944   0.000000
    7       13.697122   0.000000
    8       14.515993   0.000000
 
 -0.8333333E-01  0.8333333E-01  0.8333333E-01  0.1851852E-01
    1       -4.441210   1.000000
    2        4.555049   1.000000
    3        5.724839   1.000000
    4        8.302917   1.000000
    5       11.467869   0.000000
    6       14.362196   0.000000
    7       17.575355   0.000000
    8       18.121062   0.000000
 
  0.2500000E+00  0.2500000E+00  0.8333333E-01  0.3703704E-01
    1        2.092880   1.000000
    2        3.998544   1.000000
    3        4.105545   1.000000
    4        5.863557   1.000000
    5       10.999356   0.000000
    6       12.210585   0.000000
    7       13.818370   0.000000
    8       14.336829   0.000000
 
  0.4166667E+00  0.2500000E+00  0.8333333E-01  0.7407407E-01
    1       -0.043098   1.000000
    2        1.865238   1.000000
    3        6.988124   1.000000
    4        8.311859   1.000000
    5        9.982463   0.000000
    6       11.802096   0.000000
    7       13.597123   0.000000
    8       15.244942   0.000000
 
 -0.4166667E+00  0.2500000E+00  0.8333333E-01  0.3703704E-01
    1       -2.671603   1.000000
    2        1.194173   1.000000
    3        8.051829   1.000000
    4        9.878116   0.000001
    5       11.465219   0.000000
    6       12.925419   0.000000
    7       14.076400   0.000000
    8       14.343278   0.000000
 
 -0.2500000E+00  0.2500000E+00  0.8333333E-01  0.3703704E-01
    1       -3.779278   1.000000
    2        1.979049   1.000000
    3        5.993362   1.000000
    4        9.885380   0.000001
    5       11.487173   0.000000
    6       14.511159   0.000000
    7       15.383347   0.000000
    8       18.873760   0.000000
 
 -0.8333333E-01  0.2500000E+00  0.8333333E-01  0.3703704E-01
    1       -3.330149   1.000000
    2        3.695930   1.000000
    3        5.199327   1.000000
    4       10.718241   0.000000
    5       11.841636   0.000000
    6       13.235305   0.000000
    7       14.019885   0.000000
    8       15.943935   0.000000
 
  0.4166667E+00  0.4166667E+00  0.8333333E-01  0.1851852E-01
    1       -1.042164   1.000000
    2       -1.042164   1.000000
    3        9.505514   0.013931
    4        9.505514   0.013930
    5       11.402516   0.000000
    6       11.402518   0.000000
    7       13.705617   0.000000
    8       13.705620   0.000000
 
 -0.4166667E+00  0.4166667E+00  0.8333333E-01  0.3703704E-01
    1       -2.465377   1.000000
    2       -0.524233   1.000000
    3        7.214575   1.000000
    4        9.062162   0.825296
    5       11.294596   0.000000
    6       13.127200   0.000000
    7       18.198134   0.000000
    8       18.494914   0.000000
 
 -0.2500000E+00  0.4166667E+00  0.8333333E-01  0.7407407E-01
    1       -2.347323   1.000000
    2        1.458688   1.000000
    3        5.599821   1.000000
    4        9.210716   0.454340
    5       11.360030   0.000000
    6       13.506705   0.000000
    7       15.520620   0.000000
    8       16.786734   0.000000
 
 -0.8333333E-01  0.4166667E+00  0.8333333E-01  0.3703704E-01
    1       -0.691923   1.000000
    2        4.295265   1.000000
    3        5.891717   1.000000
    4        6.465927   1.000000
    5       10.095894   0.000000
    6       12.324718   0.000000
    7       13.319848   0.000000
    8       15.444537   0.000000
 
 -0.4166667E+00 -0.4166667E+00  0.8333333E-01  0.3703704E-01
    1       -0.733417   1.000000
    2       -0.728462   1.000000
    3        7.090938   1.000000
    4        7.109465   1.000000
    5       11.254148   0.000000
    6       14.536630   0.000000
    7       15.331506   0.000000
    8       15.361717   0.000000
 
 -0.2500000E+00 -0.4166667E+00  0.8333333E-01  0.7407407E-01
    1        0.583484   1.000000
    2        2.427919   1.000000
    3        5.795101   1.000000
    4        6.578671   1.000000
    5        8.263404   1.000000
    6       11.845332   0.000000
    7       15.395582   0.000000
    8       17.020838   0.000000
 
 -0.8333333E-01 -0.4166667E+00  0.8333333E-01  0.3703704E-01
    1        1.468832   1.000000
    2        3.444971   1.000000
    3        6.402139   1.000000
    4        7.608002   1.000000
    5        8.218334   1.000000
    6       10.792557   0.000000
    7       11.656929   0.000000
    8       15.729946   0.000000
 
 -0.2500000E+00 -0.2500000E+00  0.8333333E-01  0.3703704E-01
    1        1.162726   1.000000
    2        4.894905   1.000000
    3        4.944751   1.000000
    4        7.749812   1.000000
    5        8.725016   0.999549
    6       10.289268   0.000000
    7       12.655619   0.000000
    8       13.515611   0.000000
 
 -0.8333333E-01 -0.2500000E+00  0.8333333E-01  0.3703704E-01
    1       -1.990761   1.000000
    2        6.750652   1.000000
    3        7.737792   1.000000
    4        8.496582   1.000000
    5        9.892138   0.000000
    6       11.169161   0.000000
    7       12.360048   0.000000
    8       13.546917   0.000000
 
 -0.8333333E-01 -0.8333333E-01  0.8333333E-01  0.9259259E-02
    1       -3.990466   1.000000
    2        6.822134   1.000000
    3        6.857365   1.000000
    4        6.857365   1.000000
    5       11.160267   0.000000
    6       14.504356   0.000000
    7       14.774364   0.000000
    8       16.729004   0.000000
 
  0.2500000E+00  0.2500000E+00  0.2500000E+00  0.9259259E-02
    1        3.397506   1.000000
    2        3.397507   1.000000
    3        4.071706   1.000000
    4        4.071707   1.000000
    5       13.238485   0.000000
    6       13.238487   0.000000
    7       15.063179   0.000000
    8       15.063181   0.000000
 
 -0.2500000E+00  0.2500000E+00  0.2500000E+00  0.1851852E-01
    1       -3.124016   1.000000
    2        1.970109   1.000000
    3        3.649144   1.000000
    4        8.582427   0.999992
    5       12.953040   0.000000
    6       16.064666   0.000000
    7       17.228786   0.000000
    8       18.247148   0.000000
 
 -0.4166667E+00  0.4166667E+00  0.2500000E+00  0.3703704E-01
    1       -1.828665   1.000000
    2        0.050325   1.000000
    3        4.299303   1.000000
    4        6.123781   1.000000
    5       14.779262   0.000000
    6       16.180888   0.000000
    7       17.805411   0.000000
    8       18.206980   0.000000
 
 -0.2500000E+00  0.4166667E+00  0.2500000E+00  0.3703704E-01
    1       -1.384418   1.000000
    2        1.749311   1.000000
    3        3.484690   1.000000
    4        6.533458   1.000000
    5       10.798038   0.000000
    6       16.538893   0.000000
    7       17.526866   0.000000
    8       18.382049   0.000000
 
 -0.4166667E+00 -0.4166667E+00  0.2500000E+00  0.3703704E-01
    1        0.158780   1.000000
    2        0.169330   1.000000
    3        4.418408   1.000000
    4        4.421472   1.000000
    5       10.535171   0.000000
    6       17.638842   0.000000
    7       18.288229   0.000000
    8       19.085587   0.000000
 
 -0.2500000E+00 -0.4166667E+00  0.2500000E+00  0.3703704E-01
    1        1.785501   1.000000
    2        3.014602   1.000000
    3        4.750113   1.000000
    4        5.239818   1.000000
    5        6.020927   1.000000
    6       13.979681   0.000000
    7       15.340416   0.000000
    8       17.274125   0.000000
 
 -0.2500000E+00 -0.2500000E+00  0.2500000E+00  0.9259259E-02
    1        0.846929   1.000000
    2        5.796760   1.000000
    3        5.890540   1.000000
    4        7.265045   1.000000
    5        7.265045   1.000000
    6       11.642642   0.000000
    7       12.273298   0.000000
    8       12.273302   0.000000
 
 -0.4166667E+00  0.4166667E+00  0.4166667E+00  0.1851852E-01
    1       -0.604074   1.000000
    2        0.652848   1.000000
    3        2.452713   1.000000
    4        3.691428   1.000000
    5       16.154186   0.000000
    6       16.351251   0.000000
    7       19.454135   0.000000
    8       20.574599   0.000000
 
 -0.4166667E+00 -0.4166667E+00  0.4166667E+00  0.9259259E-02
    1        1.082448   1.000000
    2        1.100603   1.000000
    3        2.881077   1.000000
    4        2.881077   1.000000
    5       10.259493   0.000000
    6       19.207868   0.000000
    7       20.338059   0.000000
    8       20.338064   0.000000
