       N       E                     dE             d eps       ncg     rms          rms(c)
DAV:   1    -0.102961540794E+02   -0.10296E+02   -0.30541E-06   280   0.175E-02    0.460E-04
DAV:   2    -0.102961541007E+02   -0.21262E-07   -0.24492E-07   256   0.462E-03
   1 F= -.10296154E+02 E0= -.10290469E+02  d E =-.102962E+02
