 running on    8 total cores
 distrk:  each k-point on    8 cores,    1 groups
 distr:  one band on    1 cores,    8 groups
 using from now: INCAR     
 vasp.5.4.4.18Apr17-6-g9f103f2a35 (build Dec 09 2018 21:25:21) complex          
  
 POSCAR found type information on POSCAR  Si
 POSCAR found :  1 types and       2 ions
 scaLAPACK will be used

 ----------------------------------------------------------------------------- 
|                                                                             |
|           W    W    AA    RRRRR   N    N  II  N    N   GGGG   !!!           |
|           W    W   A  A   R    R  NN   N  II  NN   N  G    G  !!!           |
|           W    W  A    A  R    R  N N  N  II  N N  N  G       !!!           |
|           W WW W  AAAAAA  RRRRR   N  N N  II  N  N N  G  GGG   !            |
|           WW  WW  A    A  R   R   N   NN  II  N   NN  G    G                |
|           W    W  A    A  R    R  N    N  II  N    N   GGGG   !!!           |
|                                                                             |
|      For optimal performance we recommend to set                            |
|        NCORE= 4 - approx SQRT( number of cores)                             |
|      NCORE specifies how many cores store one orbital (NPAR=cpu/NCORE).     |
|      This setting can  greatly improve the performance of VASP for DFT.     |
|      The default,   NCORE=1            might be grossly inefficient         |
|      on modern multi-core architectures or massively parallel machines.     |
|      Do your own testing !!!!                                               |
|      Unfortunately you need to use the default for GW and RPA calculations. |
|      (for HF NCORE is supported but not extensively tested yet)             |
|                                                                             |
 ----------------------------------------------------------------------------- 

 LDA part: xc-table for Pade appr. of Perdew
 POSCAR, INCAR and KPOINTS ok, starting setup
 FFT: planning ...
 WAVECAR not read
 entering main loop
       N       E                     dE             d eps       ncg     rms          rms(c)
DAV:   1     0.205405349286E+01    0.20541E+01   -0.27605E+03   448   0.574E+02
DAV:   2    -0.101312290237E+02   -0.12185E+02   -0.11801E+02   640   0.672E+01
DAV:   3    -0.103039432434E+02   -0.17271E+00   -0.17235E+00   608   0.954E+00
DAV:   4    -0.103044487136E+02   -0.50547E-03   -0.50546E-03   672   0.479E-01
DAV:   5    -0.103044503906E+02   -0.16770E-05   -0.16767E-05   616   0.136E-02    0.152E+00
DAV:   6    -0.102999680676E+02    0.44823E-02   -0.18082E-03   528   0.330E-01    0.949E-01
DAV:   7    -0.102961668735E+02    0.38012E-02   -0.53495E-03   520   0.581E-01    0.332E-02
DAV:   8    -0.102961535394E+02    0.13334E-04   -0.77708E-05   304   0.773E-02
   1 F= -.10296154E+02 E0= -.10290469E+02  d E =-.102962E+02
 curvature:   0.00 expect dE= 0.000E+00 dE for cont linesearch  0.000E+00
 trial: gam= 0.00000 g(F)=  0.369E-49 g(S)=  0.000E+00 ort = 0.000E+00 (trialstep = 0.100E+01)
 search vector abs. value=  0.100E-09
 reached required accuracy - stopping structural energy minimisation
 writing wavefunctions
