 running on    8 total cores
 distrk:  each k-point on    8 cores,    1 groups
 distr:  one band on    1 cores,    8 groups
 using from now: INCAR     
 vasp.5.4.4.18Apr17-6-g9f103f2a35 (build Dec 09 2018 21:25:21) complex          
  
 POSCAR found type information on POSCAR  Si
 POSCAR found :  1 types and       2 ions
 scaLAPACK will be used

 ----------------------------------------------------------------------------- 
|                                                                             |
|           W    W    AA    RRRRR   N    N  II  N    N   GGGG   !!!           |
|           W    W   A  A   R    R  NN   N  II  NN   N  G    G  !!!           |
|           W    W  A    A  R    R  N N  N  II  N N  N  G       !!!           |
|           W WW W  AAAAAA  RRRRR   N  N N  II  N  N N  G  GGG   !            |
|           WW  WW  A    A  R   R   N   NN  II  N   NN  G    G                |
|           W    W  A    A  R    R  N    N  II  N    N   GGGG   !!!           |
|                                                                             |
|      For optimal performance we recommend to set                            |
|        NCORE= 4 - approx SQRT( number of cores)                             |
|      NCORE specifies how many cores store one orbital (NPAR=cpu/NCORE).     |
|      This setting can  greatly improve the performance of VASP for DFT.     |
|      The default,   NCORE=1            might be grossly inefficient         |
|      on modern multi-core architectures or massively parallel machines.     |
|      Do your own testing !!!!                                               |
|      Unfortunately you need to use the default for GW and RPA calculations. |
|      (for HF NCORE is supported but not extensively tested yet)             |
|                                                                             |
 ----------------------------------------------------------------------------- 

 LDA part: xc-table for Pade appr. of Perdew
 POSCAR, INCAR and KPOINTS ok, starting setup
 FFT: planning ...
 WAVECAR not read
 entering main loop
       N       E                     dE             d eps       ncg     rms          rms(c)
DAV:   1     0.178269875264E+01    0.17827E+01   -0.25294E+03  1808   0.519E+02
DAV:   2    -0.108774212532E+02   -0.12660E+02   -0.12017E+02  2800   0.660E+01
DAV:   3    -0.110175933202E+02   -0.14017E+00   -0.14017E+00  2120   0.889E+00
DAV:   4    -0.110181682066E+02   -0.57489E-03   -0.57489E-03  2904   0.603E-01
DAV:   5    -0.110181687112E+02   -0.50462E-06   -0.50416E-06  2200   0.128E-02    0.301E+00
DAV:   6    -0.108937231328E+02    0.12445E+00   -0.82329E-02  2136   0.149E+00    0.178E+00
DAV:   7    -0.108368908691E+02    0.56832E-01   -0.15110E-01  2232   0.215E+00    0.154E-01
DAV:   8    -0.108381981903E+02   -0.13073E-02   -0.40570E-03  2048   0.473E-01    0.250E-02
DAV:   9    -0.108382905626E+02   -0.92372E-04   -0.94323E-05  1384   0.788E-02
   1 F= -.10838291E+02 E0= -.10838261E+02  d E =-.108383E+02
 curvature:   0.00 expect dE= 0.000E+00 dE for cont linesearch  0.000E+00
 trial: gam= 0.00000 g(F)=  0.592E-45 g(S)=  0.162E-01 ort = 0.000E+00 (trialstep = 0.100E+01)
 search vector abs. value=  0.162E-01
 bond charge predicted
       N       E                     dE             d eps       ncg     rms          rms(c)
DAV:   1    -0.108470435350E+02   -0.88453E-02   -0.24563E-01  2216   0.276E+00    0.314E-01
DAV:   2    -0.108428807110E+02    0.41628E-02   -0.34491E-03  2360   0.382E-01    0.180E-01
DAV:   3    -0.108406991413E+02    0.21816E-02   -0.44319E-03  2200   0.335E-01    0.226E-02
DAV:   4    -0.108406885024E+02    0.10639E-04   -0.48072E-05   992   0.621E-02
   2 F= -.10840689E+02 E0= -.10840672E+02  d E =-.239794E-02
 trial-energy change:   -0.002398  1 .order   -0.002747   -0.016151    0.010656
 step:   0.6025(harm=  0.6025)  dis= 0.00000  next Energy=   -10.843156 (dE=-0.487E-02)
 bond charge predicted
       N       E                     dE             d eps       ncg     rms          rms(c)
DAV:   1    -0.108439154542E+02   -0.32163E-02   -0.39745E-02  2184   0.112E+00    0.127E-01
DAV:   2    -0.108432485789E+02    0.66688E-03   -0.54945E-04  2240   0.152E-01    0.729E-02
DAV:   3    -0.108429068806E+02    0.34170E-03   -0.69909E-04  1304   0.135E-01
   3 F= -.10842907E+02 E0= -.10842886E+02  d E =-.461632E-02
 curvature:  -0.30 expect dE=-0.394E-05 dE for cont linesearch -0.394E-05
 trial: gam= 0.00000 g(F)=  0.197E-44 g(S)=  0.131E-04 ort =-0.459E-03 (trialstep = 0.920E+00)
 search vector abs. value=  0.131E-04
 reached required accuracy - stopping structural energy minimisation
 writing wavefunctions
