unknown system                          
   1.00000000000000     
     0.000000    2.715000    2.715000
     2.715000    0.000000    2.715000
     2.715000    2.715000    0.000000
   Si
     2
Direct
  0.500000  0.500000  0.500000
  0.750000  0.750000  0.750000
 
   32   32   32
 0.88298140259E+00 0.90341491009E+00 0.96656168236E+00 0.10775630610E+01 0.12439356185E+01
 0.14745329054E+01 0.17785924402E+01 0.21645013252E+01 0.26375166445E+01 0.31960020239E+01
 0.38268255470E+01 0.45016872701E+01 0.51764090851E+01 0.57944198028E+01 0.62943707187E+01
 0.66205841652E+01 0.67339912514E+01 0.66205363028E+01 0.62943249854E+01 0.57944244166E+01
 0.51764664301E+01 0.45017607898E+01 0.38268776347E+01 0.31960187733E+01 0.26375053133E+01
 0.21644766739E+01 0.17785673416E+01 0.14745151067E+01 0.12439276920E+01 0.10775636341E+01
 0.96656684639E+00 0.90341947277E+00 0.90341491009E+00 0.93839824104E+00 0.10114662861E+01
 0.11281252012E+01 0.12952201007E+01 0.15198642779E+01 0.18084499261E+01 0.21654067165E+01
 0.25911902740E+01 0.30793371683E+01 0.36132446678E+01 0.41641059568E+01 0.46915544778E+01
 0.51478548181E+01 0.54852528834E+01 0.56648883327E+01 0.56648938444E+01 0.54852533446E+01
 0.51478299876E+01 0.46915195864E+01 0.41640988055E+01 0.36132746343E+01 0.30793690413E+01
 0.25911863108E+01 0.21653700082E+01 0.18084154138E+01 0.15198568367E+01 0.12952345073E+01
 0.11281428367E+01 0.10114771067E+01 0.93840295104E+00 0.90341622081E+00 0.96656168236E+00
 0.10114662861E+01 0.10905039987E+01 0.12089402828E+01 0.13724773207E+01 0.15862668572E+01
 0.18540080343E+01 0.21768204025E+01 0.25515657398E+01 0.29686527429E+01 0.34099577045E+01
 0.38480005022E+01 0.42475280676E+01 0.45699732744E+01 0.47801037753E+01 0.48531265512E+01
 0.47801071750E+01 0.45699871734E+01 0.42475539230E+01 0.38480244606E+01 0.34099599568E+01
 0.29686287256E+01 0.25515311413E+01 0.21767918598E+01 0.18539880855E+01 0.15862537387E+01
 0.13724770210E+01 0.12089558152E+01 0.10905220219E+01 0.10114708451E+01 0.96655640933E+00
 0.95204253955E+00 0.10775630610E+01 0.11281252012E+01 0.12089402828E+01 0.13246102728E+01
 0.14795198517E+01 0.16770160866E+01 0.19186289656E+01 0.22030752474E+01 0.25248760194E+01
 0.28727638666E+01 0.32285108259E+01 0.35670944326E+01 0.38589446792E+01 0.40743122132E+01
 0.41888557879E+01 0.41888458662E+01 0.40742961189E+01 0.38589492451E+01 0.35671276492E+01
 0.32285437537E+01 0.28727553233E+01 0.25248193407E+01 0.22030092290E+01 0.19185962602E+01
 0.16770225033E+01 0.14795416857E+01 0.13246271474E+01 0.12089475910E+01 0.11281249173E+01
 0.10775586585E+01 0.10533852813E+01 0.10533879217E+01 0.12439356185E+01 0.12952201007E+01
 0.13724773207E+01 0.14795198517E+01 0.16195817165E+01 0.17946790441E+01 0.20048939809E+01
 0.22474288930E+01 0.25154584670E+01 0.27970864875E+01 0.30749803236E+01 0.33273199786E+01
 0.35303922383E+01 0.36625297224E+01 0.37084308768E+01 0.36625481320E+01 0.35303958308E+01
 0.33272879585E+01 0.30749300667E+01 0.27970472284E+01 0.25154365870E+01 0.22474122983E+01
 0.20048795079E+01 0.17946788074E+01 0.16196034806E+01 0.14795530215E+01 0.13725020592E+01
 0.12952252887E+01 0.12439260841E+01 0.12149541210E+01 0.12056312115E+01 0.12149644367E+01
 0.14745329054E+01 0.15198642779E+01 0.15862668572E+01 0.16770160866E+01 0.17946790441E+01
 0.19405640050E+01 0.21139688575E+01 0.23112358966E+01 0.25248749315E+01 0.27431381152E+01
 0.29504071655E+01 0.31286461099E+01 0.32599373760E+01 0.33296963730E+01 0.33297053193E+01
 0.32599584307E+01 0.31286588945E+01 0.29503853389E+01 0.27430803817E+01 0.25248200812E+01
 0.23112282478E+01 0.21140100367E+01 0.19406142921E+01 0.17947051557E+01 0.16770208729E+01
 0.15862693152E+01 0.15198684868E+01 0.14745293487E+01 0.14468178766E+01 0.14338169366E+01
 0.14338238450E+01 0.14468298463E+01 0.17785924402E+01 0.18084499261E+01 0.18540080343E+01
 0.19186289656E+01 0.20048939809E+01 0.21139688575E+01 0.22447769434E+01 0.23931826080E+01
 0.25515649455E+01 0.27090574835E+01 0.28524993724E+01 0.29680294595E+01 0.30432038155E+01
 0.30693055720E+01 0.30431996381E+01 0.29680361845E+01 0.28525223977E+01 0.27090843134E+01
 0.25515838354E+01 0.23931950406E+01 0.22447890961E+01 0.21139828104E+01 0.20049077852E+01
 0.19186349511E+01 0.18539946013E+01 0.18084176128E+01 0.17785629065E+01 0.17607994046E+01
 0.17517621550E+01 0.17490369877E+01 0.17517543901E+01 0.17608061604E+01 0.21645013252E+01
 0.21654067165E+01 0.21768204025E+01 0.22030752474E+01 0.22474288930E+01 0.23112358966E+01
 0.23931826080E+01 0.24889013323E+01 0.25911896475E+01 0.26908021878E+01 0.27776145945E+01
 0.28420008325E+01 0.28763256674E+01 0.28763312291E+01 0.28420118759E+01 0.27776231734E+01
 0.26908133278E+01 0.25912182922E+01 0.24889460118E+01 0.23932113440E+01 0.23112163475E+01
 0.22473695385E+01 0.22030166233E+01 0.21767857527E+01 0.21653847763E+01 0.21644804323E+01
 0.21694000171E+01 0.21757104262E+01 0.21798588167E+01 0.21798524764E+01 0.21757043247E+01
 0.21694103812E+01 0.26375166445E+01 0.25911902740E+01 0.25515657398E+01 0.25248760194E+01
 0.25154584670E+01 0.25248749315E+01 0.25515649455E+01 0.25911896475E+01 0.26375145959E+01
 0.26834923984E+01 0.27222808281E+01 0.27481378581E+01 0.27572141088E+01 0.27481520653E+01
 0.27223082263E+01 0.26835181999E+01 0.26375148317E+01 0.25911563149E+01 0.25515158005E+01
 0.25248302866E+01 0.25154172916E+01 0.25248255641E+01 0.25515086951E+01 0.25911483990E+01
 0.26375065034E+01 0.26835110730E+01 0.27223047010E+01 0.27481522391E+01 0.27572158798E+01
 0.27481401636E+01 0.27222840783E+01 0.26834959031E+01 0.31960020239E+01 0.30793371683E+01
 0.29686527429E+01 0.28727638666E+01 0.27970864875E+01 0.27431381152E+01 0.27090574835E+01
 0.26908021878E+01 0.26834923984E+01 0.26824839410E+01 0.26840065632E+01 0.26854455226E+01
 0.26854564993E+01 0.26840316939E+01 0.26825092639E+01 0.26835044664E+01 0.26907795018E+01
 0.27089811895E+01 0.27430284538E+01 0.27970033714E+01 0.28727471316E+01 0.29686784374E+01
 0.30793549338E+01 0.31959986222E+01 0.33078171319E+01 0.34036893611E+01 0.34737664180E+01
 0.35107402104E+01 0.35107266622E+01 0.34737364377E+01 0.34036671625E+01 0.33078162668E+01
 0.38268255470E+01 0.36132446678E+01 0.34099577045E+01 0.32285108259E+01 0.30749803236E+01
 0.29504071655E+01 0.28524993724E+01 0.27776145945E+01 0.27222808281E+01 0.26840065632E+01
 0.26614208405E+01 0.26539563994E+01 0.26614524489E+01 0.26840233912E+01 0.27222601789E+01
 0.27775765439E+01 0.28524569313E+01 0.29503520261E+01 0.30749235285E+01 0.32284862590E+01
 0.34099754582E+01 0.36132829629E+01 0.38268705451E+01 0.40350234731E+01 0.42202967177E+01
 0.43662248595E+01 0.44595341782E+01 0.44916407591E+01 0.44595530768E+01 0.43662232298E+01
 0.42202584916E+01 0.40349724503E+01 0.45016872701E+01 0.41641059568E+01 0.38480005022E+01
 0.35670944326E+01 0.33273199786E+01 0.31286461099E+01 0.29680294595E+01 0.28420008325E+01
 0.27481378581E+01 0.26854455226E+01 0.26539563994E+01 0.26539677945E+01 0.26854612940E+01
 0.27481262876E+01 0.28419514180E+01 0.29679570175E+01 0.31285805893E+01 0.33272958340E+01
 0.35671217267E+01 0.38480421044E+01 0.41641185919E+01 0.45016851219E+01 0.48397822886E+01
 0.51529198412E+01 0.54151124459E+01 0.56037529106E+01 0.57024062724E+01 0.57024390651E+01
 0.56037997958E+01 0.54151009167E+01 0.51528657432E+01 0.48397518857E+01 0.51764090851E+01
 0.46915544778E+01 0.42475280676E+01 0.38589446792E+01 0.35303922383E+01 0.32599373760E+01
 0.30432038155E+01 0.28763256674E+01 0.27572141088E+01 0.26854564993E+01 0.26614524489E+01
 0.26854612940E+01 0.27572032908E+01 0.28762845882E+01 0.30431406948E+01 0.32598725226E+01
 0.35303420847E+01 0.38589223446E+01 0.42475457877E+01 0.46916083412E+01 0.51764645879E+01
 0.56765049154E+01 0.61576173936E+01 0.65821411876E+01 0.69145306326E+01 0.71262045393E+01
 0.71988579696E+01 0.71262227856E+01 0.69145781593E+01 0.65822073729E+01 0.61576610961E+01
 0.56764928702E+01 0.57944198028E+01 0.51478548181E+01 0.45699732744E+01 0.40743122132E+01
 0.36625297224E+01 0.33296963730E+01 0.30693055720E+01 0.28763312291E+01 0.27481520653E+01
 0.26840316939E+01 0.26840233912E+01 0.27481262876E+01 0.28762845882E+01 0.30692406694E+01
 0.33296335121E+01 0.36624914976E+01 0.40742960356E+01 0.45699651481E+01 0.51478669857E+01
 0.57944717292E+01 0.64813487308E+01 0.71664728592E+01 0.77995590824E+01 0.83293443519E+01
 0.87106636086E+01 0.89101514695E+01 0.89101585434E+01 0.87107063315E+01 0.83294332361E+01
 0.77996369808E+01 0.71664744444E+01 0.64812889432E+01 0.62943707187E+01 0.54852528834E+01
 0.47801037753E+01 0.41888557879E+01 0.37084308768E+01 0.33297053193E+01 0.30431996381E+01
 0.28420118759E+01 0.27223082263E+01 0.26825092639E+01 0.27222601789E+01 0.28419514180E+01
 0.30431406948E+01 0.33296335121E+01 0.37083594286E+01 0.41888342966E+01 0.47801496856E+01
 0.54853168682E+01 0.62943946250E+01 0.71792883898E+01 0.80929826273E+01 0.89739394448E+01
 0.97540358952E+01 0.10367617169E+02 0.10760066325E+02 0.10895118697E+02 0.10760050442E+02
 0.10367594435E+02 0.97540194698E+01 0.89739425932E+01 0.80930067940E+01 0.71793074479E+01
 0.66205841652E+01 0.56648883327E+01 0.48531265512E+01 0.41888458662E+01 0.36625481320E+01
 0.32599584307E+01 0.29680361845E+01 0.27776231734E+01 0.26835181999E+01 0.26835044664E+01
 0.27775765439E+01 0.29679570175E+01 0.32598725226E+01 0.36624914976E+01 0.41888342966E+01
 0.48531518369E+01 0.56649357707E+01 0.66206332203E+01 0.76962220838E+01 0.88441245317E+01
 0.99958312154E+01 0.11068880884E+02 0.11976013633E+02 0.12635594617E+02 0.12983246057E+02
 0.12983165198E+02 0.12635422820E+02 0.11975888417E+02 0.11068870319E+02 0.99958882934E+01
 0.88441629541E+01 0.76962056664E+01 0.67339912514E+01 0.56648938444E+01 0.47801071750E+01
 0.40742961189E+01 0.35303958308E+01 0.31286588945E+01 0.28525223977E+01 0.26908133278E+01
 0.26375148317E+01 0.26907795018E+01 0.28524569313E+01 0.31285805893E+01 0.35303420847E+01
 0.40742960356E+01 0.47801496856E+01 0.56649357707E+01 0.67340019376E+01 0.79716106400E+01
 0.93351689120E+01 0.10755455674E+02 0.12141722324E+02 0.13388989138E+02 0.14387286235E+02
 0.15034972539E+02 0.15259210135E+02 0.15034863431E+02 0.14387138379E+02 0.13388872823E+02
 0.12141659145E+02 0.10755434503E+02 0.93351748278E+01 0.79716225830E+01 0.66205363028E+01
 0.54852533446E+01 0.45699871734E+01 0.38589492451E+01 0.33272879585E+01 0.29503853389E+01
 0.27090843134E+01 0.25912182922E+01 0.25911563149E+01 0.27089811895E+01 0.29503520261E+01
 0.33272958340E+01 0.38589223446E+01 0.45699651481E+01 0.54853168682E+01 0.66206332203E+01
 0.79716106400E+01 0.95060088170E+01 0.11161318334E+02 0.12847312816E+02 0.14450115194E+02
 0.15834519930E+02 0.16851933586E+02 0.17389662747E+02 0.17389677966E+02 0.16851918397E+02
 0.15834380065E+02 0.14449878505E+02 0.12847139174E+02 0.11161314492E+02 0.95060862261E+01
 0.79716071706E+01 0.62943249854E+01 0.51478299876E+01 0.42475539230E+01 0.35671276492E+01
 0.30749300667E+01 0.27430803817E+01 0.25515838354E+01 0.24889460118E+01 0.25515158005E+01
 0.27430284538E+01 0.30749235285E+01 0.35671217267E+01 0.42475457877E+01 0.51478669857E+01
 0.62943946250E+01 0.76962220838E+01 0.93351689120E+01 0.11161318334E+02 0.13093715703E+02
 0.15021490802E+02 0.16791327699E+02 0.18213826372E+02 0.19134211613E+02 0.19452591221E+02
 0.19134128389E+02 0.18213725931E+02 0.16791230548E+02 0.15021369100E+02 0.13093594973E+02
 0.11161261963E+02 0.93351609874E+01 0.76961860010E+01 0.57944244166E+01 0.46915195864E+01
 0.38480244606E+01 0.32285437537E+01 0.27970472284E+01 0.25248200812E+01 0.23931950406E+01
 0.23932113440E+01 0.25248302866E+01 0.27970033714E+01 0.32284862590E+01 0.38480421044E+01
 0.46916083412E+01 0.57944717292E+01 0.71792883898E+01 0.88441245317E+01 0.10755455674E+02
 0.12847312816E+02 0.15021490802E+02 0.17125865012E+02 0.18944210001E+02 0.20281719239E+02
 0.20991195727E+02 0.20991105180E+02 0.20281584479E+02 0.18944217573E+02 0.17125950668E+02
 0.15021449477E+02 0.12847128267E+02 0.10755317045E+02 0.88441313876E+01 0.71793285844E+01
 0.51764664301E+01 0.41640988055E+01 0.34099599568E+01 0.28727553233E+01 0.25154365870E+01
 0.23112282478E+01 0.22447890961E+01 0.23112163475E+01 0.25154172916E+01 0.28727471316E+01
 0.34099754582E+01 0.41641185919E+01 0.51764645879E+01 0.64813487308E+01 0.80929826273E+01
 0.99958312154E+01 0.12141722324E+02 0.14450115194E+02 0.16791327699E+02 0.18944210001E+02
 0.20682403844E+02 0.21815545354E+02 0.22209719723E+02 0.21815591995E+02 0.20682440141E+02
 0.18944197066E+02 0.16791278083E+02 0.14450050965E+02 0.12141653195E+02 0.99957762509E+01
 0.80929649081E+01 0.64813595712E+01 0.45017607898E+01 0.36132746343E+01 0.29686287256E+01
 0.25248193407E+01 0.22474122983E+01 0.21140100367E+01 0.21139828104E+01 0.22473695385E+01
 0.25248255641E+01 0.29686784374E+01 0.36132829629E+01 0.45016851219E+01 0.56765049154E+01
 0.71664728592E+01 0.89739394448E+01 0.11068880884E+02 0.13388989138E+02 0.15834519930E+02
 0.18213826372E+02 0.20281719239E+02 0.21815545354E+02 0.22635080978E+02 0.22635151227E+02
 0.21815635165E+02 0.20281665123E+02 0.18213682723E+02 0.15834453116E+02 0.13389009166E+02
 0.11068866465E+02 0.89738689507E+01 0.71664548737E+01 0.56765821761E+01 0.38268776347E+01
 0.30793690413E+01 0.25515311413E+01 0.22030092290E+01 0.20048795079E+01 0.19406142921E+01
 0.20049077852E+01 0.22030166233E+01 0.25515086951E+01 0.30793549338E+01 0.38268705451E+01
 0.48397822886E+01 0.61576173936E+01 0.77995590824E+01 0.97540358952E+01 0.11976013633E+02
 0.14387286235E+02 0.16851933586E+02 0.19134211613E+02 0.20991195727E+02 0.22209719723E+02
 0.22635151227E+02 0.22209739687E+02 0.20991210421E+02 0.19134204580E+02 0.16851901120E+02
 0.14387221246E+02 0.11975933181E+02 0.97540012193E+01 0.77996081488E+01 0.61577032131E+01
 0.48398297784E+01 0.31960187733E+01 0.25911863108E+01 0.21767918598E+01 0.19185962602E+01
 0.17946788074E+01 0.17947051557E+01 0.19186349511E+01 0.21767857527E+01 0.25911483990E+01
 0.31959986222E+01 0.40350234731E+01 0.51529198412E+01 0.65821411876E+01 0.83293443519E+01
 0.10367617169E+02 0.12635594617E+02 0.15034972539E+02 0.17389662747E+02 0.19452591221E+02
 0.20991105180E+02 0.21815591995E+02 0.21815635165E+02 0.20991210421E+02 0.19452693803E+02
 0.17389692802E+02 0.15034911074E+02 0.12635503232E+02 0.10367591280E+02 0.83294126554E+01
 0.65822373882E+01 0.51529690673E+01 0.40350310048E+01 0.26375053133E+01 0.21653700082E+01
 0.18539880855E+01 0.16770225033E+01 0.16196034806E+01 0.16770208729E+01 0.18539946013E+01
 0.21653847763E+01 0.26375065034E+01 0.33078171319E+01 0.42202967177E+01 0.54151124459E+01
 0.69145306326E+01 0.87106636086E+01 0.10760066325E+02 0.12983246057E+02 0.15259210135E+02
 0.17389677966E+02 0.19134128389E+02 0.20281584479E+02 0.20682440141E+02 0.20281665123E+02
 0.19134204580E+02 0.17389692802E+02 0.15259194371E+02 0.12983253298E+02 0.10760105669E+02
 0.87107151432E+01 0.69145911175E+01 0.54151877047E+01 0.42203679847E+01 0.33078543232E+01
 0.21644766739E+01 0.18084154138E+01 0.15862537387E+01 0.14795416857E+01 0.14795530215E+01
 0.15862693152E+01 0.18084176128E+01 0.21644804323E+01 0.26835110730E+01 0.34036893611E+01
 0.43662248595E+01 0.56037529106E+01 0.71262045393E+01 0.89101514695E+01 0.10895118697E+02
 0.12983165198E+02 0.15034863431E+02 0.16851918397E+02 0.18213725931E+02 0.18944217573E+02
 0.18944197066E+02 0.18213682723E+02 0.16851901120E+02 0.15034911074E+02 0.12983253298E+02
 0.10895184679E+02 0.89101830544E+01 0.71262565104E+01 0.56038530476E+01 0.43663198004E+01
 0.34037248236E+01 0.26835054429E+01 0.17785673416E+01 0.15198568367E+01 0.13724770210E+01
 0.13246271474E+01 0.13725020592E+01 0.15198684868E+01 0.17785629065E+01 0.21694000171E+01
 0.27223047010E+01 0.34737664180E+01 0.44595341782E+01 0.57024062724E+01 0.71988579696E+01
 0.89101585434E+01 0.10760050442E+02 0.12635422820E+02 0.14387138379E+02 0.15834380065E+02
 0.16791230548E+02 0.17125950668E+02 0.16791278083E+02 0.15834453116E+02 0.14387221246E+02
 0.12635503232E+02 0.10760105669E+02 0.89101830544E+01 0.71988908125E+01 0.57024801213E+01
 0.44596127812E+01 0.34737916880E+01 0.27222844579E+01 0.21693874859E+01 0.14745151067E+01
 0.12952345073E+01 0.12089558152E+01 0.12089475910E+01 0.12952252887E+01 0.14745293487E+01
 0.17607994046E+01 0.21757104262E+01 0.27481522391E+01 0.35107402104E+01 0.44916407591E+01
 0.57024390651E+01 0.71262227856E+01 0.87107063315E+01 0.10367594435E+02 0.11975888417E+02
 0.13388872823E+02 0.14449878505E+02 0.15021369100E+02 0.15021449477E+02 0.14450050965E+02
 0.13389009166E+02 0.11975933181E+02 0.10367591280E+02 0.87107151432E+01 0.71262565104E+01
 0.57024801213E+01 0.44916763804E+01 0.35107633510E+01 0.27481507631E+01 0.21756810055E+01
 0.17607635454E+01 0.12439276920E+01 0.11281428367E+01 0.10905220219E+01 0.11281249173E+01
 0.12439260841E+01 0.14468178766E+01 0.17517621550E+01 0.21798588167E+01 0.27572158798E+01
 0.35107266622E+01 0.44595530768E+01 0.56037997958E+01 0.69145781593E+01 0.83294332361E+01
 0.97540194698E+01 0.11068870319E+02 0.12141659145E+02 0.12847139174E+02 0.13093594973E+02
 0.12847128267E+02 0.12141653195E+02 0.11068866465E+02 0.97540012193E+01 0.83294126554E+01
 0.69145911175E+01 0.56038530476E+01 0.44596127812E+01 0.35107633510E+01 0.27572260650E+01
 0.21798446973E+01 0.17517287696E+01 0.14467896860E+01 0.10775636341E+01 0.10114771067E+01
 0.10114708451E+01 0.10775586585E+01 0.12149541210E+01 0.14338169366E+01 0.17490369877E+01
 0.21798524764E+01 0.27481401636E+01 0.34737364377E+01 0.43662232298E+01 0.54151009167E+01
 0.65822073729E+01 0.77996369808E+01 0.89739425932E+01 0.99958882934E+01 0.10755434503E+02
 0.11161314492E+02 0.11161261963E+02 0.10755317045E+02 0.99957762509E+01 0.89738689507E+01
 0.77996081488E+01 0.65822373882E+01 0.54151877047E+01 0.43663198004E+01 0.34737916880E+01
 0.27481507631E+01 0.21798446973E+01 0.17490221860E+01 0.14337964557E+01 0.12149419267E+01
 0.96656684639E+00 0.93840295104E+00 0.96655640933E+00 0.10533852813E+01 0.12056312115E+01
 0.14338238450E+01 0.17517543901E+01 0.21757043247E+01 0.27222840783E+01 0.34036671625E+01
 0.42202584916E+01 0.51528657432E+01 0.61576610961E+01 0.71664744444E+01 0.80930067940E+01
 0.88441629541E+01 0.93351748278E+01 0.95060862261E+01 0.93351609874E+01 0.88441313876E+01
 0.80929649081E+01 0.71664548737E+01 0.61577032131E+01 0.51529690673E+01 0.42203679847E+01
 0.34037248236E+01 0.27222844579E+01 0.21756810055E+01 0.17517287696E+01 0.14337964557E+01
 0.12056099457E+01 0.10533838660E+01 0.90341947277E+00 0.90341622081E+00 0.95204253955E+00
 0.10533879217E+01 0.12149644367E+01 0.14468298463E+01 0.17608061604E+01 0.21694103812E+01
 0.26834959031E+01 0.33078162668E+01 0.40349724503E+01 0.48397518857E+01 0.56764928702E+01
 0.64812889432E+01 0.71793074479E+01 0.76962056664E+01 0.79716225830E+01 0.79716071706E+01
 0.76961860010E+01 0.71793285844E+01 0.64813595712E+01 0.56765821761E+01 0.48398297784E+01
 0.40350310048E+01 0.33078543232E+01 0.26835054429E+01 0.21693874859E+01 0.17607635454E+01
 0.14467896860E+01 0.12149419267E+01 0.10533838660E+01 0.95204759269E+00 0.90341750699E+00
 0.93840092551E+00 0.10114678691E+01 0.11281262693E+01 0.12952218711E+01 0.15198662410E+01
 0.18084509226E+01 0.21654072565E+01 0.25911914520E+01 0.30793384074E+01 0.36132449175E+01
 0.41641060072E+01 0.46915556791E+01 0.51478565937E+01 0.54852539200E+01 0.56648891869E+01
 0.56648960000E+01 0.54852567217E+01 0.51478336461E+01 0.46915236647E+01 0.41641032787E+01
 0.36132772703E+01 0.30793671929E+01 0.25911800236E+01 0.21653613221E+01 0.18084057905E+01
 0.15198474739E+01 0.12952277266E+01 0.11281403656E+01 0.10114777814E+01 0.93840441931E+00
 0.90341797075E+00 0.93840092551E+00 0.98181625144E+00 0.10584545363E+01 0.11736586743E+01
 0.13332175839E+01 0.15423388349E+01 0.18046950784E+01 0.21213000980E+01 0.24889014633E+01
 0.28978789042E+01 0.33302561141E+01 0.37589744892E+01 0.41495458424E+01 0.44644493469E+01
 0.46695332223E+01 0.47407888470E+01 0.46695417019E+01 0.44644347670E+01 0.41495076511E+01
 0.37589566715E+01 0.33302796188E+01 0.28978997838E+01 0.24888673784E+01 0.21212248110E+01
 0.18046420646E+01 0.15423414738E+01 0.13332485932E+01 0.11736784008E+01 0.10584579714E+01
 0.98182003712E+00 0.93840811497E+00 0.92439646964E+00 0.10114678691E+01 0.10584545363E+01
 0.11341478759E+01 0.12433725110E+01 0.13906843214E+01 0.15794677776E+01 0.18111388492E+01
 0.20842333381E+01 0.23931829367E+01 0.27268885907E+01 0.30676730954E+01 0.33915052248E+01
 0.36702004460E+01 0.38755863026E+01 0.39847291175E+01 0.39847298825E+01 0.38755894743E+01
 0.36702093981E+01 0.33915216777E+01 0.30676876081E+01 0.27268832142E+01 0.23931511327E+01
 0.20841917673E+01 0.18111118917E+01 0.15794647809E+01 0.13906971308E+01 0.12433886217E+01
 0.11341584956E+01 0.10584555770E+01 0.10114622221E+01 0.98912865219E+00 0.98913223378E+00
 0.11281262693E+01 0.11736586743E+01 0.12433725110E+01 0.13414307738E+01 0.14712481983E+01
 0.16347760554E+01 0.18318794632E+01 0.20596024872E+01 0.23112371086E+01 0.25754257624E+01
 0.28358400138E+01 0.30720565305E+01 0.32619611128E+01 0.33854121283E+01 0.34282480956E+01
 0.33853844008E+01 0.32619480375E+01 0.30720826340E+01 0.28358746663E+01 0.25754206630E+01
 0.23111884637E+01 0.20595557625E+01 0.18318736170E+01 0.16348023781E+01 0.14712708857E+01
 0.13414320431E+01 0.12433635218E+01 0.11736551783E+01 0.11281301967E+01 0.11027680119E+01
 0.10946648746E+01 0.11027635525E+01 0.12952218711E+01 0.13332175839E+01 0.13906843214E+01
 0.14712481983E+01 0.15775469275E+01 0.17106884316E+01 0.18697171018E+01 0.20509750837E+01
 0.22474293985E+01 0.24482550526E+01 0.26390867030E+01 0.28032864507E+01 0.29242837956E+01
 0.29885792350E+01 0.29885733741E+01 0.29242749446E+01 0.28032849690E+01 0.26390844710E+01
 0.24482363479E+01 0.22473966348E+01 0.20509493585E+01 0.18697135513E+01 0.17107019507E+01
 0.15775625589E+01 0.14712565009E+01 0.13906846636E+01 0.13332137504E+01 0.12952181135E+01
 0.12727750503E+01 0.12625266345E+01 0.12625268758E+01 0.12727766885E+01 0.15198662410E+01
 0.15423388349E+01 0.15794677776E+01 0.16347760554E+01 0.17106884316E+01 0.18080594508E+01
 0.19256510045E+01 0.20596017967E+01 0.22030745279E+01 0.23463087261E+01 0.24772850206E+01
 0.25831284330E+01 0.26521616817E+01 0.26761708933E+01 0.26521871863E+01 0.25831601612E+01
 0.24772921212E+01 0.23462780709E+01 0.22030347804E+01 0.20595972103E+01 0.19256869184E+01
 0.18080950245E+01 0.17106902636E+01 0.16347572992E+01 0.15794609380E+01 0.15423483245E+01
 0.15198680559E+01 0.15079487000E+01 0.15027159618E+01 0.15013322833E+01 0.15027380552E+01
 0.15079677016E+01 0.18084509226E+01 0.18046950784E+01 0.18111388492E+01 0.18318794632E+01
 0.18697171018E+01 0.19256510045E+01 0.19984209558E+01 0.20842333951E+01 0.21768201448E+01
 0.22678928788E+01 0.23480126246E+01 0.24078831899E+01 0.24399537090E+01 0.24399637488E+01
 0.24079069124E+01 0.23480334451E+01 0.22678967647E+01 0.21768129570E+01 0.20842370615E+01
 0.19984453956E+01 0.19256797604E+01 0.18697290601E+01 0.18318744021E+01 0.18111306351E+01
 0.18046891913E+01 0.18084419318E+01 0.18175446682E+01 0.18271044137E+01 0.18330535361E+01
 0.18330586157E+01 0.18271173581E+01 0.18175587498E+01 0.21654072565E+01 0.21213000980E+01
 0.20842333381E+01 0.20596024872E+01 0.20509750837E+01 0.20596017967E+01 0.20842333951E+01
 0.21213009359E+01 0.21654075298E+01 0.22100236383E+01 0.22483296970E+01 0.22742147445E+01
 0.22833708182E+01 0.22742246721E+01 0.22483308059E+01 0.22100121456E+01 0.21654043921E+01
 0.21213172209E+01 0.20842458062E+01 0.20595828137E+01 0.20509363331E+01 0.20595832711E+01
 0.20842470271E+01 0.21213176462E+01 0.21654015185E+01 0.22100060047E+01 0.22483239755E+01
 0.22742188172E+01 0.22833658194E+01 0.22742109907E+01 0.22483281941E+01 0.22100237077E+01
 0.25911914520E+01 0.24889014633E+01 0.23931829367E+01 0.23112371086E+01 0.22474293985E+01
 0.22030745279E+01 0.21768201448E+01 0.21654075298E+01 0.21645017108E+01 0.21694101822E+01
 0.21757058776E+01 0.21798570364E+01 0.21798649325E+01 0.21757168818E+01 0.21694070740E+01
 0.21644870932E+01 0.21653883005E+01 0.21767852829E+01 0.22030141844E+01 0.22473663151E+01
 0.23112111609E+01 0.23932038515E+01 0.24889380659E+01 0.25912109848E+01 0.26908060102E+01
 0.27776165301E+01 0.28420085334E+01 0.28763319552E+01 0.28763281108E+01 0.28420031901E+01
 0.27776173660E+01 0.26908053263E+01 0.30793384074E+01 0.28978789042E+01 0.27268885907E+01
 0.25754257624E+01 0.24482550526E+01 0.23463087261E+01 0.22678928788E+01 0.22100236383E+01
 0.21694101822E+01 0.21429984061E+01 0.21282788778E+01 0.21235670145E+01 0.21282703055E+01
 0.21429976001E+01 0.21694224272E+01 0.22100161515E+01 0.22678183270E+01 0.23461760833E+01
 0.24481527285E+01 0.25754367108E+01 0.27269938891E+01 0.28979832272E+01 0.30793817608E+01
 0.32585069017E+01 0.34203899201E+01 0.35497835763E+01 0.36334654968E+01 0.36624212254E+01
 0.36334495944E+01 0.35497637318E+01 0.34203826045E+01 0.32585033837E+01 0.36132449175E+01
 0.33302561141E+01 0.30676730954E+01 0.28358400138E+01 0.26390867030E+01 0.24772850206E+01
 0.23480126246E+01 0.22483296970E+01 0.21757058776E+01 0.21282788778E+01 0.21048466234E+01
 0.21048320361E+01 0.21282557352E+01 0.21757015764E+01 0.22483207130E+01 0.23479341634E+01
 0.24771243635E+01 0.26389441537E+01 0.28358453250E+01 0.30678375473E+01 0.33304552464E+01
 0.36133599388E+01 0.39002013461E+01 0.41699419448E+01 0.43994590309E+01 0.45669312663E+01
 0.46553329127E+01 0.46553235526E+01 0.45669067452E+01 0.43994359000E+01 0.41699334038E+01
 0.39001728607E+01 0.41641060072E+01 0.37589744892E+01 0.33915052248E+01 0.30720565305E+01
 0.28032864507E+01 0.25831284330E+01 0.24078831899E+01 0.22742147445E+01 0.21798570364E+01
 0.21235670145E+01 0.21048320361E+01 0.21235520352E+01 0.21798518881E+01 0.22741915953E+01
 0.24077652316E+01 0.25829131478E+01 0.28031109273E+01 0.30720738005E+01 0.33917105801E+01
 0.37592108620E+01 0.41642390249E+01 0.45874845822E+01 0.50013908608E+01 0.53730944137E+01
 0.56689668621E+01 0.58598292096E+01 0.59258098726E+01 0.58598402630E+01 0.56689653299E+01
 0.53730807878E+01 0.50013828497E+01 0.45874514634E+01 0.46915556791E+01 0.41495458424E+01
 0.36702004460E+01 0.32619611128E+01 0.29242837956E+01 0.26521616817E+01 0.24399537090E+01
 0.22833708182E+01 0.21798649325E+01 0.21282703055E+01 0.21282557352E+01 0.21798518881E+01
 0.22833616027E+01 0.24398468280E+01 0.26519006687E+01 0.29240246117E+01 0.32619451943E+01
 0.36704626496E+01 0.41498650650E+01 0.46917130643E+01 0.52755788451E+01 0.58683477569E+01
 0.64267719040E+01 0.69028313155E+01 0.72508067908E+01 0.74347341270E+01 0.74347536181E+01
 0.72508406067E+01 0.69028504982E+01 0.64267978373E+01 0.58684029983E+01 0.52755910372E+01
 0.51478565937E+01 0.44644493469E+01 0.38755863026E+01 0.33854121283E+01 0.29885792350E+01
 0.26761708933E+01 0.24399637488E+01 0.22742246721E+01 0.21757168818E+01 0.21429976001E+01
 0.21757015764E+01 0.22741915953E+01 0.24398468280E+01 0.26759162131E+01 0.29883068326E+01
 0.33853649993E+01 0.38758509185E+01 0.44648250728E+01 0.51480733151E+01 0.59068066659E+01
 0.67048686766E+01 0.74899483666E+01 0.81988551860E+01 0.87659025739E+01 0.91330805037E+01
 0.92602732851E+01 0.91331005863E+01 0.87659188151E+01 0.81988720906E+01 0.74900083881E+01
 0.67049649080E+01 0.59068135680E+01 0.54852539200E+01 0.46695332223E+01 0.39847291175E+01
 0.34282480956E+01 0.29885733741E+01 0.26521871863E+01 0.24079069124E+01 0.22483308059E+01
 0.21694070740E+01 0.21694224272E+01 0.22483207130E+01 0.24077652316E+01 0.26519006687E+01
 0.29883068326E+01 0.34282323944E+01 0.39850221897E+01 0.46699295365E+01 0.54854794863E+01
 0.64180676388E+01 0.74325490497E+01 0.84711586311E+01 0.94574817685E+01 0.10304882916E+02
 0.10928523807E+02 0.11259711563E+02 0.11259708296E+02 0.10928498640E+02 0.10304828264E+02
 0.94574502776E+01 0.84712223133E+01 0.74326771124E+01 0.64180915137E+01 0.56648891869E+01
 0.47407888470E+01 0.39847298825E+01 0.33853844008E+01 0.29242749446E+01 0.25831601612E+01
 0.23480334451E+01 0.22100121456E+01 0.21644870932E+01 0.22100161515E+01 0.23479341634E+01
 0.25829131478E+01 0.29240246117E+01 0.33853649993E+01 0.39850221897E+01 0.47412066356E+01
 0.56651420559E+01 0.67519795984E+01 0.79726634041E+01 0.92698228891E+01 0.10559128757E+02
 0.11735940238E+02 0.12687121275E+02 0.13308268175E+02 0.13524446843E+02 0.13308234703E+02
 0.12687034436E+02 0.11735831829E+02 0.10559102840E+02 0.92699500553E+01 0.79728531302E+01
 0.67520142817E+01 0.56648960000E+01 0.46695417019E+01 0.38755894743E+01 0.32619480375E+01
 0.28032849690E+01 0.24772921212E+01 0.22678967647E+01 0.21654043921E+01 0.21653883005E+01
 0.22678183270E+01 0.24771243635E+01 0.28031109273E+01 0.32619451943E+01 0.38758509185E+01
 0.46699295365E+01 0.56651420559E+01 0.68681720034E+01 0.82609532129E+01 0.97934075010E+01
 0.11381416987E+02 0.12910001209E+02 0.14242033634E+02 0.15234983029E+02 0.15767052471E+02
 0.15767037514E+02 0.15234939130E+02 0.14241964296E+02 0.12909933979E+02 0.11381424648E+02
 0.97935446346E+01 0.82611377504E+01 0.68682000231E+01 0.54852567217E+01 0.44644347670E+01
 0.36702093981E+01 0.30720826340E+01 0.26390844710E+01 0.23462780709E+01 0.21768129570E+01
 0.21213172209E+01 0.21767852829E+01 0.23461760833E+01 0.26389441537E+01 0.30720738005E+01
 0.36704626496E+01 0.44648250728E+01 0.54854794863E+01 0.67519795984E+01 0.82609532129E+01
 0.99759636886E+01 0.11822047376E+02 0.13684840767E+02 0.15414042182E+02 0.16835106478E+02
 0.17775567256E+02 0.18105179912E+02 0.17775534690E+02 0.16835111790E+02 0.15414067344E+02
 0.13684800287E+02 0.11821984678E+02 0.99760355615E+01 0.82611552091E+01 0.67520629513E+01
 0.51478336461E+01 0.41495076511E+01 0.33915216777E+01 0.28358746663E+01 0.24482363479E+01
 0.22030347804E+01 0.20842370615E+01 0.20842458062E+01 0.22030141844E+01 0.24481527285E+01
 0.28358453250E+01 0.33917105801E+01 0.41498650650E+01 0.51480733151E+01 0.64180676388E+01
 0.79726634041E+01 0.97934075010E+01 0.11822047376E+02 0.13956012398E+02 0.16046455090E+02
 0.17901896983E+02 0.19305217989E+02 0.20062216259E+02 0.20062194740E+02 0.19305231290E+02
 0.17902012034E+02 0.16046548807E+02 0.13955953980E+02 0.11821952015E+02 0.97934919483E+01