unknown system                          
   1.00000000000000     
    -2.486962    2.486962    1.254384
     2.486962   -2.486962    1.254384
     2.486962    2.486962   -1.254384
   Si
     2
Direct
  0.250000  0.750000  0.500000
  0.000000  0.000000  0.000000
 
   24   24   24
 -5.5678     -3.5453      1.4931      7.1066      10.917      11.892      10.631      8.5913      6.7066      5.2505    
  4.2783      3.7393      3.5687      3.7393      4.2782      5.2504      6.7067      8.5914      10.631      11.892    
  10.917      7.1066      1.4929     -3.5455     -3.5455     -4.5780     -1.7827      3.4055      8.4990      11.441    
  11.655      10.042      8.0125      6.2406      4.9240      4.0800      3.6476      3.5686      3.8295      4.4689    
  5.5542      7.1204      9.0734      11.062      11.977      10.472      6.2863     0.79350      1.4929     -1.7829    
 -1.8514      1.3066      6.0351      10.054      11.808      11.204      9.3387      7.3819      5.7589      4.5995    
  3.8885      3.5607      3.5686      3.9118      4.6374      5.8102      7.4464      9.4194      11.319      11.992    
  10.299      6.2863      7.1066      3.4054      1.3064      1.9614      4.9898      8.7375      11.342      11.834    
  10.538      8.5800      6.7456      5.2959      4.2989      3.7159      3.4842      3.5685      3.9799      4.7697    
  5.9956      7.6552      9.6002      11.404      11.992      10.472      10.917      8.4991      6.0351      4.9897    
  6.0046      8.4643      10.922      12.055      11.456      9.7328      7.8196      6.1472      4.8810      4.0398    
  3.5722      3.4228      3.5684      4.0285      4.8542      6.0929      7.7271      9.6002      11.319      11.977    
  11.892      11.441      10.054      8.7375      8.4643      9.4728      11.091      12.220      12.094      10.756    
  8.9048      7.1112      5.6243      4.5372      3.8354      3.4647      3.3798      3.5683      4.0539      4.8832    
  6.0929      7.6552      9.4194      11.062      10.631      11.655      11.808      11.342      10.922      11.091    
  11.831      12.558      12.572      11.588      9.9284      8.1326      6.5045      5.2071      4.2811      3.6948    
  3.3984      3.3577      3.5683      4.0539      4.8542      5.9956      7.4464      9.0734      8.5914      10.042    
  11.204      11.834      12.055      12.220      12.558      12.927      12.918      12.199      10.819      9.1475    
  7.4847      6.0409      4.9175      4.1235      3.6233      3.3759      3.3577      3.5683      4.0285      4.7697    
  5.8102      7.1204      6.7067      8.0125      9.3388      10.538      11.456      12.094      12.573      12.919    
  12.975      12.520      11.492      10.078      8.5121      7.0188      5.7507      4.7693      4.0704      3.6233    
  3.3984      3.3798      3.5684      3.9799      4.6374      5.5542      5.2504      6.2406      7.3819      8.5802    
  9.7329      10.756      11.588      12.199      12.520      12.427      11.844      10.823      9.5074      8.0983    
  6.7755      5.6520      4.7693      4.1235      3.6948      3.4647      3.4228      3.5685      3.9118      4.4689    
  4.2782      4.9240      5.7588      6.7456      7.8197      8.9049      9.9284      10.819      11.492      11.844    
  11.782      11.268      10.361      9.1987      7.9548      6.7755      5.7507      4.9175      4.2811      3.8354    
  3.5722      3.4842      3.5686      3.8295      3.7393      4.0801      4.5995      5.2958      6.1472      7.1113    
  8.1327      9.1475      10.078      10.823      11.268      11.320      10.944      10.196      9.1987      8.0983    
  7.0188      6.0409      5.2071      4.5372      4.0398      3.7159      3.5607      3.5686      3.5687      3.6477    
  3.8886      4.2989      4.8809      5.6243      6.5046      7.4849      8.5120      9.5074      10.361      10.944    
  11.153      10.944      10.361      9.5074      8.5121      7.4847      6.5045      5.6243      4.8810      4.2989    
  3.8885      3.6476      3.7393      3.5686      3.5608      3.7160      4.0399      4.5371      5.2071      6.0410    
  7.0190      8.0983      9.1986      10.196      10.944      11.320      11.268      10.823      10.078      9.1475    
  8.1326      7.1112      6.1472      5.2959      4.5995      4.0800      4.2783      3.8295      3.5686      3.4843    
  3.5724      3.8356      4.2811      4.9174      5.7508      6.7757      7.9549      9.1986      10.361      11.268    
  11.782      11.844      11.492      10.819      9.9284      8.9048      7.8196      6.7456      5.7589      4.9240    
  5.2505      4.4691      3.9118      3.5685      3.4228      3.4649      3.6950      4.1235      4.7692      5.6521    
  6.7757      8.0983      9.5074      10.823      11.844      12.427      12.520      12.199      11.588      10.756    
  9.7328      8.5800      7.3819      6.2406      6.7066      5.5543      4.6376      3.9800      3.5684      3.3799    
  3.3986      3.6235      4.0704      4.7692      5.7508      7.0190      8.5120      10.078      11.492      12.520    
  12.975      12.918      12.572      12.094      11.456      10.538      9.3387      8.0125      8.5913      7.1203    
  5.8103      4.7700      4.0287      3.5683      3.3578      3.3762      3.6235      4.1235      4.9174      6.0410    
  7.4849      9.1475      10.819      12.199      12.919      12.927      12.558      12.220      12.055      11.834    
  11.204      10.042      10.631      9.0734      7.4463      5.9957      4.8545      4.0541      3.5683      3.3578    
  3.3986      3.6950      4.2811      5.2071      6.5046      8.1327      9.9284      11.588      12.573      12.558    
  11.831      11.091      10.922      11.342      11.808      11.655      11.892      11.062      9.4194      7.6551    
  6.0931      4.8836      4.0541      3.5683      3.3799      3.4649      3.8356      4.5371      5.6243      7.1113    
  8.9049      10.756      12.094      12.220      11.091      9.4728      8.4643      8.7375      10.054      11.441    
  10.917      11.978      11.320      9.6003      7.7271      6.0931      4.8545      4.0287      3.5684      3.4228    
  3.5724      4.0399      4.8809      6.1472      7.8197      9.7329      11.456      12.055      10.922      8.4643    
  6.0046      4.9898      6.0351      8.4990      7.1066      10.472      11.993      11.405      9.6003      7.6551    
  5.9957      4.7700      3.9800      3.5685      3.4843      3.7160      4.2989      5.2958      6.7456      8.5802    
  10.538      11.834      11.342      8.7375      4.9897      1.9614      1.3066      3.4055      1.4931      6.2862    
  10.299      11.993      11.320      9.4194      7.4463      5.8103      4.6376      3.9118      3.5686      3.5608    
  3.8886      4.5995      5.7588      7.3819      9.3388      11.204      11.808      10.054      6.0351      1.3064    
 -1.8514     -1.7827     -3.5453     0.79365      6.2862      10.472      11.978      11.062      9.0734      7.1203    
  5.5543      4.4691      3.8295      3.5686      3.6477      4.0801      4.9240      6.2406      8.0125      10.042    
  11.655      11.441      8.4991      3.4054     -1.7829     -4.5780     -3.5452     -2.1095      2.2238      7.2928    
  10.839      11.772      10.551      8.5287      6.6366      5.1558      4.1499      3.5727      3.3578      3.4722    
  3.9357      4.8089      6.1491      7.9282      9.9344      11.453      11.116      8.1698      3.3278     -1.3477    
 -2.1098     -3.5452     -1.3474      3.3280      8.1698      11.116      11.453      9.9346      7.9283      6.1492    
  4.8089      3.9357      3.4722      3.3578      3.5726      4.1498      5.1557      6.6366      8.5286      10.551    
  11.772      10.839      7.2929      2.2237      2.3582     -1.2013     -1.7826     0.88300      5.3556      9.4103    
  11.379      10.991      9.2268      7.2913      5.6596      4.4790      3.7453      3.3960      3.3798      3.6911    
  4.3735      5.4947      7.0854      9.0476      11.036      12.005      10.739      7.0801      7.6291      3.7125    
  1.1550      1.3067      4.0203      7.7644      10.620      11.437      10.366      8.4810      6.6611      5.2007    
  4.1867      3.5899      3.3484      3.4226      3.8200      4.5910      5.7995      7.4584      9.4426      11.370    
  12.199      10.923      11.366      8.7968      5.9381      4.3821      4.9899      7.3242      9.9629      11.448    
  11.174      9.6139      7.7441      6.0766      4.7996      3.9484      3.4780      3.3322      3.4841      3.9509    
  4.7856      6.0440      7.7220      9.6779      11.533      12.357      12.431      11.918      10.247      8.4714    
  7.7319      8.4643      10.102      11.494      11.704      10.602      8.8310      7.0605      5.5714      4.4770    
  3.7753      3.4149      3.3484      3.5605      4.0747      4.9416      6.2063      7.8510      9.7298      11.507    
  11.274      12.339      12.360      11.568      10.715      10.513      11.091      11.904      12.158      11.406    
  9.8554      8.0941      6.4730      5.1721      4.2475      3.6744      3.4029      3.3960      3.6474      4.1825    
  5.0459      6.2713      7.8319      9.5902      9.2689      10.831      12.008      12.490      12.410      12.219    
  12.284      12.558      12.622      12.045      10.757      9.1139      7.4620      6.0190      4.8992      4.1206    
  3.6493      3.4421      3.4723      3.7391      4.2661      5.0897      6.2329      7.6660      7.3685      8.7929    
  10.207      11.413      12.203      12.599      12.804      12.947      12.918      12.469      11.460      10.045    
  8.4819      6.9901      5.7288      4.7663      4.1012      3.7003      3.5302      3.5728      3.8295      4.3192    
  5.0693      6.0950      5.8710      6.9672      8.2029      9.4595      10.607      11.531      12.178      12.579    
  12.726      12.520      11.861      10.790      9.4533      8.0380      6.7230      5.6234      4.7815      4.1904    
  3.8251      3.6627      3.6914      3.9119      4.3375      4.9871      4.8506      5.5815      6.4977      7.5483    
  8.6496      9.7063      10.636      11.377      11.870      12.049      11.844      11.232      10.268      9.0821    
  7.8416      6.6897      5.7139      4.9463      4.3856      4.0186      3.8327      3.8204      3.9803      4.3194    
  4.2666      4.6718      5.2518      5.9991      6.8812      7.8417      8.8118      9.7220      10.503      11.075    
  11.354      11.268      10.799      10.003      8.9987      7.9254      6.9013      6.0002      5.2561      4.6798    
  4.2724      4.0312      3.9513      4.0291      4.0546      4.1830      4.4653      4.9079      5.5090      6.2506    
  7.0975      8.0031      8.9112      9.7516      10.434      10.859      10.944      10.663      10.058      9.2285    
  8.2919      7.3491      6.4701      5.6982      5.0606      4.5744      4.2466      4.0751      4.1828      4.0545    
  4.0752      4.2467      4.5744      5.0606      5.6982      6.4702      7.3492      8.2919      9.2285      10.058    
  10.663      10.944      10.859      10.434      9.7516      8.9113      8.0029      7.0973      6.2505      5.5091    
  4.9079      4.4651      4.6717      4.2664      4.0290      3.9514      4.0314      4.2725      4.6797      5.2561    
  6.0003      6.9015      7.9254      8.9986      10.003      10.799      11.268      11.354      11.075      10.503    
  9.7221      8.8116      7.8415      6.8811      5.9991      5.2518      5.5816      4.8506      4.3193      3.9801    
  3.8204      3.8329      4.0187      4.3855      4.9463      5.7140      6.6899      7.8416      9.0820      10.268    
  11.232      11.844      12.049      11.870      11.377      10.636      9.7062      8.6494      7.5482      6.4977    
  6.9671      5.8710      4.9872      4.3374      3.9118      3.6913      3.6629      3.8252      4.1903      4.7814    
  5.6234      6.7231      8.0380      9.4532      10.790      11.861      12.520      12.726      12.579      12.178    
  11.531      10.607      9.4593      8.2027      8.7927      7.3684      6.0950      5.0695      4.3192      3.8293    
  3.5728      3.5305      3.7005      4.1011      4.7662      5.7288      6.9903      8.4819      10.045      11.460    
  12.469      12.918      12.946      12.804      12.599      12.203      11.413      10.207      10.831      9.2688    
  7.6658      6.2329      5.0899      4.2662      3.7390      3.4723      3.4423      3.6495      4.1206      4.8991    
  6.0190      7.4621      9.1138      10.757      12.045      12.622      12.558      12.283      12.219      12.410    
  12.490      12.008      12.339      11.274      9.5901      7.8318      6.2714      5.0462      4.1826      3.6473    
  3.3961      3.4031      3.6746      4.2475      5.1721      6.4731      8.0942      9.8553      11.406      12.158    
  11.904      11.091      10.513      10.715      11.567      12.360      11.918      12.431      11.508      9.7297    
  7.8508      6.2064      4.9419      4.0749      3.5605      3.3484      3.4150      3.7753      4.4769      5.5713    
  7.0606      8.8311      10.602      11.704      11.493      10.102      8.4642      7.7318      8.4712      10.247    
  8.7965      11.366      12.357      11.534      9.6779      7.7219      6.0441      4.7859      3.9511      3.4841    
  3.3323      3.4782      3.9484      4.7995      6.0766      7.7441      9.6140      11.174      11.448      9.9627    
  7.3239      4.9898      4.3821      5.9380      3.7125      7.6289      10.923      12.199      11.370      9.4426    
  7.4584      5.7996      4.5913      3.8202      3.4227      3.3484      3.5900      4.1867      5.2006      6.6611    
  8.4810      10.366      11.437      10.620      7.7642      4.0201      1.3066      1.1551     -1.2011      2.3583    
  7.0799      10.739      12.005      11.037      9.0477      7.0854      5.4948      4.3737      3.6912      3.3798    
  3.3960      3.7453      4.4789      5.6596      7.2913      9.2267      10.991      11.379      9.4103      5.3554    
 0.88274     -1.7826      1.4937      2.3587      5.4873      9.2103      11.696      12.039      10.632      8.6247    
  6.7614      5.2902      4.2715      3.6626      3.3983      3.4420      3.8051      4.5402      5.7063      7.3022    
  9.1832      10.926      11.478      9.9999      6.7874      3.3282      2.2240     0.79425      2.2243      5.7195    
  9.4171      11.567      11.531      9.9421      7.9751      6.2282      4.8990      4.0176      3.5302      3.3759    
  3.5301      4.0175      4.8990      6.2281      7.9750      9.9419      11.531      11.567      9.4171      5.7193    
  5.4872      2.3585      1.4936      3.3284      6.7876      9.9999      11.478      10.926      9.1833      7.3023    
  5.7063      4.5402      3.8051      3.4421      3.3983      3.6626      4.2714      5.2901      6.7614      8.6247    
  10.632      12.039      11.696      9.2105      9.5231      6.1982      3.7127      3.4060      5.3560      8.3465    
  10.690      11.294      10.220      8.4080      6.6507      5.2289      4.2346      3.6456      3.4029      3.4647    
  3.8326      4.5521      5.6877      7.2675      9.2021      11.204      12.465      11.959      12.365      10.313    
  7.6796      5.9382      6.0355      7.7647      9.9347      11.198      10.913      9.4400      7.6599      6.0578    
  4.8221      3.9977      3.5468      3.4149      3.5722      4.0311      4.8415      6.0625      7.7052      9.6576    
  11.615      12.801      13.007      12.819      11.361      9.5358      8.4714      8.7376      9.9629      11.132    
  11.321      10.316      8.6572      6.9779      5.5538      4.5051      3.8401      3.5135      3.4782      3.7159    
  4.2464      5.1194      6.3840      8.0350      9.9470      11.827      11.805      13.013      13.157      12.349    
  11.280      10.715      10.922      11.494      11.690      11.016      9.5851      7.9313      6.3973      5.1622    
  4.2911      3.7681      3.5470      3.5902      3.8885      4.4650      5.3645      6.6240      8.2247      10.039    
  9.9185      11.534      12.754      13.211      12.974      12.495      12.219      12.220      12.158      11.597    
  10.402      8.8610      7.3083      5.9491      4.9005      4.1883      3.7839      3.6458      3.7456      4.0801    
  4.6716      5.5567      6.7601      8.2541      8.1191      9.5947      11.029      12.204      12.877      13.049    
  12.955      12.804      12.572      12.044      11.056      9.7058      8.2327      6.8338      5.6597      4.7812    
  4.2006      3.8867      3.8054      3.9361      4.2784      4.8505      5.6795      6.7792      6.6795      7.8323    
  9.0964      10.337      11.404      12.165      12.569      12.687      12.579      12.198      11.460      10.384    
  9.1001      7.7682      6.5486      5.5493      4.8117      4.3284      4.0723      4.0178      4.1502      4.4692    
  4.9871      5.7216      5.6794      6.4708      7.4214      8.4696      9.5179      10.458      11.202      11.700    
  11.928      11.870      11.492      10.790      9.8155      8.6795      7.5261      6.4835      5.6308      4.9947    
  4.5683      4.3330      4.2717      4.3740      4.6378      5.0694      5.0899      5.5566      6.1730      6.9247    
  7.7704      8.6439      9.4690      10.176      10.711      11.026      11.075      10.822      10.267      9.4644    
  8.5169      7.5468      6.6566      5.9088      5.3270      4.9121      4.6567      4.5522      4.5914      4.7702    
  4.8547      5.0462      5.3644      5.8130      6.3855      7.0576      7.7879      8.5254      9.2168      9.8064    
  10.233      10.434      10.360      10.003      9.4059      8.6540      7.8472      7.0697      6.3767      5.7974    
  5.3455      5.0267      4.8415      4.7859      4.9418      4.8837      4.9420      5.1194      5.4210      5.8465    
  6.3851      7.0150      7.7056      8.4171      9.0956      9.6693      10.058      10.196      10.058      9.6692    
  9.0957      8.4172      7.7054      7.0148      6.3852      5.8467      5.4210      5.1193      5.3643      5.0460    
  4.8545      4.7860      4.8416      5.0266      5.3453      5.7974      6.3768      7.0698      7.8471      8.6539    
  9.4059      10.003      10.360      10.434      10.233      9.8066      9.2168      8.5253      7.7877      7.0576    
  6.3856      5.8131      6.1731      5.5566      5.0896      4.7699      4.5914      4.5523      4.6567      4.9120    
  5.3269      5.9088      6.6568      7.5467      8.5168      9.4644      10.268      10.822      11.075      11.026    
  10.712      10.177      9.4689      8.6438      7.7703      6.9247      7.4213      6.4708      5.6794      5.0692    
  4.6375      4.3739      4.2718      4.3330      4.5682      4.9946      5.6309      6.4836      7.5261      8.6794    
  9.8155      10.790      11.492      11.870      11.928      11.700      11.202      10.458      9.5177      8.4694    
  9.0962      7.8321      6.6795      5.7217      4.9869      4.4689      4.1501      4.0179      4.0724      4.3283    
  4.8115      5.5493      6.5486      7.7682      9.1000      10.384      11.460      12.198      12.579      12.687    
  12.569      12.166      11.404      10.337      11.029      9.5945      8.1188      6.7792      5.6796      4.8504    
  4.2781      3.9359      3.8055      3.8868      4.2005      4.7810      5.6597      6.8339      8.2326      9.7057    
  11.056      12.044      12.572      12.804      12.955      13.049      12.877      12.204      12.754      11.534    
  9.9182      8.2538      6.7601      5.5569      4.6716      4.0799      3.7455      3.6459      3.7840      4.1882    
  4.9004      5.9492      7.3083      8.8609      10.402      11.597      12.158      12.220      12.219      12.494    
  12.974      13.211      13.157      13.013      11.805      10.038      8.2244      6.6240      5.3647      4.4651    
  3.8884      3.5901      3.5471      3.7681      4.2910      5.1621      6.3973      7.9314      9.5851      11.016    
  11.689      11.493      10.921      10.714      11.280      12.349      11.360      12.819      13.007      11.827    
  9.9469      8.0348      6.3840      5.1196      4.2465      3.7158      3.4781      3.5135      3.8402      4.5050    
  5.5537      6.9779      8.6571      10.316      11.321      11.131      9.9627      8.7375      8.4713      9.5356    
  7.6795      10.312      12.365      12.802      11.616      9.6575      7.7050      6.0625      4.8417      4.0312    
  3.5721      3.4149      3.5469      3.9977      4.8220      6.0577      7.6599      9.4400      10.913      11.197    
  9.9343      7.7644      6.0354      5.9382      3.7128      6.1981      9.5228      11.959      12.465      11.204    
  9.2021      7.2674      5.6878      4.5523      3.8327      3.4647      3.4028      3.6456      4.2346      5.2289    
  6.6506      8.4079      10.220      11.294      10.690      8.3462      5.3557      3.4060      7.1072      7.6294    
  9.5228      11.673      12.826      12.407      10.799      8.8676      7.0891      5.6680      4.6568      4.0186    
  3.6949      3.6494      3.8867      4.4491      5.3908      6.7297      8.3819      10.114      11.353      11.339    
  9.9999      8.1702      7.2931      6.2869      7.0805      9.2104      11.385      12.362      11.728      10.035    
  8.1529      6.4861      5.2041      4.3330      3.8252      3.6234      3.7004      4.0724      4.7905      5.9084    
  7.4241      9.2105      10.953      11.886      11.313      9.4171      9.2103      7.0802      6.2869      7.2934    
  9.4172      11.313      11.886      10.953      9.2106      7.4241      5.9084      4.7905      4.0724      3.7004    
  3.6234      3.8252      4.3330      5.2041      6.4862      8.1529      10.035      11.728      12.362      11.385    
  11.673      9.5228      7.6292      7.1072      8.1704      10.000      11.339      11.353      10.114      8.3820    
  6.7298      5.3908      4.4491      3.8868      3.6494      3.6950      4.0186      4.6568      5.6681      7.0892    
  8.8676      10.799      12.406      12.826      13.280      12.186      10.312      8.7967      8.4994      9.4108    
  10.690      11.297      10.719      9.2560      7.5976      6.1090      4.9600      4.1954      3.7840      3.6746    
  3.8356      4.2725      5.0269      6.1537      7.6746      9.5121      11.438      12.954      13.319      13.665    
  12.809      11.360      10.247      10.054      10.620      11.198      11.048      9.9817      8.4369      6.8962    
  5.5908      4.6342      4.0396      3.7682      3.7754      4.0399      4.5744      5.4213      6.6267      8.1947    
  10.028      11.890      12.104      13.443      13.876      13.345      12.349      11.567      11.342      11.448    
  11.321      10.546      9.1985      7.6964      6.3085      5.1964      4.4256      3.9871      3.8403      3.9486    
  4.2989      4.9078      5.8133      7.0491      8.6021      10.363      10.480      12.047      13.274      13.800    
  13.583      12.974      12.409      12.054      11.704      11.016      9.8616      8.4619      7.0697      5.8598    
  4.9404      4.3411      4.0396      3.9979      4.1870      4.5996      5.2517      6.1732      7.3837      8.8563    
  8.9300      10.361      11.718      12.794      13.367      13.385      13.049      12.598      12.094      11.405    
  10.402      9.1504      7.8278      6.5911      5.5706      4.8329      4.3837      4.1955      4.2349      4.4793    
  4.9241      5.5814      6.4708      7.5987      7.6728      8.8146      10.016      11.142      12.041      12.592    
  12.741      12.569      12.178      11.587      10.757      9.7058      8.5287      7.3474      6.2926      5.4576    
  4.8800      4.5530      4.4491      4.5405      4.8093      5.2506      5.8708      6.6793      6.7788      7.5984    
  8.5213      9.4798      10.375      11.102      11.580      11.776      11.700      11.376      10.819      10.045    
  9.1001      8.0703      7.0688      6.2008      5.5323      5.0840      4.8446      4.7904      4.8993      5.1561    
  5.5545      6.0948      6.2327      6.7596      7.3831      8.0798      8.8038      9.4903      10.070      10.485    
  10.704      10.711      10.503      10.077      9.4532      8.6795      7.8395      7.0302      6.3344      5.8007    
  5.4420      5.2490      5.2040      5.2902      5.4951      5.8105      5.9958      6.2712      6.6235      7.0484    
  7.5332      8.0518      8.5669      9.0364      9.4212      9.6878      9.8066      9.7516      9.5073      9.0820    
  8.5169      7.8816      7.2546      6.7012      6.2602      5.9442      5.7498      5.6678      5.6876      5.7996    
  6.0440      6.0932      6.2063      6.3836      6.6260      6.9308      7.2881      7.6812      8.0885      8.4835    
  8.8329      9.0957      9.2286      9.1986      8.9986      8.6540      8.2163      7.7457      7.2944      6.8967    
  6.5704      6.3221      6.1533      6.0622      6.3835      6.2061      6.0931      6.0441      6.0623      6.1532    
  6.3218      6.5702      6.8968      7.2945      7.7457      8.2161      8.6540      8.9987      9.1986      9.2285    
  9.0957      8.8330      8.4835      8.0884      7.6811      7.2882      6.9310      6.6261      7.0485      6.6234    
  6.2709      5.9956      5.7996      5.6877      5.6678      5.7497      5.9440      6.2602      6.7014      7.2546    
  7.8814      8.5169      9.0821      9.5073      9.7515      9.8066      9.6879      9.4213      9.0364      8.5668    
  8.0519      7.5334      8.0799      7.3832      6.7595      6.2324      5.8102      5.4949      5.2903      5.2040    
  5.2488      5.4419      5.8007      6.3345      7.0301      7.8393      8.6795      9.4532      10.077      10.503    
  10.712      10.704      10.485      10.070      9.4902      8.8038      9.4796      8.5212      7.5985      6.7788    
  6.0945      5.5541      5.1559      4.8993      4.7905      4.8444      5.0838      5.5323      6.2008      7.0688    
  8.0701      9.1001      10.045      10.819      11.376      11.700      11.777      11.580      11.102      10.375    
  11.142      10.016      8.8144      7.6729      6.6793      5.8706      5.2502      4.8091      4.5405      4.4491    
  4.5528      4.8798      5.4576      6.2926      7.3474      8.5285      9.7058      10.757      11.587      12.178    
  12.569      12.741      12.592      12.041      12.794      11.718      10.361      8.9297      7.5987      6.4709    
  5.5813      4.9237      4.4791      4.2349      4.1955      4.3835      4.8328      5.5707      6.5911      7.8277    
  9.1503      10.402      11.406      12.094      12.598      13.049      13.385      13.367      13.800      13.274    
  12.047      10.479      8.8559      7.3836      6.1733      5.2516      4.5993      4.1868      3.9980      4.0396    
  4.3409      4.9403      5.8598      7.0697      8.4618      9.8615      11.016      11.704      12.054      12.409    
  12.974      13.583      13.344      13.876      13.443      12.104      10.363      8.6018      7.0489      5.8134    
  4.9078      4.2987      3.9485      3.8403      3.9871      4.4255      5.1963      6.3085      7.6964      9.1985    
  10.546      11.321      11.448      11.342      11.567      12.349      11.360      12.809      13.665      13.319    
  11.891      10.028      8.1944      6.6265      5.4213      4.5744      4.0397      3.7754      3.7682      4.0396    
  4.6341      5.5908      6.8962      8.4369      9.9816      11.048      11.198      10.620      10.054      10.247    
  8.7968      10.312      12.185      13.279      12.954      11.438      9.5120      7.6744      6.1536      5.0269    
  4.2725      3.8355      3.6745      3.7840      4.1954      4.9599      6.1089      7.5976      9.2560      10.719    
  11.297      10.690      9.4106      8.4995      10.917      11.366      12.364      13.279      13.409      12.512    
  10.953      9.2314      7.6331      6.3221      5.3456      4.6798      4.2811      4.1207      4.2007      4.5530    
  5.2233      6.2376      7.5568      9.0410      10.450      11.353      11.478      11.116      10.839      10.473    
  10.923      11.959      12.825      12.811      11.762      10.142      8.4450      6.9355      5.7499      4.9122    
  4.3857      4.1237      4.1014      4.3285      4.8447      5.6969      6.8994      8.3822      9.9599      11.304    
  11.886      11.567      11.695      10.739      10.300      10.739      11.695      12.362      12.098      10.888    
  9.2623      7.6493      6.2770      5.2491      4.5684      4.1905      4.0706      4.1906      4.5684      5.2491    
  6.2771      7.6493      9.2623      10.888      12.098      12.362      12.826      11.959      10.923      10.473    
  10.839      11.567      11.885      11.304      9.9599      8.3822      6.8994      5.6969      4.8447      4.3285    
  4.1013      4.1237      4.3857      4.9122      5.7500      6.9356      8.4450      10.142      11.762      12.811    
  13.409      13.279      12.364      11.366      10.917      11.116      11.478      11.353      10.450      9.0410    
  7.5568      6.2376      5.2234      4.5530      4.2006      4.1207      4.2812      4.6799      5.3456      6.3222    
  7.6334      9.2315      10.953      12.512      13.070      13.840      13.664      12.818      11.917      11.441    
  11.379      11.294      10.719      9.5728      8.1813      6.8285      5.6943      4.8748      4.3837      4.1883    
  4.2476      4.5372      5.0606      5.8468      6.9312      8.3204      9.9447      11.623      12.082      13.372    