<?xml version="1.0" encoding="ISO-8859-1"?>
<modeling>
 <generator>
  <i name="program" type="string">vasp </i>
  <i name="version" type="string">5.4.4.18Apr17-6-g9f103f2a35  </i>
  <i name="subversion" type="string">(build Dec 09 2018 21:25:21) complex            parallel </i>
  <i name="platform" type="string">IFC18.0.1.163_CrayMPICH7.7.0_MKL18.0.1.163 </i>
  <i name="date" type="string">2019 03 20 </i>
  <i name="time" type="string">09:07:48 </i>
 </generator>
 <incar>
  <i type="string" name="PREC">normal</i>
  <i type="int" name="IBRION">     2</i>
  <i name="EDIFF">      0.00040000</i>
  <i name="EDIFFG">     -0.01000000</i>
  <i type="int" name="NSW">    15</i>
  <i type="int" name="ISIF">     3</i>
  <i name="ENCUT">    150.00000000</i>
  <i type="int" name="NBANDS">     8</i>
  <i type="logical" name="LREAL"> F  </i>
  <i type="int" name="ISMEAR">     0</i>
  <i name="SIGMA">      0.20000000</i>
  <v type="int" name="KPOINT_BSE">    -1     0     0     0</v>
 </incar>
 <structure name="primitive_cell" >
  <crystal>
   <varray name="basis" >
    <v>      -2.45000000       2.45000000       1.27400000 </v>
    <v>       2.45000000      -2.45000000       1.27400000 </v>
    <v>       2.45000000       2.45000000      -1.27400000 </v>
   </varray>
   <i name="volume">     30.58874000 </i>
   <varray name="rec_basis" >
    <v>       0.00000000       0.20408163       0.39246468 </v>
    <v>       0.20408163       0.00000000       0.39246468 </v>
    <v>       0.20408163       0.20408163      -0.00000000 </v>
   </varray>
  </crystal>
  <varray name="positions" >
   <v>       0.25000000      -0.25000000      -0.50000000 </v>
   <v>       0.00000000       0.00000000       0.00000000 </v>
  </varray>
 </structure>
 <varray name="primitive_index" >
  <v type="int" >        1 </v>
  <v type="int" >        2 </v>
 </varray>
 <kpoints>
  <generation param="Monkhorst-Pack">
   <v type="int" name="divisions">       5        5        5 </v>
   <v name="usershift">      0.00000000       0.00000000       0.00000000 </v>
   <v name="genvec1">      0.20000000       0.00000000      -0.00000000 </v>
   <v name="genvec2">      0.00000000       0.20000000      -0.00000000 </v>
   <v name="genvec3">      0.00000000      -0.00000000       0.20000000 </v>
   <v name="shift">      0.00000000       0.00000000       0.00000000 </v>
  </generation>
  <varray name="kpointlist" >
   <v>       0.00000000       0.00000000       0.00000000 </v>
   <v>       0.20000000       0.00000000      -0.00000000 </v>
   <v>       0.40000000       0.00000000      -0.00000000 </v>
   <v>       0.20000000       0.20000000      -0.00000000 </v>
   <v>       0.40000000       0.20000000      -0.00000000 </v>
   <v>      -0.40000000       0.20000000       0.00000000 </v>
   <v>      -0.20000000       0.20000000       0.00000000 </v>
   <v>       0.40000000       0.40000000      -0.00000000 </v>
   <v>      -0.40000000       0.40000000       0.00000000 </v>
   <v>       0.20000000       0.20000000       0.20000000 </v>
   <v>      -0.20000000       0.20000000       0.20000000 </v>
   <v>      -0.40000000       0.40000000       0.20000000 </v>
   <v>      -0.20000000       0.40000000       0.20000000 </v>
   <v>      -0.40000000      -0.40000000       0.20000000 </v>
   <v>      -0.20000000      -0.40000000       0.20000000 </v>
   <v>      -0.20000000      -0.20000000       0.20000000 </v>
   <v>      -0.40000000       0.40000000       0.40000000 </v>
   <v>      -0.40000000      -0.40000000       0.40000000 </v>
  </varray>
  <varray name="weights" >
   <v>       0.00800000 </v>
   <v>       0.06400000 </v>
   <v>       0.06400000 </v>
   <v>       0.06400000 </v>
   <v>       0.12800000 </v>
   <v>       0.12800000 </v>
   <v>       0.03200000 </v>
   <v>       0.06400000 </v>
   <v>       0.03200000 </v>
   <v>       0.06400000 </v>
   <v>       0.03200000 </v>
   <v>       0.06400000 </v>
   <v>       0.06400000 </v>
   <v>       0.06400000 </v>
   <v>       0.06400000 </v>
   <v>       0.01600000 </v>
   <v>       0.03200000 </v>
   <v>       0.01600000 </v>
  </varray>
 </kpoints>
 <parameters>
  <separator name="general" >
   <i type="string" name="SYSTEM">unknown system</i>
   <i type="logical" name="LCOMPAT"> F  </i>
  </separator>
  <separator name="electronic" >
   <i type="string" name="PREC">normal</i>
   <i name="ENMAX">    150.00000000</i>
   <i name="ENAUG">    322.06900000</i>
   <i name="EDIFF">      0.00040000</i>
   <i type="int" name="IALGO">    38</i>
   <i type="int" name="IWAVPR">    11</i>
   <i type="int" name="NBANDS">     8</i>
   <i name="NELECT">      8.00000000</i>
   <i type="int" name="TURBO">     0</i>
   <i type="int" name="IRESTART">     0</i>
   <i type="int" name="NREBOOT">     0</i>
   <i type="int" name="NMIN">     0</i>
   <i name="EREF">      0.00000000</i>
   <separator name="electronic smearing" >
    <i type="int" name="ISMEAR">     0</i>
    <i name="SIGMA">      0.20000000</i>
    <i name="KSPACING">      0.50000000</i>
    <i type="logical" name="KGAMMA"> T  </i>
   </separator>
   <separator name="electronic projectors" >
    <i type="logical" name="LREAL"> F  </i>
    <v name="ROPT">      0.00000000</v>
    <i type="int" name="LMAXPAW">  -100</i>
    <i type="int" name="LMAXMIX">     2</i>
    <i type="logical" name="NLSPLINE"> F  </i>
   </separator>
   <separator name="electronic startup" >
    <i type="int" name="ISTART">     0</i>
    <i type="int" name="ICHARG">     2</i>
    <i type="int" name="INIWAV">     1</i>
   </separator>
   <separator name="electronic spin" >
    <i type="int" name="ISPIN">     1</i>
    <i type="logical" name="LNONCOLLINEAR"> F  </i>
    <v name="MAGMOM">      1.00000000      1.00000000</v>
    <i name="NUPDOWN">     -1.00000000</i>
    <i type="logical" name="LSORBIT"> F  </i>
    <v name="SAXIS">      0.00000000      0.00000000      1.00000000</v>
    <i type="logical" name="LSPIRAL"> F  </i>
    <v name="QSPIRAL">      0.00000000      0.00000000      0.00000000</v>
    <i type="logical" name="LZEROZ"> F  </i>
   </separator>
   <separator name="electronic exchange-correlation" >
    <i type="logical" name="LASPH"> F  </i>
    <i type="logical" name="LMETAGGA"> F  </i>
   </separator>
   <separator name="electronic convergence" >
    <i type="int" name="NELM">    60</i>
    <i type="int" name="NELMDL">    -5</i>
    <i type="int" name="NELMIN">     2</i>
    <i name="ENINI">    150.00000000</i>
    <separator name="electronic convergence detail" >
     <i type="logical" name="LDIAG"> T  </i>
     <i type="logical" name="LSUBROT"> F  </i>
     <i name="WEIMIN">      0.00100000</i>
     <i name="EBREAK">      0.00001250</i>
     <i name="DEPER">      0.30000000</i>
     <i type="int" name="NRMM">     4</i>
     <i name="TIME">      0.40000000</i>
    </separator>
   </separator>
   <separator name="electronic mixer" >
    <i name="AMIX">      0.40000000</i>
    <i name="BMIX">      1.00000000</i>
    <i name="AMIN">      0.10000000</i>
    <i name="AMIX_MAG">      1.60000000</i>
    <i name="BMIX_MAG">      1.00000000</i>
    <separator name="electronic mixer details" >
     <i type="int" name="IMIX">     4</i>
     <i type="logical" name="MIXFIRST"> F  </i>
     <i type="int" name="MAXMIX">   -45</i>
     <i name="WC">    100.00000000</i>
     <i type="int" name="INIMIX">     1</i>
     <i type="int" name="MIXPRE">     1</i>
     <i type="int" name="MREMOVE">     5</i>
    </separator>
   </separator>
   <separator name="electronic dipolcorrection" >
    <i type="logical" name="LDIPOL"> F  </i>
    <i type="logical" name="LMONO"> F  </i>
    <i type="int" name="IDIPOL">     0</i>
    <i name="EPSILON">      1.00000000</i>
    <v name="DIPOL">   -100.00000000   -100.00000000   -100.00000000</v>
    <i name="EFIELD">      0.00000000</i>
   </separator>
  </separator>
  <separator name="grids" >
   <i type="int" name="NGX">    12</i>
   <i type="int" name="NGY">    12</i>
   <i type="int" name="NGZ">    12</i>
   <i type="int" name="NGXF">    24</i>
   <i type="int" name="NGYF">    24</i>
   <i type="int" name="NGZF">    24</i>
   <i type="logical" name="ADDGRID"> F  </i>
  </separator>
  <separator name="ionic" >
   <i type="int" name="NSW">    15</i>
   <i type="int" name="IBRION">     2</i>
   <i type="int" name="MDALGO">     0</i>
   <i type="int" name="ISIF">     3</i>
   <i name="PSTRESS">      0.00000000</i>
   <i name="EDIFFG">     -0.01000000</i>
   <i type="int" name="NFREE">     1</i>
   <i name="POTIM">      0.50000000</i>
   <i name="SMASS">     -3.00000000</i>
   <i name="SCALEE">      1.00000000</i>
  </separator>
  <separator name="ionic md" >
   <i name="TEBEG">      0.00010000</i>
   <i name="TEEND">      0.00010000</i>
   <i type="int" name="NBLOCK">     1</i>
   <i type="int" name="KBLOCK">    15</i>
   <i type="int" name="NPACO">   256</i>
   <i name="APACO">     16.00000000</i>
  </separator>
  <separator name="symmetry" >
   <i type="int" name="ISYM">     2</i>
   <i name="SYMPREC">      0.00001000</i>
  </separator>
  <separator name="dos" >
   <i type="int" name="LORBIT">     0</i>
   <v name="RWIGS">     -1.00000000</v>
   <i type="int" name="NEDOS">   301</i>
   <i name="EMIN">     10.00000000</i>
   <i name="EMAX">    -10.00000000</i>
   <i name="EFERMI">      0.00000000</i>
  </separator>
  <separator name="writing" >
   <i type="int" name="NWRITE">     2</i>
   <i type="logical" name="LWAVE"> T  </i>
   <i type="logical" name="LDOWNSAMPLE"> F  </i>
   <i type="logical" name="LCHARG"> T  </i>
   <i type="logical" name="LPARD"> F  </i>
   <i type="logical" name="LVTOT"> F  </i>
   <i type="logical" name="LVHAR"> F  </i>
   <i type="logical" name="LELF"> F  </i>
   <i type="logical" name="LOPTICS"> F  </i>
   <v name="STM">      0.00000000      0.00000000      0.00000000      0.00000000      0.00000000      0.00000000      0.00000000</v>
  </separator>
  <separator name="performance" >
   <i type="int" name="NPAR">     8</i>
   <i type="int" name="NSIM">     4</i>
   <i type="int" name="NBLK">    -1</i>
   <i type="logical" name="LPLANE"> T  </i>
   <i type="logical" name="LSCALAPACK"> T  </i>
   <i type="logical" name="LSCAAWARE"> F  </i>
   <i type="logical" name="LSCALU"> F  </i>
   <i type="logical" name="LASYNC"> F  </i>
   <i type="logical" name="LORBITALREAL"> F  </i>
  </separator>
  <separator name="miscellaneous" >
   <i type="int" name="IDIOT">     3</i>
   <i type="int" name="ISPECIAL">     0</i>
   <i type="logical" name="LMUSIC"> F  </i>
   <v name="POMASS">     28.08500000</v>
   <v name="DARWINR">      0.00000000</v>
   <v name="DARWINV">      1.00000000</v>
   <i type="logical" name="LCORR"> T  </i>
  </separator>
  <i type="logical" name="GGA_COMPAT"> T  </i>
  <i type="logical" name="LBERRY"> F  </i>
  <i type="int" name="ICORELEVEL">     0</i>
  <i type="logical" name="LDAU"> F  </i>
  <i type="int" name="I_CONSTRAINED_M">     0</i>
  <separator name="electronic exchange-correlation" >
   <i type="string" name="GGA">--</i>
   <i type="int" name="VOSKOWN">     0</i>
   <i type="logical" name="LHFCALC"> F  </i>
   <i type="string" name="PRECFOCK"></i>
   <i type="logical" name="LSYMGRAD"> F  </i>
   <i type="logical" name="LHFONE"> F  </i>
   <i type="logical" name="LRHFCALC"> F  </i>
   <i type="logical" name="LTHOMAS"> F  </i>
   <i type="logical" name="LMODELHF"> F  </i>
   <i name="ENCUT4O">     -1.00000000</i>
   <i type="int" name="EXXOEP">     0</i>
   <i type="int" name="FOURORBIT">     0</i>
   <i name="AEXX">      0.00000000</i>
   <i name="HFALPHA">      0.00000000</i>
   <i name="MCALPHA">      0.00000000</i>
   <i name="ALDAX">      1.00000000</i>
   <i name="AGGAX">      1.00000000</i>
   <i name="ALDAC">      1.00000000</i>
   <i name="AGGAC">      1.00000000</i>
   <i type="int" name="NKREDX">     1</i>
   <i type="int" name="NKREDY">     1</i>
   <i type="int" name="NKREDZ">     1</i>
   <i type="logical" name="SHIFTRED"> F  </i>
   <i type="logical" name="ODDONLY"> F  </i>
   <i type="logical" name="EVENONLY"> F  </i>
   <i type="int" name="LMAXFOCK">     0</i>
   <i type="int" name="NMAXFOCKAE">     0</i>
   <i type="logical" name="LFOCKAEDFT"> F  </i>
   <i name="HFSCREEN">      0.00000000</i>
   <i name="HFSCREENC">      0.00000000</i>
   <i type="int" name="NBANDSGWLOW">     0</i>
  </separator>
  <separator name="vdW DFT" >
   <i type="logical" name="LUSE_VDW"> F  </i>
   <i name="Zab_VDW">     -0.84910000</i>
   <i name="PARAM1">      0.12340000</i>
   <i name="PARAM2">      1.00000000</i>
   <i name="PARAM3">      0.00000000</i>
  </separator>
  <separator name="model GW" >
   <i type="int" name="MODEL_GW">     0</i>
   <i name="MODEL_EPS0">      9.17662200</i>
   <i name="MODEL_ALPHA">      1.00000000</i>
  </separator>
  <separator name="linear response parameters" >
   <i type="logical" name="LEPSILON"> F  </i>
   <i type="logical" name="LRPA"> F  </i>
   <i type="logical" name="LNABLA"> F  </i>
   <i type="logical" name="LVEL"> F  </i>
   <i type="int" name="KINTER">     0</i>
   <i name="CSHIFT">      0.10000000</i>
   <i name="OMEGAMAX">     -1.00000000</i>
   <i name="DEG_THRESHOLD">      0.00200000</i>
   <i name="RTIME">     -0.10000000</i>
   <i name="WPLASMAI">      0.00000000</i>
   <v name="DFIELD">      0.00000000      0.00000000      0.00000000</v>
   <v name="WPLASMA">      0.00000000      0.00000000      0.00000000      0.00000000      0.00000000      0.00000000      0.00000000      0.00000000      0.00000000</v>
  </separator>
  <separator name="orbital magnetization" >
   <i type="logical" name="NUCIND"> F  </i>
   <v name="MAGPOS">      0.00000000      0.00000000      0.00000000</v>
   <i type="logical" name="LNICSALL"> T  </i>
   <i type="logical" name="ORBITALMAG"> F  </i>
   <i type="logical" name="LMAGBLOCH"> F  </i>
   <i type="logical" name="LCHIMAG"> F  </i>
   <i type="logical" name="LGAUGE"> T  </i>
   <i type="int" name="MAGATOM">     0</i>
   <v name="MAGDIPOL">      0.00000000      0.00000000      0.00000000</v>
   <v name="AVECCONST">      0.00000000      0.00000000      0.00000000</v>
  </separator>
  <separator name="response functions" >
   <i type="logical" name="LADDER"> F  </i>
   <i type="logical" name="LRPAFORCE"> F  </i>
   <i type="logical" name="LFXC"> F  </i>
   <i type="logical" name="LHARTREE"> T  </i>
   <i type="int" name="IBSE">     0</i>
   <v type="int" name="KPOINT">    -1     0     0     0</v>
   <i type="logical" name="LTCTE"> F  </i>
   <i type="logical" name="LTETE"> F  </i>
   <i type="logical" name="LTRIPLET"> F  </i>
   <i type="logical" name="LFXCEPS"> F  </i>
   <i type="logical" name="LFXHEG"> F  </i>
   <i type="int" name="NATURALO">     2</i>
   <i type="logical" name="L2ORDER"> F  </i>
   <i type="logical" name="LMP2LT"> F  </i>
   <i type="logical" name="LUSEW"> F  </i>
   <i name="ENCUTGW">     -2.00000000</i>
   <i name="ENCUTGWSOFT">     -2.00000000</i>
   <i name="ENCUTLF">     -1.00000000</i>
   <i type="int" name="LMAXMP2">    -1</i>
   <i name="SCISSOR">      0.00000000</i>
   <i type="int" name="NOMEGA">     0</i>
   <i type="int" name="NOMEGAR">     0</i>
   <i type="int" name="NBANDSGW">    -1</i>
   <i type="int" name="NBANDSO">    -1</i>
   <i type="int" name="NBANDSV">    -1</i>
   <i type="int" name="NELM">     1</i>
   <i type="int" name="NELMHF">     1</i>
   <i type="int" name="DIM">     3</i>
   <i type="int" name="ANTIRES">     0</i>
   <i name="OMEGAMAX">    -30.00000000</i>
   <i name="OMEGAMIN">    -30.00000000</i>
   <i name="OMEGATL">   -200.00000000</i>
   <i type="int" name="OMEGAGRID">   140</i>
   <i name="CSHIFT">     -0.10000000</i>
   <i type="logical" name="SELFENERGY"> F  </i>
   <i type="logical" name="LSPECTRAL"> F  </i>
   <i type="logical" name="LSPECTRALGW"> F  </i>
   <i type="logical" name="LSINGLES"> F  </i>
   <i type="logical" name="LFERMIGW"> F  </i>
   <i type="logical" name="ODDONLYGW"> F  </i>
   <i type="logical" name="EVENONLYGW"> F  </i>
   <i type="int" name="NKREDLFX">     1</i>
   <i type="int" name="NKREDLFY">     1</i>
   <i type="int" name="NKREDLFZ">     1</i>
   <i type="int" name="MAXMEM">  2800</i>
   <i type="int" name="TELESCOPE">     0</i>
   <i type="int" name="TAUPAR">     1</i>
   <i type="int" name="OMEGAPAR">    -1</i>
   <i name="LAMBDA">      1.00000000</i>
  </separator>
  <separator name="External order field" >
   <i name="OFIELD_KAPPA">      0.00000000</i>
   <v name="OFIELD_K">      0.00000000      0.00000000      0.00000000</v>
   <i name="OFIELD_Q6_NEAR">      0.00000000</i>
   <i name="OFIELD_Q6_FAR">      0.00000000</i>
   <i name="OFIELD_A">      0.00000000</i>
  </separator>
 </parameters>
 <atominfo>
  <atoms>       2 </atoms>
  <types>       1 </types>
  <array name="atoms" >
   <dimension dim="1">ion</dimension>
   <field type="string">element</field>
   <field type="int">atomtype</field>
   <set>
    <rc><c>Si</c><c>   1</c></rc>
    <rc><c>Si</c><c>   1</c></rc>
   </set>
  </array>
  <array name="atomtypes" >
   <dimension dim="1">type</dimension>
   <field type="int">atomspertype</field>
   <field type="string">element</field>
   <field>mass</field>
   <field>valence</field>
   <field type="string">pseudopotential</field>
   <set>
    <rc><c>   2</c><c>Si</c><c>     28.08500000</c><c>      4.00000000</c><c> PAW_PBE Si 05Jan2001                   </c></rc>
   </set>
  </array>
 </atominfo>
 <structure name="initialpos" >
  <crystal>
   <varray name="basis" >
    <v>      -2.45000000       2.45000000       1.27400000 </v>
    <v>       2.45000000      -2.45000000       1.27400000 </v>
    <v>       2.45000000       2.45000000      -1.27400000 </v>
   </varray>
   <i name="volume">     30.58874000 </i>
   <varray name="rec_basis" >
    <v>       0.00000000       0.20408163       0.39246468 </v>
    <v>       0.20408163       0.00000000       0.39246468 </v>
    <v>       0.20408163       0.20408163      -0.00000000 </v>
   </varray>
  </crystal>
  <varray name="positions" >
   <v>       0.25000000       0.75000000       0.50000000 </v>
   <v>       0.00000000       0.00000000       0.00000000 </v>
  </varray>
 </structure>
 <calculation>
  <scstep>
   <time name="dav">    0.15    0.15</time>
   <time name="total">    0.18    0.21</time>
   <energy>
    <i name="alphaZ">      4.40202223 </i>
    <i name="ewald">   -265.18101312 </i>
    <i name="hartreedc">     -2.30415367 </i>
    <i name="XCdc">    -17.81530915 </i>
    <i name="pawpsdc">     65.95520812 </i>
    <i name="pawaedc">    -30.76852678 </i>
    <i name="eentropy">     -0.01716160 </i>
    <i name="bandstr">     35.13109998 </i>
    <i name="atom">    206.09183643 </i>
    <i name="e_fr_energy">     -4.50599757 </i>
    <i name="e_wo_entrp">     -4.48883596 </i>
    <i name="e_0_energy">     -4.49741676 </i>
   </energy>
  </scstep>
  <scstep>
   <time name="dav">    0.22    0.23</time>
   <time name="total">    0.22    0.24</time>
   <energy>
    <i name="e_fr_energy">    -10.10385069 </i>
    <i name="e_wo_entrp">    -10.08477116 </i>
    <i name="e_0_energy">    -10.09431093 </i>
   </energy>
  </scstep>
  <scstep>
   <time name="dav">    0.16    0.16</time>
   <time name="total">    0.16    0.16</time>
   <energy>
    <i name="e_fr_energy">    -10.13951786 </i>
    <i name="e_wo_entrp">    -10.12041197 </i>
    <i name="e_0_energy">    -10.12996492 </i>
   </energy>
  </scstep>
  <scstep>
   <time name="dav">    0.23    0.24</time>
   <time name="total">    0.23    0.24</time>
   <energy>
    <i name="e_fr_energy">    -10.13954864 </i>
    <i name="e_wo_entrp">    -10.12044225 </i>
    <i name="e_0_energy">    -10.12999544 </i>
   </energy>
  </scstep>
  <scstep>
   <time name="dav">    0.14    0.14</time>
   <time name="total">    0.15    0.16</time>
   <energy>
    <i name="e_fr_energy">    -10.13954865 </i>
    <i name="e_wo_entrp">    -10.12044225 </i>
    <i name="e_0_energy">    -10.12999545 </i>
   </energy>
  </scstep>
  <scstep>
   <time name="dav">    0.16    0.16</time>
   <time name="total">    0.18    0.20</time>
   <energy>
    <i name="e_fr_energy">    -10.13082736 </i>
    <i name="e_wo_entrp">    -10.11159528 </i>
    <i name="e_0_energy">    -10.12121132 </i>
   </energy>
  </scstep>
  <scstep>
   <time name="dav">    0.15    0.15</time>
   <time name="total">    0.18    0.19</time>
   <energy>
    <i name="e_fr_energy">    -10.12419421 </i>
    <i name="e_wo_entrp">    -10.10477471 </i>
    <i name="e_0_energy">    -10.11448446 </i>
   </energy>
  </scstep>
  <scstep>
   <time name="dav">    0.08    0.09</time>
   <time name="total">    0.11    0.12</time>
   <energy>
    <i name="alphaZ">      4.40202223 </i>
    <i name="ewald">   -265.18101312 </i>
    <i name="hartreedc">     -2.49090516 </i>
    <i name="XCdc">    -17.54351792 </i>
    <i name="pawpsdc">     72.38787459 </i>
    <i name="pawaedc">    -37.31419166 </i>
    <i name="eentropy">     -0.01938699 </i>
    <i name="bandstr">     29.54311288 </i>
    <i name="atom">    206.09183643 </i>
    <i name="e_fr_energy">    -10.12416872 </i>
    <i name="e_wo_entrp">    -10.10478172 </i>
    <i name="e_0_energy">    -10.11447522 </i>
   </energy>
  </scstep>
  <structure>
   <crystal>
    <varray name="basis" >
     <v>      -2.45000000       2.45000000       1.27400000 </v>
     <v>       2.45000000      -2.45000000       1.27400000 </v>
     <v>       2.45000000       2.45000000      -1.27400000 </v>
    </varray>
    <i name="volume">     30.58874000 </i>
    <varray name="rec_basis" >
     <v>       0.00000000       0.20408163       0.39246468 </v>
     <v>       0.20408163       0.00000000       0.39246468 </v>
     <v>       0.20408163       0.20408163      -0.00000000 </v>
    </varray>
   </crystal>
   <varray name="positions" >
    <v>       0.25000000       0.75000000       0.50000000 </v>
    <v>       0.00000000       0.00000000       0.00000000 </v>
   </varray>
  </structure>
  <varray name="forces" >
   <v>       0.00000000      -0.00000000       0.00000000 </v>
   <v>      -0.00000000       0.00000000      -0.00000000 </v>
  </varray>
  <varray name="stress" >
   <v>      32.75988514       0.00000000       0.00000000 </v>
   <v>      -0.00000000      32.75988514       0.00000000 </v>
   <v>       0.00000000       0.00000000     -33.43435234 </v>
  </varray>
  <energy>
   <i name="e_fr_energy">    -10.12416872 </i>
   <i name="e_wo_entrp">    -10.11447522 </i>
   <i name="e_0_energy">     -0.01938699 </i>
  </energy>
  <time name="totalsc">    1.86    2.28</time>
 </calculation>
 <calculation>
  <scstep>
   <time name="dav">    0.19    0.19</time>
   <time name="total">    0.22    0.23</time>
   <energy>
    <i name="alphaZ">      4.33895288 </i>
    <i name="ewald">   -263.69805649 </i>
    <i name="hartreedc">     -2.49975327 </i>
    <i name="XCdc">    -17.61559152 </i>
    <i name="pawpsdc">     72.39994294 </i>
    <i name="pawaedc">    -37.32673525 </i>
    <i name="eentropy">     -0.02389733 </i>
    <i name="bandstr">     28.17500911 </i>
    <i name="atom">    206.09183643 </i>
    <i name="e_fr_energy">    -10.15829250 </i>
    <i name="e_wo_entrp">    -10.13439517 </i>
    <i name="e_0_energy">    -10.14634384 </i>
   </energy>
  </scstep>
  <scstep>
   <time name="dav">    0.14    0.14</time>
   <time name="total">    0.18    0.19</time>
   <energy>
    <i name="e_fr_energy">    -10.14852995 </i>
    <i name="e_wo_entrp">    -10.12425393 </i>
    <i name="e_0_energy">    -10.13639194 </i>
   </energy>
  </scstep>
  <scstep>
   <time name="dav">    0.17    0.17</time>
   <time name="total">    0.20    0.21</time>
   <energy>
    <i name="e_fr_energy">    -10.14380794 </i>
    <i name="e_wo_entrp">    -10.11909127 </i>
    <i name="e_0_energy">    -10.13144960 </i>
   </energy>
  </scstep>
  <scstep>
   <time name="dav">    0.08    0.08</time>
   <time name="total">    0.10    0.11</time>
   <energy>
    <i name="alphaZ">      4.33895288 </i>
    <i name="ewald">   -263.69805649 </i>
    <i name="hartreedc">     -2.68292056 </i>
    <i name="XCdc">    -17.61040757 </i>
    <i name="pawpsdc">     72.21777351 </i>
    <i name="pawaedc">    -37.14022814 </i>
    <i name="eentropy">     -0.02469993 </i>
    <i name="bandstr">     28.36392618 </i>
    <i name="atom">    206.09183643 </i>
    <i name="e_fr_energy">    -10.14382369 </i>
    <i name="e_wo_entrp">    -10.11912376 </i>
    <i name="e_0_energy">    -10.13147373 </i>
   </energy>
  </scstep>
  <structure>
   <crystal>
    <varray name="basis" >
     <v>      -2.48696244       2.48696244       1.25438382 </v>
     <v>       2.48696244      -2.48696244       1.25438382 </v>
     <v>       2.48696244       2.48696244      -1.25438382 </v>
    </varray>
    <i name="volume">     31.03336622 </i>
    <varray name="rec_basis" >
     <v>      -0.00000000       0.20104847       0.39860208 </v>
     <v>       0.20104847      -0.00000000       0.39860208 </v>
     <v>       0.20104847       0.20104847      -0.00000000 </v>
    </varray>
   </crystal>
   <varray name="positions" >
    <v>       0.25000000       0.75000000       0.50000000 </v>
    <v>       0.00000000      -0.00000000      -0.00000000 </v>
   </varray>
  </structure>
  <varray name="forces" >
   <v>       0.00000000       0.00000000      -0.00000000 </v>
   <v>      -0.00000000      -0.00000000       0.00000000 </v>
  </varray>
  <varray name="stress" >
   <v>       4.08003828       0.00000000       0.00000000 </v>
   <v>       0.00000000       4.08003828      -0.00000000 </v>
   <v>      -0.00000000      -0.00000000     -13.84464881 </v>
  </varray>
  <energy>
   <i name="e_fr_energy">    -10.14382369 </i>
   <i name="e_wo_entrp">    -10.13147373 </i>
   <i name="e_0_energy">     -0.02469993 </i>
  </energy>
  <time name="totalsc">    0.86    1.01</time>
 </calculation>
 <calculation>
  <scstep>
   <time name="dav">    0.19    0.19</time>
   <time name="total">    0.22    0.23</time>
   <energy>
    <i name="alphaZ">      4.32815281 </i>
    <i name="ewald">   -263.43004576 </i>
    <i name="hartreedc">     -2.68984731 </i>
    <i name="XCdc">    -17.62354963 </i>
    <i name="pawpsdc">     72.15083879 </i>
    <i name="pawaedc">    -37.07067917 </i>
    <i name="eentropy">     -0.02379648 </i>
    <i name="bandstr">     28.12214985 </i>
    <i name="atom">    206.09183643 </i>
    <i name="e_fr_energy">    -10.14494049 </i>
    <i name="e_wo_entrp">    -10.12114400 </i>
    <i name="e_0_energy">    -10.13304225 </i>
   </energy>
  </scstep>
  <scstep>
   <time name="dav">    0.10    0.11</time>
   <time name="total">    0.13    0.14</time>
   <energy>
    <i name="alphaZ">      4.32815281 </i>
    <i name="ewald">   -263.43004576 </i>
    <i name="hartreedc">     -2.70515627 </i>
    <i name="XCdc">    -17.62282147 </i>
    <i name="pawpsdc">     72.14587011 </i>
    <i name="pawaedc">    -37.06561528 </i>
    <i name="eentropy">     -0.02386112 </i>
    <i name="bandstr">     28.13697885 </i>
    <i name="atom">    206.09183643 </i>
    <i name="e_fr_energy">    -10.14466170 </i>
    <i name="e_wo_entrp">    -10.12080058 </i>
    <i name="e_0_energy">    -10.13273114 </i>
   </energy>
  </scstep>
  <structure>
   <crystal>
    <varray name="basis" >
     <v>      -2.49353012       2.49353012       1.25089831 </v>
     <v>       2.49353012      -2.49353012       1.25089831 </v>
     <v>       2.49353012       2.49353012      -1.25089831 </v>
    </varray>
    <i name="volume">     31.11080399 </i>
    <varray name="rec_basis" >
     <v>      -0.00000000       0.20051893       0.39971275 </v>
     <v>       0.20051893      -0.00000000       0.39971275 </v>
     <v>       0.20051893       0.20051893       0.00000000 </v>
    </varray>
   </crystal>
   <varray name="positions" >
    <v>       0.25000000       0.75000000       0.50000000 </v>
    <v>       0.00000000      -0.00000000      -0.00000000 </v>
   </varray>
  </structure>
  <varray name="forces" >
   <v>       0.00000000      -0.00000000      -0.00000000 </v>
   <v>      -0.00000000       0.00000000       0.00000000 </v>
  </varray>
  <varray name="stress" >
   <v>       1.05171829       0.00000000       0.00000000 </v>
   <v>       0.00000000       1.05171829      -0.00000000 </v>
   <v>      -0.00000000      -0.00000000     -10.98293878 </v>
  </varray>
  <energy>
   <i name="e_fr_energy">    -10.14466170 </i>
   <i name="e_wo_entrp">    -10.13273114 </i>
   <i name="e_0_energy">     -0.02386112 </i>
  </energy>
  <time name="totalsc">    0.51    0.62</time>
 </calculation>
 <calculation>
  <scstep>
   <time name="dav">    0.19    0.19</time>
   <time name="total">    0.22    0.23</time>
   <energy>
    <i name="alphaZ">      4.30691270 </i>
    <i name="ewald">   -262.88964057 </i>
    <i name="hartreedc">     -2.73045133 </i>
    <i name="XCdc">    -17.64717791 </i>
    <i name="pawpsdc">     72.13097030 </i>
    <i name="pawaedc">    -37.05043121 </i>
    <i name="eentropy">     -0.02204569 </i>
    <i name="bandstr">     27.66604731 </i>
    <i name="atom">    206.09183643 </i>
    <i name="e_fr_energy">    -10.14397997 </i>
    <i name="e_wo_entrp">    -10.12193428 </i>
    <i name="e_0_energy">    -10.13295712 </i>
   </energy>
  </scstep>
  <scstep>
   <time name="dav">    0.14    0.14</time>
   <time name="total">    0.17    0.18</time>
   <energy>
    <i name="e_fr_energy">    -10.14285698 </i>
    <i name="e_wo_entrp">    -10.12071076 </i>
    <i name="e_0_energy">    -10.13178387 </i>
   </energy>
  </scstep>
  <scstep>
   <time name="dav">    0.15    0.15</time>
   <time name="total">    0.18    0.19</time>
   <energy>
    <i name="e_fr_energy">    -10.14232241 </i>
    <i name="e_wo_entrp">    -10.12004775 </i>
    <i name="e_0_energy">    -10.13118508 </i>
   </energy>
  </scstep>
  <scstep>
   <time name="dav">    0.07    0.07</time>
   <time name="total">    0.10    0.11</time>
   <energy>
    <i name="alphaZ">      4.30691270 </i>
    <i name="ewald">   -262.88964057 </i>
    <i name="hartreedc">     -2.80499342 </i>
    <i name="XCdc">    -17.64443009 </i>
    <i name="pawpsdc">     72.07178068 </i>
    <i name="pawaedc">    -36.98963304 </i>
    <i name="eentropy">     -0.02227011 </i>
    <i name="bandstr">     27.73811259 </i>
    <i name="atom">    206.09183643 </i>
    <i name="e_fr_energy">    -10.14232484 </i>
    <i name="e_wo_entrp">    -10.12005473 </i>
    <i name="e_0_energy">    -10.13118979 </i>
   </energy>
  </scstep>
  <structure>
   <crystal>
    <varray name="basis" >
     <v>      -2.50666549       2.50666549       1.24392729 </v>
     <v>       2.50666549      -2.50666549       1.24392729 </v>
     <v>       2.50666549       2.50666549      -1.24392729 </v>
    </varray>
    <i name="volume">     31.26423101 </i>
    <varray name="rec_basis" >
     <v>      -0.00000000       0.19946818       0.40195275 </v>
     <v>       0.19946818      -0.00000000       0.40195275 </v>
     <v>       0.19946818       0.19946818      -0.00000000 </v>
    </varray>
   </crystal>
   <varray name="positions" >
    <v>       0.25000000       0.75000000       0.50000000 </v>
    <v>       0.00000000      -0.00000000      -0.00000000 </v>
   </varray>
  </structure>
  <varray name="forces" >
   <v>       0.00000000       0.00000000       0.00000000 </v>
   <v>      -0.00000000      -0.00000000      -0.00000000 </v>
  </varray>
  <varray name="stress" >
   <v>     -17.95286016       0.00000000       0.00000000 </v>
   <v>       0.00000000     -17.95286016      -0.00000000 </v>
   <v>       0.00000000      -0.00000000      11.98215623 </v>
  </varray>
  <energy>
   <i name="e_fr_energy">    -10.14232484 </i>
   <i name="e_wo_entrp">    -10.13118979 </i>
   <i name="e_0_energy">     -0.02227011 </i>
  </energy>
  <time name="totalsc">    0.83    0.96</time>
 </calculation>
 <calculation>
  <scstep>
   <time name="dav">    0.19    0.19</time>
   <time name="total">    0.22    0.23</time>
   <energy>
    <i name="alphaZ">      4.32352837 </i>
    <i name="ewald">   -263.31391785 </i>
    <i name="hartreedc">     -2.80142324 </i>
    <i name="XCdc">    -17.62532550 </i>
    <i name="pawpsdc">     72.04765991 </i>
    <i name="pawaedc">    -36.96456549 </i>
    <i name="eentropy">     -0.02374880 </i>
    <i name="bandstr">     28.12042112 </i>
    <i name="atom">    206.09183643 </i>
    <i name="e_fr_energy">    -10.14553504 </i>
    <i name="e_wo_entrp">    -10.12178624 </i>
    <i name="e_0_energy">    -10.13366064 </i>
   </energy>
  </scstep>
  <scstep>
   <time name="dav">    0.13    0.13</time>
   <time name="total">    0.16    0.17</time>
   <energy>
    <i name="e_fr_energy">    -10.14482827 </i>
    <i name="e_wo_entrp">    -10.12117727 </i>
    <i name="e_0_energy">    -10.13300277 </i>
   </energy>
  </scstep>
  <scstep>
   <time name="dav">    0.10    0.10</time>
   <time name="total">    0.12    0.14</time>
   <energy>
    <i name="alphaZ">      4.32352837 </i>
    <i name="ewald">   -263.31391785 </i>
    <i name="hartreedc">     -2.74200896 </i>
    <i name="XCdc">    -17.62777382 </i>
    <i name="pawpsdc">     72.07700156 </i>
    <i name="pawaedc">    -36.99453206 </i>
    <i name="eentropy">     -0.02352096 </i>
    <i name="bandstr">     28.06490639 </i>
    <i name="atom">    206.09183643 </i>
    <i name="e_fr_energy">    -10.14448090 </i>
    <i name="e_wo_entrp">    -10.12095994 </i>
    <i name="e_0_energy">    -10.13272042 </i>
   </energy>
  </scstep>
  <structure>
   <crystal>
    <varray name="basis" >
     <v>      -2.49636495       2.49636495       1.24939385 </v>
     <v>       2.49636495      -2.49636495       1.24939385 </v>
     <v>       2.49636495       2.49636495      -1.24939385 </v>
    </varray>
    <i name="volume">     31.14408003 </i>
    <varray name="rec_basis" >
     <v>      -0.00000000       0.20029123       0.40019406 </v>
     <v>       0.20029123      -0.00000000       0.40019406 </v>
     <v>       0.20029123       0.20029123       0.00000000 </v>
    </varray>
   </crystal>
   <varray name="positions" >
    <v>       0.25000000       0.75000000       0.50000000 </v>
    <v>       0.00000000      -0.00000000      -0.00000000 </v>
   </varray>
  </structure>
  <varray name="forces" >
   <v>       0.00000000      -0.00000000      -0.00000000 </v>
   <v>      -0.00000000       0.00000000       0.00000000 </v>
  </varray>
  <varray name="stress" >
   <v>      -5.42910241       0.00000000       0.00000000 </v>
   <v>       0.00000000      -5.42910241      -0.00000000 </v>
   <v>      -0.00000000      -0.00000000      -4.63152477 </v>
  </varray>
  <energy>
   <i name="e_fr_energy">    -10.14448090 </i>
   <i name="e_wo_entrp">    -10.13272042 </i>
   <i name="e_0_energy">     -0.02352096 </i>
  </energy>
  <time name="totalsc">    0.66    0.80</time>
 </calculation>
 <calculation>
  <scstep>
   <time name="dav">    0.11    0.11</time>
   <time name="total">    0.15    0.15</time>
   <energy>
    <i name="alphaZ">      4.32498527 </i>
    <i name="ewald">   -263.35059324 </i>
    <i name="hartreedc">     -2.74259605 </i>
    <i name="XCdc">    -17.62588673 </i>
    <i name="pawpsdc">     72.08412327 </i>
    <i name="pawaedc">    -37.00191140 </i>
    <i name="eentropy">     -0.02367745 </i>
    <i name="bandstr">     28.09919311 </i>
    <i name="atom">    206.09183643 </i>
    <i name="e_fr_energy">    -10.14452679 </i>
    <i name="e_wo_entrp">    -10.12084934 </i>
    <i name="e_0_energy">    -10.13268807 </i>
   </energy>
  </scstep>
  <scstep>
   <time name="dav">    0.07    0.07</time>
   <time name="total">    0.10    0.11</time>
   <energy>
    <i name="alphaZ">      4.32498527 </i>
    <i name="ewald">   -263.35059324 </i>
    <i name="hartreedc">     -2.74014151 </i>
    <i name="XCdc">    -17.62592348 </i>
    <i name="pawpsdc">     72.09163467 </i>
    <i name="pawaedc">    -37.00970669 </i>
    <i name="eentropy">     -0.02366989 </i>
    <i name="bandstr">     28.09705465 </i>
    <i name="atom">    206.09183643 </i>
    <i name="e_fr_energy">    -10.14452379 </i>
    <i name="e_wo_entrp">    -10.12085390 </i>
    <i name="e_0_energy">    -10.13268885 </i>
   </energy>
  </scstep>
  <structure>
   <crystal>
    <varray name="basis" >
     <v>      -2.49547037       2.49547037       1.24986861 </v>
     <v>       2.49547037      -2.49547037       1.24986861 </v>
     <v>       2.49547037       2.49547037      -1.24986861 </v>
    </varray>
    <i name="volume">     31.13358894 </i>
    <varray name="rec_basis" >
     <v>      -0.00000000       0.20036303       0.40004205 </v>
     <v>       0.20036303      -0.00000000       0.40004205 </v>
     <v>       0.20036303       0.20036303      -0.00000000 </v>
    </varray>
   </crystal>
   <varray name="positions" >
    <v>       0.25000000       0.75000000       0.50000000 </v>
    <v>       0.00000000      -0.00000000      -0.00000000 </v>
   </varray>
  </structure>
  <varray name="forces" >
   <v>       0.00000000       0.00000000       0.00000000 </v>
   <v>      -0.00000000      -0.00000000      -0.00000000 </v>
  </varray>
  <varray name="stress" >
   <v>      -5.03431980       0.00000000       0.00000000 </v>
   <v>       0.00000000      -5.03431980       0.00000000 </v>
   <v>       0.00000000       0.00000000      -4.99307782 </v>
  </varray>
  <energy>
   <i name="e_fr_energy">    -10.14452379 </i>
   <i name="e_wo_entrp">    -10.13268885 </i>
   <i name="e_0_energy">     -0.02366989 </i>
  </energy>
  <time name="totalsc">    0.38    0.49</time>
 </calculation>
 <calculation>
  <scstep>
   <time name="dav">    0.09    0.09</time>
   <time name="total">    0.12    0.13</time>
   <energy>
    <i name="alphaZ">      4.32656773 </i>
    <i name="ewald">   -263.39033537 </i>
    <i name="hartreedc">     -2.73647555 </i>
    <i name="XCdc">    -17.62403449 </i>
    <i name="pawpsdc">     72.10347001 </i>
    <i name="pawaedc">    -37.02196320 </i>
    <i name="eentropy">     -0.02382163 </i>
    <i name="bandstr">     28.13021112 </i>
    <i name="atom">    206.09183643 </i>
    <i name="e_fr_energy">    -10.14454496 </i>
    <i name="e_wo_entrp">    -10.12072332 </i>
    <i name="e_0_energy">    -10.13263414 </i>
   </energy>
  </scstep>
  <scstep>
   <time name="dav">    0.06    0.06</time>
   <time name="total">    0.08    0.09</time>
   <energy>
    <i name="alphaZ">      4.32656773 </i>
    <i name="ewald">   -263.39033537 </i>
    <i name="hartreedc">     -2.73405592 </i>
    <i name="XCdc">    -17.62415340 </i>
    <i name="pawpsdc">     72.10529032 </i>
    <i name="pawaedc">    -37.02384754 </i>
    <i name="eentropy">     -0.02381257 </i>
    <i name="bandstr">     28.12797057 </i>
    <i name="atom">    206.09183643 </i>
    <i name="e_fr_energy">    -10.14453975 </i>
    <i name="e_wo_entrp">    -10.12072718 </i>
    <i name="e_0_energy">    -10.13263346 </i>
   </energy>
  </scstep>
  <structure>
   <crystal>
    <varray name="basis" >
     <v>      -2.49450025       2.49450025       1.25038346 </v>
     <v>       2.49450025      -2.49450025       1.25038346 </v>
     <v>       2.49450025       2.49450025      -1.25038346 </v>
    </varray>
    <i name="volume">     31.12220173 </i>
    <varray name="rec_basis" >
     <v>       0.00000000       0.20044095       0.39987733 </v>
     <v>       0.20044095       0.00000000       0.39987733 </v>
     <v>       0.20044095       0.20044095      -0.00000000 </v>
    </varray>
   </crystal>
   <varray name="positions" >
    <v>       0.25000000       0.75000000       0.50000000 </v>
    <v>       0.00000000      -0.00000000      -0.00000000 </v>
   </varray>
  </structure>
  <varray name="forces" >
   <v>      -0.00000000       0.00000000       0.00000000 </v>
   <v>       0.00000000      -0.00000000      -0.00000000 </v>
  </varray>
  <varray name="stress" >
   <v>      -4.01852887       0.00000000       0.00000000 </v>
   <v>       0.00000000      -4.01852887       0.00000000 </v>
   <v>       0.00000000       0.00000000      -6.06746599 </v>
  </varray>
  <energy>
   <i name="e_fr_energy">    -10.14453975 </i>
   <i name="e_wo_entrp">    -10.13263346 </i>
   <i name="e_0_energy">     -0.02381257 </i>
  </energy>
  <time name="totalsc">    0.32    0.44</time>
 </calculation>
 <calculation>
  <scstep>
   <time name="dav">    0.06    0.06</time>
   <time name="total">    0.08    0.09</time>
   <energy>
    <i name="alphaZ">      4.32729991 </i>
    <i name="ewald">   -263.40869060 </i>
    <i name="hartreedc">     -2.73089389 </i>
    <i name="XCdc">    -17.62335845 </i>
    <i name="pawpsdc">     72.10887907 </i>
    <i name="pawaedc">    -37.02753424 </i>
    <i name="eentropy">     -0.02387484 </i>
    <i name="bandstr">     28.14179995 </i>
    <i name="atom">    206.09183643 </i>
    <i name="e_fr_energy">    -10.14453666 </i>
    <i name="e_wo_entrp">    -10.12066182 </i>
    <i name="e_0_energy">    -10.13259924 </i>
   </energy>
  </scstep>
  <scstep>
   <time name="dav">    0.06    0.06</time>
   <time name="total">    0.08    0.09</time>
   <energy>
    <i name="alphaZ">      4.32729991 </i>
    <i name="ewald">   -263.40869060 </i>
    <i name="hartreedc">     -2.72973644 </i>
    <i name="XCdc">    -17.62340885 </i>
    <i name="pawpsdc">     72.11008362 </i>
    <i name="pawaedc">    -37.02878119 </i>
    <i name="eentropy">     -0.02387068 </i>
    <i name="bandstr">     28.14073214 </i>
    <i name="atom">    206.09183643 </i>
    <i name="e_fr_energy">    -10.14453566 </i>
    <i name="e_wo_entrp">    -10.12066498 </i>
    <i name="e_0_energy">    -10.13260032 </i>
   </energy>
  </scstep>
  <structure>
   <crystal>
    <varray name="basis" >
     <v>      -2.49405193       2.49405193       1.25062138 </v>
     <v>       2.49405193      -2.49405193       1.25062138 </v>
     <v>       2.49405193       2.49405193      -1.25062138 </v>
    </varray>
    <i name="volume">     31.11693582 </i>
    <varray name="rec_basis" >
     <v>       0.00000000       0.20047698       0.39980126 </v>
     <v>       0.20047698       0.00000000       0.39980126 </v>
     <v>       0.20047698       0.20047698      -0.00000000 </v>
    </varray>
   </crystal>
   <varray name="positions" >
    <v>       0.25000000       0.75000000       0.50000000 </v>
    <v>       0.00000000      -0.00000000      -0.00000000 </v>
   </varray>
  </structure>
  <varray name="forces" >
   <v>      -0.00000000       0.00000000       0.00000000 </v>
   <v>       0.00000000      -0.00000000      -0.00000000 </v>
  </varray>
  <varray name="stress" >
   <v>      -3.27085048       0.00000000       0.00000000 </v>
   <v>       0.00000000      -3.27085048       0.00000000 </v>
   <v>       0.00000000       0.00000000      -6.87328297 </v>
  </varray>
  <energy>
   <i name="e_fr_energy">    -10.14453566 </i>
   <i name="e_wo_entrp">    -10.13260032 </i>
   <i name="e_0_energy">     -0.02387068 </i>
  </energy>
  <time name="totalsc">    0.29    0.40</time>
 </calculation>
 <calculation>
  <scstep>
   <time name="dav">    0.06    0.06</time>
   <time name="total">    0.08    0.09</time>
   <energy>
    <i name="alphaZ">      4.32715044 </i>
    <i name="ewald">   -263.40494508 </i>
    <i name="hartreedc">     -2.72839924 </i>
    <i name="XCdc">    -17.62359916 </i>
    <i name="pawpsdc">     72.11232407 </i>
    <i name="pawaedc">    -37.03108774 </i>
    <i name="eentropy">     -0.02385031 </i>
    <i name="bandstr">     28.13603456 </i>
    <i name="atom">    206.09183643 </i>
    <i name="e_fr_energy">    -10.14453604 </i>
    <i name="e_wo_entrp">    -10.12068572 </i>
    <i name="e_0_energy">    -10.13261088 </i>
   </energy>
  </scstep>
  <scstep>
   <time name="dav">    0.06    0.06</time>
   <time name="total">    0.08    0.09</time>
   <energy>
    <i name="alphaZ">      4.32715044 </i>
    <i name="ewald">   -263.40494508 </i>
    <i name="hartreedc">     -2.72861212 </i>
    <i name="XCdc">    -17.62357672 </i>
    <i name="pawpsdc">     72.11265666 </i>
    <i name="pawaedc">    -37.03143169 </i>
    <i name="eentropy">     -0.02385123 </i>
    <i name="bandstr">     28.13623729 </i>
    <i name="atom">    206.09183643 </i>
    <i name="e_fr_energy">    -10.14453601 </i>
    <i name="e_wo_entrp">    -10.12068478 </i>
    <i name="e_0_energy">    -10.13261040 </i>
   </energy>
  </scstep>
  <structure>
   <crystal>
    <varray name="basis" >
     <v>      -2.49414342       2.49414342       1.25057283 </v>
     <v>       2.49414342      -2.49414342       1.25057283 </v>
     <v>       2.49414342       2.49414342      -1.25057283 </v>
    </varray>
    <i name="volume">     31.11801071 </i>
    <varray name="rec_basis" >
     <v>      -0.00000000       0.20046963       0.39981678 </v>
     <v>       0.20046963      -0.00000000       0.39981678 </v>
     <v>       0.20046963       0.20046963       0.00000000 </v>
    </varray>
   </crystal>
   <varray name="positions" >
    <v>       0.25000000       0.75000000       0.50000000 </v>
    <v>       0.00000000      -0.00000000      -0.00000000 </v>
   </varray>
  </structure>
  <varray name="forces" >
   <v>      -0.00000000       0.00000000       0.00000000 </v>
   <v>       0.00000000      -0.00000000      -0.00000000 </v>
  </varray>
  <varray name="stress" >
   <v>      -3.11389510      -0.00000000       0.00000000 </v>
   <v>      -0.00000000      -3.11389510       0.00000000 </v>
   <v>       0.00000000       0.00000000      -7.00037721 </v>
  </varray>
  <energy>
   <i name="e_fr_energy">    -10.14453601 </i>
   <i name="e_wo_entrp">    -10.13261040 </i>
   <i name="e_0_energy">     -0.02385123 </i>
  </energy>
  <time name="totalsc">    0.29    0.40</time>
 </calculation>
 <calculation>
  <scstep>
   <time name="dav">    0.06    0.06</time>
   <time name="total">    0.08    0.09</time>
   <energy>
    <i name="alphaZ">      4.32685904 </i>
    <i name="ewald">   -263.39764076 </i>
    <i name="hartreedc">     -2.72892152 </i>
    <i name="XCdc">    -17.62390166 </i>
    <i name="pawpsdc">     72.11290371 </i>
    <i name="pawaedc">    -37.03169344 </i>
    <i name="eentropy">     -0.02382304 </i>
    <i name="bandstr">     28.12984393 </i>
    <i name="atom">    206.09183643 </i>
    <i name="e_fr_energy">    -10.14453730 </i>
    <i name="e_wo_entrp">    -10.12071426 </i>
    <i name="e_0_energy">    -10.13262578 </i>
   </energy>
  </scstep>
  <scstep>
   <time name="dav">    0.06    0.06</time>
   <time name="total">    0.08    0.09</time>
   <energy>
    <i name="alphaZ">      4.32685904 </i>
    <i name="ewald">   -263.39764076 </i>
    <i name="hartreedc">     -2.72936954 </i>
    <i name="XCdc">    -17.62387545 </i>
    <i name="pawpsdc">     72.11271123 </i>
    <i name="pawaedc">    -37.03149401 </i>
    <i name="eentropy">     -0.02382473 </i>
    <i name="bandstr">     28.13026070 </i>
    <i name="atom">    206.09183643 </i>
    <i name="e_fr_energy">    -10.14453709 </i>
    <i name="e_wo_entrp">    -10.12071236 </i>
    <i name="e_0_energy">    -10.13262473 </i>
   </energy>
  </scstep>
  <structure>
   <crystal>
    <varray name="basis" >
     <v>      -2.49432183       2.49432183       1.25047814 </v>
     <v>       2.49432183      -2.49432183       1.25047814 </v>
     <v>       2.49432183       2.49432183      -1.25047814 </v>
    </varray>
    <i name="volume">     31.12010640 </i>
    <varray name="rec_basis" >
     <v>       0.00000000       0.20045529       0.39984705 </v>
     <v>       0.20045529       0.00000000       0.39984705 </v>
     <v>       0.20045529       0.20045529       0.00000000 </v>
    </varray>
   </crystal>
   <varray name="positions" >
    <v>       0.25000000       0.75000000       0.50000000 </v>
    <v>       0.00000000      -0.00000000      -0.00000000 </v>
   </varray>
  </structure>
  <varray name="forces" >
   <v>      -0.00000000       0.00000000       0.00000000 </v>
   <v>       0.00000000      -0.00000000      -0.00000000 </v>
  </varray>
  <varray name="stress" >
   <v>      -3.26413156       0.00000000       0.00000000 </v>
   <v>       0.00000000      -3.26413156       0.00000000 </v>
   <v>       0.00000000       0.00000000      -6.80411199 </v>
  </varray>
  <energy>
   <i name="e_fr_energy">    -10.14453709 </i>
   <i name="e_wo_entrp">    -10.13262473 </i>
   <i name="e_0_energy">     -0.02382473 </i>
  </energy>
  <time name="totalsc">    0.29    0.40</time>
 </calculation>
 <calculation>
  <scstep>
   <time name="dav">    0.13    0.13</time>
   <time name="total">    0.16    0.16</time>
   <energy>
    <i name="alphaZ">      4.35394033 </i>
    <i name="ewald">   -263.92413937 </i>
    <i name="hartreedc">     -2.73765608 </i>
    <i name="XCdc">    -17.59205222 </i>
    <i name="pawpsdc">     72.11220109 </i>
    <i name="pawaedc">    -37.03097293 </i>
    <i name="eentropy">     -0.02364910 </i>
    <i name="bandstr">     28.60564851 </i>
    <i name="atom">    206.09183643 </i>
    <i name="e_fr_energy">    -10.14484334 </i>
    <i name="e_wo_entrp">    -10.12119424 </i>
    <i name="e_0_energy">    -10.13301879 </i>
   </energy>
  </scstep>
  <scstep>
   <time name="dav">    0.06    0.06</time>
   <time name="total">    0.08    0.09</time>
   <energy>
    <i name="alphaZ">      4.35394033 </i>
    <i name="ewald">   -263.92413937 </i>
    <i name="hartreedc">     -2.72559914 </i>
    <i name="XCdc">    -17.59087808 </i>
    <i name="pawpsdc">     72.16393916 </i>
    <i name="pawaedc">    -37.08391529 </i>
    <i name="eentropy">     -0.02365206 </i>
    <i name="bandstr">     28.59373955 </i>
    <i name="atom">    206.09183643 </i>
    <i name="e_fr_energy">    -10.14472848 </i>
    <i name="e_wo_entrp">    -10.12107642 </i>
    <i name="e_0_energy">    -10.13290245 </i>
   </energy>
  </scstep>
  <structure>
   <crystal>
    <varray name="basis" >
     <v>      -2.49102793       2.49102793       1.24598887 </v>
     <v>       2.49102793      -2.49102793       1.24598887 </v>
     <v>       2.49102793       2.49102793      -1.24598887 </v>
    </varray>
    <i name="volume">     30.92654091 </i>
    <varray name="rec_basis" >
     <v>       0.00000000       0.20072035       0.40128769 </v>
     <v>       0.20072035       0.00000000       0.40128769 </v>
     <v>       0.20072035       0.20072035       0.00000000 </v>
    </varray>
   </crystal>
   <varray name="positions" >
    <v>       0.25000000       0.75000000       0.50000000 </v>
    <v>      -0.00000000       0.00000000       0.00000000 </v>
   </varray>
  </structure>
  <varray name="forces" >
   <v>       0.00000000      -0.00000000      -0.00000000 </v>
   <v>      -0.00000000       0.00000000       0.00000000 </v>
  </varray>
  <varray name="stress" >
   <v>      -0.25489642       0.00000000       0.00000000 </v>
   <v>       0.00000000      -0.25489642       0.00000000 </v>
   <v>       0.00000000       0.00000000       1.92823240 </v>
  </varray>
  <energy>
   <i name="e_fr_energy">    -10.14472848 </i>
   <i name="e_wo_entrp">    -10.13290245 </i>
   <i name="e_0_energy">     -0.02365206 </i>
  </energy>
  <time name="totalsc">    0.50    0.90</time>
 </calculation>
 <calculation>
  <scstep>
   <time name="dav">    0.08    0.08</time>
   <time name="total">    0.11    0.11</time>
   <energy>
    <i name="alphaZ">      4.34964027 </i>
    <i name="ewald">   -263.84073516 </i>
    <i name="hartreedc">     -2.70844397 </i>
    <i name="XCdc">    -17.59369193 </i>
    <i name="pawpsdc">     72.25337766 </i>
    <i name="pawaedc">    -37.17558941 </i>
    <i name="eentropy">     -0.02368702 </i>
    <i name="bandstr">     28.50257648 </i>
    <i name="atom">    206.09183643 </i>
    <i name="e_fr_energy">    -10.14471667 </i>
    <i name="e_wo_entrp">    -10.12102964 </i>
    <i name="e_0_energy">    -10.13287316 </i>
   </energy>
  </scstep>
  <scstep>
   <time name="dav">    0.06    0.06</time>
   <time name="total">    0.08    0.09</time>
   <energy>
    <i name="alphaZ">      4.34964027 </i>
    <i name="ewald">   -263.84073516 </i>
    <i name="hartreedc">     -2.71022300 </i>
    <i name="XCdc">    -17.59368535 </i>
    <i name="pawpsdc">     72.25299269 </i>
    <i name="pawaedc">    -37.17532764 </i>
    <i name="eentropy">     -0.02368532 </i>
    <i name="bandstr">     28.50447257 </i>
    <i name="atom">    206.09183643 </i>
    <i name="e_fr_energy">    -10.14471451 </i>
    <i name="e_wo_entrp">    -10.12102919 </i>
    <i name="e_0_energy">    -10.13287185 </i>
   </energy>
  </scstep>
  <structure>
   <crystal>
    <varray name="basis" >
     <v>      -2.49154900       2.49154900       1.24669903 </v>
     <v>       2.49154900      -2.49154900       1.24669903 </v>
     <v>       2.49154900       2.49154900      -1.24669903 </v>
    </varray>
    <i name="volume">     30.95711493 </i>
    <varray name="rec_basis" >
     <v>      -0.00000000       0.20067837       0.40105911 </v>
     <v>       0.20067837      -0.00000000       0.40105911 </v>
     <v>       0.20067837       0.20067837       0.00000000 </v>
    </varray>
   </crystal>
   <varray name="positions" >
    <v>       0.25000000       0.75000000       0.50000000 </v>
    <v>       0.00000000      -0.00000000       0.00000000 </v>
   </varray>
  </structure>
  <varray name="forces" >
   <v>       0.00000000      -0.00000000       0.00000000 </v>
   <v>      -0.00000000       0.00000000      -0.00000000 </v>
  </varray>
  <varray name="stress" >
   <v>       0.19616047       0.00000000       0.00000000 </v>
   <v>       0.00000000       0.19616047       0.00000000 </v>
   <v>       0.00000000      -0.00000000       3.85557693 </v>
  </varray>
  <energy>
   <i name="e_fr_energy">    -10.14471451 </i>
   <i name="e_wo_entrp">    -10.13287185 </i>
   <i name="e_0_energy">     -0.02368532 </i>
  </energy>
  <time name="totalsc">    0.31    0.43</time>
 </calculation>
 <calculation>
  <scstep>
   <time name="dav">    0.10    0.10</time>
   <time name="total">    0.13    0.14</time>
   <energy>
    <i name="alphaZ">      4.34274716 </i>
    <i name="ewald">   -263.70688262 </i>
    <i name="hartreedc">     -2.71021526 </i>
    <i name="XCdc">    -17.60198145 </i>
    <i name="pawpsdc">     72.24852590 </i>
    <i name="pawaedc">    -37.17097517 </i>
    <i name="eentropy">     -0.02373085 </i>
    <i name="bandstr">     28.38592382 </i>
    <i name="atom">    206.09183643 </i>
    <i name="e_fr_energy">    -10.14475204 </i>
    <i name="e_wo_entrp">    -10.12102119 </i>
    <i name="e_0_energy">    -10.13288661 </i>
   </energy>
  </scstep>
  <scstep>
   <time name="dav">    0.06    0.06</time>
   <time name="total">    0.08    0.09</time>
   <energy>
    <i name="alphaZ">      4.34274716 </i>
    <i name="ewald">   -263.70688262 </i>
    <i name="hartreedc">     -2.71337571 </i>
    <i name="XCdc">    -17.60228510 </i>
    <i name="pawpsdc">     72.23453678 </i>
    <i name="pawaedc">    -37.15664470 </i>
    <i name="eentropy">     -0.02373029 </i>
    <i name="bandstr">     28.38905474 </i>
    <i name="atom">    206.09183643 </i>
    <i name="e_fr_energy">    -10.14474331 </i>
    <i name="e_wo_entrp">    -10.12101303 </i>
    <i name="e_0_energy">    -10.13287817 </i>
   </energy>
  </scstep>
  <structure>
   <crystal>
    <varray name="basis" >
     <v>      -2.49238582       2.49238582       1.24783954 </v>
     <v>       2.49238582      -2.49238582       1.24783954 </v>
     <v>       2.49238582       2.49238582      -1.24783954 </v>
    </varray>
    <i name="volume">     31.00625222 </i>
    <varray name="rec_basis" >
     <v>      -0.00000000       0.20061100       0.40069255 </v>
     <v>       0.20061100      -0.00000000       0.40069255 </v>
     <v>       0.20061100       0.20061100      -0.00000000 </v>
    </varray>
   </crystal>
   <varray name="positions" >
    <v>       0.25000000       0.75000000       0.50000000 </v>
    <v>       0.00000000      -0.00000000       0.00000000 </v>
   </varray>
  </structure>
  <varray name="forces" >
   <v>       0.00000000      -0.00000000       0.00000000 </v>
   <v>      -0.00000000       0.00000000      -0.00000000 </v>
  </varray>
  <varray name="stress" >
   <v>      -0.62139824       0.00000000       0.00000000 </v>
   <v>       0.00000000      -0.62139824       0.00000000 </v>
   <v>       0.00000000      -0.00000000       1.06110420 </v>
  </varray>
  <energy>
   <i name="e_fr_energy">    -10.14474331 </i>
   <i name="e_wo_entrp">    -10.13287817 </i>
   <i name="e_0_energy">     -0.02373029 </i>
  </energy>
  <time name="totalsc">    0.34    0.47</time>
 </calculation>
 <calculation>
  <scstep>
   <time name="dav">    0.06    0.06</time>
   <time name="total">    0.08    0.09</time>
   <energy>
    <i name="alphaZ">      4.34159582 </i>
    <i name="ewald">   -263.68450728 </i>
    <i name="hartreedc">     -2.71719406 </i>
    <i name="XCdc">    -17.60423749 </i>
    <i name="pawpsdc">     72.21036613 </i>
    <i name="pawaedc">    -37.13186637 </i>
    <i name="eentropy">     -0.02373741 </i>
    <i name="bandstr">     28.37300763 </i>
    <i name="atom">    206.09183643 </i>
    <i name="e_fr_energy">    -10.14473660 </i>
    <i name="e_wo_entrp">    -10.12099918 </i>
    <i name="e_0_energy">    -10.13286789 </i>
   </energy>
  </scstep>
  <scstep>
   <time name="dav">    0.06    0.06</time>
   <time name="total">    0.08    0.09</time>
   <energy>
    <i name="alphaZ">      4.34159582 </i>
    <i name="ewald">   -263.68450728 </i>
    <i name="hartreedc">     -2.71777783 </i>
    <i name="XCdc">    -17.60432632 </i>
    <i name="pawpsdc">     72.20621271 </i>
    <i name="pawaedc">    -37.12757483 </i>
    <i name="eentropy">     -0.02373760 </i>
    <i name="bandstr">     28.37354282 </i>
    <i name="atom">    206.09183643 </i>
    <i name="e_fr_energy">    -10.14473608 </i>
    <i name="e_wo_entrp">    -10.12099848 </i>
    <i name="e_0_energy">    -10.13286728 </i>
   </energy>
  </scstep>
  <structure>
   <crystal>
    <varray name="basis" >
     <v>      -2.49252577       2.49252577       1.24803028 </v>
     <v>       2.49252577      -2.49252577       1.24803028 </v>
     <v>       2.49252577       2.49252577      -1.24803028 </v>
    </varray>
    <i name="volume">     31.01447465 </i>
    <varray name="rec_basis" >
     <v>      -0.00000000       0.20059973       0.40063130 </v>
     <v>       0.20059973      -0.00000000       0.40063130 </v>
     <v>       0.20059973       0.20059973       0.00000000 </v>
    </varray>
   </crystal>
   <varray name="positions" >
    <v>       0.25000000       0.75000000       0.50000000 </v>
    <v>       0.00000000      -0.00000000       0.00000000 </v>
   </varray>
  </structure>
  <varray name="forces" >
   <v>      -0.00000000      -0.00000000      -0.00000000 </v>
   <v>       0.00000000       0.00000000       0.00000000 </v>
  </varray>
  <varray name="stress" >
   <v>      -1.01212585       0.00000000       0.00000000 </v>
   <v>       0.00000000      -1.01212585      -0.00000000 </v>
   <v>       0.00000000      -0.00000000      -0.15795144 </v>
  </varray>
  <energy>
   <i name="e_fr_energy">    -10.14473608 </i>
   <i name="e_wo_entrp">    -10.13286728 </i>
   <i name="e_0_energy">     -0.02373760 </i>
  </energy>
  <time name="totalsc">    0.29    0.56</time>
  <eigenvalues>
   <array>
    <dimension dim="1">band</dimension>
    <dimension dim="2">kpoint</dimension>
    <dimension dim="3">spin</dimension>
    <field>eigene</field>
    <field>occ</field>
    <set>
     <set comment="spin 1">
      <set comment="kpoint 1">
       <r>   -4.6873    1.0000 </r>
       <r>    5.4450    1.0000 </r>
       <r>    5.9621    1.0000 </r>
       <r>    5.9621    1.0000 </r>
       <r>   10.4245    0.0000 </r>
       <r>   16.6324    0.0000 </r>
       <r>   16.6325    0.0000 </r>
       <r>   16.7439    0.0000 </r>
      </set>
      <set comment="kpoint 2">
       <r>   -3.5305    1.0000 </r>
       <r>    4.5765    1.0000 </r>
       <r>    6.0611    1.0000 </r>
       <r>    8.8130    0.8810 </r>
       <r>   12.5128    0.0000 </r>
       <r>   13.0903    0.0000 </r>
       <r>   13.3542    0.0000 </r>
       <r>   15.2938    0.0000 </r>
      </set>
      <set comment="kpoint 3">
       <r>   -0.1059    1.0000 </r>
       <r>    5.3491    1.0000 </r>
       <r>    5.7070    1.0000 </r>
       <r>    7.2657    1.0000 </r>
       <r>    8.8869    0.7445 </r>
       <r>   11.5807    0.0000 </r>
       <r>   13.3853    0.0000 </r>
       <r>   14.0153    0.0000 </r>
      </set>
      <set comment="kpoint 4">
       <r>   -0.5518    1.0000 </r>
       <r>    5.8209    1.0000 </r>
       <r>    6.9791    1.0000 </r>
       <r>    6.9805    1.0000 </r>
       <r>    9.6201    0.0000 </r>
       <r>   11.5581    0.0000 </r>
       <r>   12.4823    0.0000 </r>
       <r>   12.6770    0.0000 </r>
      </set>
      <set comment="kpoint 5">
       <r>    1.2144    1.0000 </r>
       <r>    3.3259    1.0000 </r>
       <r>    4.6356    1.0000 </r>
       <r>    7.6371    1.0000 </r>
       <r>    8.9578    0.5620 </r>
       <r>   10.8956    0.0000 </r>
       <r>   13.8613    0.0000 </r>
       <r>   15.9164    0.0000 </r>
      </set>
      <set comment="kpoint 6">
       <r>   -2.6221    1.0000 </r>
       <r>    1.7704    1.0000 </r>
       <r>    6.4710    1.0000 </r>
       <r>   10.3084    0.0000 </r>
       <r>   10.7174    0.0000 </r>
       <r>   12.2964    0.0000 </r>
       <r>   14.2207    0.0000 </r>
       <r>   15.4172    0.0000 </r>
      </set>
      <set comment="kpoint 7">
       <r>   -4.2292    1.0000 </r>
       <r>    2.3739    1.0000 </r>
       <r>    6.3965    1.0000 </r>
       <r>    7.8207    1.0000 </r>
       <r>   12.8788    0.0000 </r>
       <r>   12.8815    0.0000 </r>
       <r>   14.3690    0.0000 </r>
       <r>   19.9205    0.0000 </r>
      </set>
      <set comment="kpoint 8">
       <r>   -0.8298    1.0000 </r>
       <r>   -0.8280    1.0000 </r>
       <r>    8.1117    1.0000 </r>
       <r>    8.1891    1.0000 </r>
       <r>   10.8791    0.0000 </r>
       <r>   12.6870    0.0000 </r>
       <r>   13.7110    0.0000 </r>
       <r>   13.9207    0.0000 </r>
      </set>
      <set comment="kpoint 9">
       <r>   -2.8646    1.0000 </r>
       <r>   -0.6292    1.0000 </r>
       <r>    7.7002    1.0000 </r>
       <r>    9.4056    0.0013 </r>
       <r>    9.8737    0.0000 </r>
       <r>   11.5888    0.0000 </r>
       <r>   17.8256    0.0000 </r>
       <r>   19.4958    0.0000 </r>
      </set>
      <set comment="kpoint 10">
       <r>    0.7846    1.0000 </r>
       <r>    2.9635    1.0000 </r>
       <r>    6.2526    1.0000 </r>
       <r>    6.2608    1.0000 </r>
       <r>   11.1638    0.0000 </r>
       <r>   12.7453    0.0000 </r>
       <r>   13.7064    0.0000 </r>
       <r>   14.1878    0.0000 </r>
      </set>
      <set comment="kpoint 11">
       <r>   -3.7745    1.0000 </r>
       <r>    2.1450    1.0000 </r>
       <r>    3.9974    1.0000 </r>
       <r>    9.7937    0.0000 </r>
       <r>   10.8115    0.0000 </r>
       <r>   14.1996    0.0000 </r>
       <r>   17.3932    0.0000 </r>
       <r>   17.9685    0.0000 </r>
      </set>
      <set comment="kpoint 12">
       <r>   -2.4237    1.0000 </r>
       <r>   -0.2431    1.0000 </r>
       <r>    4.6589    1.0000 </r>
       <r>    6.7901    1.0000 </r>
       <r>   13.0261    0.0000 </r>
       <r>   15.1829    0.0000 </r>
       <r>   18.2135    0.0000 </r>
       <r>   18.5913    0.0000 </r>
      </set>
      <set comment="kpoint 13">
       <r>   -1.7315    1.0000 </r>
       <r>    1.9139    1.0000 </r>
       <r>    3.8716    1.0000 </r>
       <r>    7.4249    1.0000 </r>
       <r>   10.4006    0.0000 </r>
       <r>   14.9527    0.0000 </r>
       <r>   16.2919    0.0000 </r>
       <r>   17.3604    0.0000 </r>
      </set>
      <set comment="kpoint 14">
       <r>   -0.0113    1.0000 </r>
       <r>   -0.0051    1.0000 </r>
       <r>    4.9016    1.0000 </r>
       <r>    4.9096    1.0000 </r>
       <r>   10.0553    0.0000 </r>
       <r>   16.3382    0.0000 </r>
       <r>   17.0914    0.0000 </r>
       <r>   17.8050    0.0000 </r>
      </set>
      <set comment="kpoint 15">
       <r>    2.4443    1.0000 </r>
       <r>    3.6113    1.0000 </r>
       <r>    4.0844    1.0000 </r>
       <r>    5.8378    1.0000 </r>
       <r>    7.2044    1.0000 </r>
       <r>   11.9592    0.0000 </r>
       <r>   13.6031    0.0000 </r>
       <r>   15.9333    0.0000 </r>
      </set>
      <set comment="kpoint 16">
       <r>   -1.0015    1.0000 </r>
       <r>    7.5279    1.0000 </r>
       <r>    8.0437    1.0000 </r>
       <r>    8.4977    0.9997 </r>
       <r>    8.4977    0.9997 </r>
       <r>    9.7403    0.0000 </r>
       <r>   11.6094    0.0000 </r>
       <r>   11.6094    0.0000 </r>
      </set>
      <set comment="kpoint 17">
       <r>   -1.1477    1.0000 </r>
       <r>    0.3276    1.0000 </r>
       <r>    2.3689    1.0000 </r>
       <r>    3.8234    1.0000 </r>
       <r>   16.3793    0.0000 </r>
       <r>   17.1767    0.0000 </r>
       <r>   18.7031    0.0000 </r>
       <r>   19.4238    0.0000 </r>
      </set>
      <set comment="kpoint 18">
       <r>    1.0033    1.0000 </r>
       <r>    1.0138    1.0000 </r>
       <r>    3.0410    1.0000 </r>
       <r>    3.0410    1.0000 </r>
       <r>    9.6803    0.0000 </r>
       <r>   18.2231    0.0000 </r>
       <r>   19.6035    0.0000 </r>
       <r>   19.6035    0.0000 </r>
      </set>
     </set>
    </set>
   </array>
  </eigenvalues>
  <separator name="orbital magnetization" >
   <v name="MAGDIPOLOUT">      0.00000000      0.00000000      0.00000000</v>
  </separator>
  <dos>
   <i name="efermi">      8.97983536 </i>
   <total>
    <array>
     <dimension dim="1">gridpoints</dimension>
     <dimension dim="2">spin</dimension>
     <field>energy</field>
     <field>total</field>
     <field>integrated</field>
     <set>
      <set comment="spin 1">
       <r>    -6.6873     0.0000     0.0000 </r>
       <r>    -6.5920     0.0000     0.0000 </r>
       <r>    -6.4966     0.0000     0.0000 </r>
       <r>    -6.4013     0.0000     0.0000 </r>
       <r>    -6.3059     0.0000     0.0000 </r>
       <r>    -6.2106     0.0000     0.0000 </r>
       <r>    -6.1152     0.0000     0.0000 </r>
       <r>    -6.0198     0.0000     0.0000 </r>
       <r>    -5.9245     0.0000     0.0000 </r>
       <r>    -5.8291     0.0000     0.0000 </r>
       <r>    -5.7338     0.0000     0.0000 </r>
       <r>    -5.6384     0.0000     0.0000 </r>
       <r>    -5.5430     0.0000     0.0000 </r>
       <r>    -5.4477     0.0000     0.0000 </r>
       <r>    -5.3523     0.0000     0.0000 </r>
       <r>    -5.2570     0.0000     0.0000 </r>
       <r>    -5.1616     0.0001     0.0000 </r>
       <r>    -5.0662     0.0006     0.0001 </r>
       <r>    -4.9709     0.0032     0.0004 </r>
       <r>    -4.8755     0.0116     0.0015 </r>
       <r>    -4.7802     0.0276     0.0041 </r>
       <r>    -4.6848     0.0426     0.0082 </r>
       <r>    -4.5894     0.0449     0.0124 </r>
       <r>    -4.4941     0.0435     0.0166 </r>
       <r>    -4.3987     0.0679     0.0231 </r>
       <r>    -4.3034     0.1269     0.0352 </r>
       <r>    -4.2080     0.1754     0.0519 </r>
       <r>    -4.1126     0.1630     0.0674 </r>
       <r>    -4.0173     0.1161     0.0785 </r>
       <r>    -3.9219     0.1092     0.0889 </r>
       <r>    -3.8266     0.1685     0.1050 </r>
       <r>    -3.7312     0.2586     0.1296 </r>
       <r>    -3.6358     0.3470     0.1627 </r>
       <r>    -3.5405     0.4039     0.2013 </r>
       <r>    -3.4451     0.3687     0.2364 </r>
       <r>    -3.3498     0.2374     0.2590 </r>
       <r>    -3.2544     0.1035     0.2689 </r>
       <r>    -3.1590     0.0392     0.2727 </r>
       <r>    -3.0637     0.0483     0.2773 </r>
       <r>    -2.9683     0.1196     0.2887 </r>
       <r>    -2.8730     0.2481     0.3123 </r>
       <r>    -2.7776     0.4404     0.3543 </r>
       <r>    -2.6822     0.6874     0.4199 </r>
       <r>    -2.5869     0.8771     0.5035 </r>
       <r>    -2.4915     0.8714     0.5866 </r>
       <r>    -2.3962     0.6831     0.6518 </r>
       <r>    -2.3008     0.4263     0.6924 </r>
       <r>    -2.2054     0.2031     0.7118 </r>
       <r>    -2.1101     0.0729     0.7187 </r>
       <r>    -2.0147     0.0410     0.7226 </r>
       <r>    -1.9194     0.0955     0.7317 </r>
       <r>    -1.8240     0.2210     0.7528 </r>
       <r>    -1.7286     0.3376     0.7850 </r>
       <r>    -1.6333     0.3335     0.8168 </r>
       <r>    -1.5379     0.2141     0.8372 </r>
       <r>    -1.4426     0.0981     0.8466 </r>
       <r>    -1.3472     0.0663     0.8529 </r>
       <r>    -1.2519     0.1195     0.8643 </r>
       <r>    -1.1565     0.2214     0.8854 </r>
       <r>    -1.0611     0.3463     0.9184 </r>
       <r>    -0.9658     0.5224     0.9682 </r>
       <r>    -0.8704     0.7476     1.0395 </r>
       <r>    -0.7751     0.8956     1.1249 </r>
       <r>    -0.6797     0.8806     1.2089 </r>
       <r>    -0.5843     0.7729     1.2826 </r>
       <r>    -0.4890     0.6371     1.3434 </r>
       <r>    -0.3936     0.5279     1.3937 </r>
       <r>    -0.2983     0.5647     1.4476 </r>
       <r>    -0.2029     0.7860     1.5225 </r>
       <r>    -0.1075     1.0590     1.6235 </r>
       <r>    -0.0122     1.1649     1.7346 </r>
       <r>     0.0832     0.9732     1.8274 </r>
       <r>     0.1785     0.6190     1.8864 </r>
       <r>     0.2739     0.3541     1.9202 </r>
       <r>     0.3693     0.2353     1.9426 </r>
       <r>     0.4646     0.1695     1.9588 </r>
       <r>     0.5600     0.1389     1.9720 </r>
       <r>     0.6553     0.1975     1.9908 </r>
       <r>     0.7507     0.3279     2.0221 </r>
       <r>     0.8461     0.4258     2.0627 </r>
       <r>     0.9414     0.4546     2.1061 </r>
       <r>     1.0368     0.5137     2.1551 </r>
       <r>     1.1321     0.6668     2.2186 </r>
       <r>     1.2275     0.7844     2.2934 </r>
       <r>     1.3229     0.6835     2.3586 </r>
       <r>     1.4182     0.4171     2.3984 </r>
       <r>     1.5136     0.2345     2.4208 </r>
       <r>     1.6089     0.3042     2.4498 </r>
       <r>     1.7043     0.5978     2.5068 </r>
       <r>     1.7997     0.8964     2.5923 </r>
       <r>     1.8950     0.9547     2.6833 </r>
       <r>     1.9904     0.7654     2.7563 </r>
       <r>     2.0857     0.5364     2.8074 </r>
       <r>     2.1811     0.4426     2.8496 </r>
       <r>     2.2765     0.5197     2.8992 </r>
       <r>     2.3718     0.6746     2.9635 </r>
       <r>     2.4672     0.7142     3.0316 </r>
       <r>     2.5625     0.5399     3.0831 </r>
       <r>     2.6579     0.2930     3.1111 </r>
       <r>     2.7533     0.1760     3.1278 </r>
       <r>     2.8486     0.2535     3.1520 </r>
       <r>     2.9440     0.4363     3.1936 </r>
       <r>     3.0393     0.5631     3.2473 </r>
       <r>     3.1347     0.5936     3.3039 </r>
       <r>     3.2301     0.6572     3.3666 </r>
       <r>     3.3254     0.7735     3.4404 </r>
       <r>     3.4208     0.7830     3.5150 </r>
       <r>     3.5161     0.6702     3.5789 </r>
       <r>     3.6115     0.5910     3.6353 </r>
       <r>     3.7069     0.6121     3.6937 </r>
       <r>     3.8022     0.7062     3.7610 </r>
       <r>     3.8976     0.8147     3.8387 </r>
       <r>     3.9929     0.8474     3.9195 </r>
       <r>     4.0883     0.7475     3.9908 </r>
       <r>     4.1836     0.5326     4.0416 </r>
       <r>     4.2790     0.3154     4.0716 </r>
       <r>     4.3744     0.2771     4.0981 </r>
       <r>     4.4697     0.5556     4.1511 </r>
       <r>     4.5651     1.0740     4.2535 </r>
       <r>     4.6604     1.4703     4.3937 </r>
       <r>     4.7558     1.4695     4.5338 </r>
       <r>     4.8512     1.2278     4.6509 </r>
       <r>     4.9465     0.9615     4.7426 </r>
       <r>     5.0419     0.6649     4.8060 </r>
       <r>     5.1372     0.3957     4.8437 </r>
       <r>     5.2326     0.3039     4.8727 </r>
       <r>     5.3280     0.3684     4.9078 </r>
       <r>     5.4233     0.4215     4.9480 </r>
       <r>     5.5187     0.4171     4.9878 </r>
       <r>     5.6140     0.5024     5.0357 </r>
       <r>     5.7094     0.7636     5.1085 </r>
       <r>     5.8048     1.0407     5.2078 </r>
       <r>     5.9001     1.1178     5.3144 </r>
       <r>     5.9955     1.0153     5.4112 </r>
       <r>     6.0908     0.9407     5.5009 </r>
       <r>     6.1862     1.0154     5.5977 </r>
       <r>     6.2816     1.1786     5.7101 </r>
       <r>     6.3769     1.2902     5.8331 </r>
       <r>     6.4723     1.2364     5.9510 </r>
       <r>     6.5676     0.9932     6.0457 </r>
       <r>     6.6630     0.7163     6.1141 </r>
       <r>     6.7584     0.6287     6.1740 </r>
       <r>     6.8537     0.7559     6.2461 </r>
       <r>     6.9491     0.9367     6.3354 </r>
       <r>     7.0444     1.0235     6.4330 </r>
       <r>     7.1398     1.0218     6.5304 </r>
       <r>     7.2352     1.0190     6.6276 </r>
       <r>     7.3305     1.0123     6.7241 </r>
       <r>     7.4259     0.9933     6.8189 </r>
       <r>     7.5212     1.0399     6.9180 </r>
       <r>     7.6166     1.1433     7.0271 </r>
       <r>     7.7120     1.1280     7.1346 </r>
       <r>     7.8073     0.9025     7.2207 </r>
       <r>     7.9027     0.6428     7.2820 </r>
       <r>     7.9980     0.5770     7.3370 </r>
       <r>     8.0934     0.7002     7.4038 </r>
       <r>     8.1888     0.7793     7.4781 </r>
       <r>     8.2841     0.6531     7.5404 </r>
       <r>     8.3795     0.4328     7.5816 </r>
       <r>     8.4748     0.2954     7.6098 </r>
       <r>     8.5702     0.2737     7.6359 </r>
       <r>     8.6656     0.3777     7.6719 </r>
       <r>     8.7609     0.6767     7.7365 </r>
       <r>     8.8563     1.0921     7.8406 </r>
       <r>     8.9516     1.3070     7.9652 </r>
       <r>     9.0470     1.0987     8.0700 </r>
       <r>     9.1423     0.6469     8.1317 </r>
       <r>     9.2377     0.3060     8.1609 </r>
       <r>     9.3331     0.2148     8.1814 </r>
       <r>     9.4284     0.2920     8.2092 </r>
       <r>     9.5238     0.4422     8.2514 </r>
       <r>     9.6191     0.6123     8.3098 </r>
       <r>     9.7145     0.7293     8.3793 </r>
       <r>     9.8099     0.7388     8.4498 </r>
       <r>     9.9052     0.6781     8.5144 </r>
       <r>    10.0006     0.6301     8.5745 </r>
       <r>    10.0959     0.6512     8.6366 </r>
       <r>    10.1913     0.7841     8.7114 </r>
       <r>    10.2867     1.0085     8.8076 </r>
       <r>    10.3820     1.1302     8.9153 </r>
       <r>    10.4774     1.0094     9.0116 </r>
       <r>    10.5727     0.8681     9.0944 </r>
       <r>    10.6681     1.0205     9.1917 </r>
       <r>    10.7635     1.4166     9.3268 </r>
       <r>    10.8588     1.6915     9.4881 </r>
       <r>    10.9542     1.5700     9.6378 </r>
       <r>    11.0495     1.1506     9.7475 </r>
       <r>    11.1449     0.7485     9.8189 </r>
       <r>    11.2403     0.5041     9.8670 </r>
       <r>    11.3356     0.4102     9.9061 </r>
       <r>    11.4310     0.5388     9.9574 </r>
       <r>    11.5263     0.8642    10.0399 </r>
       <r>    11.6217     1.0705    10.1419 </r>
       <r>    11.7171     0.9180    10.2295 </r>
       <r>    11.8124     0.6101    10.2877 </r>
       <r>    11.9078     0.4496    10.3305 </r>
       <r>    12.0031     0.4348    10.3720 </r>
       <r>    12.0985     0.4670    10.4165 </r>
       <r>    12.1939     0.6030    10.4740 </r>
       <r>    12.2892     0.8667    10.5567 </r>
       <r>    12.3846     1.1209    10.6636 </r>
       <r>    12.4799     1.2872    10.7863 </r>
       <r>    12.5753     1.4169    10.9214 </r>
       <r>    12.6707     1.5186    11.0662 </r>
       <r>    12.7660     1.5025    11.2095 </r>
       <r>    12.8614     1.3445    11.3377 </r>
       <r>    12.9567     1.1707    11.4493 </r>
       <r>    13.0521     1.0509    11.5496 </r>
       <r>    13.1475     0.9286    11.6381 </r>
       <r>    13.2428     0.8353    11.7178 </r>
       <r>    13.3382     0.8586    11.7996 </r>
       <r>    13.4335     0.9347    11.8888 </r>
       <r>    13.5289     1.0130    11.9854 </r>
       <r>    13.6243     1.1946    12.0993 </r>
       <r>    13.7196     1.4832    12.2407 </r>
       <r>    13.8150     1.7207    12.4048 </r>
       <r>    13.9103     1.7823    12.5748 </r>
       <r>    14.0057     1.6922    12.7361 </r>
       <r>    14.1010     1.6215    12.8908 </r>
       <r>    14.1964     1.6248    13.0457 </r>
       <r>    14.2918     1.4690    13.1858 </r>
       <r>    14.3871     1.0291    13.2839 </r>
       <r>    14.4825     0.5296    13.3344 </r>
       <r>    14.5778     0.2047    13.3539 </r>
       <r>    14.6732     0.0829    13.3619 </r>
       <r>    14.7686     0.1107    13.3724 </r>
       <r>    14.8639     0.2435    13.3956 </r>
       <r>    14.9593     0.4127    13.4350 </r>
       <r>    15.0546     0.5595    13.4883 </r>
       <r>    15.1500     0.7215    13.5571 </r>
       <r>    15.2454     0.9419    13.6470 </r>
       <r>    15.3407     1.1298    13.7547 </r>
       <r>    15.4361     1.1133    13.8609 </r>
       <r>    15.5314     0.8365    13.9406 </r>
       <r>    15.6268     0.4979    13.9881 </r>
       <r>    15.7222     0.3995    14.0262 </r>
       <r>    15.8175     0.6464    14.0879 </r>
       <r>    15.9129     0.9943    14.1827 </r>
       <r>    16.0082     1.0641    14.2842 </r>
       <r>    16.1036     0.8496    14.3652 </r>
       <r>    16.1990     0.7248    14.4343 </r>
       <r>    16.2943     0.8301    14.5135 </r>
       <r>    16.3897     0.8870    14.5980 </r>
       <r>    16.4850     0.6978    14.6646 </r>
       <r>    16.5804     0.4159    14.7042 </r>
       <r>    16.6758     0.2328    14.7264 </r>
       <r>    16.7711     0.1554    14.7413 </r>
       <r>    16.8665     0.1482    14.7554 </r>
       <r>    16.9618     0.2391    14.7782 </r>
       <r>    17.0572     0.4263    14.8188 </r>
       <r>    17.1526     0.6091    14.8769 </r>
       <r>    17.2479     0.7051    14.9442 </r>
       <r>    17.3433     0.7180    15.0126 </r>
       <r>    17.4386     0.6308    15.0728 </r>
       <r>    17.5340     0.4541    15.1161 </r>
       <r>    17.6294     0.3427    15.1488 </r>
       <r>    17.7247     0.4241    15.1892 </r>
       <r>    17.8201     0.5966    15.2461 </r>
       <r>    17.9154     0.6565    15.3087 </r>
       <r>    18.0108     0.5794    15.3640 </r>
       <r>    18.1062     0.5145    15.4130 </r>
       <r>    18.2015     0.5174    15.4624 </r>
       <r>    18.2969     0.4852    15.5086 </r>
       <r>    18.3922     0.3928    15.5461 </r>
       <r>    18.4876     0.3702    15.5814 </r>
       <r>    18.5830     0.4564    15.6249 </r>
       <r>    18.6783     0.5045    15.6730 </r>
       <r>    18.7737     0.4047    15.7116 </r>
       <r>    18.8690     0.2257    15.7331 </r>
       <r>    18.9644     0.0872    15.7414 </r>
       <r>    19.0597     0.0264    15.7440 </r>
       <r>    19.1551     0.0251    15.7464 </r>
       <r>    19.2505     0.0813    15.7541 </r>
       <r>    19.3458     0.2092    15.7741 </r>
       <r>    19.4412     0.3726    15.8096 </r>
       <r>    19.5365     0.4681    15.8542 </r>
       <r>    19.6319     0.4293    15.8952 </r>
       <r>    19.7273     0.3131    15.9250 </r>
       <r>    19.8226     0.2299    15.9469 </r>
       <r>    19.9180     0.2062    15.9666 </r>
       <r>    20.0133     0.1772    15.9835 </r>
       <r>    20.1087     0.1114    15.9941 </r>
       <r>    20.2041     0.0465    15.9986 </r>
       <r>    20.2994     0.0126    15.9998 </r>
       <r>    20.3948     0.0022    16.0000 </r>
       <r>    20.4901     0.0002    16.0000 </r>
       <r>    20.5855     0.0000    16.0000 </r>
       <r>    20.6809     0.0000    16.0000 </r>
       <r>    20.7762     0.0000    16.0000 </r>
       <r>    20.8716     0.0000    16.0000 </r>
       <r>    20.9669     0.0000    16.0000 </r>
       <r>    21.0623     0.0000    16.0000 </r>
       <r>    21.1577     0.0000    16.0000 </r>
       <r>    21.2530     0.0000    16.0000 </r>
       <r>    21.3484     0.0000    16.0000 </r>
       <r>    21.4437     0.0000    16.0000 </r>
       <r>    21.5391     0.0000    16.0000 </r>
       <r>    21.6345     0.0000    16.0000 </r>
       <r>    21.7298     0.0000    16.0000 </r>
       <r>    21.8252     0.0000    16.0000 </r>
       <r>    21.9205     0.0000    16.0000 </r>
      </set>
     </set>
    </array>
   </total>
  </dos>
 </calculation>
 <structure name="finalpos" >
  <crystal>
   <varray name="basis" >
    <v>      -2.49252577       2.49252577       1.24803028 </v>
    <v>       2.49252577      -2.49252577       1.24803028 </v>
    <v>       2.49252577       2.49252577      -1.24803028 </v>
   </varray>
   <i name="volume">     31.01447465 </i>
   <varray name="rec_basis" >
    <v>      -0.00000000       0.20059973       0.40063130 </v>
    <v>       0.20059973      -0.00000000       0.40063130 </v>
    <v>       0.20059973       0.20059973       0.00000000 </v>
   </varray>
  </crystal>
  <varray name="positions" >
   <v>       0.25000000       0.75000000       0.50000000 </v>
   <v>       0.00000000      -0.00000000       0.00000000 </v>
  </varray>
 </structure>
</modeling>
