<?xml version="1.0" encoding="ISO-8859-1"?>
<modeling>
 <generator>
  <i name="program" type="string">vasp </i>
  <i name="version" type="string">5.4.4.18Apr17-6-g9f103f2a35  </i>
  <i name="subversion" type="string">(build Dec 09 2018 21:25:21) complex            parallel </i>
  <i name="platform" type="string">IFC18.0.1.163_CrayMPICH7.7.0_MKL18.0.1.163 </i>
  <i name="date" type="string">2019 03 20 </i>
  <i name="time" type="string">09:40:25 </i>
 </generator>
 <incar>
  <i type="string" name="PREC">normal</i>
  <i type="int" name="IBRION">     2</i>
  <i name="EDIFF">      0.00040000</i>
  <i name="EDIFFG">     -0.01000000</i>
  <i type="int" name="NSW">    15</i>
  <i type="int" name="ISIF">     3</i>
  <i name="ENCUT">    150.00000000</i>
  <i type="int" name="NBANDS">     8</i>
  <i type="logical" name="LREAL"> F  </i>
  <i type="int" name="ISMEAR">     0</i>
  <i name="SIGMA">      0.20000000</i>
  <v type="int" name="KPOINT_BSE">    -1     0     0     0</v>
 </incar>
 <structure name="primitive_cell" >
  <crystal>
   <varray name="basis" >
    <v>       0.00000000       2.71500000       2.71500000 </v>
    <v>       2.71500000       0.00000000       2.71500000 </v>
    <v>       2.71500000       2.71500000       0.00000000 </v>
   </varray>
   <i name="volume">     40.02575175 </i>
   <varray name="rec_basis" >
    <v>      -0.18416206       0.18416206       0.18416206 </v>
    <v>       0.18416206      -0.18416206       0.18416206 </v>
    <v>       0.18416206       0.18416206      -0.18416206 </v>
   </varray>
  </crystal>
  <varray name="positions" >
   <v>      -0.50000000      -0.50000000      -0.50000000 </v>
   <v>      -0.25000000      -0.25000000      -0.25000000 </v>
  </varray>
 </structure>
 <varray name="primitive_index" >
  <v type="int" >        1 </v>
  <v type="int" >        2 </v>
 </varray>
 <kpoints>
  <generation param="Monkhorst-Pack">
   <v type="int" name="divisions">      10       10       10 </v>
   <v name="usershift">      0.00000000       0.00000000       0.00000000 </v>
   <v name="genvec1">      0.10000000       0.00000000      -0.00000000 </v>
   <v name="genvec2">      0.00000000       0.10000000       0.00000000 </v>
   <v name="genvec3">     -0.00000000      -0.00000000       0.10000000 </v>
   <v name="shift">      0.50000000       0.50000000       0.50000000 </v>
  </generation>
  <varray name="kpointlist" >
   <v>       0.05000000       0.05000000       0.05000000 </v>
   <v>       0.15000000       0.05000000       0.05000000 </v>
   <v>       0.25000000       0.05000000       0.05000000 </v>
   <v>       0.35000000       0.05000000       0.05000000 </v>
   <v>       0.45000000       0.05000000       0.05000000 </v>
   <v>      -0.45000000       0.05000000       0.05000000 </v>
   <v>      -0.35000000       0.05000000       0.05000000 </v>
   <v>      -0.25000000       0.05000000       0.05000000 </v>
   <v>      -0.15000000       0.05000000       0.05000000 </v>
   <v>      -0.05000000       0.05000000       0.05000000 </v>
   <v>       0.15000000       0.15000000       0.05000000 </v>
   <v>       0.25000000       0.15000000       0.05000000 </v>
   <v>       0.35000000       0.15000000       0.05000000 </v>
   <v>       0.45000000       0.15000000       0.05000000 </v>
   <v>      -0.45000000       0.15000000       0.05000000 </v>
   <v>      -0.35000000       0.15000000       0.05000000 </v>
   <v>      -0.25000000       0.15000000       0.05000000 </v>
   <v>      -0.15000000       0.15000000       0.05000000 </v>
   <v>      -0.05000000       0.15000000       0.05000000 </v>
   <v>       0.25000000       0.25000000       0.05000000 </v>
   <v>       0.35000000       0.25000000       0.05000000 </v>
   <v>       0.45000000       0.25000000       0.05000000 </v>
   <v>      -0.45000000       0.25000000       0.05000000 </v>
   <v>      -0.35000000       0.25000000       0.05000000 </v>
   <v>      -0.25000000       0.25000000       0.05000000 </v>
   <v>      -0.15000000       0.25000000       0.05000000 </v>
   <v>      -0.05000000       0.25000000       0.05000000 </v>
   <v>       0.35000000       0.35000000       0.05000000 </v>
   <v>       0.45000000       0.35000000       0.05000000 </v>
   <v>      -0.45000000       0.35000000       0.05000000 </v>
   <v>      -0.35000000       0.35000000       0.05000000 </v>
   <v>      -0.25000000       0.35000000       0.05000000 </v>
   <v>      -0.15000000       0.35000000       0.05000000 </v>
   <v>      -0.05000000       0.35000000       0.05000000 </v>
   <v>       0.45000000       0.45000000       0.05000000 </v>
   <v>      -0.45000000       0.45000000       0.05000000 </v>
   <v>      -0.35000000       0.45000000       0.05000000 </v>
   <v>      -0.25000000       0.45000000       0.05000000 </v>
   <v>      -0.15000000       0.45000000       0.05000000 </v>
   <v>      -0.05000000       0.45000000       0.05000000 </v>
   <v>      -0.45000000      -0.45000000       0.05000000 </v>
   <v>      -0.35000000      -0.45000000       0.05000000 </v>
   <v>      -0.25000000      -0.45000000       0.05000000 </v>
   <v>      -0.15000000      -0.45000000       0.05000000 </v>
   <v>      -0.35000000      -0.35000000       0.05000000 </v>
   <v>      -0.25000000      -0.35000000       0.05000000 </v>
   <v>      -0.15000000      -0.35000000       0.05000000 </v>
   <v>      -0.25000000      -0.25000000       0.05000000 </v>
   <v>      -0.15000000      -0.25000000       0.05000000 </v>
   <v>      -0.15000000      -0.15000000       0.05000000 </v>
   <v>       0.15000000       0.15000000       0.15000000 </v>
   <v>       0.25000000       0.15000000       0.15000000 </v>
   <v>       0.35000000       0.15000000       0.15000000 </v>
   <v>       0.45000000       0.15000000       0.15000000 </v>
   <v>      -0.45000000       0.15000000       0.15000000 </v>
   <v>      -0.35000000       0.15000000       0.15000000 </v>
   <v>      -0.25000000       0.15000000       0.15000000 </v>
   <v>      -0.15000000       0.15000000       0.15000000 </v>
   <v>       0.25000000       0.25000000       0.15000000 </v>
   <v>       0.35000000       0.25000000       0.15000000 </v>
   <v>       0.45000000       0.25000000       0.15000000 </v>
   <v>      -0.45000000       0.25000000       0.15000000 </v>
   <v>      -0.35000000       0.25000000       0.15000000 </v>
   <v>      -0.25000000       0.25000000       0.15000000 </v>
   <v>      -0.15000000       0.25000000       0.15000000 </v>
   <v>       0.35000000       0.35000000       0.15000000 </v>
   <v>       0.45000000       0.35000000       0.15000000 </v>
   <v>      -0.45000000       0.35000000       0.15000000 </v>
   <v>      -0.35000000       0.35000000       0.15000000 </v>
   <v>      -0.25000000       0.35000000       0.15000000 </v>
   <v>      -0.15000000       0.35000000       0.15000000 </v>
   <v>       0.45000000       0.45000000       0.15000000 </v>
   <v>      -0.45000000       0.45000000       0.15000000 </v>
   <v>      -0.35000000       0.45000000       0.15000000 </v>
   <v>      -0.25000000       0.45000000       0.15000000 </v>
   <v>      -0.15000000       0.45000000       0.15000000 </v>
   <v>      -0.45000000      -0.45000000       0.15000000 </v>
   <v>      -0.35000000      -0.45000000       0.15000000 </v>
   <v>      -0.25000000      -0.45000000       0.15000000 </v>
   <v>      -0.35000000      -0.35000000       0.15000000 </v>
   <v>      -0.25000000      -0.35000000       0.15000000 </v>
   <v>      -0.25000000      -0.25000000       0.15000000 </v>
   <v>       0.25000000       0.25000000       0.25000000 </v>
   <v>       0.35000000       0.25000000       0.25000000 </v>
   <v>       0.45000000       0.25000000       0.25000000 </v>
   <v>      -0.45000000       0.25000000       0.25000000 </v>
   <v>      -0.35000000       0.25000000       0.25000000 </v>
   <v>      -0.25000000       0.25000000       0.25000000 </v>
   <v>       0.35000000       0.35000000       0.25000000 </v>
   <v>       0.45000000       0.35000000       0.25000000 </v>
   <v>      -0.45000000       0.35000000       0.25000000 </v>
   <v>      -0.35000000       0.35000000       0.25000000 </v>
   <v>      -0.25000000       0.35000000       0.25000000 </v>
   <v>       0.45000000       0.45000000       0.25000000 </v>
   <v>      -0.45000000       0.45000000       0.25000000 </v>
   <v>      -0.35000000       0.45000000       0.25000000 </v>
   <v>      -0.25000000       0.45000000       0.25000000 </v>
   <v>      -0.45000000      -0.45000000       0.25000000 </v>
   <v>      -0.35000000      -0.45000000       0.25000000 </v>
   <v>      -0.35000000      -0.35000000       0.25000000 </v>
   <v>       0.35000000       0.35000000       0.35000000 </v>
   <v>       0.45000000       0.35000000       0.35000000 </v>
   <v>      -0.45000000       0.35000000       0.35000000 </v>
   <v>      -0.35000000       0.35000000       0.35000000 </v>
   <v>       0.45000000       0.45000000       0.35000000 </v>
   <v>      -0.45000000       0.45000000       0.35000000 </v>
   <v>      -0.35000000       0.45000000       0.35000000 </v>
   <v>      -0.45000000      -0.45000000       0.35000000 </v>
   <v>       0.45000000       0.45000000       0.45000000 </v>
   <v>      -0.45000000       0.45000000       0.45000000 </v>
  </varray>
  <varray name="weights" >
   <v>       0.00200000 </v>
   <v>       0.00600000 </v>
   <v>       0.00600000 </v>
   <v>       0.00600000 </v>
   <v>       0.00600000 </v>
   <v>       0.00600000 </v>
   <v>       0.00600000 </v>
   <v>       0.00600000 </v>
   <v>       0.00600000 </v>
   <v>       0.00600000 </v>
   <v>       0.00600000 </v>
   <v>       0.01200000 </v>
   <v>       0.01200000 </v>
   <v>       0.01200000 </v>
   <v>       0.01200000 </v>
   <v>       0.01200000 </v>
   <v>       0.01200000 </v>
   <v>       0.01200000 </v>
   <v>       0.01200000 </v>
   <v>       0.00600000 </v>
   <v>       0.01200000 </v>
   <v>       0.01200000 </v>
   <v>       0.01200000 </v>
   <v>       0.01200000 </v>
   <v>       0.01200000 </v>
   <v>       0.01200000 </v>
   <v>       0.01200000 </v>
   <v>       0.00600000 </v>
   <v>       0.01200000 </v>
   <v>       0.01200000 </v>
   <v>       0.01200000 </v>
   <v>       0.01200000 </v>
   <v>       0.01200000 </v>
   <v>       0.01200000 </v>
   <v>       0.00600000 </v>
   <v>       0.01200000 </v>
   <v>       0.01200000 </v>
   <v>       0.01200000 </v>
   <v>       0.01200000 </v>
   <v>       0.01200000 </v>
   <v>       0.00600000 </v>
   <v>       0.01200000 </v>
   <v>       0.01200000 </v>
   <v>       0.01200000 </v>
   <v>       0.00600000 </v>
   <v>       0.01200000 </v>
   <v>       0.01200000 </v>
   <v>       0.00600000 </v>
   <v>       0.01200000 </v>
   <v>       0.00600000 </v>
   <v>       0.00200000 </v>
   <v>       0.00600000 </v>
   <v>       0.00600000 </v>
   <v>       0.00600000 </v>
   <v>       0.00600000 </v>
   <v>       0.00600000 </v>
   <v>       0.00600000 </v>
   <v>       0.00600000 </v>
   <v>       0.00600000 </v>
   <v>       0.01200000 </v>
   <v>       0.01200000 </v>
   <v>       0.01200000 </v>
   <v>       0.01200000 </v>
   <v>       0.01200000 </v>
   <v>       0.01200000 </v>
   <v>       0.00600000 </v>
   <v>       0.01200000 </v>
   <v>       0.01200000 </v>
   <v>       0.01200000 </v>
   <v>       0.01200000 </v>
   <v>       0.01200000 </v>
   <v>       0.00600000 </v>
   <v>       0.01200000 </v>
   <v>       0.01200000 </v>
   <v>       0.01200000 </v>
   <v>       0.01200000 </v>
   <v>       0.00600000 </v>
   <v>       0.01200000 </v>
   <v>       0.01200000 </v>
   <v>       0.00600000 </v>
   <v>       0.01200000 </v>
   <v>       0.00600000 </v>
   <v>       0.00200000 </v>
   <v>       0.00600000 </v>
   <v>       0.00600000 </v>
   <v>       0.00600000 </v>
   <v>       0.00600000 </v>
   <v>       0.00600000 </v>
   <v>       0.00600000 </v>
   <v>       0.01200000 </v>
   <v>       0.01200000 </v>
   <v>       0.01200000 </v>
   <v>       0.01200000 </v>
   <v>       0.00600000 </v>
   <v>       0.01200000 </v>
   <v>       0.01200000 </v>
   <v>       0.01200000 </v>
   <v>       0.00600000 </v>
   <v>       0.01200000 </v>
   <v>       0.00600000 </v>
   <v>       0.00200000 </v>
   <v>       0.00600000 </v>
   <v>       0.00600000 </v>
   <v>       0.00600000 </v>
   <v>       0.00600000 </v>
   <v>       0.01200000 </v>
   <v>       0.01200000 </v>
   <v>       0.00600000 </v>
   <v>       0.00200000 </v>
   <v>       0.00600000 </v>
  </varray>
 </kpoints>
 <parameters>
  <separator name="general" >
   <i type="string" name="SYSTEM">unknown system</i>
   <i type="logical" name="LCOMPAT"> F  </i>
  </separator>
  <separator name="electronic" >
   <i type="string" name="PREC">normal</i>
   <i name="ENMAX">    150.00000000</i>
   <i name="ENAUG">    322.06900000</i>
   <i name="EDIFF">      0.00040000</i>
   <i type="int" name="IALGO">    38</i>
   <i type="int" name="IWAVPR">    11</i>
   <i type="int" name="NBANDS">     8</i>
   <i name="NELECT">      8.00000000</i>
   <i type="int" name="TURBO">     0</i>
   <i type="int" name="IRESTART">     0</i>
   <i type="int" name="NREBOOT">     0</i>
   <i type="int" name="NMIN">     0</i>
   <i name="EREF">      0.00000000</i>
   <separator name="electronic smearing" >
    <i type="int" name="ISMEAR">     0</i>
    <i name="SIGMA">      0.20000000</i>
    <i name="KSPACING">      0.50000000</i>
    <i type="logical" name="KGAMMA"> T  </i>
   </separator>
   <separator name="electronic projectors" >
    <i type="logical" name="LREAL"> F  </i>
    <v name="ROPT">      0.00000000</v>
    <i type="int" name="LMAXPAW">  -100</i>
    <i type="int" name="LMAXMIX">     2</i>
    <i type="logical" name="NLSPLINE"> F  </i>
   </separator>
   <separator name="electronic startup" >
    <i type="int" name="ISTART">     0</i>
    <i type="int" name="ICHARG">     2</i>
    <i type="int" name="INIWAV">     1</i>
   </separator>
   <separator name="electronic spin" >
    <i type="int" name="ISPIN">     1</i>
    <i type="logical" name="LNONCOLLINEAR"> F  </i>
    <v name="MAGMOM">      1.00000000      1.00000000</v>
    <i name="NUPDOWN">     -1.00000000</i>
    <i type="logical" name="LSORBIT"> F  </i>
    <v name="SAXIS">      0.00000000      0.00000000      1.00000000</v>
    <i type="logical" name="LSPIRAL"> F  </i>
    <v name="QSPIRAL">      0.00000000      0.00000000      0.00000000</v>
    <i type="logical" name="LZEROZ"> F  </i>
   </separator>
   <separator name="electronic exchange-correlation" >
    <i type="logical" name="LASPH"> F  </i>
    <i type="logical" name="LMETAGGA"> F  </i>
   </separator>
   <separator name="electronic convergence" >
    <i type="int" name="NELM">    60</i>
    <i type="int" name="NELMDL">    -5</i>
    <i type="int" name="NELMIN">     2</i>
    <i name="ENINI">    150.00000000</i>
    <separator name="electronic convergence detail" >
     <i type="logical" name="LDIAG"> T  </i>
     <i type="logical" name="LSUBROT"> F  </i>
     <i name="WEIMIN">      0.00100000</i>
     <i name="EBREAK">      0.00001250</i>
     <i name="DEPER">      0.30000000</i>
     <i type="int" name="NRMM">     4</i>
     <i name="TIME">      0.40000000</i>
    </separator>
   </separator>
   <separator name="electronic mixer" >
    <i name="AMIX">      0.40000000</i>
    <i name="BMIX">      1.00000000</i>
    <i name="AMIN">      0.10000000</i>
    <i name="AMIX_MAG">      1.60000000</i>
    <i name="BMIX_MAG">      1.00000000</i>
    <separator name="electronic mixer details" >
     <i type="int" name="IMIX">     4</i>
     <i type="logical" name="MIXFIRST"> F  </i>
     <i type="int" name="MAXMIX">   -45</i>
     <i name="WC">    100.00000000</i>
     <i type="int" name="INIMIX">     1</i>
     <i type="int" name="MIXPRE">     1</i>
     <i type="int" name="MREMOVE">     5</i>
    </separator>
   </separator>
   <separator name="electronic dipolcorrection" >
    <i type="logical" name="LDIPOL"> F  </i>
    <i type="logical" name="LMONO"> F  </i>
    <i type="int" name="IDIPOL">     0</i>
    <i name="EPSILON">      1.00000000</i>
    <v name="DIPOL">   -100.00000000   -100.00000000   -100.00000000</v>
    <i name="EFIELD">      0.00000000</i>
   </separator>
  </separator>
  <separator name="grids" >
   <i type="int" name="NGX">    12</i>
   <i type="int" name="NGY">    12</i>
   <i type="int" name="NGZ">    12</i>
   <i type="int" name="NGXF">    24</i>
   <i type="int" name="NGYF">    24</i>
   <i type="int" name="NGZF">    24</i>
   <i type="logical" name="ADDGRID"> F  </i>
  </separator>
  <separator name="ionic" >
   <i type="int" name="NSW">    15</i>
   <i type="int" name="IBRION">     2</i>
   <i type="int" name="MDALGO">     0</i>
   <i type="int" name="ISIF">     3</i>
   <i name="PSTRESS">      0.00000000</i>
   <i name="EDIFFG">     -0.01000000</i>
   <i type="int" name="NFREE">     1</i>
   <i name="POTIM">      0.50000000</i>
   <i name="SMASS">     -3.00000000</i>
   <i name="SCALEE">      1.00000000</i>
  </separator>
  <separator name="ionic md" >
   <i name="TEBEG">      0.00010000</i>
   <i name="TEEND">      0.00010000</i>
   <i type="int" name="NBLOCK">     1</i>
   <i type="int" name="KBLOCK">    15</i>
   <i type="int" name="NPACO">   256</i>
   <i name="APACO">     16.00000000</i>
  </separator>
  <separator name="symmetry" >
   <i type="int" name="ISYM">     2</i>
   <i name="SYMPREC">      0.00001000</i>
  </separator>
  <separator name="dos" >
   <i type="int" name="LORBIT">     0</i>
   <v name="RWIGS">     -1.00000000</v>
   <i type="int" name="NEDOS">   301</i>
   <i name="EMIN">     10.00000000</i>
   <i name="EMAX">    -10.00000000</i>
   <i name="EFERMI">      0.00000000</i>
  </separator>
  <separator name="writing" >
   <i type="int" name="NWRITE">     2</i>
   <i type="logical" name="LWAVE"> T  </i>
   <i type="logical" name="LDOWNSAMPLE"> F  </i>
   <i type="logical" name="LCHARG"> T  </i>
   <i type="logical" name="LPARD"> F  </i>
   <i type="logical" name="LVTOT"> F  </i>
   <i type="logical" name="LVHAR"> F  </i>
   <i type="logical" name="LELF"> F  </i>
   <i type="logical" name="LOPTICS"> F  </i>
   <v name="STM">      0.00000000      0.00000000      0.00000000      0.00000000      0.00000000      0.00000000      0.00000000</v>
  </separator>
  <separator name="performance" >
   <i type="int" name="NPAR">     8</i>
   <i type="int" name="NSIM">     4</i>
   <i type="int" name="NBLK">    -1</i>
   <i type="logical" name="LPLANE"> T  </i>
   <i type="logical" name="LSCALAPACK"> T  </i>
   <i type="logical" name="LSCAAWARE"> F  </i>
   <i type="logical" name="LSCALU"> F  </i>
   <i type="logical" name="LASYNC"> F  </i>
   <i type="logical" name="LORBITALREAL"> F  </i>
  </separator>
  <separator name="miscellaneous" >
   <i type="int" name="IDIOT">     3</i>
   <i type="int" name="ISPECIAL">     0</i>
   <i type="logical" name="LMUSIC"> F  </i>
   <v name="POMASS">     28.08500000</v>
   <v name="DARWINR">      0.00000000</v>
   <v name="DARWINV">      1.00000000</v>
   <i type="logical" name="LCORR"> T  </i>
  </separator>
  <i type="logical" name="GGA_COMPAT"> T  </i>
  <i type="logical" name="LBERRY"> F  </i>
  <i type="int" name="ICORELEVEL">     0</i>
  <i type="logical" name="LDAU"> F  </i>
  <i type="int" name="I_CONSTRAINED_M">     0</i>
  <separator name="electronic exchange-correlation" >
   <i type="string" name="GGA">--</i>
   <i type="int" name="VOSKOWN">     0</i>
   <i type="logical" name="LHFCALC"> F  </i>
   <i type="string" name="PRECFOCK"></i>
   <i type="logical" name="LSYMGRAD"> F  </i>
   <i type="logical" name="LHFONE"> F  </i>
   <i type="logical" name="LRHFCALC"> F  </i>
   <i type="logical" name="LTHOMAS"> F  </i>
   <i type="logical" name="LMODELHF"> F  </i>
   <i name="ENCUT4O">     -1.00000000</i>
   <i type="int" name="EXXOEP">     0</i>
   <i type="int" name="FOURORBIT">     0</i>
   <i name="AEXX">      0.00000000</i>
   <i name="HFALPHA">      0.00000000</i>
   <i name="MCALPHA">      0.00000000</i>
   <i name="ALDAX">      1.00000000</i>
   <i name="AGGAX">      1.00000000</i>
   <i name="ALDAC">      1.00000000</i>
   <i name="AGGAC">      1.00000000</i>
   <i type="int" name="NKREDX">     1</i>
   <i type="int" name="NKREDY">     1</i>
   <i type="int" name="NKREDZ">     1</i>
   <i type="logical" name="SHIFTRED"> F  </i>
   <i type="logical" name="ODDONLY"> F  </i>
   <i type="logical" name="EVENONLY"> F  </i>
   <i type="int" name="LMAXFOCK">     0</i>
   <i type="int" name="NMAXFOCKAE">     0</i>
   <i type="logical" name="LFOCKAEDFT"> F  </i>
   <i name="HFSCREEN">      0.00000000</i>
   <i name="HFSCREENC">      0.00000000</i>
   <i type="int" name="NBANDSGWLOW">     0</i>
  </separator>
  <separator name="vdW DFT" >
   <i type="logical" name="LUSE_VDW"> F  </i>
   <i name="Zab_VDW">     -0.84910000</i>
   <i name="PARAM1">      0.12340000</i>
   <i name="PARAM2">      1.00000000</i>
   <i name="PARAM3">      0.00000000</i>
  </separator>
  <separator name="model GW" >
   <i type="int" name="MODEL_GW">     0</i>
   <i name="MODEL_EPS0">     12.00772552</i>
   <i name="MODEL_ALPHA">      1.00000000</i>
  </separator>
  <separator name="linear response parameters" >
   <i type="logical" name="LEPSILON"> F  </i>
   <i type="logical" name="LRPA"> F  </i>
   <i type="logical" name="LNABLA"> F  </i>
   <i type="logical" name="LVEL"> F  </i>
   <i type="int" name="KINTER">     0</i>
   <i name="CSHIFT">      0.10000000</i>
   <i name="OMEGAMAX">     -1.00000000</i>
   <i name="DEG_THRESHOLD">      0.00200000</i>
   <i name="RTIME">     -0.10000000</i>
   <i name="WPLASMAI">      0.00000000</i>
   <v name="DFIELD">      0.00000000      0.00000000      0.00000000</v>
   <v name="WPLASMA">      0.00000000      0.00000000      0.00000000      0.00000000      0.00000000      0.00000000      0.00000000      0.00000000      0.00000000</v>
  </separator>
  <separator name="orbital magnetization" >
   <i type="logical" name="NUCIND"> F  </i>
   <v name="MAGPOS">      0.00000000      0.00000000      0.00000000</v>
   <i type="logical" name="LNICSALL"> T  </i>
   <i type="logical" name="ORBITALMAG"> F  </i>
   <i type="logical" name="LMAGBLOCH"> F  </i>
   <i type="logical" name="LCHIMAG"> F  </i>
   <i type="logical" name="LGAUGE"> T  </i>
   <i type="int" name="MAGATOM">     0</i>
   <v name="MAGDIPOL">      0.00000000      0.00000000      0.00000000</v>
   <v name="AVECCONST">      0.00000000      0.00000000      0.00000000</v>
  </separator>
  <separator name="response functions" >
   <i type="logical" name="LADDER"> F  </i>
   <i type="logical" name="LRPAFORCE"> F  </i>
   <i type="logical" name="LFXC"> F  </i>
   <i type="logical" name="LHARTREE"> T  </i>
   <i type="int" name="IBSE">     0</i>
   <v type="int" name="KPOINT">    -1     0     0     0</v>
   <i type="logical" name="LTCTE"> F  </i>
   <i type="logical" name="LTETE"> F  </i>
   <i type="logical" name="LTRIPLET"> F  </i>
   <i type="logical" name="LFXCEPS"> F  </i>
   <i type="logical" name="LFXHEG"> F  </i>
   <i type="int" name="NATURALO">     2</i>
   <i type="logical" name="L2ORDER"> F  </i>
   <i type="logical" name="LMP2LT"> F  </i>
   <i type="logical" name="LUSEW"> F  </i>
   <i name="ENCUTGW">     -2.00000000</i>
   <i name="ENCUTGWSOFT">     -2.00000000</i>
   <i name="ENCUTLF">     -1.00000000</i>
   <i type="int" name="LMAXMP2">    -1</i>
   <i name="SCISSOR">      0.00000000</i>
   <i type="int" name="NOMEGA">     0</i>
   <i type="int" name="NOMEGAR">     0</i>
   <i type="int" name="NBANDSGW">    -1</i>
   <i type="int" name="NBANDSO">    -1</i>
   <i type="int" name="NBANDSV">    -1</i>
   <i type="int" name="NELM">     1</i>
   <i type="int" name="NELMHF">     1</i>
   <i type="int" name="DIM">     3</i>
   <i type="int" name="ANTIRES">     0</i>
   <i name="OMEGAMAX">    -30.00000000</i>
   <i name="OMEGAMIN">    -30.00000000</i>
   <i name="OMEGATL">   -200.00000000</i>
   <i type="int" name="OMEGAGRID">   140</i>
   <i name="CSHIFT">     -0.10000000</i>
   <i type="logical" name="SELFENERGY"> F  </i>
   <i type="logical" name="LSPECTRAL"> F  </i>
   <i type="logical" name="LSPECTRALGW"> F  </i>
   <i type="logical" name="LSINGLES"> F  </i>
   <i type="logical" name="LFERMIGW"> F  </i>
   <i type="logical" name="ODDONLYGW"> F  </i>
   <i type="logical" name="EVENONLYGW"> F  </i>
   <i type="int" name="NKREDLFX">     1</i>
   <i type="int" name="NKREDLFY">     1</i>
   <i type="int" name="NKREDLFZ">     1</i>
   <i type="int" name="MAXMEM">  2800</i>
   <i type="int" name="TELESCOPE">     0</i>
   <i type="int" name="TAUPAR">     1</i>
   <i type="int" name="OMEGAPAR">    -1</i>
   <i name="LAMBDA">      1.00000000</i>
  </separator>
  <separator name="External order field" >
   <i name="OFIELD_KAPPA">      0.00000000</i>
   <v name="OFIELD_K">      0.00000000      0.00000000      0.00000000</v>
   <i name="OFIELD_Q6_NEAR">      0.00000000</i>
   <i name="OFIELD_Q6_FAR">      0.00000000</i>
   <i name="OFIELD_A">      0.00000000</i>
  </separator>
 </parameters>
 <atominfo>
  <atoms>       2 </atoms>
  <types>       1 </types>
  <array name="atoms" >
   <dimension dim="1">ion</dimension>
   <field type="string">element</field>
   <field type="int">atomtype</field>
   <set>
    <rc><c>Si</c><c>   1</c></rc>
    <rc><c>Si</c><c>   1</c></rc>
   </set>
  </array>
  <array name="atomtypes" >
   <dimension dim="1">type</dimension>
   <field type="int">atomspertype</field>
   <field type="string">element</field>
   <field>mass</field>
   <field>valence</field>
   <field type="string">pseudopotential</field>
   <set>
    <rc><c>   2</c><c>Si</c><c>     28.08500000</c><c>      4.00000000</c><c> PAW_PBE Si 05Jan2001                   </c></rc>
   </set>
  </array>
 </atominfo>
 <structure name="initialpos" >
  <crystal>
   <varray name="basis" >
    <v>       0.00000000       2.71500000       2.71500000 </v>
    <v>       2.71500000       0.00000000       2.71500000 </v>
    <v>       2.71500000       2.71500000       0.00000000 </v>
   </varray>
   <i name="volume">     40.02575175 </i>
   <varray name="rec_basis" >
    <v>      -0.18416206       0.18416206       0.18416206 </v>
    <v>       0.18416206      -0.18416206       0.18416206 </v>
    <v>       0.18416206       0.18416206      -0.18416206 </v>
   </varray>
  </crystal>
  <varray name="positions" >
   <v>       0.50000000       0.50000000       0.50000000 </v>
   <v>       0.75000000       0.75000000       0.75000000 </v>
  </varray>
 </structure>
 <calculation>
  <scstep>
   <time name="dav">    0.88    0.89</time>
   <time name="total">    0.91    0.93</time>
   <energy>
    <i name="alphaZ">      3.36414203 </i>
    <i name="ewald">   -228.56352493 </i>
    <i name="hartreedc">    -11.00108243 </i>
    <i name="XCdc">    -18.60155909 </i>
    <i name="pawpsdc">     65.95520812 </i>
    <i name="pawaedc">    -30.76852678 </i>
    <i name="eentropy">     -0.00999909 </i>
    <i name="bandstr">      8.81986854 </i>
    <i name="atom">    206.09183643 </i>
    <i name="e_fr_energy">     -4.71363720 </i>
    <i name="e_wo_entrp">     -4.70363811 </i>
    <i name="e_0_energy">     -4.70863766 </i>
   </energy>
  </scstep>
  <scstep>
   <time name="dav">    1.24    1.25</time>
   <time name="total">    1.24    1.25</time>
   <energy>
    <i name="e_fr_energy">    -10.87792318 </i>
    <i name="e_wo_entrp">    -10.87792132 </i>
    <i name="e_0_energy">    -10.87792225 </i>
   </energy>
  </scstep>
  <scstep>
   <time name="dav">    1.06    1.06</time>
   <time name="total">    1.06    1.07</time>
   <energy>
    <i name="e_fr_energy">    -10.92536184 </i>
    <i name="e_wo_entrp">    -10.92536049 </i>
    <i name="e_0_energy">    -10.92536116 </i>
   </energy>
  </scstep>
  <scstep>
   <time name="dav">    1.30    1.31</time>
   <time name="total">    1.31    1.32</time>
   <energy>
    <i name="e_fr_energy">    -10.92543383 </i>
    <i name="e_wo_entrp">    -10.92543249 </i>
    <i name="e_0_energy">    -10.92543316 </i>
   </energy>
  </scstep>
  <scstep>
   <time name="dav">    0.95    0.97</time>
   <time name="total">    0.98    0.99</time>
   <energy>
    <i name="e_fr_energy">    -10.92543385 </i>
    <i name="e_wo_entrp">    -10.92543250 </i>
    <i name="e_0_energy">    -10.92543318 </i>
   </energy>
  </scstep>
  <scstep>
   <time name="dav">    0.91    0.91</time>
   <time name="total">    0.96    0.96</time>
   <energy>
    <i name="e_fr_energy">    -10.80150520 </i>
    <i name="e_wo_entrp">    -10.80149710 </i>
    <i name="e_0_energy">    -10.80150115 </i>
   </energy>
  </scstep>
  <scstep>
   <time name="dav">    0.92    0.92</time>
   <time name="total">    0.96    0.98</time>
   <energy>
    <i name="e_fr_energy">    -10.74352674 </i>
    <i name="e_wo_entrp">    -10.74346859 </i>
    <i name="e_0_energy">    -10.74349766 </i>
   </energy>
  </scstep>
  <scstep>
   <time name="dav">    0.77    0.77</time>
   <time name="total">    0.82    0.83</time>
   <energy>
    <i name="e_fr_energy">    -10.74474934 </i>
    <i name="e_wo_entrp">    -10.74470337 </i>
    <i name="e_0_energy">    -10.74472635 </i>
   </energy>
  </scstep>
  <scstep>
   <time name="dav">    0.59    0.59</time>
   <time name="total">    0.62    0.64</time>
   <energy>
    <i name="alphaZ">      3.36414203 </i>
    <i name="ewald">   -228.56352493 </i>
    <i name="hartreedc">    -14.87416579 </i>
    <i name="XCdc">    -17.92395930 </i>
    <i name="pawpsdc">     76.69227517 </i>
    <i name="pawaedc">    -41.74350670 </i>
    <i name="eentropy">     -0.00004573 </i>
    <i name="bandstr">      6.21210691 </i>
    <i name="atom">    206.09183643 </i>
    <i name="e_fr_energy">    -10.74484192 </i>
    <i name="e_wo_entrp">    -10.74479619 </i>
    <i name="e_0_energy">    -10.74481906 </i>
   </energy>
  </scstep>
  <structure>
   <crystal>
    <varray name="basis" >
     <v>       0.00000000       2.71500000       2.71500000 </v>
     <v>       2.71500000       0.00000000       2.71500000 </v>
     <v>       2.71500000       2.71500000       0.00000000 </v>
    </varray>
    <i name="volume">     40.02575175 </i>
    <varray name="rec_basis" >
     <v>      -0.18416206       0.18416206       0.18416206 </v>
     <v>       0.18416206      -0.18416206       0.18416206 </v>
     <v>       0.18416206       0.18416206      -0.18416206 </v>
    </varray>
   </crystal>
   <varray name="positions" >
    <v>       0.50000000       0.50000000       0.50000000 </v>
    <v>       0.75000000       0.75000000       0.75000000 </v>
   </varray>
  </structure>
  <varray name="forces" >
   <v>      -0.00000000      -0.00000000      -0.00000000 </v>
   <v>       0.00000000       0.00000000       0.00000000 </v>
  </varray>
  <varray name="stress" >
   <v>      19.59060384       0.00000000      -0.00000000 </v>
   <v>       0.00000000      19.59060384      -0.00000000 </v>
   <v>      -0.00000000       0.00000000      19.59060384 </v>
  </varray>
  <energy>
   <i name="e_fr_energy">    -10.74484192 </i>
   <i name="e_wo_entrp">    -10.74481906 </i>
   <i name="e_0_energy">     -0.00004573 </i>
  </energy>
  <time name="totalsc">    9.58   10.30</time>
 </calculation>
 <calculation>
  <scstep>
   <time name="dav">    0.93    0.93</time>
   <time name="total">    0.97    0.98</time>
   <energy>
    <i name="alphaZ">      3.24775635 </i>
    <i name="ewald">   -225.89674057 </i>
    <i name="hartreedc">    -14.71149033 </i>
    <i name="XCdc">    -18.09644874 </i>
    <i name="pawpsdc">     76.68726376 </i>
    <i name="pawaedc">    -41.73941116 </i>
    <i name="eentropy">     -0.00001383 </i>
    <i name="bandstr">      3.66305781 </i>
    <i name="atom">    206.09183643 </i>
    <i name="e_fr_energy">    -10.75419028 </i>
    <i name="e_wo_entrp">    -10.75417645 </i>
    <i name="e_0_energy">    -10.75418337 </i>
   </energy>
  </scstep>
  <scstep>
   <time name="dav">    0.88    0.88</time>
   <time name="total">    0.92    0.93</time>
   <energy>
    <i name="e_fr_energy">    -10.74971633 </i>
    <i name="e_wo_entrp">    -10.74969816 </i>
    <i name="e_0_energy">    -10.74970725 </i>
   </energy>
  </scstep>
  <scstep>
   <time name="dav">    0.87    0.88</time>
   <time name="total">    0.92    0.94</time>
   <energy>
    <i name="e_fr_energy">    -10.74737045 </i>
    <i name="e_wo_entrp">    -10.74734498 </i>
    <i name="e_0_energy">    -10.74735772 </i>
   </energy>
  </scstep>
  <scstep>
   <time name="dav">    0.42    0.41</time>
   <time name="total">    0.44    0.45</time>
   <energy>
    <i name="alphaZ">      3.24775635 </i>
    <i name="ewald">   -225.89674057 </i>
    <i name="hartreedc">    -15.29806719 </i>
    <i name="XCdc">    -18.08452888 </i>
    <i name="pawpsdc">     75.52867388 </i>
    <i name="pawaedc">    -40.54963981 </i>
    <i name="eentropy">     -0.00002496 </i>
    <i name="bandstr">      4.21337782 </i>
    <i name="atom">    206.09183643 </i>
    <i name="e_fr_energy">    -10.74735693 </i>
    <i name="e_wo_entrp">    -10.74733197 </i>
    <i name="e_0_energy">    -10.74734445 </i>
   </energy>
  </scstep>
  <structure>
   <crystal>
    <varray name="basis" >
     <v>       0.00000000       2.74705146       2.74705146 </v>
     <v>       2.74705146       0.00000000       2.74705146 </v>
     <v>       2.74705146       2.74705146      -0.00000000 </v>
    </varray>
    <i name="volume">     41.46010323 </i>
    <varray name="rec_basis" >
     <v>      -0.18201334       0.18201334       0.18201334 </v>
     <v>       0.18201334      -0.18201334       0.18201334 </v>
     <v>       0.18201334       0.18201334      -0.18201334 </v>
    </varray>
   </crystal>
   <varray name="positions" >
    <v>       0.50000000       0.50000000       0.50000000 </v>
    <v>       0.75000000       0.75000000       0.75000000 </v>
   </varray>
  </structure>
  <varray name="forces" >
   <v>       0.00000000      -0.00000000       0.00000000 </v>
   <v>      -0.00000000       0.00000000      -0.00000000 </v>
  </varray>
  <varray name="stress" >
   <v>     -12.57973826      -0.00000000       0.00000000 </v>
   <v>      -0.00000000     -12.57973826       0.00000000 </v>
   <v>       0.00000000      -0.00000000     -12.57973826 </v>
  </varray>
  <energy>
   <i name="e_fr_energy">    -10.74735693 </i>
   <i name="e_wo_entrp">    -10.74734445 </i>
   <i name="e_0_energy">     -0.00002496 </i>
  </energy>
  <time name="totalsc">    3.69    4.01</time>
 </calculation>
 <calculation>
  <scstep>
   <time name="dav">    0.90    0.90</time>
   <time name="total">    0.94    0.95</time>
   <energy>
    <i name="alphaZ">      3.29359267 </i>
    <i name="ewald">   -226.95449055 </i>
    <i name="hartreedc">    -15.37294636 </i>
    <i name="XCdc">    -18.01717895 </i>
    <i name="pawpsdc">     75.48570059 </i>
    <i name="pawaedc">    -40.50506784 </i>
    <i name="eentropy">     -0.00003935 </i>
    <i name="bandstr">      5.22772678 </i>
    <i name="atom">    206.09183643 </i>
    <i name="e_fr_energy">    -10.75086658 </i>
    <i name="e_wo_entrp">    -10.75082724 </i>
    <i name="e_0_energy">    -10.75084691 </i>
   </energy>
  </scstep>
  <scstep>
   <time name="dav">    0.86    0.87</time>
   <time name="total">    0.90    0.92</time>
   <energy>
    <i name="e_fr_energy">    -10.75014598 </i>
    <i name="e_wo_entrp">    -10.75011042 </i>
    <i name="e_0_energy">    -10.75012820 </i>
   </energy>
  </scstep>
  <scstep>
   <time name="dav">    0.56    0.56</time>
   <time name="total">    0.59    0.60</time>
   <energy>
    <i name="alphaZ">      3.29359267 </i>
    <i name="ewald">   -226.95449055 </i>
    <i name="hartreedc">    -15.13271168 </i>
    <i name="XCdc">    -18.02300195 </i>
    <i name="pawpsdc">     75.87240772 </i>
    <i name="pawaedc">    -40.90142318 </i>
    <i name="eentropy">     -0.00003119 </i>
    <i name="bandstr">      5.00404641 </i>
    <i name="atom">    206.09183643 </i>
    <i name="e_fr_energy">    -10.74977532 </i>
    <i name="e_wo_entrp">    -10.74974413 </i>
    <i name="e_0_energy">    -10.74975972 </i>
   </energy>
  </scstep>
  <structure>
   <crystal>
    <varray name="basis" >
     <v>       0.00000000       2.73424848       2.73424848 </v>
     <v>       2.73424848       0.00000000       2.73424848 </v>
     <v>       2.73424848       2.73424848      -0.00000000 </v>
    </varray>
    <i name="volume">     40.88311066 </i>
    <varray name="rec_basis" >
     <v>      -0.18286560       0.18286560       0.18286560 </v>
     <v>       0.18286560      -0.18286560       0.18286560 </v>
     <v>       0.18286560       0.18286560      -0.18286560 </v>
    </varray>
   </crystal>
   <varray name="positions" >
    <v>       0.50000000       0.50000000       0.50000000 </v>
    <v>       0.75000000       0.75000000       0.75000000 </v>
   </varray>
  </structure>
  <varray name="forces" >
   <v>       0.00000000      -0.00000000       0.00000000 </v>
   <v>      -0.00000000       0.00000000      -0.00000000 </v>
  </varray>
  <varray name="stress" >
   <v>      -0.56729409      -0.00000000       0.00000000 </v>
   <v>       0.00000000      -0.56729409       0.00000000 </v>
   <v>       0.00000000      -0.00000000      -0.56729409 </v>
  </varray>
  <energy>
   <i name="e_fr_energy">    -10.74977532 </i>
   <i name="e_wo_entrp">    -10.74975972 </i>
   <i name="e_0_energy">     -0.00003119 </i>
  </energy>
  <time name="totalsc">    2.99    3.56</time>
  <eigenvalues>
   <array>
    <dimension dim="1">band</dimension>
    <dimension dim="2">kpoint</dimension>
    <dimension dim="3">spin</dimension>
    <field>eigene</field>
    <field>occ</field>
    <set>
     <set comment="spin 1">
      <set comment="kpoint 1">
       <r>   -6.1712    1.0000 </r>
       <r>    5.2987    1.0000 </r>
       <r>    5.6081    0.9967 </r>
       <r>    5.6081    0.9967 </r>
       <r>    8.2741    0.0000 </r>
       <r>    8.3131    0.0000 </r>
       <r>    8.3131    0.0000 </r>
       <r>    9.0099    0.0000 </r>
      </set>
      <set comment="kpoint 2">
       <r>   -5.9999    1.0000 </r>
       <r>    4.1519    1.0000 </r>
       <r>    5.0392    1.0000 </r>
       <r>    5.5308    0.9994 </r>
       <r>    8.3203    0.0000 </r>
       <r>    8.4774    0.0000 </r>
       <r>    8.7100    0.0000 </r>
       <r>   10.1526    0.0000 </r>
      </set>
      <set comment="kpoint 3">
       <r>   -5.5802    1.0000 </r>
       <r>    2.3412    1.0000 </r>
       <r>    4.6028    1.0000 </r>
       <r>    5.1783    1.0000 </r>
       <r>    7.9677    0.0000 </r>
       <r>    8.9454    0.0000 </r>
       <r>    9.2765    0.0000 </r>
       <r>   11.6725    0.0000 </r>
      </set>
      <set comment="kpoint 4">
       <r>   -4.9445    1.0000 </r>
       <r>    0.6253    1.0000 </r>
       <r>    4.3122    1.0000 </r>
       <r>    4.8132    1.0000 </r>
       <r>    7.6372    0.0000 </r>
       <r>    9.1658    0.0000 </r>
       <r>    9.3597    0.0000 </r>
       <r>   12.9091    0.0000 </r>
      </set>
      <set comment="kpoint 5">
       <r>   -4.2171    1.0000 </r>
       <r>   -0.7437    1.0000 </r>
       <r>    4.1832    1.0000 </r>
       <r>    4.5369    1.0000 </r>
       <r>    7.4124    0.0000 </r>
       <r>    9.1588    0.0000 </r>
       <r>    9.1610    0.0000 </r>
       <r>   13.5018    0.0000 </r>
      </set>
      <set comment="kpoint 6">
       <r>   -3.9074    1.0000 </r>
       <r>   -1.2157    1.0000 </r>
       <r>    4.2206    1.0000 </r>
       <r>    4.3947    1.0000 </r>
       <r>    7.3611    0.0000 </r>
       <r>    9.0265    0.0000 </r>
       <r>    9.2104    0.0000 </r>
       <r>   13.4842    0.0000 </r>
      </set>
      <set comment="kpoint 7">
       <r>   -4.4519    1.0000 </r>
       <r>   -0.3480    1.0000 </r>
       <r>    4.4029    1.0000 </r>
       <r>    4.4081    1.0000 </r>
       <r>    7.4716    0.0000 </r>
       <r>    9.0228    0.0000 </r>
       <r>    9.3795    0.0000 </r>
       <r>   13.1982    0.0000 </r>
      </set>
      <set comment="kpoint 8">
       <r>   -5.1760    1.0000 </r>
       <r>    1.1712    1.0000 </r>
       <r>    4.5741    1.0000 </r>
       <r>    4.7264    1.0000 </r>
       <r>    7.7440    0.0000 </r>
       <r>    9.0140    0.0000 </r>
       <r>    9.5259    0.0000 </r>
       <r>   12.1401    0.0000 </r>
      </set>
      <set comment="kpoint 9">
       <r>   -5.7463    1.0000 </r>
       <r>    2.9533    1.0000 </r>
       <r>    4.8939    1.0000 </r>
       <r>    5.1195    1.0000 </r>
       <r>    8.0793    0.0000 </r>
       <r>    8.6922    0.0000 </r>
       <r>    9.2985    0.0000 </r>
       <r>   11.1185    0.0000 </r>
      </set>
      <set comment="kpoint 10">
       <r>   -6.0852    1.0000 </r>
       <r>    4.7392    1.0000 </r>
       <r>    5.3050    1.0000 </r>
       <r>    5.4320    1.0000 </r>
       <r>    8.1204    0.0000 </r>
       <r>    8.5290    0.0000 </r>
       <r>    8.7188    0.0000 </r>
       <r>    9.5639    0.0000 </r>
      </set>
      <set comment="kpoint 11">
       <r>   -5.9139    1.0000 </r>
       <r>    4.0424    1.0000 </r>
       <r>    4.8698    1.0000 </r>
       <r>    4.9723    1.0000 </r>
       <r>    7.8114    0.0000 </r>
       <r>    9.0923    0.0000 </r>
       <r>    9.3614    0.0000 </r>
       <r>   10.1332    0.0000 </r>
      </set>
      <set comment="kpoint 12">
       <r>   -5.5758    1.0000 </r>
       <r>    2.8017    1.0000 </r>
       <r>    4.1250    1.0000 </r>
       <r>    4.7800    1.0000 </r>
       <r>    7.8773    0.0000 </r>
       <r>    9.2595    0.0000 </r>
       <r>    9.9884    0.0000 </r>
       <r>   10.5021    0.0000 </r>
      </set>
      <set comment="kpoint 13">
       <r>   -5.0069    1.0000 </r>
       <r>    1.1734    1.0000 </r>
       <r>    3.6937    1.0000 </r>
       <r>    4.4156    1.0000 </r>
       <r>    8.0918    0.0000 </r>
       <r>    9.2355    0.0000 </r>
       <r>   10.2629    0.0000 </r>
       <r>   10.7544    0.0000 </r>
      </set>
      <set comment="kpoint 14">
       <r>   -4.2827    1.0000 </r>
       <r>   -0.2898    1.0000 </r>
       <r>    3.4194    1.0000 </r>
       <r>    4.1357    1.0000 </r>
       <r>    8.0297    0.0000 </r>
       <r>    9.1131    0.0000 </r>
       <r>   10.1378    0.0000 </r>
       <r>   11.8922    0.0000 </r>
      </set>
      <set comment="kpoint 15">
       <r>   -3.7357    1.0000 </r>
       <r>   -1.1420    1.0000 </r>
       <r>    3.2389    1.0000 </r>
       <r>    4.0904    1.0000 </r>
       <r>    8.0130    0.0000 </r>
       <r>    8.9899    0.0000 </r>
       <r>    9.9785    0.0000 </r>
       <r>   13.4639    0.0000 </r>
      </set>
      <set comment="kpoint 16">
       <r>   -4.0500    1.0000 </r>
       <r>   -0.6719    1.0000 </r>
       <r>    3.1798    1.0000 </r>
       <r>    4.2801    1.0000 </r>
       <r>    8.1327    0.0000 </r>
       <r>    9.0144    0.0000 </r>
       <r>    9.9435    0.0000 </r>
       <r>   12.9519    0.0000 </r>
      </set>
      <set comment="kpoint 17">
       <r>   -4.7785    1.0000 </r>
       <r>    0.6569    1.0000 </r>
       <r>    3.3014    1.0000 </r>
       <r>    4.6342    1.0000 </r>
       <r>    8.3637    0.0000 </r>
       <r>    9.0714    0.0000 </r>
       <r>    9.9856    0.0000 </r>
       <r>   11.5740    0.0000 </r>
      </set>
      <set comment="kpoint 18">
       <r>   -5.4119    1.0000 </r>
       <r>    2.2312    1.0000 </r>
       <r>    3.6836    1.0000 </r>
       <r>    5.0421    1.0000 </r>
       <r>    8.5139    0.0000 </r>
       <r>    8.8738    0.0000 </r>
       <r>    9.7653    0.0000 </r>
       <r>   10.9500    0.0000 </r>
      </set>
      <set comment="kpoint 19">
       <r>   -5.8297    1.0000 </r>
       <r>    3.4887    1.0000 </r>
       <r>    4.5938    1.0000 </r>
       <r>    5.2745    1.0000 </r>
       <r>    8.2000    0.0000 </r>
       <r>    8.7110    0.0000 </r>
       <r>    9.2403    0.0000 </r>
       <r>   10.6777    0.0000 </r>
      </set>
      <set comment="kpoint 20">
       <r>   -5.3196    1.0000 </r>
       <r>    2.4495    1.0000 </r>
       <r>    3.9622    1.0000 </r>
       <r>    3.9904    1.0000 </r>
       <r>    7.1117    0.0000 </r>
       <r>    9.2799    0.0000 </r>
       <r>   10.8123    0.0000 </r>
       <r>   10.9273    0.0000 </r>
      </set>
      <set comment="kpoint 21">
       <r>   -4.8246    1.0000 </r>
       <r>    1.3622    1.0000 </r>
       <r>    3.2788    1.0000 </r>
       <r>    3.7477    1.0000 </r>
       <r>    7.2491    0.0000 </r>
       <r>    8.8916    0.0000 </r>
       <r>   10.9617    0.0000 </r>
       <r>   11.6818    0.0000 </r>
      </set>
      <set comment="kpoint 22">
       <r>   -4.1370    1.0000 </r>
       <r>    0.0860    1.0000 </r>
       <r>    2.6700    1.0000 </r>
       <r>    3.5229    1.0000 </r>
       <r>    7.5010    0.0000 </r>
       <r>    9.5879    0.0000 </r>
       <r>   10.6558    0.0000 </r>
       <r>   11.7565    0.0000 </r>
      </set>
      <set comment="kpoint 23">
       <r>   -3.4537    1.0000 </r>
       <r>   -0.9304    1.0000 </r>
       <r>    2.1947    1.0000 </r>
       <r>    3.5425    1.0000 </r>
       <r>    7.6172    0.0000 </r>
       <r>   10.3181    0.0000 </r>
       <r>   11.2270    0.0000 </r>
       <r>   11.5525    0.0000 </r>
      </set>
      <set comment="kpoint 24">
       <r>   -3.4778    1.0000 </r>
       <r>   -0.8912    1.0000 </r>
       <r>    1.9489    1.0000 </r>
       <r>    3.7906    1.0000 </r>
       <r>    7.8926    0.0000 </r>
       <r>   10.0986    0.0000 </r>
       <r>   11.3638    0.0000 </r>
       <r>   12.8533    0.0000 </r>
      </set>
      <set comment="kpoint 25">
       <r>   -4.1686    1.0000 </r>
       <r>    0.1122    1.0000 </r>
       <r>    2.0518    1.0000 </r>
       <r>    4.2096    1.0000 </r>
       <r>    8.3329    0.0000 </r>
       <r>    9.8630    0.0000 </r>
       <r>   11.0923    0.0000 </r>
       <r>   11.4039    0.0000 </r>
      </set>
      <set comment="kpoint 26">
       <r>   -4.8475    1.0000 </r>
       <r>    1.0920    1.0000 </r>
       <r>    2.7988    1.0000 </r>
       <r>    4.6718    1.0000 </r>
       <r>    8.6962    0.0000 </r>
       <r>    9.1565    0.0000 </r>
       <r>   10.3774    0.0000 </r>
       <r>   10.9606    0.0000 </r>
      </set>
      <set comment="kpoint 27">
       <r>   -5.3328    1.0000 </r>
       <r>    1.7429    1.0000 </r>
       <r>    4.1649    1.0000 </r>
       <r>    4.9087    1.0000 </r>
       <r>    8.1403    0.0000 </r>
       <r>    8.9154    0.0000 </r>
       <r>    9.6842    0.0000 </r>
       <r>   11.4099    0.0000 </r>
      </set>
      <set comment="kpoint 28">
       <r>   -4.4037    1.0000 </r>
       <r>    0.7450    1.0000 </r>
       <r>    3.2102    1.0000 </r>
       <r>    3.3201    1.0000 </r>
       <r>    6.5964    0.0000 </r>
       <r>    7.9065    0.0000 </r>
       <r>   12.5669    0.0000 </r>
       <r>   12.6452    0.0000 </r>
      </set>
      <set comment="kpoint 29">
       <r>   -3.7707    1.0000 </r>
       <r>   -0.1783    1.0000 </r>
       <r>    2.6725    1.0000 </r>
       <r>    3.0577    1.0000 </r>
       <r>    6.8533    0.0000 </r>
       <r>    7.7866    0.0000 </r>
       <r>   12.5794    0.0000 </r>
       <r>   13.5097    0.0000 </r>
      </set>
      <set comment="kpoint 30">
       <r>   -3.0361    1.0000 </r>
       <r>   -1.0561    1.0000 </r>
       <r>    1.8702    1.0000 </r>
       <r>    3.0655    1.0000 </r>
       <r>    7.0671    0.0000 </r>
       <r>    8.9997    0.0000 </r>
       <r>   12.2369    0.0000 </r>
       <r>   13.4673    0.0000 </r>
      </set>
      <set comment="kpoint 31">
       <r>   -2.8123    1.0000 </r>
       <r>   -1.2811    1.0000 </r>
       <r>    1.3755    1.0000 </r>
       <r>    3.3042    1.0000 </r>
       <r>    7.3432    0.0000 </r>
       <r>   10.8629    0.0000 </r>
       <r>   11.8962    0.0000 </r>
       <r>   12.8577    0.0000 </r>
      </set>
      <set comment="kpoint 32">
       <r>   -3.4437    1.0000 </r>
       <r>   -0.6879    1.0000 </r>
       <r>    1.5361    1.0000 </r>
       <r>    3.7288    1.0000 </r>
       <r>    7.8239    0.0000 </r>
       <r>   10.7585    0.0000 </r>
       <r>   11.8973    0.0000 </r>
       <r>   12.2187    0.0000 </r>
      </set>
      <set comment="kpoint 33">
       <r>   -4.1255    1.0000 </r>
       <r>   -0.2454    1.0000 </r>
       <r>    2.5290    1.0000 </r>
       <r>    4.2351    1.0000 </r>
       <r>    8.3156    0.0000 </r>
       <r>    9.3702    0.0000 </r>
       <r>   10.5456    0.0000 </r>
       <r>   12.0887    0.0000 </r>
      </set>
      <set comment="kpoint 34">
       <r>   -4.6438    1.0000 </r>
       <r>    0.1349    1.0000 </r>
       <r>    3.9174    1.0000 </r>
       <r>    4.5505    1.0000 </r>
       <r>    7.8757    0.0000 </r>
       <r>    9.0219    0.0000 </r>
       <r>    9.6370    0.0000 </r>
       <r>   12.3973    0.0000 </r>
      </set>
      <set comment="kpoint 35">
       <r>   -3.1936    1.0000 </r>
       <r>   -0.9379    1.0000 </r>
       <r>    2.7881    1.0000 </r>
       <r>    2.9346    1.0000 </r>
       <r>    6.4083    0.0016 </r>
       <r>    6.9631    0.0000 </r>
       <r>   14.4317    0.0000 </r>
       <r>   14.4357    0.0000 </r>
      </set>
      <set comment="kpoint 36">
       <r>   -2.4602    1.0000 </r>
       <r>   -1.7215    1.0000 </r>
       <r>    2.3953    1.0000 </r>
       <r>    2.7737    1.0000 </r>
       <r>    6.7317    0.0000 </r>
       <r>    7.2439    0.0000 </r>
       <r>   14.3016    0.0000 </r>
       <r>   14.9954    0.0000 </r>
      </set>
      <set comment="kpoint 37">
       <r>   -2.4784    1.0000 </r>
       <r>   -1.6203    1.0000 </r>
       <r>    1.6964    1.0000 </r>
       <r>    2.9777    1.0000 </r>
       <r>    6.9729    0.0000 </r>
       <r>    8.8821    0.0000 </r>
       <r>   13.0641    0.0000 </r>
       <r>   13.9335    0.0000 </r>
      </set>
      <set comment="kpoint 38">
       <r>   -3.0664    1.0000 </r>
       <r>   -1.1487    1.0000 </r>
       <r>    1.6768    1.0000 </r>
       <r>    3.3828    1.0000 </r>
       <r>    7.4373    0.0000 </r>
       <r>   10.8732    0.0000 </r>
       <r>   11.2310    0.0000 </r>
       <r>   12.3693    0.0000 </r>
      </set>
      <set comment="kpoint 39">
       <r>   -3.5683    1.0000 </r>
       <r>   -1.0883    1.0000 </r>
       <r>    2.5698    1.0000 </r>
       <r>    3.9121    1.0000 </r>
       <r>    8.0015    0.0000 </r>
       <r>    9.4437    0.0000 </r>
       <r>   10.6305    0.0000 </r>
       <r>   13.3395    0.0000 </r>
      </set>
      <set comment="kpoint 40">
       <r>   -3.9654    1.0000 </r>
       <r>   -1.0198    1.0000 </r>
       <r>    3.8147    1.0000 </r>
       <r>    4.3310    1.0000 </r>
       <r>    7.7170    0.0000 </r>
       <r>    8.9651    0.0000 </r>
       <r>    9.4768    0.0000 </r>
       <r>   13.5279    0.0000 </r>
      </set>
      <set comment="kpoint 41">
       <r>   -2.4924    1.0000 </r>
       <r>   -1.7371    1.0000 </r>
       <r>    2.7035    1.0000 </r>
       <r>    2.8564    1.0000 </r>
       <r>    6.4417    0.0007 </r>
       <r>    6.6957    0.0000 </r>
       <r>   15.2539    0.0000 </r>
       <r>   15.2952    0.0000 </r>
      </set>
      <set comment="kpoint 42">
       <r>   -3.1431    1.0000 </r>
       <r>   -0.9593    1.0000 </r>
       <r>    2.4883    1.0000 </r>
       <r>    2.8675    1.0000 </r>
       <r>    6.7630    0.0000 </r>
       <r>    7.4358    0.0000 </r>
       <r>   13.4318    0.0000 </r>
       <r>   14.4266    0.0000 </r>
      </set>
      <set comment="kpoint 43">
       <r>   -3.6081    1.0000 </r>
       <r>   -0.4713    1.0000 </r>
       <r>    2.2059    1.0000 </r>
       <r>    3.2442    1.0000 </r>
       <r>    7.2481    0.0000 </r>
       <r>    9.2337    0.0000 </r>
       <r>   11.4262    0.0000 </r>
       <r>   12.5966    0.0000 </r>
      </set>
      <set comment="kpoint 44">
       <r>   -3.8767    1.0000 </r>
       <r>   -0.6443    1.0000 </r>
       <r>    2.8137    1.0000 </r>
       <r>    3.7898    1.0000 </r>
       <r>    7.8506    0.0000 </r>
       <r>    9.6429    0.0000 </r>
       <r>   10.7892    0.0000 </r>
       <r>   11.5012    0.0000 </r>
      </set>
      <set comment="kpoint 45">
       <r>   -3.8329    1.0000 </r>
       <r>   -0.1056    1.0000 </r>
       <r>    2.9577    1.0000 </r>
       <r>    3.0900    1.0000 </r>
       <r>    6.4581    0.0005 </r>
       <r>    7.3720    0.0000 </r>
       <r>   13.5086    0.0000 </r>
       <r>   13.5392    0.0000 </r>
      </set>
      <set comment="kpoint 46">
       <r>   -4.3332    1.0000 </r>
       <r>    0.6013    1.0000 </r>
       <r>    2.9396    1.0000 </r>
       <r>    3.3497    1.0000 </r>
       <r>    7.0158    0.0000 </r>
       <r>    8.2795    0.0000 </r>
       <r>   11.7539    0.0000 </r>
       <r>   12.5855    0.0000 </r>
      </set>
      <set comment="kpoint 47">
       <r>   -4.6064    1.0000 </r>
       <r>    0.6268    1.0000 </r>
       <r>    3.1900    1.0000 </r>
       <r>    3.9171    1.0000 </r>
       <r>    7.8049    0.0000 </r>
       <r>    9.8495    0.0000 </r>
       <r>   10.1455    0.0000 </r>
       <r>   10.9872    0.0000 </r>
      </set>
      <set comment="kpoint 48">
       <r>   -4.9002    1.0000 </r>
       <r>    1.6026    1.0000 </r>
       <r>    3.5476    1.0000 </r>
       <r>    3.6232    1.0000 </r>
       <r>    6.8176    0.0000 </r>
       <r>    8.5789    0.0000 </r>
       <r>   11.6704    0.0000 </r>
       <r>   11.7764    0.0000 </r>
      </set>
      <set comment="kpoint 49">
       <r>   -5.2399    1.0000 </r>
       <r>    2.0951    1.0000 </r>
       <r>    3.6795    1.0000 </r>
       <r>    4.2384    1.0000 </r>
       <r>    7.5446    0.0000 </r>
       <r>    9.4804    0.0000 </r>
       <r>   10.3117    0.0000 </r>
       <r>   10.8135    0.0000 </r>
      </set>
      <set comment="kpoint 50">
       <r>   -5.6582    1.0000 </r>
       <r>    3.2693    1.0000 </r>
       <r>    4.4138    1.0000 </r>
       <r>    4.4486    1.0000 </r>
       <r>    7.4554    0.0000 </r>
       <r>    9.6684    0.0000 </r>
       <r>   10.1138    0.0000 </r>
       <r>   10.2337    0.0000 </r>
      </set>
      <set comment="kpoint 51">
       <r>   -5.9151    1.0000 </r>
       <r>    3.5889    1.0000 </r>
       <r>    5.2791    1.0000 </r>
       <r>    5.2791    1.0000 </r>
       <r>    8.0141    0.0000 </r>
       <r>    8.7908    0.0000 </r>
       <r>    8.7908    0.0000 </r>
       <r>   10.6218    0.0000 </r>
      </set>
      <set comment="kpoint 52">
       <r>   -5.6619    1.0000 </r>
       <r>    2.8625    1.0000 </r>
       <r>    4.1499    1.0000 </r>
       <r>    5.3441    1.0000 </r>
       <r>    8.4932    0.0000 </r>
       <r>    8.8081    0.0000 </r>
       <r>    9.1229    0.0000 </r>
       <r>   11.1728    0.0000 </r>
      </set>
      <set comment="kpoint 53">
       <r>   -5.1681    1.0000 </r>
       <r>    1.6534    1.0000 </r>
       <r>    3.2239    1.0000 </r>
       <r>    5.0200    1.0000 </r>
       <r>    8.5810    0.0000 </r>
       <r>    9.3151    0.0000 </r>
       <r>    9.6048    0.0000 </r>
       <r>   11.3918    0.0000 </r>
      </set>
      <set comment="kpoint 54">
       <r>   -4.4817    1.0000 </r>
       <r>    0.1792    1.0000 </r>
       <r>    2.9031    1.0000 </r>
       <r>    4.5787    1.0000 </r>
       <r>    8.2477    0.0000 </r>
       <r>    9.6616    0.0000 </r>
       <r>    9.6954    0.0000 </r>
       <r>   12.4407    0.0000 </r>
      </set>
      <set comment="kpoint 55">
       <r>   -3.7993    1.0000 </r>
       <r>   -0.9489    1.0000 </r>
       <r>    2.8861    1.0000 </r>
       <r>    4.2076    1.0000 </r>
       <r>    7.9482    0.0000 </r>
       <r>    9.5137    0.0000 </r>
       <r>    9.8868    0.0000 </r>
       <r>   13.8423    0.0000 </r>
      </set>
      <set comment="kpoint 56">
       <r>   -3.7931    1.0000 </r>
       <r>   -0.9606    1.0000 </r>
       <r>    3.0911    1.0000 </r>
       <r>    3.9790    1.0000 </r>
       <r>    7.7979    0.0000 </r>
       <r>    9.4992    0.0000 </r>
       <r>   10.1239    0.0000 </r>
       <r>   12.4938    0.0000 </r>
      </set>
      <set comment="kpoint 57">
       <r>   -4.4731    1.0000 </r>
       <r>    0.1613    1.0000 </r>
       <r>    3.4803    1.0000 </r>
       <r>    3.9343    1.0000 </r>
       <r>    7.7996    0.0000 </r>
       <r>    9.6233    0.0000 </r>
       <r>   10.4241    0.0000 </r>
       <r>   10.9159    0.0000 </r>
      </set>
      <set comment="kpoint 58">
       <r>   -5.1617    1.0000 </r>
       <r>    1.6925    1.0000 </r>
       <r>    3.9841    1.0000 </r>
       <r>    4.0847    1.0000 </r>
       <r>    7.7338    0.0000 </r>
       <r>    9.5753    0.0000 </r>
       <r>   10.2740    0.0000 </r>
       <r>   10.5387    0.0000 </r>
      </set>
      <set comment="kpoint 59">
       <r>   -5.4945    1.0000 </r>
       <r>    2.3191    1.0000 </r>
       <r>    4.4793    1.0000 </r>
       <r>    4.6120    1.0000 </r>
       <r>    8.0327    0.0000 </r>
       <r>    8.9851    0.0000 </r>
       <r>    9.8952    0.0000 </r>
       <r>   10.8337    0.0000 </r>
      </set>
      <set comment="kpoint 60">
       <r>   -5.0818    1.0000 </r>
       <r>    1.6065    1.0000 </r>
       <r>    3.2473    1.0000 </r>
       <r>    4.5197    1.0000 </r>
       <r>    8.2441    0.0000 </r>
       <r>    9.3112    0.0000 </r>
       <r>   10.2598    0.0000 </r>
       <r>   10.6399    0.0000 </r>
      </set>
      <set comment="kpoint 61">
       <r>   -4.4541    1.0000 </r>
       <r>    0.5480    1.0000 </r>
       <r>    2.4373    1.0000 </r>
       <r>    4.1234    1.0000 </r>
       <r>    8.8390    0.0000 </r>
       <r>    9.1094    0.0000 </r>
       <r>   10.3266    0.0000 </r>
       <r>   11.3912    0.0000 </r>
      </set>
      <set comment="kpoint 62">
       <r>   -3.7246    1.0000 </r>
       <r>   -0.6145    1.0000 </r>
       <r>    2.1923    1.0000 </r>
       <r>    3.7245    1.0000 </r>
       <r>    8.6397    0.0000 </r>
       <r>    9.0882    0.0000 </r>
       <r>   11.4282    0.0000 </r>
       <r>   11.7726    0.0000 </r>
      </set>
      <set comment="kpoint 63">
       <r>   -3.3980    1.0000 </r>
       <r>   -1.0708    1.0000 </r>
       <r>    2.2351    1.0000 </r>
       <r>    3.5275    1.0000 </r>
       <r>    8.3338    0.0000 </r>
       <r>    9.2777    0.0000 </r>
       <r>   11.5768    0.0000 </r>
       <r>   12.3448    0.0000 </r>
      </set>
      <set comment="kpoint 64">
       <r>   -3.9516    1.0000 </r>
       <r>   -0.2743    1.0000 </r>
       <r>    2.4505    1.0000 </r>
       <r>    3.6142    1.0000 </r>
       <r>    8.1800    0.0000 </r>
       <r>    9.6193    0.0000 </r>
       <r>   10.5561    0.0000 </r>
       <r>   11.6751    0.0000 </r>
      </set>
      <set comment="kpoint 65">
       <r>   -4.6746    1.0000 </r>
       <r>    0.9816    1.0000 </r>
       <r>    2.8669    1.0000 </r>
       <r>    3.9438    1.0000 </r>
       <r>    7.9675    0.0000 </r>
       <r>    9.4718    0.0000 </r>
       <r>   10.0474    0.0000 </r>
       <r>   11.5573    0.0000 </r>
      </set>
      <set comment="kpoint 66">
       <r>   -4.7511    1.0000 </r>
       <r>    1.0615    1.0000 </r>
       <r>    3.3655    1.0000 </r>
       <r>    3.7323    1.0000 </r>
       <r>    7.4088    0.0000 </r>
       <r>    9.3146    0.0000 </r>
       <r>   10.7098    0.0000 </r>
       <r>   11.2142    0.0000 </r>
      </set>
      <set comment="kpoint 67">
       <r>   -4.1952    1.0000 </r>
       <r>    0.3403    1.0000 </r>
       <r>    2.5517    1.0000 </r>
       <r>    3.4104    1.0000 </r>
       <r>    7.7269    0.0000 </r>
       <r>    8.9424    0.0000 </r>
       <r>   10.6783    0.0000 </r>
       <r>   12.5078    0.0000 </r>
      </set>
      <set comment="kpoint 68">
       <r>   -3.4770    1.0000 </r>
       <r>   -0.5355    1.0000 </r>
       <r>    1.9561    1.0000 </r>
       <r>    2.9741    1.0000 </r>
       <r>    8.4524    0.0000 </r>
       <r>    9.4211    0.0000 </r>
       <r>   10.2515    0.0000 </r>
       <r>   13.4378    0.0000 </r>
      </set>
      <set comment="kpoint 69">
       <r>   -2.9081    1.0000 </r>
       <r>   -1.1953    1.0000 </r>
       <r>    1.6520    1.0000 </r>
       <r>    2.8304    1.0000 </r>
       <r>    8.7033    0.0000 </r>
       <r>    9.7872    0.0000 </r>
       <r>   11.1874    0.0000 </r>
       <r>   12.4300    0.0000 </r>
      </set>
      <set comment="kpoint 70">
       <r>   -3.2663    1.0000 </r>
       <r>   -0.7865    1.0000 </r>
       <r>    1.6540    1.0000 </r>
       <r>    3.0561    1.0000 </r>
       <r>    9.0809    0.0000 </r>
       <r>    9.4972    0.0000 </r>
       <r>   10.5330    0.0000 </r>
       <r>   13.3338    0.0000 </r>
      </set>
      <set comment="kpoint 71">
       <r>   -3.9942    1.0000 </r>
       <r>    0.0103    1.0000 </r>
       <r>    2.1530    1.0000 </r>
       <r>    3.5208    1.0000 </r>
       <r>    8.6305    0.0000 </r>
       <r>    9.5890    0.0000 </r>
       <r>    9.8369    0.0000 </r>
       <r>   12.4086    0.0000 </r>
      </set>
      <set comment="kpoint 72">
       <r>   -3.7148    1.0000 </r>
       <r>   -0.2816    1.0000 </r>
       <r>    2.4158    1.0000 </r>
       <r>    3.2194    1.0000 </r>
       <r>    6.8812    0.0000 </r>
       <r>    8.3811    0.0000 </r>
       <r>   12.4922    0.0000 </r>
       <r>   12.6735    0.0000 </r>
      </set>
      <set comment="kpoint 73">
       <r>   -3.0470    1.0000 </r>
       <r>   -1.0105    1.0000 </r>
       <r>    2.1515    1.0000 </r>
       <r>    2.6902    1.0000 </r>
       <r>    7.4358    0.0000 </r>
       <r>    8.2086    0.0000 </r>
       <r>   12.2042    0.0000 </r>
       <r>   14.3729    0.0000 </r>
      </set>
      <set comment="kpoint 74">
       <r>   -2.3425    1.0000 </r>
       <r>   -1.6754    1.0000 </r>
       <r>    1.8194    1.0000 </r>
       <r>    2.3046    1.0000 </r>
       <r>    8.2701    0.0000 </r>
       <r>    9.0328    0.0000 </r>
       <r>   11.7806    0.0000 </r>
       <r>   12.6664    0.0000 </r>
      </set>
      <set comment="kpoint 75">
       <r>   -2.6355    1.0000 </r>
       <r>   -1.3784    1.0000 </r>
       <r>    1.5015    1.0000 </r>
       <r>    2.6305    1.0000 </r>
       <r>    8.6237    0.0000 </r>
       <r>   10.4494    0.0000 </r>
       <r>   11.1281    0.0000 </r>
       <r>   11.5667    0.0000 </r>
      </set>
      <set comment="kpoint 76">
       <r>   -3.3032    1.0000 </r>
       <r>   -0.9306    1.0000 </r>
       <r>    1.8969    1.0000 </r>
       <r>    3.2165    1.0000 </r>
       <r>    8.8613    0.0000 </r>
       <r>    9.1538    0.0000 </r>
       <r>   11.3651    0.0000 </r>
       <r>   12.5578    0.0000 </r>
      </set>
      <set comment="kpoint 77">
       <r>   -2.4611    1.0000 </r>
       <r>   -1.6894    1.0000 </r>
       <r>    2.0050    1.0000 </r>
       <r>    2.9926    1.0000 </r>
       <r>    6.6288    0.0000 </r>
       <r>    7.9753    0.0000 </r>
       <r>   14.1812    0.0000 </r>
       <r>   14.3812    0.0000 </r>
      </set>
      <set comment="kpoint 78">
       <r>   -2.4042    1.0000 </r>
       <r>   -1.6973    1.0000 </r>
       <r>    2.0703    1.0000 </r>
       <r>    2.5424    1.0000 </r>
       <r>    7.3801    0.0000 </r>
       <r>    8.0549    0.0000 </r>
       <r>   13.0524    0.0000 </r>
       <r>   13.9434    0.0000 </r>
      </set>
      <set comment="kpoint 79">
       <r>   -2.9167    1.0000 </r>
       <r>   -1.1020    1.0000 </r>
       <r>    1.8490    1.0000 </r>
       <r>    2.5497    1.0000 </r>
       <r>    8.3310    0.0000 </r>
       <r>    9.1621    0.0000 </r>
       <r>   10.9751    0.0000 </r>
       <r>   13.5891    0.0000 </r>
      </set>
      <set comment="kpoint 80">
       <r>   -3.1042    1.0000 </r>
       <r>   -0.9920    1.0000 </r>
       <r>    2.1413    1.0000 </r>
       <r>    3.0689    1.0000 </r>
       <r>    6.7157    0.0000 </r>
       <r>    8.1109    0.0000 </r>
       <r>   13.4368    0.0000 </r>
       <r>   13.4531    0.0000 </r>
      </set>
      <set comment="kpoint 81">
       <r>   -3.6496    1.0000 </r>
       <r>   -0.3246    1.0000 </r>
       <r>    2.3132    1.0000 </r>
       <r>    2.9836    1.0000 </r>
       <r>    7.5499    0.0000 </r>
       <r>    8.5102    0.0000 </r>
       <r>   11.4114    0.0000 </r>
       <r>   13.4824    0.0000 </r>
      </set>
      <set comment="kpoint 82">
       <r>   -4.2665    1.0000 </r>
       <r>    0.4065    1.0000 </r>
       <r>    2.8293    1.0000 </r>
       <r>    3.4433    1.0000 </r>
       <r>    7.1185    0.0000 </r>
       <r>    8.7917    0.0000 </r>
       <r>   11.5807    0.0000 </r>
       <r>   11.9285    0.0000 </r>
      </set>
      <set comment="kpoint 83">
       <r>   -5.4175    1.0000 </r>
       <r>    1.7447    1.0000 </r>
       <r>    4.9021    1.0000 </r>
       <r>    4.9021    1.0000 </r>
       <r>    7.6317    0.0000 </r>
       <r>    9.1933    0.0000 </r>
       <r>    9.1933    0.0000 </r>
       <r>   12.4062    0.0000 </r>
      </set>
      <set comment="kpoint 84">
       <r>   -5.0930    1.0000 </r>
       <r>    1.1809    1.0000 </r>
       <r>    3.7387    1.0000 </r>
       <r>    4.9489    1.0000 </r>
       <r>    8.1711    0.0000 </r>
       <r>    9.2282    0.0000 </r>
       <r>    9.4735    0.0000 </r>
       <r>   12.0420    0.0000 </r>
      </set>
      <set comment="kpoint 85">
       <r>   -4.5410    1.0000 </r>
       <r>    0.5904    1.0000 </r>
       <r>    2.3905    1.0000 </r>
       <r>    4.5814    1.0000 </r>
       <r>    8.3527    0.0000 </r>
       <r>    9.9888    0.0000 </r>
       <r>   10.2517    0.0000 </r>
       <r>   11.6540    0.0000 </r>
      </set>
      <set comment="kpoint 86">
       <r>   -3.8274    1.0000 </r>
       <r>   -0.3028    1.0000 </r>
       <r>    1.7441    1.0000 </r>
       <r>    4.0956    1.0000 </r>
       <r>    7.8840    0.0000 </r>
       <r>   10.8301    0.0000 </r>
       <r>   11.0714    0.0000 </r>
       <r>   12.2529    0.0000 </r>
      </set>
      <set comment="kpoint 87">
       <r>   -3.2460    1.0000 </r>
       <r>   -1.0748    1.0000 </r>
       <r>    1.7645    1.0000 </r>
       <r>    3.6952    1.0000 </r>
       <r>    7.4567    0.0000 </r>
       <r>   11.1331    0.0000 </r>
       <r>   11.2670    0.0000 </r>
       <r>   12.1133    0.0000 </r>
      </set>
      <set comment="kpoint 88">
       <r>   -3.5352    1.0000 </r>
       <r>   -0.7035    1.0000 </r>
       <r>    2.1662    1.0000 </r>
       <r>    3.4683    1.0000 </r>
       <r>    7.2342    0.0000 </r>
       <r>   10.1503    0.0000 </r>
       <r>   11.3425    0.0000 </r>
       <r>   11.6262    0.0000 </r>
      </set>
      <set comment="kpoint 89">
       <r>   -4.8593    1.0000 </r>
       <r>    0.6429    1.0000 </r>
       <r>    4.1716    1.0000 </r>
       <r>    4.2416    1.0000 </r>
       <r>    7.9601    0.0000 </r>
       <r>    9.0537    0.0000 </r>
       <r>    9.9387    0.0000 </r>
       <r>   11.4915    0.0000 </r>
      </set>
      <set comment="kpoint 90">
       <r>   -4.3949    1.0000 </r>
       <r>    0.1746    1.0000 </r>
       <r>    2.8718    1.0000 </r>
       <r>    4.1300    1.0000 </r>
       <r>    8.4153    0.0000 </r>
       <r>    9.1358    0.0000 </r>
       <r>   10.7029    0.0000 </r>
       <r>   11.0938    0.0000 </r>
      </set>
      <set comment="kpoint 91">
       <r>   -3.7392    1.0000 </r>
       <r>   -0.3428    1.0000 </r>
       <r>    1.8015    1.0000 </r>
       <r>    3.6518    1.0000 </r>
       <r>    8.6097    0.0000 </r>
       <r>    9.6550    0.0000 </r>
       <r>   10.8573    0.0000 </r>
       <r>   12.2796    0.0000 </r>
      </set>
      <set comment="kpoint 92">
       <r>   -3.0369    1.0000 </r>
       <r>   -1.0450    1.0000 </r>
       <r>    1.4492    1.0000 </r>
       <r>    3.1941    1.0000 </r>
       <r>    8.1069    0.0000 </r>
       <r>   10.6057    0.0000 </r>
       <r>   11.6652    0.0000 </r>
       <r>   12.1481    0.0000 </r>
      </set>
      <set comment="kpoint 93">
       <r>   -2.9601    1.0000 </r>
       <r>   -1.1369    1.0000 </r>
       <r>    1.7134    1.0000 </r>
       <r>    2.9385    1.0000 </r>
       <r>    7.7708    0.0000 </r>
       <r>    9.9994    0.0000 </r>
       <r>   11.0369    0.0000 </r>
       <r>   13.4082    0.0000 </r>
      </set>
      <set comment="kpoint 94">
       <r>   -4.0263    1.0000 </r>
       <r>   -0.2812    1.0000 </r>
       <r>    2.7837    1.0000 </r>
       <r>    3.6726    1.0000 </r>
       <r>    7.5034    0.0000 </r>
       <r>   10.4431    0.0000 </r>
       <r>   10.4733    0.0000 </r>
       <r>   10.9913    0.0000 </r>
      </set>
      <set comment="kpoint 95">
       <r>   -3.4631    1.0000 </r>
       <r>   -0.7068    1.0000 </r>
       <r>    2.0477    1.0000 </r>
       <r>    3.2048    1.0000 </r>
       <r>    7.9462    0.0000 </r>
       <r>   10.1178    0.0000 </r>
       <r>   10.3957    0.0000 </r>
       <r>   12.5880    0.0000 </r>
      </set>
      <set comment="kpoint 96">
       <r>   -2.7706    1.0000 </r>
       <r>   -1.2306    1.0000 </r>
       <r>    1.6212    1.0000 </r>
       <r>    2.5276    1.0000 </r>
       <r>    9.3424    0.0000 </r>
       <r>    9.7051    0.0000 </r>
       <r>   10.3585    0.0000 </r>
       <r>   12.3488    0.0000 </r>
      </set>
      <set comment="kpoint 97">
       <r>   -2.3011    1.0000 </r>
       <r>   -1.6645    1.0000 </r>
       <r>    1.6863    1.0000 </r>
       <r>    2.1595    1.0000 </r>
       <r>    9.2920    0.0000 </r>
       <r>   10.0209    0.0000 </r>
       <r>   10.6498    0.0000 </r>
       <r>   11.4346    0.0000 </r>
      </set>
      <set comment="kpoint 98">
       <r>   -3.0325    1.0000 </r>
       <r>   -1.1207    1.0000 </r>
       <r>    1.7043    1.0000 </r>
       <r>    3.3291    1.0000 </r>
       <r>    7.0387    0.0000 </r>
       <r>    9.9379    0.0000 </r>
       <r>   12.2765    0.0000 </r>
       <r>   12.3179    0.0000 </r>
      </set>
      <set comment="kpoint 99">
       <r>   -2.5339    1.0000 </r>
       <r>   -1.5147    1.0000 </r>
       <r>    1.5224    1.0000 </r>
       <r>    2.8112    1.0000 </r>
       <r>    7.6810    0.0000 </r>
       <r>    9.8993    0.0000 </r>
       <r>   11.8165    0.0000 </r>
       <r>   12.7534    0.0000 </r>
      </set>
      <set comment="kpoint 100">
       <r>   -2.6190    1.0000 </r>
       <r>   -1.4775    1.0000 </r>
       <r>    1.4561    1.0000 </r>
       <r>    3.2587    1.0000 </r>
       <r>    6.9379    0.0000 </r>
       <r>    9.8341    0.0000 </r>
       <r>   12.9668    0.0000 </r>
       <r>   13.2317    0.0000 </r>
      </set>
      <set comment="kpoint 101">
       <r>   -4.7283    1.0000 </r>
       <r>    0.1031    1.0000 </r>
       <r>    4.6231    1.0000 </r>
       <r>    4.6231    1.0000 </r>
       <r>    7.3089    0.0000 </r>
       <r>    9.2096    0.0000 </r>
       <r>    9.2096    0.0000 </r>
       <r>   13.4945    0.0000 </r>
      </set>
      <set comment="kpoint 102">
       <r>   -4.3693    1.0000 </r>
       <r>   -0.3108    1.0000 </r>
       <r>    3.5700    1.0000 </r>
       <r>    4.5677    1.0000 </r>
       <r>    7.9006    0.0000 </r>
       <r>    9.2845    0.0000 </r>
       <r>    9.3735    0.0000 </r>
       <r>   13.2514    0.0000 </r>
      </set>
      <set comment="kpoint 103">
       <r>   -3.8118    1.0000 </r>
       <r>   -0.6058    1.0000 </r>
       <r>    2.2123    1.0000 </r>
       <r>    4.1368    1.0000 </r>
       <r>    7.9238    0.0000 </r>
       <r>   10.2560    0.0000 </r>
       <r>   10.3834    0.0000 </r>
       <r>   13.1283    0.0000 </r>
      </set>
      <set comment="kpoint 104">
       <r>   -3.1258    1.0000 </r>
       <r>   -1.0037    1.0000 </r>
       <r>    1.3861    1.0000 </r>
       <r>    3.6360    1.0000 </r>
       <r>    7.3719    0.0000 </r>
       <r>   11.7836    0.0000 </r>
       <r>   11.8312    0.0000 </r>
       <r>   12.2895    0.0000 </r>
      </set>
      <set comment="kpoint 105">
       <r>   -4.1313    1.0000 </r>
       <r>   -0.7089    1.0000 </r>
       <r>    3.8144    1.0000 </r>
       <r>    4.1804    1.0000 </r>
       <r>    7.7976    0.0000 </r>
       <r>    9.0159    0.0000 </r>
       <r>    9.6912    0.0000 </r>
       <r>   12.8117    0.0000 </r>
      </set>
      <set comment="kpoint 106">
       <r>   -3.7122    1.0000 </r>
       <r>   -0.9312    1.0000 </r>
       <r>    2.7338    1.0000 </r>
       <r>    3.8748    1.0000 </r>
       <r>    8.4116    0.0000 </r>
       <r>    8.8719    0.0000 </r>
       <r>   10.7170    0.0000 </r>
       <r>   12.6045    0.0000 </r>
      </set>
      <set comment="kpoint 107">
       <r>   -3.1595    1.0000 </r>
       <r>   -1.0888    1.0000 </r>
       <r>    1.7585    1.0000 </r>
       <r>    3.3025    1.0000 </r>
       <r>    8.1882    0.0000 </r>
       <r>    9.9185    0.0000 </r>
       <r>   12.1412    0.0000 </r>
       <r>   12.3791    0.0000 </r>
      </set>
      <set comment="kpoint 108">
       <r>   -3.4796    1.0000 </r>
       <r>   -1.0834    1.0000 </r>
       <r>    2.3762    1.0000 </r>
       <r>    3.8142    1.0000 </r>
       <r>    7.6201    0.0000 </r>
       <r>   10.2772    0.0000 </r>
       <r>   10.6615    0.0000 </r>
       <r>   12.2591    0.0000 </r>
      </set>
      <set comment="kpoint 109">
       <r>   -4.0508    1.0000 </r>
       <r>   -1.0610    1.0000 </r>
       <r>    4.4778    1.0000 </r>
       <r>    4.4778    1.0000 </r>
       <r>    7.1443    0.0000 </r>
       <r>    9.0995    0.0000 </r>
       <r>    9.0995    0.0000 </r>
       <r>   13.3981    0.0000 </r>
      </set>
      <set comment="kpoint 110">
       <r>   -3.8218    1.0000 </r>
       <r>   -1.1751    1.0000 </r>
       <r>    3.6029    1.0000 </r>
       <r>    4.2993    1.0000 </r>
       <r>    7.7725    0.0000 </r>
       <r>    9.0738    0.0000 </r>
       <r>    9.4818    0.0000 </r>
       <r>   13.7459    0.0000 </r>
      </set>
     </set>
    </set>
   </array>
  </eigenvalues>
  <separator name="orbital magnetization" >
   <v name="MAGDIPOLOUT">      0.00000000      0.00000000      0.00000000</v>
  </separator>
  <dos>
   <i name="efermi">      5.99157163 </i>
   <total>
    <array>
     <dimension dim="1">gridpoints</dimension>
     <dimension dim="2">spin</dimension>
     <field>energy</field>
     <field>total</field>
     <field>integrated</field>
     <set>
      <set comment="spin 1">
       <r>    -8.1712     0.0000     0.0000 </r>
       <r>    -8.0863     0.0000     0.0000 </r>
       <r>    -8.0014     0.0000     0.0000 </r>
       <r>    -7.9165     0.0000     0.0000 </r>
       <r>    -7.8316     0.0000     0.0000 </r>
       <r>    -7.7467     0.0000     0.0000 </r>
       <r>    -7.6618     0.0000     0.0000 </r>
       <r>    -7.5770     0.0000     0.0000 </r>
       <r>    -7.4921     0.0000     0.0000 </r>
       <r>    -7.4072     0.0000     0.0000 </r>
       <r>    -7.3223     0.0000     0.0000 </r>
       <r>    -7.2374     0.0000     0.0000 </r>
       <r>    -7.1525     0.0000     0.0000 </r>
       <r>    -7.0676     0.0000     0.0000 </r>
       <r>    -6.9827     0.0000     0.0000 </r>
       <r>    -6.8979     0.0000     0.0000 </r>
       <r>    -6.8130     0.0000     0.0000 </r>
       <r>    -6.7281     0.0000     0.0000 </r>
       <r>    -6.6432     0.0000     0.0000 </r>
       <r>    -6.5583     0.0002     0.0000 </r>
       <r>    -6.4734     0.0011     0.0001 </r>
       <r>    -6.3885     0.0044     0.0005 </r>
       <r>    -6.3036     0.0141     0.0017 </r>
       <r>    -6.2188     0.0344     0.0046 </r>
       <r>    -6.1339     0.0666     0.0103 </r>
       <r>    -6.0490     0.1062     0.0193 </r>
       <r>    -5.9641     0.1465     0.0317 </r>
       <r>    -5.8792     0.1820     0.0472 </r>
       <r>    -5.7943     0.2120     0.0652 </r>
       <r>    -5.7094     0.2393     0.0855 </r>
       <r>    -5.6245     0.2652     0.1080 </r>
       <r>    -5.5397     0.2868     0.1323 </r>
       <r>    -5.4548     0.3049     0.1582 </r>
       <r>    -5.3699     0.3256     0.1858 </r>
       <r>    -5.2850     0.3507     0.2156 </r>
       <r>    -5.2001     0.3733     0.2473 </r>
       <r>    -5.1152     0.3876     0.2802 </r>
       <r>    -5.0303     0.3976     0.3139 </r>
       <r>    -4.9454     0.4165     0.3493 </r>
       <r>    -4.8606     0.4493     0.3874 </r>
       <r>    -4.7757     0.4801     0.4282 </r>
       <r>    -4.6908     0.4923     0.4700 </r>
       <r>    -4.6059     0.4947     0.5120 </r>
       <r>    -4.5210     0.5099     0.5553 </r>
       <r>    -4.4361     0.5450     0.6015 </r>
       <r>    -4.3512     0.5867     0.6513 </r>
       <r>    -4.2663     0.6249     0.7044 </r>
       <r>    -4.1814     0.6598     0.7604 </r>
       <r>    -4.0966     0.6898     0.8189 </r>
       <r>    -4.0117     0.7167     0.8798 </r>
       <r>    -3.9268     0.7566     0.9440 </r>
       <r>    -3.8419     0.8166     1.0133 </r>
       <r>    -3.7570     0.8679     1.0870 </r>
       <r>    -3.6721     0.8735     1.1612 </r>
       <r>    -3.5872     0.8398     1.2324 </r>
       <r>    -3.5023     0.7976     1.3001 </r>
       <r>    -3.4175     0.7464     1.3635 </r>
       <r>    -3.3326     0.6817     1.4214 </r>
       <r>    -3.2477     0.6417     1.4758 </r>
       <r>    -3.1628     0.6604     1.5319 </r>
       <r>    -3.0779     0.7045     1.5917 </r>
       <r>    -2.9930     0.7033     1.6514 </r>
       <r>    -2.9081     0.6263     1.7046 </r>
       <r>    -2.8232     0.5087     1.7478 </r>
       <r>    -2.7384     0.4116     1.7827 </r>
       <r>    -2.6535     0.3770     1.8147 </r>
       <r>    -2.5686     0.4060     1.8492 </r>
       <r>    -2.4837     0.4542     1.8877 </r>
       <r>    -2.3988     0.4578     1.9266 </r>
       <r>    -2.3139     0.3850     1.9593 </r>
       <r>    -2.2290     0.2610     1.9814 </r>
       <r>    -2.1441     0.1403     1.9933 </r>
       <r>    -2.0593     0.0640     1.9988 </r>
       <r>    -1.9744     0.0477     2.0028 </r>
       <r>    -1.8895     0.0985     2.0112 </r>
       <r>    -1.8046     0.2157     2.0295 </r>
       <r>    -1.7197     0.3581     2.0599 </r>
       <r>    -1.6348     0.4465     2.0978 </r>
       <r>    -1.5499     0.4413     2.1353 </r>
       <r>    -1.4650     0.3944     2.1687 </r>
       <r>    -1.3802     0.4038     2.2030 </r>
       <r>    -1.2953     0.5411     2.2489 </r>
       <r>    -1.2104     0.8083     2.3176 </r>
       <r>    -1.1255     1.1141     2.4121 </r>
       <r>    -1.0406     1.3071     2.5231 </r>
       <r>    -0.9557     1.2884     2.6325 </r>
       <r>    -0.8708     1.1035     2.7261 </r>
       <r>    -0.7859     0.8970     2.8023 </r>
       <r>    -0.7010     0.7637     2.8671 </r>
       <r>    -0.6162     0.6815     2.9249 </r>
       <r>    -0.5313     0.6088     2.9766 </r>
       <r>    -0.4464     0.5715     3.0251 </r>
       <r>    -0.3615     0.5976     3.0759 </r>
       <r>    -0.2766     0.6305     3.1294 </r>
       <r>    -0.1917     0.5886     3.1793 </r>
       <r>    -0.1068     0.4861     3.2206 </r>
       <r>    -0.0219     0.4148     3.2558 </r>
       <r>     0.0629     0.4168     3.2912 </r>
       <r>     0.1478     0.4365     3.3283 </r>
       <r>     0.2327     0.4067     3.3628 </r>
       <r>     0.3176     0.3363     3.3913 </r>
       <r>     0.4025     0.2910     3.4160 </r>
       <r>     0.4874     0.3132     3.4426 </r>
       <r>     0.5723     0.3766     3.4746 </r>
       <r>     0.6572     0.4047     3.5089 </r>
       <r>     0.7420     0.3506     3.5387 </r>
       <r>     0.8269     0.2550     3.5604 </r>
       <r>     0.9118     0.1982     3.5772 </r>
       <r>     0.9967     0.2123     3.5952 </r>
       <r>     1.0816     0.2655     3.6177 </r>
       <r>     1.1665     0.3137     3.6444 </r>
       <r>     1.2514     0.3533     3.6744 </r>
       <r>     1.3363     0.4214     3.7101 </r>
       <r>     1.4211     0.5508     3.7569 </r>
       <r>     1.5060     0.7410     3.8198 </r>
       <r>     1.5909     0.9596     3.9012 </r>
       <r>     1.6758     1.1375     3.9978 </r>
       <r>     1.7607     1.1939     4.0991 </r>
       <r>     1.8456     1.1197     4.1942 </r>
       <r>     1.9305     1.0088     4.2798 </r>
       <r>     2.0154     0.9718     4.3623 </r>
       <r>     2.1003     1.0314     4.4499 </r>
       <r>     2.1851     1.1127     4.5443 </r>
       <r>     2.2700     1.1372     4.6409 </r>
       <r>     2.3549     1.1119     4.7352 </r>
       <r>     2.4398     1.0962     4.8283 </r>
       <r>     2.5247     1.1136     4.9228 </r>
       <r>     2.6096     1.1565     5.0210 </r>
       <r>     2.6945     1.2395     5.1262 </r>
       <r>     2.7794     1.3701     5.2425 </r>
       <r>     2.8642     1.4862     5.3687 </r>
       <r>     2.9491     1.5078     5.4967 </r>
       <r>     3.0340     1.4493     5.6197 </r>
       <r>     3.1189     1.4125     5.7396 </r>
       <r>     3.2038     1.4511     5.8628 </r>
       <r>     3.2887     1.4963     5.9898 </r>
       <r>     3.3736     1.4648     6.1142 </r>
       <r>     3.4585     1.3833     6.2316 </r>
       <r>     3.5433     1.3365     6.3450 </r>
       <r>     3.6282     1.3473     6.4594 </r>
       <r>     3.7131     1.3619     6.5750 </r>
       <r>     3.7980     1.3246     6.6874 </r>
       <r>     3.8829     1.2439     6.7930 </r>
       <r>     3.9678     1.1857     6.8937 </r>
       <r>     4.0527     1.2038     6.9959 </r>
       <r>     4.1376     1.2679     7.1035 </r>
       <r>     4.2224     1.2770     7.2119 </r>
       <r>     4.3073     1.1788     7.3120 </r>
       <r>     4.3922     1.0397     7.4002 </r>
       <r>     4.4771     0.9497     7.4809 </r>
       <r>     4.5620     0.9074     7.5579 </r>
       <r>     4.6469     0.8439     7.6295 </r>
       <r>     4.7318     0.7303     7.6915 </r>
       <r>     4.8167     0.6098     7.7433 </r>
       <r>     4.9015     0.5259     7.7879 </r>
       <r>     4.9864     0.4696     7.8278 </r>
       <r>     5.0713     0.4134     7.8629 </r>
       <r>     5.1562     0.3557     7.8931 </r>
       <r>     5.2411     0.3110     7.9195 </r>
       <r>     5.3260     0.2752     7.9428 </r>
       <r>     5.4109     0.2310     7.9624 </r>
       <r>     5.4958     0.1762     7.9774 </r>
       <r>     5.5807     0.1224     7.9878 </r>
       <r>     5.6655     0.0769     7.9943 </r>
       <r>     5.7504     0.0415     7.9978 </r>
       <r>     5.8353     0.0179     7.9993 </r>
       <r>     5.9202     0.0060     7.9999 </r>
       <r>     6.0051     0.0019     8.0000 </r>
       <r>     6.0900     0.0030     8.0003 </r>
       <r>     6.1749     0.0114     8.0012 </r>
       <r>     6.2598     0.0337     8.0041 </r>
       <r>     6.3446     0.0738     8.0104 </r>
       <r>     6.4295     0.1256     8.0210 </r>
       <r>     6.5144     0.1815     8.0364 </r>
       <r>     6.5993     0.2463     8.0573 </r>
       <r>     6.6842     0.3250     8.0849 </r>
       <r>     6.7691     0.4034     8.1192 </r>
       <r>     6.8540     0.4621     8.1584 </r>
       <r>     6.9389     0.4990     8.2008 </r>
       <r>     7.0237     0.5227     8.2451 </r>
       <r>     7.1086     0.5481     8.2917 </r>
       <r>     7.1935     0.6058     8.3431 </r>
       <r>     7.2784     0.7204     8.4042 </r>
       <r>     7.3633     0.8675     8.4779 </r>
       <r>     7.4482     0.9787     8.5610 </r>
       <r>     7.5331     1.0173     8.6473 </r>
       <r>     7.6180     1.0372     8.7354 </r>
       <r>     7.7028     1.1255     8.8309 </r>
       <r>     7.7877     1.2884     8.9403 </r>
       <r>     7.8726     1.4427     9.0628 </r>
       <r>     7.9575     1.5180     9.1916 </r>
       <r>     8.0424     1.5214     9.3208 </r>
       <r>     8.1273     1.4992     9.4480 </r>
       <r>     8.2122     1.4744     9.5732 </r>
       <r>     8.2971     1.4293     9.6945 </r>
       <r>     8.3819     1.3388     9.8082 </r>
       <r>     8.4668     1.2184     9.9116 </r>
       <r>     8.5517     1.1209    10.0067 </r>
       <r>     8.6366     1.0825    10.0986 </r>
       <r>     8.7215     1.1063    10.1925 </r>
       <r>     8.8064     1.2045    10.2948 </r>
       <r>     8.8913     1.3970    10.4134 </r>
       <r>     8.9762     1.6518    10.5536 </r>
       <r>     9.0611     1.8762    10.7129 </r>
       <r>     9.1459     1.9844    10.8813 </r>
       <r>     9.2308     1.9565    11.0474 </r>
       <r>     9.3157     1.8334    11.2030 </r>
       <r>     9.4006     1.6817    11.3458 </r>
       <r>     9.4855     1.5591    11.4781 </r>
       <r>     9.5704     1.4769    11.6035 </r>
       <r>     9.6553     1.4020    11.7225 </r>
       <r>     9.7402     1.3199    11.8346 </r>
       <r>     9.8250     1.2695    11.9423 </r>
       <r>     9.9099     1.2787    12.0509 </r>
       <r>     9.9948     1.3084    12.1619 </r>
       <r>    10.0797     1.3090    12.2731 </r>
       <r>    10.1646     1.2855    12.3822 </r>
       <r>    10.2495     1.2639    12.4895 </r>
       <r>    10.3344     1.2415    12.5949 </r>
       <r>    10.4193     1.2119    12.6977 </r>
       <r>    10.5041     1.2060    12.8001 </r>
       <r>    10.5890     1.2542    12.9066 </r>
       <r>    10.6739     1.3254    13.0191 </r>
       <r>    10.7588     1.3554    13.1341 </r>
       <r>    10.8437     1.3220    13.2464 </r>
       <r>    10.9286     1.2500    13.3525 </r>
       <r>    11.0135     1.1625    13.4512 </r>
       <r>    11.0984     1.0707    13.5420 </r>
       <r>    11.1832     0.9998    13.6269 </r>
       <r>    11.2681     0.9917    13.7111 </r>
       <r>    11.3530     1.0643    13.8014 </r>
       <r>    11.4379     1.1702    13.9008 </r>
       <r>    11.5228     1.2366    14.0057 </r>
       <r>    11.6077     1.2388    14.1109 </r>
       <r>    11.6926     1.1911    14.2120 </r>
       <r>    11.7775     1.0939    14.3049 </r>
       <r>    11.8623     0.9418    14.3848 </r>
       <r>    11.9472     0.7741    14.4505 </r>
       <r>    12.0321     0.6777    14.5081 </r>
       <r>    12.1170     0.7138    14.5686 </r>
       <r>    12.2019     0.8538    14.6411 </r>
       <r>    12.2868     1.0080    14.7267 </r>
       <r>    12.3717     1.1039    14.8204 </r>
       <r>    12.4566     1.1232    14.9157 </r>
       <r>    12.5415     1.0770    15.0072 </r>
       <r>    12.6263     0.9685    15.0894 </r>
       <r>    12.7112     0.8090    15.1580 </r>
       <r>    12.7961     0.6488    15.2131 </r>
       <r>    12.8810     0.5379    15.2588 </r>
       <r>    12.9659     0.4746    15.2991 </r>
       <r>    13.0508     0.4322    15.3358 </r>
       <r>    13.1357     0.4106    15.3706 </r>
       <r>    13.2206     0.4466    15.4085 </r>
       <r>    13.3054     0.5767    15.4575 </r>
       <r>    13.3903     0.7689    15.5227 </r>
       <r>    13.4752     0.8980    15.5990 </r>
       <r>    13.5601     0.8429    15.6705 </r>
       <r>    13.6450     0.6253    15.7236 </r>
       <r>    13.7299     0.3920    15.7569 </r>
       <r>    13.8148     0.2561    15.7786 </r>
       <r>    13.8997     0.2117    15.7966 </r>
       <r>    13.9845     0.1933    15.8130 </r>
       <r>    14.0694     0.1683    15.8273 </r>
       <r>    14.1543     0.1590    15.8408 </r>
       <r>    14.2392     0.1942    15.8573 </r>
       <r>    14.3241     0.2591    15.8793 </r>
       <r>    14.4090     0.2970    15.9045 </r>
       <r>    14.4939     0.2635    15.9268 </r>
       <r>    14.5788     0.1744    15.9416 </r>
       <r>    14.6636     0.0863    15.9490 </r>
       <r>    14.7485     0.0382    15.9522 </r>
       <r>    14.8334     0.0319    15.9549 </r>
       <r>    14.9183     0.0500    15.9592 </r>
       <r>    15.0032     0.0713    15.9652 </r>
       <r>    15.0881     0.0818    15.9722 </r>
       <r>    15.1730     0.0831    15.9792 </r>
       <r>    15.2579     0.0814    15.9861 </r>
       <r>    15.3427     0.0720    15.9922 </r>
       <r>    15.4276     0.0510    15.9966 </r>
       <r>    15.5125     0.0269    15.9988 </r>
       <r>    15.5974     0.0102    15.9997 </r>
       <r>    15.6823     0.0028    15.9999 </r>
       <r>    15.7672     0.0005    16.0000 </r>
       <r>    15.8521     0.0001    16.0000 </r>
       <r>    15.9370     0.0000    16.0000 </r>
       <r>    16.0219     0.0000    16.0000 </r>
       <r>    16.1067     0.0000    16.0000 </r>
       <r>    16.1916     0.0000    16.0000 </r>
       <r>    16.2765     0.0000    16.0000 </r>
       <r>    16.3614     0.0000    16.0000 </r>
       <r>    16.4463     0.0000    16.0000 </r>
       <r>    16.5312     0.0000    16.0000 </r>
       <r>    16.6161     0.0000    16.0000 </r>
       <r>    16.7010     0.0000    16.0000 </r>
       <r>    16.7858     0.0000    16.0000 </r>
       <r>    16.8707     0.0000    16.0000 </r>
       <r>    16.9556     0.0000    16.0000 </r>
       <r>    17.0405     0.0000    16.0000 </r>
       <r>    17.1254     0.0000    16.0000 </r>
       <r>    17.2103     0.0000    16.0000 </r>
       <r>    17.2952     0.0000    16.0000 </r>
      </set>
     </set>
    </array>
   </total>
  </dos>
 </calculation>
 <structure name="finalpos" >
  <crystal>
   <varray name="basis" >
    <v>       0.00000000       2.73424848       2.73424848 </v>
    <v>       2.73424848       0.00000000       2.73424848 </v>
    <v>       2.73424848       2.73424848      -0.00000000 </v>
   </varray>
   <i name="volume">     40.88311066 </i>
   <varray name="rec_basis" >
    <v>      -0.18286560       0.18286560       0.18286560 </v>
    <v>       0.18286560      -0.18286560       0.18286560 </v>
    <v>       0.18286560       0.18286560      -0.18286560 </v>
   </varray>
  </crystal>
  <varray name="positions" >
   <v>       0.50000000       0.50000000       0.50000000 </v>
   <v>       0.75000000       0.75000000       0.75000000 </v>
  </varray>
 </structure>
</modeling>
