   2   2   0   0
  0.1529437E+02  0.3691622E-09  0.3691622E-09  0.3691622E-09  0.5000000E-15
  1.000000000000000E-004
  CAR 
 unknown system                          
     23.01409468     -6.61464543  301      9.14346391      1.00000000
     -6.615  0.0000E+00  0.0000E+00
     -6.516  0.0000E+00  0.0000E+00
     -6.417  0.0000E+00  0.0000E+00
     -6.318  0.0000E+00  0.0000E+00
     -6.220  0.0000E+00  0.0000E+00
     -6.121  0.0000E+00  0.0000E+00
     -6.022  0.0000E+00  0.0000E+00
     -5.923  0.0000E+00  0.0000E+00
     -5.825  0.0000E+00  0.0000E+00
     -5.726  0.3598E-17  0.3554E-18
     -5.627  0.7521E-15  0.7463E-16
     -5.528  0.9629E-13  0.9584E-14
     -5.429  0.7644E-11  0.7646E-12
     -5.331  0.3772E-09  0.3802E-10
     -5.232  0.1162E-07  0.1185E-08
     -5.133  0.2248E-06  0.2338E-07
     -5.034  0.2763E-05  0.2963E-06
     -4.936  0.2200E-04  0.2469E-05
     -4.837  0.1171E-03  0.1404E-04
     -4.738  0.4362E-03  0.5712E-04
     -4.639  0.1201E-02  0.1757E-03
     -4.541  0.2591E-02  0.4316E-03
     -4.442  0.4574E-02  0.8834E-03
     -4.343  0.6671E-02  0.1542E-02
     -4.244  0.8094E-02  0.2342E-02
     -4.146  0.9193E-02  0.3249E-02
     -4.047  0.1150E-01  0.4385E-02
     -3.948  0.1413E-01  0.5781E-02
     -3.849  0.1401E-01  0.7165E-02
     -3.751  0.1132E-01  0.8283E-02
     -3.652  0.9369E-02  0.9208E-02
     -3.553  0.1057E-01  0.1025E-01
     -3.454  0.1513E-01  0.1175E-01
     -3.355  0.2042E-01  0.1376E-01
     -3.257  0.2308E-01  0.1604E-01
     -3.158  0.2279E-01  0.1829E-01
     -3.059  0.2064E-01  0.2033E-01
     -2.960  0.1785E-01  0.2209E-01
     -2.862  0.1659E-01  0.2373E-01
     -2.763  0.1712E-01  0.2542E-01
     -2.664  0.1771E-01  0.2717E-01
     -2.565  0.1830E-01  0.2898E-01
     -2.467  0.1947E-01  0.3090E-01
     -2.368  0.2141E-01  0.3302E-01
     -2.269  0.2513E-01  0.3550E-01
     -2.170  0.2931E-01  0.3839E-01
     -2.072  0.2965E-01  0.4132E-01
     -1.973  0.2522E-01  0.4381E-01
     -1.874  0.2150E-01  0.4593E-01
     -1.775  0.2350E-01  0.4826E-01
     -1.677  0.2795E-01  0.5102E-01
     -1.578  0.2811E-01  0.5379E-01
     -1.479  0.2396E-01  0.5616E-01
     -1.380  0.2141E-01  0.5827E-01
     -1.281  0.2391E-01  0.6063E-01
     -1.183  0.3036E-01  0.6363E-01
     -1.084  0.3747E-01  0.6733E-01
     -0.985  0.4089E-01  0.7137E-01
     -0.886  0.3776E-01  0.7510E-01
     -0.788  0.3017E-01  0.7808E-01
     -0.689  0.2417E-01  0.8047E-01
     -0.590  0.2322E-01  0.8276E-01
     -0.491  0.2482E-01  0.8521E-01
     -0.393  0.2534E-01  0.8771E-01
     -0.294  0.2413E-01  0.9010E-01
     -0.195  0.2408E-01  0.9247E-01
     -0.096  0.2920E-01  0.9536E-01
      0.002  0.3881E-01  0.9919E-01
      0.101  0.4714E-01  0.1038E+00
      0.200  0.4960E-01  0.1087E+00
      0.299  0.4668E-01  0.1134E+00
      0.397  0.4202E-01  0.1175E+00
      0.496  0.3871E-01  0.1213E+00
      0.595  0.3753E-01  0.1250E+00
      0.694  0.3805E-01  0.1288E+00
      0.793  0.3910E-01  0.1327E+00
      0.891  0.3957E-01  0.1366E+00
      0.990  0.4040E-01  0.1406E+00
      1.089  0.4117E-01  0.1446E+00
      1.188  0.3798E-01  0.1484E+00
      1.286  0.2983E-01  0.1513E+00
      1.385  0.2226E-01  0.1535E+00
      1.484  0.2232E-01  0.1557E+00
      1.583  0.2988E-01  0.1587E+00
      1.681  0.3695E-01  0.1623E+00
      1.780  0.3811E-01  0.1661E+00
      1.879  0.3642E-01  0.1697E+00
      1.978  0.3776E-01  0.1734E+00
      2.076  0.4389E-01  0.1777E+00
      2.175  0.5093E-01  0.1828E+00
      2.274  0.5449E-01  0.1882E+00
      2.373  0.5380E-01  0.1935E+00
      2.472  0.4712E-01  0.1981E+00
      2.570  0.3352E-01  0.2014E+00
      2.669  0.2063E-01  0.2035E+00
      2.768  0.1727E-01  0.2052E+00
      2.867  0.2172E-01  0.2073E+00
      2.965  0.2613E-01  0.2099E+00
      3.064  0.2901E-01  0.2128E+00
      3.163  0.3627E-01  0.2163E+00
      3.262  0.5070E-01  0.2214E+00
      3.360  0.6388E-01  0.2277E+00
      3.459  0.6305E-01  0.2339E+00
      3.558  0.4902E-01  0.2387E+00
      3.657  0.3537E-01  0.2422E+00
      3.755  0.3300E-01  0.2455E+00
      3.854  0.4343E-01  0.2498E+00
      3.953  0.5748E-01  0.2555E+00
      4.052  0.6214E-01  0.2616E+00
      4.150  0.5392E-01  0.2669E+00
      4.249  0.4076E-01  0.2709E+00
      4.348  0.3172E-01  0.2741E+00
      4.447  0.2808E-01  0.2768E+00
      4.546  0.2680E-01  0.2795E+00
      4.644  0.2811E-01  0.2823E+00
      4.743  0.3413E-01  0.2856E+00
      4.842  0.4553E-01  0.2901E+00
      4.941  0.5840E-01  0.2959E+00
      5.039  0.6405E-01  0.3022E+00
      5.138  0.6053E-01  0.3082E+00
      5.237  0.5699E-01  0.3138E+00
      5.336  0.5925E-01  0.3197E+00
      5.434  0.6214E-01  0.3258E+00
      5.533  0.6114E-01  0.3319E+00
      5.632  0.5821E-01  0.3376E+00
      5.731  0.5236E-01  0.3428E+00
      5.829  0.4199E-01  0.3469E+00
      5.928  0.3362E-01  0.3503E+00
      6.027  0.3315E-01  0.3535E+00
      6.126  0.4026E-01  0.3575E+00
      6.224  0.5568E-01  0.3630E+00
      6.323  0.7536E-01  0.3704E+00
      6.422  0.8482E-01  0.3788E+00
      6.521  0.7606E-01  0.3863E+00
      6.620  0.5953E-01  0.3922E+00
      6.718  0.5204E-01  0.3974E+00
      6.817  0.5824E-01  0.4031E+00
      6.916  0.6831E-01  0.4098E+00
      7.015  0.7184E-01  0.4169E+00
      7.113  0.6791E-01  0.4237E+00
      7.212  0.6137E-01  0.4297E+00
      7.311  0.5468E-01  0.4351E+00
      7.410  0.5034E-01  0.4401E+00
      7.508  0.5247E-01  0.4453E+00
      7.607  0.5815E-01  0.4510E+00
      7.706  0.5953E-01  0.4569E+00
      7.805  0.5566E-01  0.4624E+00
      7.903  0.5164E-01  0.4675E+00
      8.002  0.5213E-01  0.4726E+00
      8.101  0.6095E-01  0.4787E+00
      8.200  0.7328E-01  0.4859E+00
      8.298  0.7342E-01  0.4931E+00
      8.397  0.5752E-01  0.4988E+00
      8.496  0.4188E-01  0.5030E+00
      8.595  0.3921E-01  0.5068E+00
      8.694  0.4572E-01  0.5113E+00
      8.792  0.5221E-01  0.5165E+00
      8.891  0.5395E-01  0.5218E+00
      8.990  0.5070E-01  0.5268E+00
      9.089  0.4422E-01  0.5312E+00
      9.187  0.3753E-01  0.5349E+00
      9.286  0.3425E-01  0.5383E+00
      9.385  0.3500E-01  0.5418E+00
      9.484  0.3814E-01  0.5455E+00
      9.582  0.4466E-01  0.5499E+00
      9.681  0.5517E-01  0.5554E+00
      9.780  0.6445E-01  0.5617E+00
      9.879  0.6714E-01  0.5684E+00
      9.977  0.6751E-01  0.5750E+00
     10.076  0.7050E-01  0.5820E+00
     10.175  0.6854E-01  0.5888E+00
     10.274  0.5403E-01  0.5941E+00
     10.372  0.3488E-01  0.5976E+00
     10.471  0.2515E-01  0.6000E+00
     10.570  0.2952E-01  0.6030E+00
     10.669  0.4150E-01  0.6071E+00
     10.768  0.5003E-01  0.6120E+00
     10.866  0.4964E-01  0.6169E+00
     10.965  0.4498E-01  0.6213E+00
     11.064  0.4271E-01  0.6256E+00
     11.163  0.4464E-01  0.6300E+00
     11.261  0.4882E-01  0.6348E+00
     11.360  0.5250E-01  0.6400E+00
     11.459  0.5438E-01  0.6453E+00
     11.558  0.5564E-01  0.6508E+00
     11.656  0.5747E-01  0.6565E+00
     11.755  0.5802E-01  0.6622E+00
     11.854  0.5640E-01  0.6678E+00
     11.953  0.5573E-01  0.6733E+00
     12.051  0.5792E-01  0.6790E+00
     12.150  0.6149E-01  0.6851E+00
     12.249  0.6619E-01  0.6916E+00
     12.348  0.7492E-01  0.6990E+00
     12.447  0.8681E-01  0.7076E+00
     12.545  0.9284E-01  0.7168E+00
     12.644  0.8723E-01  0.7254E+00
     12.743  0.7595E-01  0.7329E+00
     12.842  0.6838E-01  0.7397E+00
     12.940  0.6926E-01  0.7465E+00
     13.039  0.7638E-01  0.7540E+00
     13.138  0.7974E-01  0.7619E+00
     13.237  0.7219E-01  0.7690E+00
     13.335  0.6258E-01  0.7752E+00
     13.434  0.6335E-01  0.7815E+00
     13.533  0.7090E-01  0.7885E+00
     13.632  0.7335E-01  0.7957E+00
     13.730  0.6734E-01  0.8024E+00
     13.829  0.5891E-01  0.8082E+00
     13.928  0.5352E-01  0.8135E+00
     14.027  0.5157E-01  0.8186E+00
     14.125  0.5295E-01  0.8238E+00
     14.224  0.5859E-01  0.8296E+00
     14.323  0.6671E-01  0.8362E+00
     14.422  0.7325E-01  0.8434E+00
     14.521  0.7628E-01  0.8510E+00
     14.619  0.7570E-01  0.8584E+00
     14.718  0.7191E-01  0.8655E+00
     14.817  0.6751E-01  0.8722E+00
     14.916  0.6524E-01  0.8786E+00
     15.014  0.6569E-01  0.8851E+00
     15.113  0.6945E-01  0.8920E+00
     15.212  0.7553E-01  0.8994E+00
     15.311  0.7502E-01  0.9069E+00
     15.409  0.6155E-01  0.9129E+00
     15.508  0.4474E-01  0.9174E+00
     15.607  0.3768E-01  0.9211E+00
     15.706  0.4297E-01  0.9253E+00
     15.804  0.5618E-01  0.9309E+00
     15.903  0.7124E-01  0.9379E+00
     16.002  0.8115E-01  0.9459E+00
     16.101  0.7956E-01  0.9538E+00
     16.199  0.6471E-01  0.9602E+00
     16.298  0.4422E-01  0.9645E+00
     16.397  0.3008E-01  0.9675E+00
     16.496  0.2725E-01  0.9702E+00
     16.595  0.3240E-01  0.9734E+00
     16.693  0.3842E-01  0.9772E+00
     16.792  0.3875E-01  0.9810E+00
     16.891  0.3275E-01  0.9843E+00
     16.990  0.2753E-01  0.9870E+00
     17.088  0.3161E-01  0.9901E+00
     17.187  0.4481E-01  0.9945E+00
     17.286  0.5663E-01  0.1000E+01
     17.385  0.5608E-01  0.1006E+01
     17.483  0.4374E-01  0.1010E+01
     17.582  0.3032E-01  0.1013E+01
     17.681  0.2233E-01  0.1015E+01
     17.780  0.1811E-01  0.1017E+01
     17.878  0.1627E-01  0.1019E+01
     17.977  0.1781E-01  0.1020E+01
     18.076  0.2186E-01  0.1022E+01
     18.175  0.2582E-01  0.1025E+01
     18.273  0.2945E-01  0.1028E+01
     18.372  0.3325E-01  0.1031E+01
     18.471  0.3535E-01  0.1035E+01
     18.570  0.3591E-01  0.1038E+01
     18.669  0.3703E-01  0.1042E+01
     18.767  0.3643E-01  0.1046E+01
     18.866  0.3022E-01  0.1049E+01
     18.965  0.2031E-01  0.1051E+01
     19.064  0.1305E-01  0.1052E+01
     19.162  0.1223E-01  0.1053E+01
     19.261  0.1542E-01  0.1055E+01
     19.360  0.1673E-01  0.1056E+01
     19.459  0.1371E-01  0.1058E+01
     19.557  0.9453E-02  0.1058E+01
     19.656  0.7064E-02  0.1059E+01
     19.755  0.6801E-02  0.1060E+01
     19.854  0.8429E-02  0.1061E+01
     19.952  0.1107E-01  0.1062E+01
     20.051  0.1225E-01  0.1063E+01
     20.150  0.1045E-01  0.1064E+01
     20.249  0.6846E-02  0.1065E+01
     20.348  0.3476E-02  0.1065E+01
     20.446  0.1357E-02  0.1065E+01
     20.545  0.5046E-03  0.1065E+01
     20.644  0.6173E-03  0.1065E+01
     20.743  0.1458E-02  0.1065E+01
     20.841  0.2600E-02  0.1066E+01
     20.940  0.3319E-02  0.1066E+01
     21.039  0.3130E-02  0.1066E+01
     21.138  0.2159E-02  0.1067E+01
     21.236  0.1041E-02  0.1067E+01
     21.335  0.3340E-03  0.1067E+01
     21.434  0.6916E-04  0.1067E+01
     21.533  0.9075E-05  0.1067E+01
     21.631  0.7476E-06  0.1067E+01
     21.730  0.3848E-07  0.1067E+01
     21.829  0.1234E-08  0.1067E+01
     21.928  0.2458E-10  0.1067E+01
     22.026  0.3039E-12  0.1067E+01
     22.125  0.2329E-14  0.1067E+01
     22.224  0.1110E-16  0.1067E+01
     22.323  0.0000E+00  0.1067E+01
     22.422  0.0000E+00  0.1067E+01
     22.520  0.0000E+00  0.1067E+01
     22.619  0.0000E+00  0.1067E+01
     22.718  0.0000E+00  0.1067E+01
     22.817  0.0000E+00  0.1067E+01
     22.915  0.0000E+00  0.1067E+01
     23.014  0.0000E+00  0.1067E+01
