unknown system                          
   1.00000000000000     
    -2.450000    2.450000    1.274000
     2.450000   -2.450000    1.274000
     2.450000    2.450000   -1.274000
   Si
     2
Direct
  0.250000  0.750000  0.500000
  0.000000  0.000000  0.000000
 
   24   24   24
 -.55580795437E+01 -.35376138685E+01 0.14924274971E+01 0.70903827891E+01 0.10886565156E+02
 0.11860465218E+02 0.10611624809E+02 0.85858014081E+01 0.67101534533E+01 0.52588511092E+01
 0.42889512249E+01 0.37510302746E+01 0.35807029654E+01 0.37510907572E+01 0.42889445519E+01
 0.52588000164E+01 0.67101840445E+01 0.85858542030E+01 0.10611556502E+02 0.11860376933E+02
 0.10886652853E+02 0.70905313702E+01 0.14923677852E+01 -.35378046100E+01 -.35378046100E+01
 -.45751538253E+01 -.17862325860E+01 0.33944584976E+01 0.84779036485E+01 0.11412124290E+02
 0.11628938822E+02 0.10027411079E+02 0.80089578417E+01 0.62441246906E+01 0.49315400978E+01
 0.40898274787E+01 0.36588256082E+01 0.35807081964E+01 0.38418188072E+01 0.44805052835E+01
 0.55633778413E+01 0.71240040563E+01 0.90665299060E+01 0.11039064577E+02 0.11943386730E+02
 0.10443682795E+02 0.62757775223E+01 0.79809144078E+00 0.14923677852E+01 -.17863992675E+01
 -.18624598462E+01 0.12916557711E+01 0.60194886602E+01 0.10036346855E+02 0.11788140617E+02
 0.11187307264E+02 0.93302608308E+01 0.73805641284E+01 0.57624217905E+01 0.46061664206E+01
 0.38973712143E+01 0.35714424656E+01 0.35806582639E+01 0.39245300892E+01 0.46497294999E+01
 0.58200384886E+01 0.74502450299E+01 0.94117667145E+01 0.11294841405E+02 0.11957860738E+02
 0.10271969298E+02 0.62757775223E+01 0.70905313702E+01 0.33944126134E+01 0.12915325554E+01
 0.19438221811E+01 0.49769065739E+01 0.87319514383E+01 0.11339081655E+02 0.11828964645E+02
 0.10532469926E+02 0.85775923944E+01 0.67463439286E+01 0.52992909754E+01 0.43045972994E+01
 0.37239091554E+01 0.34944745492E+01 0.35805846749E+01 0.39930410687E+01 0.47825646138E+01
 0.60058930635E+01 0.76592578571E+01 0.95922611629E+01 0.11379415726E+02 0.11957860738E+02
 0.10443682795E+02 0.10886652853E+02 0.84780153884E+01 0.60194628762E+01 0.49768390856E+01
 0.59995950047E+01 0.84729475049E+01 0.10940651788E+02 0.12073361894E+02 0.11467262845E+02
 0.97378260276E+01 0.78220747302E+01 0.61493104463E+01 0.48839556189E+01 0.40445712606E+01
 0.35794300345E+01 0.34326149252E+01 0.35804985993E+01 0.40419873432E+01 0.48673943482E+01
 0.61035489566E+01 0.77312631326E+01 0.95922611629E+01 0.11294841405E+02 0.11943386730E+02
 0.11860376933E+02 0.11412174328E+02 0.10036412352E+02 0.87319484691E+01 0.84729380002E+01
 0.94996833019E+01 0.11134859602E+02 0.12268993843E+02 0.12133999880E+02 0.10780438774E+02
 0.89171002075E+01 0.71168176738E+01 0.56269493025E+01 0.45395082369E+01 0.38393857058E+01
 0.34713294535E+01 0.33893791715E+01 0.35804190289E+01 0.40674994908E+01 0.48965764048E+01
 0.61035489566E+01 0.76592578571E+01 0.94117667145E+01 0.11039064577E+02 0.10611556502E+02
 0.11628879555E+02 0.11788149490E+02 0.11339098021E+02 0.10940668867E+02 0.11134900858E+02
 0.11896978035E+02 0.12635352435E+02 0.12644214258E+02 0.11640423359E+02 0.99598919983E+01
 0.81489092709E+01 0.65114959583E+01 0.52095464366E+01 0.42826923237E+01 0.36980681141E+01
 0.34045792590E+01 0.33671753837E+01 0.35803999952E+01 0.40674994908E+01 0.48673943482E+01
 0.60058930635E+01 0.74502450299E+01 0.90665299060E+01 0.85858542030E+01 0.10027394816E+02
 0.11187279140E+02 0.11828934982E+02 0.12073333734E+02 0.12269025316E+02 0.12635430401E+02
 0.13024097052E+02 0.13016748622E+02 0.12280723458E+02 0.10875952414E+02 0.91816985171E+01
 0.75022540128E+01 0.60479718022E+01 0.49193431620E+01 0.41245182438E+01 0.36261403566E+01
 0.33820359749E+01 0.33671753837E+01 0.35804190289E+01 0.40419873432E+01 0.47825646138E+01
 0.58200384886E+01 0.71240040563E+01 0.67101840445E+01 0.80089995149E+01 0.93302903391E+01
 0.10532471519E+02 0.11467206345E+02 0.12133938646E+02 0.12644251693E+02 0.13016845404E+02
 0.13085183063E+02 0.12622163542E+02 0.11573260898E+02 0.10133743328E+02 0.85459174992E+01
 0.70360089264E+01 0.57572995848E+01 0.47707559749E+01 0.40711520033E+01 0.36261403566E+01
 0.34045792590E+01 0.33893791715E+01 0.35804985993E+01 0.39930410687E+01 0.46497294999E+01
 0.55633778413E+01 0.52588000164E+01 0.62441061278E+01 0.73805895645E+01 0.85776561829E+01
 0.97378552007E+01 0.10780370578E+02 0.11640341554E+02 0.12280757903E+02 0.12622262977E+02
 0.12534434800E+02 0.11941234774E+02 0.10899148579E+02 0.95608847715E+01 0.81308855467E+01
 0.67921385822E+01 0.56583303650E+01 0.47707559749E+01 0.41245182438E+01 0.36980681141E+01
 0.34713294535E+01 0.34326149252E+01 0.35805846749E+01 0.39245300892E+01 0.44805052835E+01
 0.42889445519E+01 0.49314893639E+01 0.57623661321E+01 0.67463501965E+01 0.78221557084E+01
 0.89171508565E+01 0.99598266292E+01 0.10875862968E+02 0.11573286684E+02 0.11941326045E+02
 0.11881409803E+02 0.11358076862E+02 0.10432558524E+02 0.92500500044E+01 0.79868388637E+01
 0.67921385822E+01 0.57572995848E+01 0.49193431620E+01 0.42826923237E+01 0.38393857058E+01
 0.35794300345E+01 0.34944745492E+01 0.35806582639E+01 0.38418188072E+01 0.37510907572E+01
 0.40898597935E+01 0.46061296368E+01 0.52992131363E+01 0.61492919846E+01 0.71168977293E+01
 0.81489767863E+01 0.91816484831E+01 0.10133655543E+02 0.10899162989E+02 0.11358156267E+02
 0.11412286348E+02 0.11029485713E+02 0.10266354365E+02 0.92500500044E+01 0.81308855467E+01
 0.70360089264E+01 0.60479718022E+01 0.52095464366E+01 0.45395082369E+01 0.40445712606E+01
 0.37239091554E+01 0.35714424656E+01 0.35807081964E+01 0.35807029654E+01 0.36588852855E+01
 0.38974338589E+01 0.43045843266E+01 0.48838693729E+01 0.56269050071E+01 0.65115642697E+01
 0.75023340560E+01 0.85458863015E+01 0.95608016296E+01 0.10432563719E+02 0.11029557231E+02
 0.11242744942E+02 0.11029485713E+02 0.10432558524E+02 0.95608847715E+01 0.85459174992E+01
 0.75022540128E+01 0.65114959583E+01 0.56269493025E+01 0.48839556189E+01 0.43045972994E+01
 0.38973712143E+01 0.36588256082E+01 0.37510302746E+01 0.35806773368E+01 0.35714831816E+01
 0.37239915812E+01 0.40445915106E+01 0.45394273081E+01 0.52094784261E+01 0.60480221466E+01
 0.70360958130E+01 0.81308696632E+01 0.92499712367E+01 0.10266356394E+02 0.11029557231E+02
 0.11412286348E+02 0.11358076862E+02 0.10899148579E+02 0.10133743328E+02 0.91816985171E+01
 0.81489092709E+01 0.71168176738E+01 0.61493104463E+01 0.52992909754E+01 0.46061664206E+01
 0.40898274787E+01 0.42889512249E+01 0.38417715595E+01 0.35805965355E+01 0.34944855915E+01
 0.35795268066E+01 0.38394422602E+01 0.42826210527E+01 0.49192549405E+01 0.57573348983E+01
 0.67922296865E+01 0.79868295069E+01 0.92499712367E+01 0.10432563719E+02 0.11358156267E+02
 0.11881409803E+02 0.11941234774E+02 0.11573260898E+02 0.10875952414E+02 0.99598919983E+01
 0.89171002075E+01 0.78220747302E+01 0.67463439286E+01 0.57624217905E+01 0.49315400978E+01
 0.52588511092E+01 0.44805553924E+01 0.39245089335E+01 0.35804978362E+01 0.34325931661E+01
 0.34714332757E+01 0.36981533739E+01 0.41244559208E+01 0.47706578430E+01 0.56583608434E+01
 0.67922296865E+01 0.81308696632E+01 0.95608016296E+01 0.10899162989E+02 0.11941326045E+02
 0.12534434800E+02 0.12622163542E+02 0.12280723458E+02 0.11640423359E+02 0.10780438774E+02
 0.97378260276E+01 0.85775923944E+01 0.73805641284E+01 0.62441246906E+01 0.67101534533E+01
 0.55634215383E+01 0.46498262699E+01 0.39930515057E+01 0.35803904434E+01 0.33893272127E+01
 0.34046862775E+01 0.36262435028E+01 0.40710944162E+01 0.47706578430E+01 0.57573348983E+01
 0.70360958130E+01 0.85458863015E+01 0.10133655543E+02 0.11573286684E+02 0.12622262977E+02
 0.13085183063E+02 0.13016748622E+02 0.12644214258E+02 0.12133999880E+02 0.11467262845E+02
 0.10532469926E+02 0.93302608308E+01 0.80089578417E+01 0.85858014081E+01 0.71239231240E+01
 0.58200715908E+01 0.47827007508E+01 0.40420233482E+01 0.35802969199E+01 0.33671076407E+01
 0.33821451859E+01 0.36262435028E+01 0.41244559208E+01 0.49192549405E+01 0.60480221466E+01
 0.75023340560E+01 0.91816484831E+01 0.10875862968E+02 0.12280757903E+02 0.13016845404E+02
 0.13024097052E+02 0.12635352435E+02 0.12268993843E+02 0.12073361894E+02 0.11828964645E+02
 0.11187307264E+02 0.10027411079E+02 0.10611624809E+02 0.90664703880E+01 0.74501181005E+01
 0.60059142577E+01 0.48675573404E+01 0.40675519095E+01 0.35802743761E+01 0.33671076407E+01
 0.34046862775E+01 0.36981533739E+01 0.42826210527E+01 0.52094784261E+01 0.65115642697E+01
 0.81489767863E+01 0.99598266292E+01 0.11640341554E+02 0.12644251693E+02 0.12635430401E+02
 0.11896978035E+02 0.11134859602E+02 0.10940651788E+02 0.11339081655E+02 0.11788140617E+02
 0.11628938822E+02 0.11860465218E+02 0.11039178710E+02 0.94117017045E+01 0.76590991359E+01
 0.61035645902E+01 0.48967502496E+01 0.40675519095E+01 0.35802969199E+01 0.33893272127E+01
 0.34714332757E+01 0.38394422602E+01 0.45394273081E+01 0.56269050071E+01 0.71168977293E+01
 0.89171508565E+01 0.10780370578E+02 0.12133938646E+02 0.12269025316E+02 0.11134900858E+02
 0.94996833019E+01 0.84729475049E+01 0.87319514383E+01 0.10036346855E+02 0.11412124290E+02
 0.10886565156E+02 0.11943496141E+02 0.11294987210E+02 0.95921947420E+01 0.77310942360E+01
 0.61035645902E+01 0.48675573404E+01 0.40420233482E+01 0.35803904434E+01 0.34325931661E+01
 0.35795268066E+01 0.40445915106E+01 0.48838693729E+01 0.61492919846E+01 0.78221557084E+01
 0.97378552007E+01 0.11467206345E+02 0.12073333734E+02 0.10940668867E+02 0.84729380002E+01
 0.59995950047E+01 0.49769065739E+01 0.60194886602E+01 0.84779036485E+01 0.70903827891E+01
 0.10443569056E+02 0.11957982615E+02 0.11379573790E+02 0.95921947420E+01 0.76590991359E+01
 0.60059142577E+01 0.47827007508E+01 0.39930515057E+01 0.35804978362E+01 0.34944855915E+01
 0.37239915812E+01 0.43045843266E+01 0.52992131363E+01 0.67463501965E+01 0.85776561829E+01
 0.10532471519E+02 0.11828934982E+02 0.11339098021E+02 0.87319484691E+01 0.49768390856E+01
 0.19438221811E+01 0.12916557711E+01 0.33944584976E+01 0.14924274971E+01 0.62756093656E+01
 0.10271846949E+02 0.11957982615E+02 0.11294987210E+02 0.94117017045E+01 0.74501181005E+01
 0.58200715908E+01 0.46498262699E+01 0.39245089335E+01 0.35805965355E+01 0.35714831816E+01
 0.38974338589E+01 0.46061296368E+01 0.57623661321E+01 0.73805895645E+01 0.93302903391E+01
 0.11187279140E+02 0.11788149490E+02 0.10036412352E+02 0.60194628762E+01 0.12915325554E+01
 -.18624598462E+01 -.17862325860E+01 -.35376138685E+01 0.79815642211E+00 0.62756093656E+01
 0.10443569056E+02 0.11943496141E+02 0.11039178710E+02 0.90664703880E+01 0.71239231240E+01
 0.55634215383E+01 0.44805553924E+01 0.38417715595E+01 0.35806773368E+01 0.36588852855E+01
 0.40898597935E+01 0.49314893639E+01 0.62441061278E+01 0.80089995149E+01 0.10027394816E+02
 0.11628879555E+02 0.11412174328E+02 0.84780153884E+01 0.33944126134E+01 -.17863992675E+01
 -.45751538253E+01 -.35374321807E+01 -.21017444936E+01 0.22193658870E+01 0.72664871449E+01
 0.10793926056E+02 0.11725727116E+02 0.10519492916E+02 0.85153881399E+01 0.66353402665E+01
 0.51609628656E+01 0.41581168495E+01 0.35820620080E+01 0.33671971852E+01 0.34810108169E+01
 0.39429003903E+01 0.48129979397E+01 0.61473053210E+01 0.79156565590E+01 0.99054694253E+01
 0.11406947164E+02 0.11065738519E+02 0.81316760224E+01 0.33089594766E+01 -.13496232800E+01
 -.21019513700E+01 -.35374551160E+01 -.13494399293E+01 0.33090590782E+01 0.81315755364E+01
 0.11065633162E+02 0.11406974342E+02 0.99055310169E+01 0.79156584240E+01 0.61472933775E+01
 0.48130053400E+01 0.39428899782E+01 0.34809946191E+01 0.33672180767E+01 0.35820754666E+01
 0.41580738634E+01 0.51609423987E+01 0.66354040810E+01 0.85154149382E+01 0.10519385885E+02
 0.11725648509E+02 0.10794047385E+02 0.72666450836E+01 0.22192946777E+01 0.23605701094E+01
 -.11955298137E+01 -.17861036241E+01 0.86543748146E+00 0.53238008906E+01 0.93668086077E+01
 0.11331676577E+02 0.10951931814E+02 0.92024781931E+01 0.72804605533E+01 0.56575474493E+01
 0.44820894454E+01 0.37515251539E+01 0.34042297678E+01 0.33893866216E+01 0.37012472972E+01
 0.43829998822E+01 0.55012892054E+01 0.70853175104E+01 0.90350597277E+01 0.11005788167E+02
 0.11962328067E+02 0.10702547104E+02 0.70644605930E+01 0.76184183268E+01 0.37129306732E+01
 0.11518417397E+01 0.12917029069E+01 0.39948116149E+01 0.77321784255E+01 0.10583459108E+02
 0.11400522977E+02 0.10336649345E+02 0.84629860174E+01 0.66525920549E+01 0.51987314400E+01
 0.41890437499E+01 0.35954001631E+01 0.33563143850E+01 0.34325611395E+01 0.38309800978E+01
 0.46016425766E+01 0.58073651652E+01 0.74598127225E+01 0.94318444539E+01 0.11342048729E+02
 0.12161374639E+02 0.10893774204E+02 0.11342163907E+02 0.87872856274E+01 0.59354145138E+01
 0.43755610747E+01 0.49768952035E+01 0.73086965083E+01 0.99470916613E+01 0.11430388677E+02
 0.11154484149E+02 0.95968610965E+01 0.77324650203E+01 0.60705189591E+01 0.47977148777E+01
 0.39500277787E+01 0.34829335796E+01 0.33400499257E+01 0.34943647191E+01 0.39626522740E+01
 0.47973132120E+01 0.60532378560E+01 0.77251654602E+01 0.96696676118E+01 0.11509749118E+02
 0.12325276214E+02 0.12405633280E+02 0.11899747140E+02 0.10241452099E+02 0.84741481275E+01
 0.77376283731E+01 0.84728721165E+01 0.10114499005E+02 0.11505850442E+02 0.11709432204E+02
 0.10599532785E+02 0.88246621799E+01 0.70544552509E+01 0.55671307060E+01 0.44751835289E+01
 0.37764819950E+01 0.34194631605E+01 0.33563397648E+01 0.35712771038E+01 0.40871939071E+01
 0.49542334003E+01 0.62167284872E+01 0.78557364036E+01 0.97242995083E+01 0.11488672096E+02
 0.11260851803E+02 0.12321982809E+02 0.12350878704E+02 0.11573760505E+02 0.10735860390E+02
 0.10546615239E+02 0.11134744476E+02 0.11951613022E+02 0.12198595302E+02 0.11431115928E+02
 0.98657777329E+01 0.80957733317E+01 0.64708947804E+01 0.51691943216E+01 0.42458308901E+01
 0.36755003263E+01 0.34075333139E+01 0.34042887394E+01 0.36586715887E+01 0.41955912095E+01
 0.50592203995E+01 0.62825658286E+01 0.78380616335E+01 0.95874657592E+01 0.92688346052E+01
 0.10823877617E+02 0.12000708568E+02 0.12494527040E+02 0.12434653962E+02 0.12266753389E+02
 0.12350320406E+02 0.12635239240E+02 0.12697501573E+02 0.12103847048E+02 0.10793966401E+02
 0.91325652285E+01 0.74689576259E+01 0.60194511781E+01 0.48971332338E+01 0.41191928696E+01
 0.36506104832E+01 0.34471448790E+01 0.34810914056E+01 0.37509174441E+01 0.42797267938E+01
 0.51033767738E+01 0.62446011316E+01 0.76730619568E+01 0.73762115450E+01 0.87953130602E+01
 0.10206005742E+02 0.11416846894E+02 0.12222566690E+02 0.12643536723E+02 0.12875867290E+02
 0.13038353001E+02 0.13016637689E+02 0.12556934710E+02 0.11526585001E+02 0.10087684064E+02
 0.85051868968E+01 0.70001740885E+01 0.57309422240E+01 0.47652367867E+01 0.41004176591E+01
 0.37022220963E+01 0.35359233385E+01 0.35822067640E+01 0.38417613265E+01 0.43330804784E+01
 0.50830955949E+01 0.61067449846E+01 0.58824057724E+01 0.69751376907E+01 0.82075044752E+01
 0.94641863132E+01 0.10620280512E+02 0.11563623119E+02 0.12237061015E+02 0.12664022563E+02
 0.12827695974E+02 0.12622101134E+02 0.11949280206E+02 0.10857070789E+02 0.94976854937E+01
 0.80637871918E+01 0.67352284201E+01 0.56272308586E+01 0.47816350267E+01 0.41907122462E+01
 0.38280225411E+01 0.36693127441E+01 0.37014457072E+01 0.39246274634E+01 0.43513961111E+01
 0.50006201967E+01 0.48635816821E+01 0.55922963546E+01 0.65055640014E+01 0.75545921906E+01
 0.86587347264E+01 0.97260690987E+01 0.10675536917E+02 0.11440522418E+02 0.11956033635E+02
 0.12147252908E+02 0.11941201867E+02 0.11316415678E+02 0.10332779514E+02 0.91274628641E+01
 0.78695860939E+01 0.67042886340E+01 0.57197724056E+01 0.49482413038E+01 0.43874263263E+01
 0.40228323710E+01 0.38404204375E+01 0.38312080056E+01 0.39932878964E+01 0.43332266040E+01
 0.42799884166E+01 0.46839282200E+01 0.52615669329E+01 0.60064953330E+01 0.68882916297E+01
 0.78532007857E+01 0.88347042871E+01 0.97631632059E+01 0.10565005633E+02 0.11155872688E+02
 0.11444451295E+02 0.11358084494E+02 0.10879564272E+02 0.10068247374E+02 0.90462675383E+01
 0.79564965543E+01 0.69188544746E+01 0.60085557719E+01 0.52600355246E+01 0.46833492590E+01
 0.42781598895E+01 0.40400517953E+01 0.39629234134E+01 0.40423678252E+01 0.40679258784E+01
 0.41959292600E+01 0.44763928088E+01 0.49164648912E+01 0.55155609820E+01 0.62574394365E+01
 0.71093473682E+01 0.80259269530E+01 0.89503170010E+01 0.98089224565E+01 0.10507489061E+02
 0.10942106735E+02 0.11029518495E+02 0.10742394769E+02 0.10125562323E+02 0.92803302154E+01
 0.83270333994E+01 0.73697435778E+01 0.64806765318E+01 0.57039063933E+01 0.50658390229E+01
 0.45816582720E+01 0.42566032911E+01 0.40874432028E+01 0.41958107748E+01 0.40679115435E+01
 0.40875444671E+01 0.42566926265E+01 0.45816237338E+01 0.50657262544E+01 0.57038636555E+01
 0.64807519923E+01 0.73698159954E+01 0.83269967926E+01 0.92802570961E+01 0.10125578673E+02
 0.10742467087E+02 0.11029513215E+02 0.10942025312E+02 0.10507472821E+02 0.98090103663E+01
 0.89503682362E+01 0.80258465607E+01 0.71092456969E+01 0.62574685964E+01 0.55156896858E+01
 0.49165263603E+01 0.44763124694E+01 0.46839075439E+01 0.42798784138E+01 0.40422917354E+01
 0.39629686009E+01 0.40401625355E+01 0.42781905848E+01 0.46832552875E+01 0.52599486210E+01
 0.60085967140E+01 0.69189474070E+01 0.79564921353E+01 0.90461863719E+01 0.10068235494E+02
 0.10879636382E+02 0.11358101584E+02 0.11444370509E+02 0.11155828720E+02 0.10565079982E+02
 0.97632403956E+01 0.88346567548E+01 0.78530902092E+01 0.68882723463E+01 0.60065940224E+01
 0.52616604024E+01 0.55924028936E+01 0.48635962054E+01 0.43331306579E+01 0.39931845563E+01
 0.38312210772E+01 0.38405343397E+01 0.40228878864E+01 0.43873425552E+01 0.49481496805E+01
 0.57198142949E+01 0.67043828016E+01 0.78695678267E+01 0.91273692218E+01 0.10332781354E+02
 0.11316510570E+02 0.11941212956E+02 0.12147140786E+02 0.11955973822E+02 0.11440614015E+02
 0.10675640631E+02 0.97260302378E+01 0.86586094083E+01 0.75545450955E+01 0.65056440469E+01
 0.69751424535E+01 0.58824903737E+01 0.50007009373E+01 0.43513612436E+01 0.39244989296E+01
 0.37013949497E+01 0.36694161059E+01 0.38281220926E+01 0.41906582658E+01 0.47815309738E+01
 0.56272516685E+01 0.67353209311E+01 0.80637785742E+01 0.94975960164E+01 0.10857067128E+02
 0.11949367375E+02 0.12622114531E+02 0.12827594992E+02 0.12663958862E+02 0.12237124536E+02
 0.11563714290E+02 0.10620280218E+02 0.94641062028E+01 0.82074331930E+01 0.87952086959E+01
 0.73761591316E+01 0.61068279025E+01 0.50832262271E+01 0.43330715089E+01 0.38416118106E+01
 0.35821404518E+01 0.35360413640E+01 0.37023299153E+01 0.41003495959E+01 0.47651314158E+01
 0.57309870140E+01 0.70002771811E+01 0.85051556946E+01 0.10087572567E+02 0.11526588502E+02
 0.12557042620E+02 0.13016661071E+02 0.13038245764E+02 0.12875781683E+02 0.12643574611E+02
 0.12222662449E+02 0.11416891530E+02 0.10205956968E+02 0.10823902073E+02 0.92687406411E+01
 0.76729463726E+01 0.62446397284E+01 0.51035329803E+01 0.42797673679E+01 0.37507864311E+01
 0.34810115529E+01 0.34472417475E+01 0.36507090903E+01 0.41191394358E+01 0.48970538245E+01
 0.60194980097E+01 0.74690343808E+01 0.91325226760E+01 0.10793876736E+02 0.12103861234E+02
 0.12697584392E+02 0.12635251100E+02 0.12350247771E+02 0.12266689367E+02 0.12434647371E+02
 0.12494572860E+02 0.12000782957E+02 0.12322112771E+02 0.11260938944E+02 0.95873556516E+01
 0.78378917376E+01 0.62825957652E+01 0.50594081087E+01 0.41956460416E+01 0.36585339563E+01
 0.34042144705E+01 0.34076429992E+01 0.36755937345E+01 0.42457641164E+01 0.51691163041E+01
 0.64709510487E+01 0.80958543993E+01 0.98657394727E+01 0.11431025132E+02 0.12198586521E+02
 0.11951674943E+02 0.11134784144E+02 0.10546595434E+02 0.10735790446E+02 0.11573682795E+02
 0.12350889946E+02 0.11899707133E+02 0.12405765578E+02 0.11488800410E+02 0.97242171039E+01
 0.78555645622E+01 0.62167372771E+01 0.49543949404E+01 0.40872460321E+01 0.35711767984E+01
 0.33563014368E+01 0.34195548802E+01 0.37765309389E+01 0.44751172678E+01 0.55670928953E+01
 0.70545198157E+01 0.88247111012E+01 0.10599487234E+02 0.11709370804E+02 0.11505843518E+02
 0.10114522204E+02 0.84729043463E+01 0.77376585186E+01 0.84741106719E+01 0.10241337643E+02
 0.87871094381E+01 0.11342068108E+02 0.12325426236E+02 0.11509923355E+02 0.96695990876E+01
 0.77249808641E+01 0.60532345529E+01 0.47974684050E+01 0.39627068409E+01 0.34942788470E+01
 0.33400187835E+01 0.34830114932E+01 0.39500683561E+01 0.47976648085E+01 0.60704865720E+01
 0.77324999970E+01 0.95968961971E+01 0.11154481801E+02 0.11430364431E+02 0.99470418707E+01
 0.73086523194E+01 0.49769456566E+01 0.43756767393E+01 0.59354061658E+01 0.37129471936E+01
 0.76182375386E+01 0.10893662744E+02 0.12161504209E+02 0.11342205477E+02 0.94317913989E+01
 0.74596738213E+01 0.58073764578E+01 0.46017535627E+01 0.38309968929E+01 0.34325005240E+01
 0.33563238834E+01 0.35954666895E+01 0.41890476280E+01 0.51986810134E+01 0.66525804815E+01
 0.84630138847E+01 0.10336667507E+02 0.11400538867E+02 0.10583463377E+02 0.77321135434E+01
 0.39947279911E+01 0.12917514587E+01 0.11519941195E+01 -.11953265716E+01 0.23606372996E+01
 0.70642801435E+01 0.10702401059E+02 0.11962424803E+02 0.11005941978E+02 0.90350390440E+01
 0.70852095368E+01 0.55012859215E+01 0.43830717928E+01 0.37012632443E+01 0.33893598680E+01
 0.34042383203E+01 0.37515480751E+01 0.44820838808E+01 0.56575422060E+01 0.72804639027E+01
 0.92024506708E+01 0.10951913005E+02 0.11331744646E+02 0.93668800031E+01 0.53237163523E+01
 0.86527962831E+00 -.17860768703E+01 0.14930356092E+01 0.23610790102E+01 0.54745961329E+01
 0.91720878314E+01 0.11638281696E+02 0.11982097744E+02 0.10593768999E+02 0.86062909764E+01
 0.67564107591E+01 0.52925110500E+01 0.42771552847E+01 0.36691992100E+01 0.34045624804E+01
 0.34470528604E+01 0.38079744143E+01 0.45392650746E+01 0.56984854228E+01 0.72824080361E+01
 0.91451205284E+01 0.10867250976E+02 0.11406512635E+02 0.99348237197E+01 0.67432861080E+01
 0.33092743597E+01 0.22196091017E+01 0.79878581628E+00 0.22198423979E+01 0.56917508683E+01
 0.93631579800E+01 0.11499429771E+02 0.11469700518E+02 0.99021053477E+01 0.79550785971E+01
 0.62213577196E+01 0.48995680321E+01 0.40216615008E+01 0.35358155964E+01 0.33820307991E+01
 0.35358098433E+01 0.40216414374E+01 0.48995767515E+01 0.62214083184E+01 0.79550716529E+01
 0.99019992713E+01 0.11469659098E+02 0.11499573708E+02 0.93632921745E+01 0.56916310760E+01
 0.54745127094E+01 0.23608479439E+01 0.14930005013E+01 0.33094653702E+01 0.67434117669E+01
 0.99347514032E+01 0.11406412359E+02 0.10867260419E+02 0.91451714274E+01 0.72824180895E+01
 0.56984770724E+01 0.45392610584E+01 0.38079621318E+01 0.34470531092E+01 0.34045871357E+01
 0.36691915592E+01 0.42771051538E+01 0.52925208923E+01 0.67565004605E+01 0.86062966109E+01
 0.10593623018E+02 0.11982018459E+02 0.11638438106E+02 0.91722677045E+01 0.94986462553E+01
 0.61934741135E+01 0.37130974623E+01 0.33948415275E+01 0.53240782679E+01 0.82938711639E+01
 0.10624436633E+02 0.11228540148E+02 0.10168231879E+02 0.83745337643E+01 0.66323305065E+01
 0.52206651591E+01 0.42324677861E+01 0.36474381843E+01 0.34075087042E+01 0.34713518495E+01
 0.38403383808E+01 0.45594336555E+01 0.56922271265E+01 0.72651616949E+01 0.91869664163E+01
 0.11170365690E+02 0.12416590052E+02 0.11914921050E+02 0.12333285447E+02 0.10297944171E+02
 0.76780186080E+01 0.59354515189E+01 0.60196514083E+01 0.77322987304E+01 0.98886820296E+01
 0.11144543631E+02 0.10861674922E+02 0.93994213934E+01 0.76326693589E+01 0.60416869349E+01
 0.48138333746E+01 0.39948014330E+01 0.35480712063E+01 0.34195257126E+01 0.35794615165E+01
 0.40399950484E+01 0.48505644582E+01 0.60692672655E+01 0.77059148431E+01 0.96469283665E+01
 0.11588761192E+02 0.12764048298E+02 0.12980629401E+02 0.12798752550E+02 0.11354642160E+02
 0.95395180889E+01 0.84740657442E+01 0.87318866328E+01 0.99470354611E+01 0.11106278470E+02
 0.11288990320E+02 0.10282427429E+02 0.86285763068E+01 0.69571924087E+01 0.55401372009E+01
 0.44971271497E+01 0.38368714980E+01 0.35144825186E+01 0.34830780049E+01 0.37239519115E+01
 0.42565801410E+01 0.51300608964E+01 0.63929667484E+01 0.80389243877E+01 0.99413511195E+01
 0.11808184468E+02 0.11794418956E+02 0.12997594422E+02 0.13149072529E+02 0.12355093866E+02
 0.11297276134E+02 0.10735667672E+02 0.10940391612E+02 0.11505682839E+02 0.11691095971E+02
 0.11005764908E+02 0.95680542791E+01 0.79135798732E+01 0.63823136920E+01 0.51508062602E+01
 0.42836496643E+01 0.37648689144E+01 0.35482070625E+01 0.35956409444E+01 0.38974185886E+01
 0.44762942609E+01 0.53765798833E+01 0.66348837072E+01 0.82315008382E+01 0.10037693178E+02
 0.99218457797E+01 0.11531063114E+02 0.12749804147E+02 0.13216698456E+02 0.12996083167E+02
 0.12532364936E+02 0.12266525628E+02 0.12268647777E+02 0.12198346362E+02 0.11621859561E+02
 0.10409249091E+02 0.88569478650E+01 0.72991422465E+01 0.59387816830E+01 0.48911846405E+01
 0.41816314928E+01 0.37812672392E+01 0.36476883499E+01 0.37518075950E+01 0.40898860981E+01
 0.46838620500E+01 0.55699427367E+01 0.67724557112E+01 0.82632249101E+01 0.81297259836E+01
 0.96014845678E+01 0.11033182828E+02 0.12211089570E+02 0.12897448568E+02 0.13089285446E+02
 0.13014865076E+02 0.12875628409E+02 0.12643834381E+02 0.12103598258E+02 0.11094820558E+02
 0.97248967162E+01 0.82379689451E+01 0.68310202772E+01 0.56531067339E+01 0.47738876163E+01
 0.41952144240E+01 0.38851117615E+01 0.38082311972E+01 0.39432045738E+01 0.42890196175E+01
 0.48635217894E+01 0.56933608439E+01 0.67923983931E+01 0.66928488398E+01 0.78435949169E+01
 0.91055125585E+01 0.10346285835E+02 0.11420453936E+02 0.12197906757E+02 0.12623072153E+02
 0.12761359701E+02 0.12663836460E+02 0.12280417434E+02 0.11526379066E+02 0.10429599003E+02
 0.91263220055E+01 0.77800008012E+01 0.65507398897E+01 0.55460886546E+01 0.48067664063E+01
 0.43248376249E+01 0.40722016774E+01 0.40218980140E+01 0.41583948586E+01 0.44806341891E+01
 0.50005716877E+01 0.57357591125E+01 0.56932383105E+01 0.64836145220E+01 0.74325345361E+01
 0.84799538026E+01 0.95311304276E+01 0.10480613268E+02 0.11242241796E+02 0.11760615689E+02
 0.12006700727E+02 0.11955919766E+02 0.11573051138E+02 0.10856926813E+02 0.98639054456E+01
 0.87105291138E+01 0.75430622426E+01 0.64902879156E+01 0.56312737035E+01 0.49926527527E+01
 0.45670320239E+01 0.43346798893E+01 0.42772496064E+01 0.43832685530E+01 0.46499132437E+01
 0.50830813468E+01 0.51033863301E+01 0.55697256230E+01 0.61847044532E+01 0.69349510867E+01
 0.77809615674E+01 0.86589446284E+01 0.94945568453E+01 0.10218419434E+02 0.10771724731E+02
 0.11101169082E+02 0.11155830251E+02 0.10899047267E+02 0.10332717436E+02 0.95149001072E+01
 0.85524118406E+01 0.75689546385E+01 0.66682343670E+01 0.59132445566E+01 0.53281590081E+01
 0.49134266989E+01 0.46604795511E+01 0.45594422376E+01 0.46018386160E+01 0.47827796370E+01
 0.48676245876E+01 0.50593006555E+01 0.53763691799E+01 0.58231146490E+01 0.63942081381E+01
 0.70671441474E+01 0.78024662913E+01 0.85503285762E+01 0.92563491653E+01 0.98616879523E+01
 0.10300909072E+02 0.10507523564E+02 0.10432552479E+02 0.10068220165E+02 0.94599001400E+01
 0.86951798053E+01 0.78753135511E+01 0.70864201568E+01 0.63853114758E+01 0.58019342464E+01
 0.53495257839E+01 0.50326936785E+01 0.48504165144E+01 0.47973987813E+01 0.49542179075E+01
 0.48967875481E+01 0.49543617539E+01 0.51299034523E+01 0.54291375124E+01 0.58531108634E+01
 0.63925636524E+01 0.70271847843E+01 0.77270955967E+01 0.84514986863E+01 0.91437026053E+01
 0.97291778752E+01 0.10125635442E+02 0.10266368510E+02 0.10125560604E+02 0.97291629996E+01
 0.91437849872E+01 0.84515445975E+01 0.77270147908E+01 0.70270874254E+01 0.63926040235E+01
 0.58532540734E+01 0.54291976310E+01 0.51297956903E+01 0.53763007885E+01 0.50591355044E+01
 0.48675621100E+01 0.47975053167E+01 0.48505506776E+01 0.50326868079E+01 0.53493965437E+01
 0.58018600132E+01 0.63853815400E+01 0.70865131050E+01 0.78752875686E+01 0.86950907934E+01
 0.94599014251E+01 0.10068305061E+02 0.10432568197E+02 0.10507436522E+02 0.10300870679E+02
 0.98617797911E+01 0.92564324396E+01 0.85502581807E+01 0.78023291687E+01 0.70671407660E+01
 0.63943592217E+01 0.58232284984E+01 0.61848369155E+01 0.55697151602E+01 0.51032490064E+01
 0.47826716887E+01 0.46018786015E+01 0.45595709736E+01 0.46605258177E+01 0.49133322211E+01
 0.53280653979E+01 0.59132850277E+01 0.66683285824E+01 0.75689434373E+01 0.85523228758E+01
 0.95148954266E+01 0.10332807265E+02 0.10899068244E+02 0.11155733634E+02 0.11101117519E+02
 0.10771820855E+02 0.10218524149E+02 0.94945030819E+01 0.86587970922E+01 0.77809207416E+01
 0.69350718351E+01 0.74325947559E+01 0.64837559577E+01 0.56933026327E+01 0.50829869311E+01
 0.46497607286E+01 0.43832434410E+01 0.42773778091E+01 0.43347715473E+01 0.45669548595E+01
 0.49925386050E+01 0.56313043850E+01 0.64903960855E+01 0.75430553177E+01 0.87104254625E+01
 0.98638960859E+01 0.10857032810E+02 0.11573083190E+02 0.11955809156E+02 0.12006623228E+02
 0.11760702487E+02 0.11242370034E+02 0.10480599423E+02 0.95309915553E+01 0.84798629059E+01
 0.91053957460E+01 0.78435819919E+01 0.66929658067E+01 0.57358791799E+01 0.50005333360E+01
 0.44804703252E+01 0.41583252989E+01 0.40220113521E+01 0.40723080308E+01 0.43247717544E+01
 0.48066558101E+01 0.55461242688E+01 0.65508460521E+01 0.77799820485E+01 0.91262152431E+01
 0.10429601538E+02 0.11526492778E+02 0.12280444137E+02 0.12663718179E+02 0.12761271176E+02
 0.12623138915E+02 0.12198031905E+02 0.11420479424E+02 0.10346187450E+02 0.11033158182E+02
 0.96013465043E+01 0.81296229136E+01 0.67924791127E+01 0.56935343163E+01 0.48635391438E+01
 0.42888497885E+01 0.39431032404E+01 0.38083366885E+01 0.38852271747E+01 0.41951521891E+01
 0.47737787100E+01 0.56531468490E+01 0.68311258127E+01 0.82379461931E+01 0.97247903396E+01
 0.11094820840E+02 0.12103704975E+02 0.12643869110E+02 0.12875530398E+02 0.13014762992E+02
 0.13089294977E+02 0.12897548580E+02 0.12211176475E+02 0.12749937682E+02 0.11531110063E+02
 0.99217081690E+01 0.82630625754E+01 0.67725017117E+01 0.55701325155E+01 0.46839059217E+01
 0.40897293923E+01 0.37517132715E+01 0.36477902028E+01 0.37813642833E+01 0.41815613569E+01
 0.48910940379E+01 0.59388373546E+01 0.72992368645E+01 0.88569116398E+01 0.10409147328E+02
 0.11621859979E+02 0.12198438824E+02 0.12268688670E+02 0.12266458958E+02 0.12532259321E+02