   2   2   0   0
  0.1529437E+02  0.3691622E-09  0.3691622E-09  0.3691622E-09  0.5000000E-15
  1.000000000000000E-004
  CAR 
 unknown system                          
     23.55489332     -6.56858510  301      9.12861219      1.00000000
     -6.569  0.0000E+00  0.0000E+00
     -6.468  0.0000E+00  0.0000E+00
     -6.368  0.0000E+00  0.0000E+00
     -6.267  0.0000E+00  0.0000E+00
     -6.167  0.0000E+00  0.0000E+00
     -6.067  0.0000E+00  0.0000E+00
     -5.966  0.0000E+00  0.0000E+00
     -5.866  0.0000E+00  0.0000E+00
     -5.765  0.0000E+00  0.0000E+00
     -5.665  0.1382E-16  0.1388E-17
     -5.564  0.2906E-14  0.2932E-15
     -5.464  0.3707E-12  0.3751E-13
     -5.364  0.2886E-10  0.2935E-11
     -5.263  0.1375E-08  0.1410E-09
     -5.163  0.4023E-07  0.4180E-08
     -5.062  0.7276E-06  0.7724E-07
     -4.962  0.8226E-05  0.9032E-06
     -4.862  0.5935E-04  0.6863E-05
     -4.761  0.2834E-03  0.3532E-04
     -4.661  0.9451E-03  0.1302E-03
     -4.560  0.2328E-02  0.3640E-03
     -4.460  0.4372E-02  0.8030E-03
     -4.360  0.6355E-02  0.1441E-02
     -4.259  0.7665E-02  0.2211E-02
     -4.159  0.8907E-02  0.3105E-02
     -4.058  0.1063E-01  0.4173E-02
     -3.958  0.1201E-01  0.5378E-02
     -3.857  0.1263E-01  0.6647E-02
     -3.757  0.1326E-01  0.7978E-02
     -3.657  0.1424E-01  0.9408E-02
     -3.556  0.1523E-01  0.1094E-01
     -3.456  0.1592E-01  0.1254E-01
     -3.355  0.1611E-01  0.1415E-01
     -3.255  0.1575E-01  0.1574E-01
     -3.155  0.1618E-01  0.1736E-01
     -3.054  0.1912E-01  0.1928E-01
     -2.954  0.2288E-01  0.2158E-01
     -2.853  0.2368E-01  0.2396E-01
     -2.753  0.2076E-01  0.2604E-01
     -2.653  0.1716E-01  0.2776E-01
     -2.552  0.1642E-01  0.2941E-01
     -2.452  0.1935E-01  0.3135E-01
     -2.351  0.2357E-01  0.3372E-01
     -2.251  0.2600E-01  0.3633E-01
     -2.150  0.2592E-01  0.3894E-01
     -2.050  0.2535E-01  0.4148E-01
     -1.950  0.2593E-01  0.4408E-01
     -1.849  0.2681E-01  0.4678E-01
     -1.749  0.2629E-01  0.4942E-01
     -1.648  0.2441E-01  0.5187E-01
     -1.548  0.2270E-01  0.5415E-01
     -1.448  0.2280E-01  0.5644E-01
     -1.347  0.2593E-01  0.5904E-01
     -1.247  0.3070E-01  0.6212E-01
     -1.146  0.3366E-01  0.6550E-01
     -1.046  0.3323E-01  0.6884E-01
     -0.946  0.3011E-01  0.7186E-01
     -0.845  0.2655E-01  0.7453E-01
     -0.745  0.2534E-01  0.7707E-01
     -0.644  0.2731E-01  0.7981E-01
     -0.544  0.3085E-01  0.8291E-01
     -0.443  0.3437E-01  0.8636E-01
     -0.343  0.3696E-01  0.9007E-01
     -0.243  0.3763E-01  0.9385E-01
     -0.142  0.3605E-01  0.9747E-01
     -0.042  0.3372E-01  0.1009E+00
      0.059  0.3190E-01  0.1041E+00
      0.159  0.3048E-01  0.1071E+00
      0.259  0.3103E-01  0.1102E+00
      0.360  0.3454E-01  0.1137E+00
      0.460  0.3704E-01  0.1174E+00
      0.561  0.3546E-01  0.1210E+00
      0.661  0.3374E-01  0.1244E+00
      0.761  0.3640E-01  0.1280E+00
      0.862  0.4236E-01  0.1323E+00
      0.962  0.4805E-01  0.1371E+00
      1.063  0.5034E-01  0.1422E+00
      1.163  0.4714E-01  0.1469E+00
      1.264  0.4035E-01  0.1509E+00
      1.364  0.3608E-01  0.1546E+00
      1.464  0.3717E-01  0.1583E+00
      1.565  0.3908E-01  0.1622E+00
      1.665  0.3689E-01  0.1659E+00
      1.766  0.3178E-01  0.1691E+00
      1.866  0.2905E-01  0.1720E+00
      1.966  0.3208E-01  0.1753E+00
      2.067  0.3824E-01  0.1791E+00
      2.167  0.4249E-01  0.1834E+00
      2.268  0.4379E-01  0.1878E+00
      2.368  0.4304E-01  0.1921E+00
      2.468  0.3966E-01  0.1961E+00
      2.569  0.3507E-01  0.1996E+00
      2.669  0.3198E-01  0.2028E+00
      2.770  0.3115E-01  0.2059E+00
      2.870  0.3275E-01  0.2092E+00
      2.971  0.3620E-01  0.2128E+00
      3.071  0.3908E-01  0.2168E+00
      3.171  0.4039E-01  0.2208E+00
      3.272  0.4193E-01  0.2250E+00
      3.372  0.4445E-01  0.2295E+00
      3.473  0.4589E-01  0.2341E+00
      3.573  0.4431E-01  0.2386E+00
      3.673  0.4104E-01  0.2427E+00
      3.774  0.4056E-01  0.2468E+00
      3.874  0.4496E-01  0.2513E+00
      3.975  0.5030E-01  0.2563E+00
      4.075  0.5124E-01  0.2615E+00
      4.175  0.4618E-01  0.2661E+00
      4.276  0.3860E-01  0.2700E+00
      4.376  0.3387E-01  0.2734E+00
      4.477  0.3413E-01  0.2768E+00
      4.577  0.3838E-01  0.2807E+00
      4.678  0.4490E-01  0.2852E+00
      4.778  0.5216E-01  0.2904E+00
      4.878  0.5940E-01  0.2964E+00
      4.979  0.6418E-01  0.3028E+00
      5.079  0.6237E-01  0.3091E+00
      5.180  0.5521E-01  0.3146E+00
      5.280  0.4908E-01  0.3195E+00
      5.380  0.4683E-01  0.3242E+00
      5.481  0.4740E-01  0.3290E+00
      5.581  0.4966E-01  0.3340E+00
      5.682  0.5159E-01  0.3392E+00
      5.782  0.5124E-01  0.3443E+00
      5.882  0.4947E-01  0.3493E+00
      5.983  0.4880E-01  0.3542E+00
      6.083  0.5124E-01  0.3593E+00
      6.184  0.5751E-01  0.3651E+00
      6.284  0.6548E-01  0.3717E+00
      6.385  0.6955E-01  0.3787E+00
      6.485  0.6517E-01  0.3852E+00
      6.585  0.5472E-01  0.3907E+00
      6.686  0.4660E-01  0.3954E+00
      6.786  0.4850E-01  0.4003E+00
      6.887  0.5979E-01  0.4063E+00
      6.987  0.7013E-01  0.4133E+00
      7.087  0.7127E-01  0.4205E+00
      7.188  0.6767E-01  0.4272E+00
      7.288  0.6755E-01  0.4340E+00
      7.389  0.7019E-01  0.4411E+00
      7.489  0.7078E-01  0.4482E+00
      7.589  0.6929E-01  0.4551E+00
      7.690  0.6687E-01  0.4619E+00
      7.790  0.6282E-01  0.4682E+00
      7.891  0.5821E-01  0.4740E+00
      7.991  0.5535E-01  0.4796E+00
      8.092  0.5472E-01  0.4851E+00
      8.192  0.5406E-01  0.4905E+00
      8.292  0.5086E-01  0.4956E+00
      8.393  0.4691E-01  0.5003E+00
      8.493  0.4528E-01  0.5049E+00
      8.594  0.4418E-01  0.5093E+00
      8.694  0.4238E-01  0.5135E+00
      8.794  0.4292E-01  0.5179E+00
      8.895  0.4624E-01  0.5225E+00
      8.995  0.4826E-01  0.5273E+00
      9.096  0.4573E-01  0.5319E+00
      9.196  0.4083E-01  0.5360E+00
      9.296  0.3983E-01  0.5400E+00
      9.397  0.4531E-01  0.5446E+00
      9.497  0.5314E-01  0.5499E+00
      9.598  0.5760E-01  0.5557E+00
      9.698  0.5575E-01  0.5613E+00
      9.799  0.4944E-01  0.5663E+00
      9.899  0.4315E-01  0.5706E+00
      9.999  0.3940E-01  0.5746E+00
     10.100  0.3831E-01  0.5784E+00
     10.200  0.3918E-01  0.5823E+00
     10.301  0.4173E-01  0.5865E+00
     10.401  0.4673E-01  0.5912E+00
     10.501  0.5247E-01  0.5965E+00
     10.602  0.5378E-01  0.6019E+00
     10.702  0.4965E-01  0.6069E+00
     10.803  0.4657E-01  0.6115E+00
     10.903  0.5044E-01  0.6166E+00
     11.003  0.5991E-01  0.6226E+00
     11.104  0.6805E-01  0.6295E+00
     11.204  0.6951E-01  0.6364E+00
     11.305  0.6629E-01  0.6431E+00
     11.405  0.6181E-01  0.6493E+00
     11.506  0.5602E-01  0.6549E+00
     11.606  0.5095E-01  0.6600E+00
     11.706  0.5136E-01  0.6652E+00
     11.807  0.5720E-01  0.6709E+00
     11.907  0.6244E-01  0.6772E+00
     12.008  0.6342E-01  0.6836E+00
     12.108  0.6259E-01  0.6899E+00
     12.208  0.6240E-01  0.6961E+00
     12.309  0.6224E-01  0.7024E+00
     12.409  0.6246E-01  0.7087E+00
     12.510  0.6442E-01  0.7151E+00
     12.610  0.6701E-01  0.7219E+00
     12.710  0.6966E-01  0.7288E+00
     12.811  0.7434E-01  0.7363E+00
     12.911  0.7920E-01  0.7443E+00
     13.012  0.7937E-01  0.7522E+00
     13.112  0.7569E-01  0.7598E+00
     13.212  0.7181E-01  0.7670E+00
     13.313  0.6831E-01  0.7739E+00
     13.413  0.6703E-01  0.7806E+00
     13.514  0.6863E-01  0.7875E+00
     13.614  0.6843E-01  0.7944E+00
     13.715  0.6484E-01  0.8009E+00
     13.815  0.6158E-01  0.8071E+00
     13.915  0.6035E-01  0.8132E+00
     14.016  0.6044E-01  0.8192E+00
     14.116  0.6293E-01  0.8255E+00
     14.217  0.6914E-01  0.8325E+00
     14.317  0.7554E-01  0.8401E+00
     14.417  0.7732E-01  0.8478E+00
     14.518  0.7623E-01  0.8555E+00
     14.618  0.7563E-01  0.8631E+00
     14.719  0.7336E-01  0.8704E+00
     14.819  0.6807E-01  0.8773E+00
     14.919  0.6402E-01  0.8837E+00
     15.020  0.6250E-01  0.8900E+00
     15.120  0.6003E-01  0.8960E+00
     15.221  0.5808E-01  0.9018E+00
     15.321  0.6193E-01  0.9081E+00
     15.422  0.7085E-01  0.9152E+00
     15.522  0.7790E-01  0.9230E+00
     15.622  0.7718E-01  0.9307E+00
     15.723  0.6902E-01  0.9377E+00
     15.823  0.5921E-01  0.9436E+00
     15.924  0.5197E-01  0.9488E+00
     16.024  0.4721E-01  0.9536E+00
     16.124  0.4308E-01  0.9579E+00
     16.225  0.3988E-01  0.9619E+00
     16.325  0.4141E-01  0.9661E+00
     16.426  0.4700E-01  0.9708E+00
     16.526  0.4991E-01  0.9758E+00
     16.626  0.4677E-01  0.9805E+00
     16.727  0.4012E-01  0.9845E+00
     16.827  0.3498E-01  0.9880E+00
     16.928  0.3454E-01  0.9915E+00
     17.028  0.3703E-01  0.9952E+00
     17.129  0.3919E-01  0.9992E+00
     17.229  0.4020E-01  0.1003E+01
     17.329  0.4073E-01  0.1007E+01
     17.430  0.4135E-01  0.1011E+01
     17.530  0.4258E-01  0.1016E+01
     17.631  0.4388E-01  0.1020E+01
     17.731  0.4302E-01  0.1024E+01
     17.831  0.3895E-01  0.1028E+01
     17.932  0.3350E-01  0.1032E+01
     18.032  0.2932E-01  0.1035E+01
     18.133  0.2670E-01  0.1037E+01
     18.233  0.2465E-01  0.1040E+01
     18.333  0.2372E-01  0.1042E+01
     18.434  0.2377E-01  0.1045E+01
     18.534  0.2281E-01  0.1047E+01
     18.635  0.2029E-01  0.1049E+01
     18.735  0.1763E-01  0.1051E+01
     18.836  0.1493E-01  0.1052E+01
     18.936  0.1107E-01  0.1053E+01
     19.036  0.6910E-02  0.1054E+01
     19.137  0.4925E-02  0.1054E+01
     19.237  0.6316E-02  0.1055E+01
     19.338  0.9163E-02  0.1056E+01
     19.438  0.9778E-02  0.1057E+01
     19.538  0.7591E-02  0.1058E+01
     19.639  0.6210E-02  0.1058E+01
     19.739  0.7880E-02  0.1059E+01
     19.840  0.1025E-01  0.1060E+01
     19.940  0.9935E-02  0.1061E+01
     20.040  0.6984E-02  0.1062E+01
     20.141  0.4110E-02  0.1062E+01
     20.241  0.2953E-02  0.1063E+01
     20.342  0.3074E-02  0.1063E+01
     20.442  0.3586E-02  0.1063E+01
     20.543  0.4029E-02  0.1064E+01
     20.643  0.4123E-02  0.1064E+01
     20.743  0.3961E-02  0.1065E+01
     20.844  0.3935E-02  0.1065E+01
     20.944  0.3889E-02  0.1065E+01
     21.045  0.3308E-02  0.1066E+01
     21.145  0.2274E-02  0.1066E+01
     21.245  0.1336E-02  0.1066E+01
     21.346  0.9612E-03  0.1066E+01
     21.446  0.1247E-02  0.1066E+01
     21.547  0.1664E-02  0.1066E+01
     21.647  0.1519E-02  0.1067E+01
     21.747  0.8777E-03  0.1067E+01
     21.848  0.3174E-03  0.1067E+01
     21.948  0.7162E-04  0.1067E+01
     22.049  0.1006E-04  0.1067E+01
     22.149  0.8763E-06  0.1067E+01
     22.250  0.4726E-07  0.1067E+01
     22.350  0.1573E-08  0.1067E+01
     22.450  0.3223E-10  0.1067E+01
     22.551  0.4053E-12  0.1067E+01
     22.651  0.3122E-14  0.1067E+01
     22.752  0.1433E-16  0.1067E+01
     22.852  0.0000E+00  0.1067E+01
     22.952  0.0000E+00  0.1067E+01
     23.053  0.0000E+00  0.1067E+01
     23.153  0.0000E+00  0.1067E+01
     23.254  0.0000E+00  0.1067E+01
     23.354  0.0000E+00  0.1067E+01
     23.454  0.0000E+00  0.1067E+01
     23.555  0.0000E+00  0.1067E+01
