    2    2   15    1
  0.1529437E+02  0.3691622E-09  0.3691622E-09  0.3691622E-09  0.5000000E-15
  1.000000000000000E-004
  CAR 
 unknown system                          
      8    159      8
 
  0.4166667E-01  0.4166667E-01  0.4166667E-01  0.4629630E-02
    1       -4.378292   1.000000
    2        4.974581   1.000000
    3        6.519240   1.000000
    4        7.524255   1.000000
    5       11.328145   0.000000
    6       15.486950   0.000000
    7       16.576320   0.000000
    8       17.350109   0.000000
 
  0.1250000E+00  0.4166667E-01  0.4166667E-01  0.9259259E-02
    1       -3.791098   1.000000
    2        4.646647   1.000000
    3        6.688076   1.000000
    4        8.656959   0.999485
    5       12.414597   0.000000
    6       13.959778   0.000000
    7       14.205226   0.000000
    8       16.045829   0.000000
 
  0.2083333E+00  0.4166667E-01  0.4166667E-01  0.9259259E-02
    1       -2.816730   1.000000
    2        4.642360   1.000000
    3        6.862152   1.000000
    4        9.687396   0.000031
    5       11.523674   0.000000
    6       12.143728   0.000000
    7       13.956136   0.000000
    8       14.801591   0.000000
 
  0.2916667E+00  0.4166667E-01  0.4166667E-01  0.9259259E-02
    1       -1.462792   1.000000
    2        4.979888   1.000000
    3        7.180668   1.000000
    4        7.575387   1.000000
    5       10.113091   0.000000
    6       12.706092   0.000000
    7       13.209002   0.000000
    8       14.124441   0.000000
 
  0.3750000E+00  0.4166667E-01  0.4166667E-01  0.9259259E-02
    1        0.258240   1.000000
    2        4.744127   1.000000
    3        5.768967   1.000000
    4        7.564451   1.000000
    5        8.726640   0.997360
    6       11.521247   0.000000
    7       13.693070   0.000000
    8       14.472493   0.000000
 
  0.4583333E+00  0.4166667E-01  0.4166667E-01  0.4629630E-02
    1        2.084763   1.000000
    2        2.633046   1.000000
    3        6.604375   1.000000
    4        6.849309   1.000000
    5        8.644627   0.999623
    6       10.776312   0.000000
    7       13.565881   0.000000
    8       14.648218   0.000000
 
 -0.4166667E-01  0.4166667E-01  0.4166667E-01  0.2314815E-02
    1       -4.574395   1.000000
    2        5.348967   1.000000
    3        6.134773   1.000000
    4        7.229409   1.000000
    5       10.907760   0.000000
    6       15.894200   0.000000
    7       17.412578   0.000000
    8       18.132872   0.000000
 
  0.1250000E+00  0.1250000E+00  0.4166667E-01  0.4629630E-02
    1       -2.898622   1.000000
    2        4.642257   1.000000
    3        7.743550   1.000000
    4        9.168863   0.367847
    5       11.594207   0.000000
    6       11.727280   0.000000
    7       13.967805   0.000000
    8       15.328411   0.000000
 
  0.2083333E+00  0.1250000E+00  0.4166667E-01  0.9259259E-02
    1       -1.625029   1.000000
    2        4.936379   1.000000
    3        7.956766   1.000000
    4        8.344556   1.000000
    5        9.705088   0.000018
    6       11.489166   0.000000
    7       13.693364   0.000000
    8       14.396998   0.000000
 
  0.2916667E+00  0.1250000E+00  0.4166667E-01  0.9259259E-02
    1        0.019434   1.000000
    2        5.319071   1.000000
    3        5.740707   1.000000
    4        7.111791   1.000000
    5        9.535119   0.001709
    6       12.058586   0.000000
    7       13.108807   0.000000
    8       14.083378   0.000000
 
  0.3750000E+00  0.1250000E+00  0.4166667E-01  0.9259259E-02
    1        1.968108   1.000000
    2        3.058532   1.000000
    3        5.698753   1.000000
    4        6.535563   1.000000
    5        9.548650   0.001251
    6       11.536371   0.000000
    7       12.939873   0.000000
    8       15.346940   0.000000
 
  0.4583333E+00  0.1250000E+00  0.4166667E-01  0.9259259E-02
    1        0.815325   1.000000
    2        4.226286   1.000000
    3        4.744765   1.000000
    4        7.543607   1.000000
    5        9.070123   0.640814
    6       12.193752   0.000000
    7       13.098049   0.000000
    8       15.338397   0.000000
 
 -0.4583333E+00  0.1250000E+00  0.4166667E-01  0.9259259E-02
    1       -0.976653   1.000000
    2        3.716715   1.000000
    3        7.029814   1.000000
    4        7.631546   1.000000
    5        9.897958   0.000000
    6       12.753823   0.000000
    7       13.357050   0.000000
    8       14.574853   0.000000
 
 -0.3750000E+00  0.1250000E+00  0.4166667E-01  0.9259259E-02
    1       -2.407636   1.000000
    2        3.284115   1.000000
    3        7.179464   1.000000
    4        9.694160   0.000025
    5       11.541533   0.000000
    6       11.767184   0.000000
    7       13.583655   0.000000
    8       15.662264   0.000000
 
 -0.2916667E+00  0.1250000E+00  0.4166667E-01  0.9259259E-02
    1       -3.461604   1.000000
    2        3.207007   1.000000
    3        6.978158   1.000000
    4        9.311519   0.089104
    5       12.845788   0.000000
    6       13.645352   0.000000
    7       14.111910   0.000000
    8       15.446635   0.000000
 
 -0.2083333E+00  0.1250000E+00  0.4166667E-01  0.4629630E-02
    1       -4.130360   1.000000
    2        3.484488   1.000000
    3        6.751039   1.000000
    4        8.283307   1.000000
    5       12.699296   0.000000
    6       14.021041   0.000000
    7       15.549615   0.000000
    8       17.119571   0.000000
 
 -0.1250000E+00  0.1250000E+00  0.4166667E-01  0.4629630E-02
    1       -4.408924   1.000000
    2        4.066502   1.000000
    3        6.147371   1.000000
    4        8.148831   1.000000
    5       11.854417   0.000000
    6       14.377549   0.000000
    7       16.564934   0.000000
    8       19.147674   0.000000
 
 -0.4166667E-01  0.1250000E+00  0.4166667E-01  0.4629630E-02
    1       -4.295612   1.000000
    2        4.663915   1.000000
    3        5.848052   1.000000
    4        8.395558   1.000000
    5       11.728242   0.000000
    6       14.467046   0.000000
    7       16.689093   0.000000
    8       17.504696   0.000000
 
  0.2083333E+00  0.2083333E+00  0.4166667E-01  0.4629630E-02
    1       -0.061208   1.000000
    2        5.471155   1.000000
    3        6.268525   1.000000
    4        6.327517   1.000000
    5       10.237739   0.000000
    6       12.443171   0.000000
    7       12.833818   0.000000
    8       13.099809   0.000000
 
  0.2916667E+00  0.2083333E+00  0.4166667E-01  0.9259259E-02
    1        1.838784   1.000000
    2        3.795158   1.000000
    3        4.693022   1.000000
    4        6.433754   1.000000
    5       10.286613   0.000000
    6       11.747781   0.000000
    7       13.127823   0.000000
    8       14.673754   0.000000
 
  0.3750000E+00  0.2083333E+00  0.4166667E-01  0.9259259E-02
    1        1.524393   1.000000
    2        3.343365   1.000000
    3        4.285435   1.000000
    4        7.502709   1.000000
    5        9.568751   0.000775
    6       11.508985   0.000000
    7       14.080889   0.000000
    8       15.902065   0.000000
 
  0.4583333E+00  0.2083333E+00  0.4166667E-01  0.9259259E-02
    1       -0.330761   1.000000
    2        2.509179   1.000000
    3        6.770201   1.000000
    4        8.044525   1.000000
    5        9.695668   0.000024
    6       11.769986   0.000000
    7       14.049465   0.000000
    8       15.605301   0.000000
 
 -0.4583333E+00  0.2083333E+00  0.4166667E-01  0.9259259E-02
    1       -1.836765   1.000000
    2        1.989576   1.000000
    3        7.673493   1.000000
    4        9.514956   0.002678
    5       10.923433   0.000000
    6       12.141057   0.000000
    7       12.811967   0.000000
    8       15.487993   0.000000
 
 -0.3750000E+00  0.2083333E+00  0.4166667E-01  0.9259259E-02
    1       -2.968980   1.000000
    2        1.834920   1.000000
    3        7.432291   1.000000
    4        9.901267   0.000000
    5       11.798173   0.000000
    6       13.175977   0.000000
    7       14.503093   0.000000
    8       15.006431   0.000000
 
 -0.2916667E+00  0.2083333E+00  0.4166667E-01  0.4629630E-02
    1       -3.718100   1.000000
    2        2.049535   1.000000
    3        7.137310   1.000000
    4        8.896362   0.944005
    5       12.616633   0.000000
    6       14.379453   0.000000
    7       14.561122   0.000000
    8       16.825183   0.000000
 
 -0.2083333E+00  0.2083333E+00  0.4166667E-01  0.4629630E-02
    1       -4.078694   1.000000
    2        2.616184   1.000000
    3        6.442174   1.000000
    4        8.828283   0.980807
    5       12.893664   0.000000
    6       13.513054   0.000000
    7       15.320205   0.000000
    8       19.229927   0.000000
 
 -0.1250000E+00  0.2083333E+00  0.4166667E-01  0.9259259E-02
    1       -4.048010   1.000000
    2        3.482879   1.000000
    3        5.782514   1.000000
    4        9.303771   0.098265
    5       12.914235   0.000000
    6       13.037095   0.000000
    7       16.078283   0.000000
    8       17.200204   0.000000
 
 -0.4166667E-01  0.2083333E+00  0.4166667E-01  0.4629630E-02
    1       -3.626359   1.000000
    2        4.342895   1.000000
    3        5.737877   1.000000
    4        9.785160   0.000001
    5       13.077454   0.000000
    6       13.097795   0.000000
    7       13.711304   0.000000
    8       15.903589   0.000000
 
  0.2916667E+00  0.2916667E+00  0.4166667E-01  0.4629630E-02
    1        2.343134   1.000000
    2        2.410624   1.000000
    3        4.183426   1.000000
    4        7.479581   1.000000
    5        9.974474   0.000000
    6       10.948200   0.000000
    7       15.300229   0.000000
    8       15.393468   0.000000
 
  0.3750000E+00  0.2916667E+00  0.4166667E-01  0.9259259E-02
    1        0.470153   1.000000
    2        1.420806   1.000000
    3        6.631795   1.000000
    4        8.409267   1.000000
    5        9.600600   0.000349
    6       11.091148   0.000000
    7       14.682496   0.000000
    8       15.847641   0.000000
 
  0.4583333E+00  0.2916667E+00  0.4166667E-01  0.9259259E-02
    1       -1.106600   1.000000
    2        0.814075   1.000000
    3        8.287309   1.000000
    4        9.308748   0.092305
    5       10.198542   0.000000
    6       12.225678   0.000000
    7       12.882966   0.000000
    8       14.658022   0.000000
 
 -0.4583333E+00  0.2916667E+00  0.4166667E-01  0.9259259E-02
    1       -2.314642   1.000000
    2        0.581490   1.000000
    3        8.039669   1.000000
    4       10.451525   0.000000
    5       10.793943   0.000000
    6       12.688744   0.000000
    7       14.174932   0.000000
    8       14.265231   0.000000
 
 -0.3750000E+00  0.2916667E+00  0.4166667E-01  0.4629630E-02
    1       -3.142915   1.000000
    2        0.724671   1.000000
    3        7.676525   1.000000
    4        9.540815   0.001500
    5       11.348288   0.000000
    6       13.216107   0.000000
    7       16.180901   0.000000
    8       16.586476   0.000000
 
 -0.2916667E+00  0.2916667E+00  0.4166667E-01  0.4629630E-02
    1       -3.584606   1.000000
    2        1.237337   1.000000
    3        6.905876   1.000000
    4        9.453370   0.009404
    5       11.536949   0.000000
    6       14.089385   0.000000
    7       15.549778   0.000000
    8       18.990430   0.000000
 
 -0.2083333E+00  0.2916667E+00  0.4166667E-01  0.9259259E-02
    1       -3.636230   1.000000
    2        2.101962   1.000000
    3        6.118241   1.000000
    4        9.989747   0.000000
    5       11.625366   0.000000
    6       14.645144   0.000000
    7       15.268791   0.000000
    8       16.650250   0.000000
 
 -0.1250000E+00  0.2916667E+00  0.4166667E-01  0.9259259E-02
    1       -3.297700   1.000000
    2        3.257268   1.000000
    3        5.662233   1.000000
    4       10.587808   0.000000
    5       11.864665   0.000000
    6       13.230394   0.000000
    7       14.426412   0.000000
    8       15.823433   0.000000
 
 -0.4166667E-01  0.2916667E+00  0.4166667E-01  0.4629630E-02
    1       -2.571436   1.000000
    2        4.391227   1.000000
    3        5.893225   1.000000
    4        9.651385   0.000089
    5       11.866825   0.000000
    6       12.371969   0.000000
    7       14.145232   0.000000
    8       14.355061   0.000000
 
  0.3750000E+00  0.3750000E+00  0.4166667E-01  0.4629630E-02
    1       -0.222989   1.000000
    2       -0.218297   1.000000
    3        8.904529   0.937185
    4        8.956081   0.878401
    5        9.807681   0.000001
    6       12.118513   0.000000
    7       13.358407   0.000000
    8       14.058925   0.000000
 
  0.4583333E+00  0.3750000E+00  0.4166667E-01  0.9259259E-02
    1       -1.501593   1.000000
    2       -0.534119   1.000000
    3        8.789123   0.990553
    4        9.673974   0.000046
    5       11.232456   0.000000
    6       12.117937   0.000000
    7       13.746569   0.000000
    8       14.104237   0.000000
 
 -0.4583333E+00  0.3750000E+00  0.4166667E-01  0.4629630E-02
    1       -2.407010   1.000000
    2       -0.467537   1.000000
    3        8.373539   1.000000
    4       10.192172   0.000000
    5       10.307767   0.000000
    6       12.130909   0.000000
    7       16.413017   0.000000
    8       16.431729   0.000000
 
 -0.3750000E+00  0.3750000E+00  0.4166667E-01  0.4629630E-02
    1       -2.928479   1.000000
    2       -0.022873   1.000000
    3        7.526301   1.000000
    4       10.144304   0.000000
    5       10.314446   0.000000
    6       12.933510   0.000000
    7       17.674402   0.000000
    8       18.842968   0.000000
 
 -0.2916667E+00  0.3750000E+00  0.4166667E-01  0.9259259E-02
    1       -3.061690   1.000000
    2        0.793047   1.000000
    3        6.649171   1.000000
    4       10.341298   0.000000
    5       10.664094   0.000000
    6       14.174430   0.000000
    7       16.000889   0.000000
    8       16.850255   0.000000
 
 -0.2083333E+00  0.3750000E+00  0.4166667E-01  0.9259259E-02
    1       -2.806190   1.000000
    2        1.955759   1.000000
    3        6.045470   1.000000
    4       10.509326   0.000000
    5       11.185111   0.000000
    6       12.993063   0.000000
    7       15.194364   0.000000
    8       16.441723   0.000000
 
 -0.1250000E+00  0.3750000E+00  0.4166667E-01  0.9259259E-02
    1       -2.163628   1.000000
    2        3.398748   1.000000
    3        5.847708   1.000000
    4        9.297550   0.106104
    5       10.991351   0.000000
    6       13.025148   0.000000
    7       13.740668   0.000000
    8       15.500387   0.000000
 
 -0.4166667E-01  0.3750000E+00  0.4166667E-01  0.4629630E-02
    1       -1.139259   1.000000
    2        4.784586   1.000000
    3        6.344169   1.000000
    4        6.975969   1.000000
    5       10.407571   0.000000
    6       12.974601   0.000000
    7       13.069377   0.000000
    8       14.260747   0.000000
 
  0.4583333E+00  0.4583333E+00  0.4166667E-01  0.2314815E-02
    1       -1.513643   1.000000
    2       -1.513641   1.000000
    3        9.215738   0.251741
    4        9.215744   0.251728
    5       11.149656   0.000000
    6       11.149662   0.000000
    7       16.385878   0.000000
    8       16.385931   0.000000
 
 -0.4583333E+00  0.4583333E+00  0.4166667E-01  0.4629630E-02
    1       -2.113095   1.000000
    2       -1.142523   1.000000
    3        8.304002   1.000000
    4        9.237356   0.205572
    5       10.954429   0.000000
    6       11.884196   0.000000
    7       18.676868   0.000000
    8       18.732898   0.000000
 
 -0.3750000E+00  0.4583333E+00  0.4166667E-01  0.9259259E-02
    1       -2.326914   1.000000
    2       -0.392468   1.000000
    3        7.343155   1.000000
    4        9.197681   0.294139
    5       11.393928   0.000000
    6       13.180277   0.000000
    7       15.852585   0.000000
    8       17.224035   0.000000
 
 -0.2916667E+00  0.4583333E+00  0.4166667E-01  0.9259259E-02
    1       -2.153842   1.000000
    2        0.724681   1.000000
    3        6.639508   1.000000
    4        9.366976   0.041067
    5       11.421675   0.000000
    6       13.100805   0.000000
    7       15.067424   0.000000
    8       15.514269   0.000000
 
 -0.2083333E+00  0.4583333E+00  0.4166667E-01  0.9259259E-02
    1       -1.595258   1.000000
    2        2.182161   1.000000
    3        6.281794   1.000000
    4        8.952858   0.882943
    5        9.907267   0.000000
    6       13.186260   0.000000
    7       13.921126   0.000000
    8       16.527384   0.000000
 
 -0.1250000E+00  0.4583333E+00  0.4166667E-01  0.9259259E-02
    1       -0.655896   1.000000
    2        3.894159   1.000000
    3        6.279832   1.000000
    4        6.602749   1.000000
    5       10.057428   0.000000
    6       12.115645   0.000000
    7       13.809829   0.000000
    8       15.303838   0.000000
 
 -0.4166667E-01  0.4583333E+00  0.4166667E-01  0.4629630E-02
    1        0.654144   1.000000
    2        4.219600   1.000000
    3        5.667445   1.000000
    4        7.044842   1.000000
    5        8.970707   0.856247
    6       11.518162   0.000000
    7       12.650794   0.000000
    8       15.543789   0.000000
 
 -0.4583333E+00 -0.4583333E+00  0.4166667E-01  0.4629630E-02
    1       -1.436243   1.000000
    2       -1.434898   1.000000
    3        8.185869   1.000000
    4        8.207870   1.000000
    5       12.138347   0.000000
    6       12.337384   0.000000
    7       15.782272   0.000000
    8       17.207625   0.000000
 
 -0.3750000E+00 -0.4583333E+00  0.4166667E-01  0.9259259E-02
    1       -1.344136   1.000000
    2       -0.381181   1.000000
    3        7.404622   1.000000
    4        8.316651   1.000000
    5       11.498498   0.000000
    6       13.505562   0.000000
    7       14.700758   0.000000
    8       14.970704   0.000000
 
 -0.2916667E+00 -0.4583333E+00  0.4166667E-01  0.9259259E-02
    1       -0.868909   1.000000
    2        1.033809   1.000000
    3        6.929833   1.000000
    4        8.526261   0.999987
    5        9.077171   0.622023
    6       13.018901   0.000000
    7       14.582617   0.000000
    8       16.362262   0.000000
 
 -0.2083333E+00 -0.4583333E+00  0.4166667E-01  0.9259259E-02
    1       -0.014195   1.000000
    2        2.775526   1.000000
    3        6.169975   1.000000
    4        6.896187   1.000000
    5        9.289124   0.117429
    6       11.596772   0.000000
    7       14.933428   0.000000
    8       16.153784   0.000000
 
 -0.1250000E+00 -0.4583333E+00  0.4166667E-01  0.9259259E-02
    1        1.203653   1.000000
    2        3.816843   1.000000
    3        4.887353   1.000000
    4        7.107235   1.000000
    5        9.045934   0.702526
    6       11.462376   0.000000
    7       12.413486   0.000000
    8       16.548827   0.000000
 
 -0.4166667E-01 -0.4583333E+00  0.4166667E-01  0.4629630E-02
    1        1.809243   1.000000
    2        2.905194   1.000000
    3        6.653301   1.000000
    4        7.740056   1.000000
    5        7.849601   1.000000
    6       10.625077   0.000000
    7       12.738710   0.000000
    8       15.447855   0.000000
 
 -0.3750000E+00 -0.3750000E+00  0.4166667E-01  0.4629630E-02
    1        0.005975   1.000000
    2        0.015721   1.000000
    3        7.714860   1.000000
    4        7.727654   1.000000
    5        8.883618   0.953466
    6       12.956299   0.000000
    7       15.083058   0.000000
    8       15.878753   0.000000
 
 -0.2916667E+00 -0.3750000E+00  0.4166667E-01  0.9259259E-02
    1        0.779082   1.000000
    2        1.716097   1.000000
    3        6.035031   1.000000
    4        7.550650   1.000000
    5        8.431319   0.999999
    6       11.370639   0.000000
    7       15.972966   0.000000
    8       16.764037   0.000000
 
 -0.2083333E+00 -0.3750000E+00  0.4166667E-01  0.9259259E-02
    1        1.897514   1.000000
    2        3.447096   1.000000
    3        4.003130   1.000000
    4        7.546049   1.000000
    5        8.841331   0.976060
    6       10.708025   0.000000
    7       13.636199   0.000000
    8       16.465318   0.000000
 
 -0.1250000E+00 -0.3750000E+00  0.4166667E-01  0.9259259E-02
    1        1.524121   1.000000
    2        3.490665   1.000000
    3        6.032175   1.000000
    4        7.463591   1.000000
    5        8.594230   0.999903
    6       11.087037   0.000000
    7       11.833511   0.000000
    8       15.581182   0.000000
 
 -0.4166667E-01 -0.3750000E+00  0.4166667E-01  0.4629630E-02
    1       -0.141778   1.000000
    2        5.291060   1.000000
    3        6.645471   1.000000
    4        7.747871   1.000000
    5        8.413056   1.000000
    6       11.069408   0.000000
    7       13.062389   0.000000
    8       14.518264   0.000000
 
 -0.2916667E+00 -0.2916667E+00  0.4166667E-01  0.4629630E-02
    1        2.632662   1.000000
    2        2.790960   1.000000
    3        3.721427   1.000000
    4        7.862383   1.000000
    5        8.627772   0.999757
    6       10.409580   0.000000
    7       14.763819   0.000000
    8       15.505236   0.000000
 
 -0.2083333E+00 -0.2916667E+00  0.4166667E-01  0.9259259E-02
    1        1.374151   1.000000
    2        4.237606   1.000000
    3        5.112311   1.000000
    4        7.439559   1.000000
    5        9.174084   0.354024
    6       10.708355   0.000000
    7       12.559193   0.000000
    8       14.239740   0.000000
 
 -0.1250000E+00 -0.2916667E+00  0.4166667E-01  0.9259259E-02
    1       -0.382698   1.000000
    2        5.951725   1.000000
    3        6.847564   1.000000
    4        7.493436   1.000000
    5        8.921639   0.920815
    6       11.352433   0.000000
    7       12.060721   0.000000
    8       13.502794   0.000000
 
 -0.4166667E-01 -0.2916667E+00  0.4166667E-01  0.4629630E-02
    1       -1.787937   1.000000
    2        6.019850   1.000000
    3        7.301594   1.000000
    4        8.044799   1.000000
    5       10.116892   0.000000
    6       12.035650   0.000000
    7       12.571141   0.000000
    8       14.369901   0.000000
 
 -0.2083333E+00 -0.2083333E+00  0.4166667E-01  0.4629630E-02
    1       -0.463696   1.000000
    2        6.656087   1.000000
    3        6.741995   1.000000
    4        6.887912   1.000000
    5        9.545018   0.001362
    6       11.434455   0.000000
    7       12.242538   0.000000
    8       12.313510   0.000000
 
 -0.1250000E+00 -0.2083333E+00  0.4166667E-01  0.9259259E-02
    1       -1.950905   1.000000
    2        6.313903   1.000000
    3        8.020400   1.000000
    4        8.572963   0.999947
    5        9.781269   0.000002
    6       11.045126   0.000000
    7       12.821958   0.000000
    8       13.597824   0.000000
 
 -0.4166667E-01 -0.2083333E+00  0.4166667E-01  0.4629630E-02
    1       -3.062842   1.000000
    2        5.797219   1.000000
    3        6.919778   1.000000
    4        9.194998   0.300709
    5       11.696458   0.000000
    6       12.418103   0.000000
    7       12.852775   0.000000
    8       15.023092   0.000000
 
 -0.1250000E+00 -0.1250000E+00  0.4166667E-01  0.4629630E-02
    1       -3.144991   1.000000
    2        6.095750   1.000000
    3        7.535817   1.000000
    4        8.504922   0.999993
    5       11.953651   0.000000
    6       12.172576   0.000000
    7       12.645387   0.000000
    8       15.002797   0.000000
 
 -0.4166667E-01 -0.1250000E+00  0.4166667E-01  0.4629630E-02
    1       -3.956041   1.000000
    2        5.916698   1.000000
    3        6.672445   1.000000
    4        7.759319   1.000000
    5       11.528957   0.000000
    6       14.470327   0.000000
    7       14.679822   0.000000
    8       16.683211   0.000000
 
 -0.4166667E-01 -0.4166667E-01  0.4166667E-01  0.1157407E-02
    1       -4.461038   1.000000
    2        6.354271   1.000000
    3        6.441790   1.000000
    4        6.441816   1.000000
    5       10.818058   0.000000
    6       16.682822   0.000000
    7       17.102006   0.000000
    8       17.364386   0.000000
 
  0.1250000E+00  0.1250000E+00  0.1250000E+00  0.4629630E-02
    1       -2.489035   1.000000
    2        3.229894   1.000000
    3        8.081607   1.000000
    4        9.602400   0.000333
    5       11.249440   0.000000
    6       11.345233   0.000000
    7       14.434104   0.000000
    8       15.127428   0.000000
 
  0.2083333E+00  0.1250000E+00  0.1250000E+00  0.9259259E-02
    1       -1.137591   1.000000
    2        3.599505   1.000000
    3        7.698112   1.000000
    4        8.248604   1.000000
    5        9.830936   0.000000
    6       11.977454   0.000000
    7       13.987154   0.000000
    8       14.853386   0.000000
 
  0.2916667E+00  0.1250000E+00  0.1250000E+00  0.9259259E-02
    1        0.580109   1.000000
    2        4.278453   1.000000
    3        5.173686   1.000000
    4        6.821932   1.000000
    5       10.161414   0.000000
    6       13.017376   0.000000
    7       13.915847   0.000000
    8       14.160950   0.000000
 
  0.3750000E+00  0.1250000E+00  0.1250000E+00  0.4629630E-02
    1        2.404673   1.000000
    2        2.932527   1.000000
    3        5.313380   1.000000
    4        5.575279   1.000000
    5       10.600352   0.000000
    6       12.382501   0.000000
    7       13.915305   0.000000
    8       14.547254   0.000000
 
 -0.1250000E+00  0.1250000E+00  0.1250000E+00  0.2314815E-02
    1       -4.243884   1.000000
    2        3.757807   1.000000
    3        5.177317   1.000000
    4        9.367443   0.040777
    5       12.504082   0.000000
    6       12.937105   0.000000
    7       17.688988   0.000000
    8       18.246181   0.000000
 
  0.2083333E+00  0.2083333E+00  0.1250000E+00  0.4629630E-02
    1        0.500837   1.000000
    2        4.237405   1.000000
    3        5.925118   1.000000
    4        5.964575   1.000000
    5       10.968374   0.000000
    6       13.042691   0.000000
    7       13.988965   0.000000
    8       14.096332   0.000000
 
  0.2916667E+00  0.2083333E+00  0.1250000E+00  0.9259259E-02
    1        2.436344   1.000000
    2        3.505265   1.000000
    3        4.390933   1.000000
    4        5.348177   1.000000
    5       11.450455   0.000000
    6       13.064982   0.000000
    7       13.838547   0.000000
    8       14.796237   0.000000
 
  0.3750000E+00  0.2083333E+00  0.1250000E+00  0.9259259E-02
    1        1.295734   1.000000
    2        3.165256   1.000000
    3        4.925329   1.000000
    4        6.636964   1.000000
    5       10.856292   0.000000
    6       12.825301   0.000000
    7       14.184189   0.000000
    8       15.085752   0.000000
 
  0.4583333E+00  0.2083333E+00  0.1250000E+00  0.9259259E-02
    1       -0.490668   1.000000
    2        2.368787   1.000000
    3        7.464299   1.000000
    4        8.147444   1.000000
    5       10.252205   0.000000
    6       12.481906   0.000000
    7       13.059107   0.000000
    8       14.826068   0.000000
 
 -0.4583333E+00  0.2083333E+00  0.1250000E+00  0.4629630E-02
    1       -1.917277   1.000000
    2        1.921532   1.000000
    3        8.522172   0.999989
    4        9.811736   0.000001
    5       11.032356   0.000000
    6       11.254389   0.000000
    7       13.301981   0.000000
    8       14.386126   0.000000
 
 -0.2083333E+00  0.2083333E+00  0.1250000E+00  0.4629630E-02
    1       -3.914353   1.000000
    2        2.666594   1.000000
    3        5.099338   1.000000
    4       10.322020   0.000000
    5       11.466418   0.000000
    6       13.904451   0.000000
    7       16.789335   0.000000
    8       18.670563   0.000000
 
 -0.1250000E+00  0.2083333E+00  0.1250000E+00  0.4629630E-02
    1       -3.801117   1.000000
    2        3.224215   1.000000
    3        4.772409   1.000000
    4       10.615236   0.000000
    5       11.561858   0.000000
    6       13.758567   0.000000
    7       15.819778   0.000000
    8       17.921280   0.000000
 
  0.2916667E+00  0.2916667E+00  0.1250000E+00  0.4629630E-02
    1        2.147050   1.000000
    2        2.174978   1.000000
    3        4.845349   1.000000
    4        6.573917   1.000000
    5       11.389203   0.000000
    6       12.205483   0.000000
    7       14.608015   0.000000
    8       15.622563   0.000000
 
  0.3750000E+00  0.2916667E+00  0.1250000E+00  0.9259259E-02
    1        0.314755   1.000000
    2        1.270117   1.000000
    3        7.338936   1.000000
    4        8.075659   1.000000
    5       10.872945   0.000000
    6       11.935603   0.000000
    7       13.296675   0.000000
    8       14.252078   0.000000
 
  0.4583333E+00  0.2916667E+00  0.1250000E+00  0.4629630E-02
    1       -1.186301   1.000000
    2        0.739945   1.000000
    3        9.008422   0.787254
    4        9.726767   0.000009
    5       11.003572   0.000000
    6       11.400284   0.000000
    7       12.559561   0.000000
    8       13.509111   0.000000
 
 -0.2916667E+00  0.2916667E+00  0.1250000E+00  0.4629630E-02
    1       -3.421300   1.000000
    2        1.359405   1.000000
    3        5.487174   1.000000
    4       10.107328   0.000000
    5       11.061759   0.000000
    6       15.635154   0.000000
    7       15.827107   0.000000
    8       18.619666   0.000000
 
 -0.2083333E+00  0.2916667E+00  0.1250000E+00  0.9259259E-02
    1       -3.390882   1.000000
    2        2.217663   1.000000
    3        4.723011   1.000000
    4       10.144516   0.000000
    5       11.584104   0.000000
    6       15.085933   0.000000
    7       15.561504   0.000000
    8       17.554102   0.000000
 
 -0.1250000E+00  0.2916667E+00  0.1250000E+00  0.4629630E-02
    1       -2.970623   1.000000
    2        3.062598   1.000000
    3        4.684178   1.000000
    4       10.424910   0.000000
    5       11.426383   0.000000
    6       13.373367   0.000000
    7       15.309737   0.000000
    8       16.239018   0.000000
 