    2    2   15    1
  0.1529437E+02  0.3691622E-09  0.3691622E-09  0.3691622E-09  0.5000000E-15
  1.000000000000000E-004
  CAR 
 unknown system                          
      8    159      8
 
  0.4166667E-01  0.4166667E-01  0.4166667E-01  0.4629630E-02
    1       -4.377922   1.000000
    2        4.974931   1.000000
    3        6.519565   1.000000
    4        7.524623   1.000000
    5       11.328664   0.000000
    6       15.487338   0.000000
    7       16.576670   0.000000
    8       17.350447   0.000000
 
  0.1250000E+00  0.4166667E-01  0.4166667E-01  0.9259259E-02
    1       -3.790728   1.000000
    2        4.646999   1.000000
    3        6.688419   1.000000
    4        8.657328   0.999485
    5       12.415095   0.000000
    6       13.960185   0.000000
    7       14.205585   0.000000
    8       16.046166   0.000000
 
  0.2083333E+00  0.4166667E-01  0.4166667E-01  0.9259259E-02
    1       -2.816358   1.000000
    2        4.642714   1.000000
    3        6.862514   1.000000
    4        9.687762   0.000031
    5       11.524044   0.000000
    6       12.144126   0.000000
    7       13.956603   0.000000
    8       14.801937   0.000000
 
  0.2916667E+00  0.4166667E-01  0.4166667E-01  0.9259259E-02
    1       -1.462420   1.000000
    2        4.980245   1.000000
    3        7.181047   1.000000
    4        7.575755   1.000000
    5       10.113452   0.000000
    6       12.706496   0.000000
    7       13.209395   0.000000
    8       14.124780   0.000000
 
  0.3750000E+00  0.4166667E-01  0.4166667E-01  0.9259259E-02
    1        0.258615   1.000000
    2        4.744508   1.000000
    3        5.769316   1.000000
    4        7.564828   1.000000
    5        8.727006   0.997360
    6       11.521639   0.000000
    7       13.693408   0.000000
    8       14.472927   0.000000
 
  0.4583333E+00  0.4166667E-01  0.4166667E-01  0.4629630E-02
    1        2.085154   1.000000
    2        2.633408   1.000000
    3        6.604714   1.000000
    4        6.849691   1.000000
    5        8.645009   0.999623
    6       10.776700   0.000000
    7       13.566217   0.000000
    8       14.648664   0.000000
 
 -0.4166667E-01  0.4166667E-01  0.4166667E-01  0.2314815E-02
    1       -4.574024   1.000000
    2        5.349316   1.000000
    3        6.135107   1.000000
    4        7.229759   1.000000
    5       10.908290   0.000000
    6       15.894577   0.000000
    7       17.412876   0.000000
    8       18.133298   0.000000
 
  0.1250000E+00  0.1250000E+00  0.4166667E-01  0.4629630E-02
    1       -2.898251   1.000000
    2        4.642614   1.000000
    3        7.743887   1.000000
    4        9.169247   0.367810
    5       11.594562   0.000000
    6       11.727703   0.000000
    7       13.968276   0.000000
    8       15.328756   0.000000
 
  0.2083333E+00  0.1250000E+00  0.4166667E-01  0.9259259E-02
    1       -1.624656   1.000000
    2        4.936740   1.000000
    3        7.957135   1.000000
    4        8.344919   1.000000
    5        9.705437   0.000018
    6       11.489588   0.000000
    7       13.693750   0.000000
    8       14.397354   0.000000
 
  0.2916667E+00  0.1250000E+00  0.4166667E-01  0.9259259E-02
    1        0.019808   1.000000
    2        5.319455   1.000000
    3        5.741059   1.000000
    4        7.112157   1.000000
    5        9.535485   0.001709
    6       12.058973   0.000000
    7       13.109212   0.000000
    8       14.083721   0.000000
 
  0.3750000E+00  0.1250000E+00  0.4166667E-01  0.9259259E-02
    1        1.968492   1.000000
    2        3.058901   1.000000
    3        5.699119   1.000000
    4        6.535924   1.000000
    5        9.549030   0.001251
    6       11.536752   0.000000
    7       12.940241   0.000000
    8       15.347337   0.000000
 
  0.4583333E+00  0.1250000E+00  0.4166667E-01  0.9259259E-02
    1        0.815700   1.000000
    2        4.226671   1.000000
    3        4.745118   1.000000
    4        7.543976   1.000000
    5        9.070497   0.640806
    6       12.194136   0.000000
    7       13.098412   0.000000
    8       15.338806   0.000000
 
 -0.4583333E+00  0.1250000E+00  0.4166667E-01  0.9259259E-02
    1       -0.976281   1.000000
    2        3.717078   1.000000
    3        7.030194   1.000000
    4        7.631913   1.000000
    5        9.898326   0.000000
    6       12.754192   0.000000
    7       13.357453   0.000000
    8       14.575218   0.000000
 
 -0.3750000E+00  0.1250000E+00  0.4166667E-01  0.9259259E-02
    1       -2.407265   1.000000
    2        3.284475   1.000000
    3        7.179827   1.000000
    4        9.694535   0.000025
    5       11.541891   0.000000
    6       11.767597   0.000000
    7       13.584025   0.000000
    8       15.662645   0.000000
 
 -0.2916667E+00  0.1250000E+00  0.4166667E-01  0.9259259E-02
    1       -3.461234   1.000000
    2        3.207365   1.000000
    3        6.978504   1.000000
    4        9.311911   0.089080
    5       12.846185   0.000000
    6       13.645726   0.000000
    7       14.112350   0.000000
    8       15.447013   0.000000
 
 -0.2083333E+00  0.1250000E+00  0.4166667E-01  0.4629630E-02
    1       -4.129990   1.000000
    2        3.484844   1.000000
    3        6.751366   1.000000
    4        8.283706   1.000000
    5       12.699776   0.000000
    6       14.021407   0.000000
    7       15.549987   0.000000
    8       17.119934   0.000000
 
 -0.1250000E+00  0.1250000E+00  0.4166667E-01  0.4629630E-02
    1       -4.408553   1.000000
    2        4.066854   1.000000
    3        6.147712   1.000000
    4        8.149201   1.000000
    5       11.854916   0.000000
    6       14.377915   0.000000
    7       16.565287   0.000000
    8       19.147989   0.000000
 
 -0.4166667E-01  0.1250000E+00  0.4166667E-01  0.4629630E-02
    1       -4.295242   1.000000
    2        4.664261   1.000000
    3        5.848406   1.000000
    4        8.395910   1.000000
    5       11.728752   0.000000
    6       14.467419   0.000000
    7       16.689481   0.000000
    8       17.504993   0.000000
 
  0.2083333E+00  0.2083333E+00  0.4166667E-01  0.4629630E-02
    1       -0.060833   1.000000
    2        5.471531   1.000000
    3        6.268893   1.000000
    4        6.327878   1.000000
    5       10.238091   0.000000
    6       12.443598   0.000000
    7       12.834215   0.000000
    8       13.100148   0.000000
 
  0.2916667E+00  0.2083333E+00  0.4166667E-01  0.9259259E-02
    1        1.839166   1.000000
    2        3.795529   1.000000
    3        4.693390   1.000000
    4        6.434116   1.000000
    5       10.286989   0.000000
    6       11.748168   0.000000
    7       13.128178   0.000000
    8       14.674141   0.000000
 
  0.3750000E+00  0.2083333E+00  0.4166667E-01  0.9259259E-02
    1        1.524768   1.000000
    2        3.343741   1.000000
    3        4.285801   1.000000
    4        7.503078   1.000000
    5        9.569126   0.000775
    6       11.509364   0.000000
    7       14.081256   0.000000
    8       15.902439   0.000000
 
  0.4583333E+00  0.2083333E+00  0.4166667E-01  0.9259259E-02
    1       -0.330390   1.000000
    2        2.509546   1.000000
    3        6.770580   1.000000
    4        8.044894   1.000000
    5        9.696037   0.000024
    6       11.770358   0.000000
    7       14.049867   0.000000
    8       15.605642   0.000000
 
 -0.4583333E+00  0.2083333E+00  0.4166667E-01  0.9259259E-02
    1       -1.836395   1.000000
    2        1.989940   1.000000
    3        7.673858   1.000000
    4        9.515333   0.002678
    5       10.923802   0.000000
    6       12.141441   0.000000
    7       12.812358   0.000000
    8       15.488355   0.000000
 
 -0.3750000E+00  0.2083333E+00  0.4166667E-01  0.9259259E-02
    1       -2.968610   1.000000
    2        1.835282   1.000000
    3        7.432638   1.000000
    4        9.901671   0.000000
    5       11.798546   0.000000
    6       13.176354   0.000000
    7       14.503480   0.000000
    8       15.006818   0.000000
 
 -0.2916667E+00  0.2083333E+00  0.4166667E-01  0.4629630E-02
    1       -3.717731   1.000000
    2        2.049895   1.000000
    3        7.137639   1.000000
    4        8.896781   0.943966
    5       12.616988   0.000000
    6       14.379846   0.000000
    7       14.561574   0.000000
    8       16.825560   0.000000
 
 -0.2083333E+00  0.2083333E+00  0.4166667E-01  0.4629630E-02
    1       -4.078324   1.000000
    2        2.616542   1.000000
    3        6.442517   1.000000
    4        8.828679   0.980798
    5       12.894024   0.000000
    6       13.513521   0.000000
    7       15.320587   0.000000
    8       19.223516   0.000000
 
 -0.1250000E+00  0.2083333E+00  0.4166667E-01  0.9259259E-02
    1       -4.047640   1.000000
    2        3.483231   1.000000
    3        5.782874   1.000000
    4        9.304139   0.098268
    5       12.914699   0.000000
    6       13.037483   0.000000
    7       16.078670   0.000000
    8       17.200538   0.000000
 
 -0.4166667E-01  0.2083333E+00  0.4166667E-01  0.4629630E-02
    1       -3.625988   1.000000
    2        4.343240   1.000000
    3        5.738248   1.000000
    4        9.785517   0.000001
    5       13.077944   0.000000
    6       13.098185   0.000000
    7       13.711669   0.000000
    8       15.903954   0.000000
 
  0.2916667E+00  0.2916667E+00  0.4166667E-01  0.4629630E-02
    1        2.343510   1.000000
    2        2.410996   1.000000
    3        4.183794   1.000000
    4        7.479950   1.000000
    5        9.974846   0.000000
    6       10.948583   0.000000
    7       15.300549   0.000000
    8       15.393860   0.000000
 
  0.3750000E+00  0.2916667E+00  0.4166667E-01  0.9259259E-02
    1        0.470524   1.000000
    2        1.421176   1.000000
    3        6.632173   1.000000
    4        8.409638   1.000000
    5        9.600967   0.000349
    6       11.091522   0.000000
    7       14.682888   0.000000
    8       15.848003   0.000000
 
  0.4583333E+00  0.2916667E+00  0.4166667E-01  0.9259259E-02
    1       -1.106231   1.000000
    2        0.814442   1.000000
    3        8.287677   1.000000
    4        9.309127   0.092295
    5       10.198905   0.000000
    6       12.226037   0.000000
    7       12.883385   0.000000
    8       14.658411   0.000000
 
 -0.4583333E+00  0.2916667E+00  0.4166667E-01  0.9259259E-02
    1       -2.314272   1.000000
    2        0.581855   1.000000
    3        8.040018   1.000000
    4       10.451915   0.000000
    5       10.794321   0.000000
    6       12.689130   0.000000
    7       14.175318   0.000000
    8       14.265629   0.000000
 
 -0.3750000E+00  0.2916667E+00  0.4166667E-01  0.4629630E-02
    1       -3.142546   1.000000
    2        0.725035   1.000000
    3        7.676856   1.000000
    4        9.541243   0.001498
    5       11.348634   0.000000
    6       13.216517   0.000000
    7       16.181319   0.000000
    8       16.586862   0.000000
 
 -0.2916667E+00  0.2916667E+00  0.4166667E-01  0.4629630E-02
    1       -3.584237   1.000000
    2        1.237699   1.000000
    3        6.906220   1.000000
    4        9.453780   0.009397
    5       11.537304   0.000000
    6       14.089783   0.000000
    7       15.550222   0.000000
    8       18.989987   0.000000
 
 -0.2083333E+00  0.2916667E+00  0.4166667E-01  0.9259259E-02
    1       -3.635860   1.000000
    2        2.102321   1.000000
    3        6.118602   1.000000
    4        9.990135   0.000000
    5       11.625732   0.000000
    6       14.645593   0.000000
    7       15.269184   0.000000
    8       16.650620   0.000000
 
 -0.1250000E+00  0.2916667E+00  0.4166667E-01  0.9259259E-02
    1       -3.297329   1.000000
    2        3.257621   1.000000
    3        5.662606   1.000000
    4       10.588176   0.000000
    5       11.865041   0.000000
    6       13.230776   0.000000
    7       14.426871   0.000000
    8       15.823813   0.000000
 
 -0.4166667E-01  0.2916667E+00  0.4166667E-01  0.4629630E-02
    1       -2.571065   1.000000
    2        4.391572   1.000000
    3        5.893608   1.000000
    4        9.651758   0.000089
    5       11.867183   0.000000
    6       12.372354   0.000000
    7       14.145590   0.000000
    8       14.355513   0.000000
 
  0.3750000E+00  0.3750000E+00  0.4166667E-01  0.4629630E-02
    1       -0.222621   1.000000
    2       -0.217928   1.000000
    3        8.904909   0.937177
    4        8.956450   0.878403
    5        9.808042   0.000001
    6       12.118880   0.000000
    7       13.358814   0.000000
    8       14.059328   0.000000
 
  0.4583333E+00  0.3750000E+00  0.4166667E-01  0.9259259E-02
    1       -1.501225   1.000000
    2       -0.533751   1.000000
    3        8.789474   0.990556
    4        9.674329   0.000046
    5       11.232860   0.000000
    6       12.118335   0.000000
    7       13.746966   0.000000
    8       14.104627   0.000000
 
 -0.4583333E+00  0.3750000E+00  0.4166667E-01  0.4629630E-02
    1       -2.406641   1.000000
    2       -0.467172   1.000000
    3        8.373873   1.000000
    4       10.192528   0.000000
    5       10.308180   0.000000
    6       12.131329   0.000000
    7       16.413414   0.000000
    8       16.432120   0.000000
 
 -0.3750000E+00  0.3750000E+00  0.4166667E-01  0.4629630E-02
    1       -2.928111   1.000000
    2       -0.022509   1.000000
    3        7.526648   1.000000
    4       10.144721   0.000000
    5       10.314798   0.000000
    6       12.933918   0.000000
    7       17.674825   0.000000
    8       18.842398   0.000000
 
 -0.2916667E+00  0.3750000E+00  0.4166667E-01  0.9259259E-02
    1       -3.061321   1.000000
    2        0.793410   1.000000
    3        6.649532   1.000000
    4       10.341662   0.000000
    5       10.664490   0.000000
    6       14.174823   0.000000
    7       16.001287   0.000000
    8       16.850667   0.000000
 
 -0.2083333E+00  0.3750000E+00  0.4166667E-01  0.9259259E-02
    1       -2.805820   1.000000
    2        1.956119   1.000000
    3        6.045841   1.000000
    4       10.509700   0.000000
    5       11.185488   0.000000
    6       12.993453   0.000000
    7       15.194760   0.000000
    8       16.442083   0.000000
 
 -0.1250000E+00  0.3750000E+00  0.4166667E-01  0.9259259E-02
    1       -2.163257   1.000000
    2        3.399102   1.000000
    3        5.848090   1.000000
    4        9.297927   0.106095
    5       10.991720   0.000000
    6       13.025510   0.000000
    7       13.741065   0.000000
    8       15.500790   0.000000
 
 -0.4166667E-01  0.3750000E+00  0.4166667E-01  0.4629630E-02
    1       -1.138888   1.000000
    2        4.784936   1.000000
    3        6.344561   1.000000
    4        6.976340   1.000000
    5       10.407934   0.000000
    6       12.974959   0.000000
    7       13.069780   0.000000
    8       14.261140   0.000000
 
  0.4583333E+00  0.4583333E+00  0.4166667E-01  0.2314815E-02
    1       -1.513277   1.000000
    2       -1.513274   1.000000
    3        9.216076   0.251816
    4        9.216081   0.251805
    5       11.150083   0.000000
    6       11.150089   0.000000
    7       16.386272   0.000000
    8       16.386326   0.000000
 
 -0.4583333E+00  0.4583333E+00  0.4166667E-01  0.4629630E-02
    1       -2.112727   1.000000
    2       -1.142157   1.000000
    3        8.304349   1.000000
    4        9.237705   0.205616
    5       10.954845   0.000000
    6       11.884610   0.000000
    7       18.677295   0.000000
    8       18.733333   0.000000
 
 -0.3750000E+00  0.4583333E+00  0.4166667E-01  0.9259259E-02
    1       -2.326546   1.000000
    2       -0.392103   1.000000
    3        7.343517   1.000000
    4        9.198044   0.294157
    5       11.394329   0.000000
    6       13.180674   0.000000
    7       15.852978   0.000000
    8       17.224432   0.000000
 
 -0.2916667E+00  0.4583333E+00  0.4166667E-01  0.9259259E-02
    1       -2.153473   1.000000
    2        0.725045   1.000000
    3        6.639879   1.000000
    4        9.367348   0.041066
    5       11.422055   0.000000
    6       13.101199   0.000000
    7       15.067814   0.000000
    8       15.514647   0.000000
 
 -0.2083333E+00  0.4583333E+00  0.4166667E-01  0.9259259E-02
    1       -1.594889   1.000000
    2        2.182523   1.000000
    3        6.282173   1.000000
    4        8.953239   0.882927
    5        9.907634   0.000000
    6       13.186626   0.000000
    7       13.921532   0.000000
    8       16.527731   0.000000
 
 -0.1250000E+00  0.4583333E+00  0.4166667E-01  0.9259259E-02
    1       -0.655525   1.000000
    2        3.894516   1.000000
    3        6.280224   1.000000
    4        6.603118   1.000000
    5       10.057797   0.000000
    6       12.116014   0.000000
    7       13.810219   0.000000
    8       15.304231   0.000000
 
 -0.4166667E-01  0.4583333E+00  0.4166667E-01  0.4629630E-02
    1        0.654518   1.000000
    2        4.219981   1.000000
    3        5.667783   1.000000
    4        7.045241   1.000000
    5        8.971066   0.856266
    6       11.518556   0.000000
    7       12.651158   0.000000
    8       15.544210   0.000000
 
 -0.4583333E+00 -0.4583333E+00  0.4166667E-01  0.4629630E-02
    1       -1.435876   1.000000
    2       -1.434531   1.000000
    3        8.186231   1.000000
    4        8.208231   1.000000
    5       12.138747   0.000000
    6       12.337785   0.000000
    7       15.782665   0.000000
    8       17.208021   0.000000
 
 -0.3750000E+00 -0.4583333E+00  0.4166667E-01  0.9259259E-02
    1       -1.343769   1.000000
    2       -0.380815   1.000000
    3        7.404991   1.000000
    4        8.317021   1.000000
    5       11.498879   0.000000
    6       13.505954   0.000000
    7       14.701154   0.000000
    8       14.971090   0.000000
 
 -0.2916667E+00 -0.4583333E+00  0.4166667E-01  0.9259259E-02
    1       -0.868541   1.000000
    2        1.034174   1.000000
    3        6.930210   1.000000
    4        8.526645   0.999987
    5        9.077536   0.622038
    6       13.019278   0.000000
    7       14.583014   0.000000
    8       16.362628   0.000000
 
 -0.2083333E+00 -0.4583333E+00  0.4166667E-01  0.9259259E-02
    1       -0.013824   1.000000
    2        2.775889   1.000000
    3        6.170356   1.000000
    4        6.896562   1.000000
    5        9.289495   0.117428
    6       11.597147   0.000000
    7       14.933809   0.000000
    8       16.154165   0.000000
 
 -0.1250000E+00 -0.4583333E+00  0.4166667E-01  0.9259259E-02
    1        1.204028   1.000000
    2        3.817225   1.000000
    3        4.887701   1.000000
    4        7.107623   1.000000
    5        9.046299   0.702540
    6       11.462756   0.000000
    7       12.413864   0.000000
    8       16.549242   0.000000
 
 -0.4166667E-01 -0.4583333E+00  0.4166667E-01  0.4629630E-02
    1        1.809626   1.000000
    2        2.905562   1.000000
    3        6.653639   1.000000
    4        7.740457   1.000000
    5        7.849961   1.000000
    6       10.625466   0.000000
    7       12.739081   0.000000
    8       15.448269   0.000000
 
 -0.3750000E+00 -0.3750000E+00  0.4166667E-01  0.4629630E-02
    1        0.006343   1.000000
    2        0.016089   1.000000
    3        7.715236   1.000000
    4        7.728035   1.000000
    5        8.883987   0.953466
    6       12.956677   0.000000
    7       15.083446   0.000000
    8       15.879140   0.000000
 
 -0.2916667E+00 -0.3750000E+00  0.4166667E-01  0.9259259E-02
    1        0.779452   1.000000
    2        1.716465   1.000000
    3        6.035411   1.000000
    4        7.551026   1.000000
    5        8.431691   0.999999
    6       11.371017   0.000000
    7       15.973349   0.000000
    8       16.764376   0.000000
 
 -0.2083333E+00 -0.3750000E+00  0.4166667E-01  0.9259259E-02
    1        1.897889   1.000000
    2        3.447479   1.000000
    3        4.003484   1.000000
    4        7.546428   1.000000
    5        8.841702   0.976060
    6       10.708407   0.000000
    7       13.636566   0.000000
    8       16.465705   0.000000
 
 -0.1250000E+00 -0.3750000E+00  0.4166667E-01  0.9259259E-02
    1        1.524502   1.000000
    2        3.491034   1.000000
    3        6.032530   1.000000
    4        7.463963   1.000000
    5        8.594608   0.999903
    6       11.087420   0.000000
    7       11.833890   0.000000
    8       15.581562   0.000000
 
 -0.4166667E-01 -0.3750000E+00  0.4166667E-01  0.4629630E-02
    1       -0.141403   1.000000
    2        5.291439   1.000000
    3        6.645810   1.000000
    4        7.748262   1.000000
    5        8.413414   1.000000
    6       11.069804   0.000000
    7       13.062777   0.000000
    8       14.518616   0.000000
 
 -0.2916667E+00 -0.2916667E+00  0.4166667E-01  0.4629630E-02
    1        2.633044   1.000000
    2        2.791331   1.000000
    3        3.721789   1.000000
    4        7.862757   1.000000
    5        8.628149   0.999757
    6       10.409963   0.000000
    7       14.764149   0.000000
    8       15.505648   0.000000
 
 -0.2083333E+00 -0.2916667E+00  0.4166667E-01  0.9259259E-02
    1        1.374531   1.000000
    2        4.237975   1.000000
    3        5.112675   1.000000
    4        7.439923   1.000000
    5        9.174463   0.354001
    6       10.708745   0.000000
    7       12.559547   0.000000
    8       14.240131   0.000000
 
 -0.1250000E+00 -0.2916667E+00  0.4166667E-01  0.9259259E-02
    1       -0.382323   1.000000
    2        5.952101   1.000000
    3        6.847911   1.000000
    4        7.493806   1.000000
    5        8.922006   0.920819
    6       11.352819   0.000000
    7       12.061125   0.000000
    8       13.503148   0.000000
 
 -0.4166667E-01 -0.2916667E+00  0.4166667E-01  0.4629630E-02
    1       -1.787565   1.000000
    2        6.020200   1.000000
    3        7.301970   1.000000
    4        8.045166   1.000000
    5       10.117245   0.000000
    6       12.036044   0.000000
    7       12.571552   0.000000
    8       14.370233   0.000000
 
 -0.2083333E+00 -0.2083333E+00  0.4166667E-01  0.4629630E-02
    1       -0.463321   1.000000
    2        6.656478   1.000000
    3        6.742359   1.000000
    4        6.888251   1.000000
    5        9.545375   0.001362
    6       11.434865   0.000000
    7       12.242942   0.000000
    8       12.313852   0.000000
 
 -0.1250000E+00 -0.2083333E+00  0.4166667E-01  0.9259259E-02
    1       -1.950532   1.000000
    2        6.314259   1.000000
    3        8.020760   1.000000
    4        8.573326   0.999947
    5        9.781614   0.000002
    6       11.045537   0.000000
    7       12.822365   0.000000
    8       13.598194   0.000000
 
 -0.4166667E-01 -0.2083333E+00  0.4166667E-01  0.4629630E-02
    1       -3.062471   1.000000
    2        5.797567   1.000000
    3        6.920135   1.000000
    4        9.195354   0.300745
    5       11.696822   0.000000
    6       12.418495   0.000000
    7       12.853279   0.000000
    8       15.023458   0.000000
 
 -0.1250000E+00 -0.1250000E+00  0.4166667E-01  0.4629630E-02
    1       -3.144620   1.000000
    2        6.096102   1.000000
    3        7.536151   1.000000
    4        8.505287   0.999993
    5       11.954001   0.000000
    6       12.173018   0.000000
    7       12.645868   0.000000
    8       15.003157   0.000000
 
 -0.4166667E-01 -0.1250000E+00  0.4166667E-01  0.4629630E-02
    1       -3.955670   1.000000
    2        5.917047   1.000000
    3        6.672782   1.000000
    4        7.759670   1.000000
    5       11.529485   0.000000
    6       14.470690   0.000000
    7       14.680243   0.000000
    8       16.683497   0.000000
 
 -0.4166667E-01 -0.4166667E-01  0.4166667E-01  0.1157407E-02
    1       -4.460668   1.000000
    2        6.354643   1.000000
    3        6.442116   1.000000
    4        6.442142   1.000000
    5       10.818597   0.000000
    6       16.683307   0.000000
    7       17.102282   0.000000
    8       17.364682   0.000000
 
  0.1250000E+00  0.1250000E+00  0.1250000E+00  0.4629630E-02
    1       -2.488664   1.000000
    2        3.230256   1.000000
    3        8.081946   1.000000
    4        9.602788   0.000333
    5       11.249795   0.000000
    6       11.345663   0.000000
    7       14.434447   0.000000
    8       15.127795   0.000000
 
  0.2083333E+00  0.1250000E+00  0.1250000E+00  0.9259259E-02
    1       -1.137219   1.000000
    2        3.599870   1.000000
    3        7.698486   1.000000
    4        8.248972   1.000000
    5        9.831285   0.000000
    6       11.977879   0.000000
    7       13.987513   0.000000
    8       14.853715   0.000000
 
  0.2916667E+00  0.1250000E+00  0.1250000E+00  0.9259259E-02
    1        0.580483   1.000000
    2        4.278828   1.000000
    3        5.174052   1.000000
    4        6.822301   1.000000
    5       10.161780   0.000000
    6       13.017762   0.000000
    7       13.916232   0.000000
    8       14.161308   0.000000
 
  0.3750000E+00  0.1250000E+00  0.1250000E+00  0.4629630E-02
    1        2.405062   1.000000
    2        2.932890   1.000000
    3        5.313762   1.000000
    4        5.575628   1.000000
    5       10.600729   0.000000
    6       12.382878   0.000000
    7       13.915641   0.000000
    8       14.547672   0.000000
 
 -0.1250000E+00  0.1250000E+00  0.1250000E+00  0.2314815E-02
    1       -4.243514   1.000000
    2        3.758152   1.000000
    3        5.177687   1.000000
    4        9.367798   0.040787
    5       12.504575   0.000000
    6       12.937472   0.000000
    7       17.689288   0.000000
    8       18.246633   0.000000
 
  0.2083333E+00  0.2083333E+00  0.1250000E+00  0.4629630E-02
    1        0.501212   1.000000
    2        4.237778   1.000000
    3        5.925487   1.000000
    4        5.964943   1.000000
    5       10.968724   0.000000
    6       13.043120   0.000000
    7       13.989299   0.000000
    8       14.096712   0.000000
 
  0.2916667E+00  0.2083333E+00  0.1250000E+00  0.9259259E-02
    1        2.436728   1.000000
    2        3.505636   1.000000
    3        4.391305   1.000000
    4        5.348538   1.000000
    5       11.450827   0.000000
    6       13.065361   0.000000
    7       13.838905   0.000000
    8       14.796590   0.000000
 
  0.3750000E+00  0.2083333E+00  0.1250000E+00  0.9259259E-02
    1        1.296109   1.000000
    2        3.165630   1.000000
    3        4.925699   1.000000
    4        6.637333   1.000000
    5       10.856658   0.000000
    6       12.825670   0.000000
    7       14.184575   0.000000
    8       15.086094   0.000000
 
  0.4583333E+00  0.2083333E+00  0.1250000E+00  0.9259259E-02
    1       -0.490296   1.000000
    2        2.369155   1.000000
    3        7.464676   1.000000
    4        8.147817   1.000000
    5       10.252555   0.000000
    6       12.482307   0.000000
    7       13.059482   0.000000
    8       14.826430   0.000000
 
 -0.4583333E+00  0.2083333E+00  0.1250000E+00  0.4629630E-02
    1       -1.916907   1.000000
    2        1.921897   1.000000
    3        8.522519   0.999989
    4        9.812116   0.000001
    5       11.032710   0.000000
    6       11.254821   0.000000
    7       13.302327   0.000000
    8       14.386525   0.000000
 
 -0.2083333E+00  0.2083333E+00  0.1250000E+00  0.4629630E-02
    1       -3.913984   1.000000
    2        2.666946   1.000000
    3        5.099710   1.000000
    4       10.322388   0.000000
    5       11.466787   0.000000
    6       13.904921   0.000000
    7       16.789706   0.000000
    8       18.669195   0.000000
 
 -0.1250000E+00  0.2083333E+00  0.1250000E+00  0.4629630E-02
    1       -3.800748   1.000000
    2        3.224559   1.000000
    3        4.772792   1.000000
    4       10.615594   0.000000
    5       11.562229   0.000000
    6       13.759045   0.000000
    7       15.820172   0.000000
    8       17.921578   0.000000
 
  0.2916667E+00  0.2916667E+00  0.1250000E+00  0.4629630E-02
    1        2.147425   1.000000
    2        2.175352   1.000000
    3        4.845719   1.000000
    4        6.574287   1.000000
    5       11.389569   0.000000
    6       12.205853   0.000000
    7       14.608398   0.000000
    8       15.622872   0.000000
 
  0.3750000E+00  0.2916667E+00  0.1250000E+00  0.9259259E-02
    1        0.315127   1.000000
    2        1.270487   1.000000
    3        7.339313   1.000000
    4        8.076033   1.000000
    5       10.873296   0.000000
    6       11.935952   0.000000
    7       13.297093   0.000000
    8       14.252476   0.000000
 
  0.4583333E+00  0.2916667E+00  0.1250000E+00  0.4629630E-02
    1       -1.185931   1.000000
    2        0.740312   1.000000
    3        9.008779   0.787280
    4        9.727143   0.000009
    5       11.003919   0.000000
    6       11.400679   0.000000
    7       12.559945   0.000000
    8       13.509532   0.000000
 
 -0.2916667E+00  0.2916667E+00  0.1250000E+00  0.4629630E-02
    1       -3.420931   1.000000
    2        1.359765   1.000000
    3        5.487545   1.000000
    4       10.107697   0.000000
    5       11.062143   0.000000
    6       15.635539   0.000000
    7       15.827554   0.000000
    8       18.619176   0.000000
 
 -0.2083333E+00  0.2916667E+00  0.1250000E+00  0.9259259E-02
    1       -3.390513   1.000000
    2        2.218015   1.000000
    3        4.723391   1.000000
    4       10.144887   0.000000
    5       11.584473   0.000000
    6       15.086370   0.000000
    7       15.561921   0.000000
    8       17.554444   0.000000
 
 -0.1250000E+00  0.2916667E+00  0.1250000E+00  0.4629630E-02
    1       -2.970254   1.000000
    2        3.062942   1.000000
    3        4.684568   1.000000
    4       10.425286   0.000000
    5       11.426750   0.000000
    6       13.373743   0.000000
    7       15.310199   0.000000
    8       16.239399   0.000000
 