 vasp.5.4.4.18Apr17-6-g9f103f2a35 (build Dec 09 2018 21:25:21) complex          
  
 executed on IFC18.0.1.163_CrayMP date 2019.03.20  09:08:50
 running on    8 total cores
 distrk:  each k-point on    8 cores,    1 groups
 distr:  one band on NCORES_PER_BAND=   1 cores,    8 groups


--------------------------------------------------------------------------------------------------------


 INCAR:
 POTCAR:   PAW_PBE Si 05Jan2001                   

 ----------------------------------------------------------------------------- 
|                                                                             |
|           W    W    AA    RRRRR   N    N  II  N    N   GGGG   !!!           |
|           W    W   A  A   R    R  NN   N  II  NN   N  G    G  !!!           |
|           W    W  A    A  R    R  N N  N  II  N N  N  G       !!!           |
|           W WW W  AAAAAA  RRRRR   N  N N  II  N  N N  G  GGG   !            |
|           WW  WW  A    A  R   R   N   NN  II  N   NN  G    G                |
|           W    W  A    A  R    R  N    N  II  N    N   GGGG   !!!           |
|                                                                             |
|      For optimal performance we recommend to set                            |
|        NCORE= 4 - approx SQRT( number of cores)                             |
|      NCORE specifies how many cores store one orbital (NPAR=cpu/NCORE).     |
|      This setting can  greatly improve the performance of VASP for DFT.     |
|      The default,   NCORE=1            might be grossly inefficient         |
|      on modern multi-core architectures or massively parallel machines.     |
|      Do your own testing !!!!                                               |
|      Unfortunately you need to use the default for GW and RPA calculations. |
|      (for HF NCORE is supported but not extensively tested yet)             |
|                                                                             |
 ----------------------------------------------------------------------------- 

 POTCAR:   PAW_PBE Si 05Jan2001                   
   VRHFIN =Si: s2p2                                                             
   LEXCH  = PE                                                                  
   EATOM  =   103.0669 eV,    7.5752 Ry                                         
                                                                                
   TITEL  = PAW_PBE Si 05Jan2001                                                
   LULTRA =        F    use ultrasoft PP ?                                      
   IUNSCR =        1    unscreen: 0-lin 1-nonlin 2-no                           
   RPACOR =    1.500    partial core radius                                     
   POMASS =   28.085; ZVAL   =    4.000    mass and valenz                      
   RCORE  =    1.900    outmost cutoff radius                                   
   RWIGS  =    2.480; RWIGS  =    1.312    wigner-seitz radius (au A)           
   ENMAX  =  245.345; ENMIN  =  184.009 eV                                      
   ICORE  =        2    local potential                                         
   LCOR   =        T    correct aug charges                                     
   LPAW   =        T    paw PP                                                  
   EAUG   =  322.069                                                            
   DEXC   =    -.007                                                            
   RMAX   =    2.944    core radius for proj-oper                               
   RAUG   =    1.300    factor for augmentation sphere                          
   RDEP   =    1.993    radius for radial grids                                 
   QCUT   =   -4.246; QGAM   =    8.493    optimization parameters              
                                                                                
   Description                                                                  
     l     E      TYP  RCUT    TYP  RCUT                                        
     0   .000     23  1.900                                                     
     0   .000     23  1.900                                                     
     1   .000     23  1.900                                                     
     1   .000     23  1.900                                                     
     2   .000      7  1.900                                                     
  local pseudopotential read in
  partial core-charges read in
  atomic valenz-charges read in
  non local Contribution for L=           0  read in
    real space projection operators read in
  non local Contribution for L=           0  read in
    real space projection operators read in
  non local Contribution for L=           1  read in
    real space projection operators read in
  non local Contribution for L=           1  read in
    real space projection operators read in
    PAW grid and wavefunctions read in
 
   number of l-projection  operators is LMAX  =           4
   number of lm-projection operators is LMMAX =           8
 
 PAW_PBE Si 05Jan2001                   :
 energy of atom  1       EATOM= -103.0669
 kinetic energy error for atom=    0.0210 (will be added to EATOM!!)
 
 
 POSCAR: Si2                                     
  positions in direct lattice
  No initial velocities read in
 exchange correlation table for  LEXCH =        8
   RHO(1)=    0.500       N(1)  =     2000
   RHO(2)=  100.500       N(2)  =     4000
 


--------------------------------------------------------------------------------------------------------


 ion  position               nearest neighbor table
   1  0.250  0.750  0.500-   2 2.53   2 2.53   2 2.53   2 2.53   2 3.11   2 3.11   2 3.11   2 3.11

   2  0.000  0.000  0.000-   1 2.53   1 2.53   1 2.53   1 2.53   1 3.11   1 3.11   1 3.11   1 3.11

 
  LATTYP: Found a body centered tetragonal cell.
 ALAT       =     4.9000000000
 C/A-ratio  =     0.5200000000
  
  Lattice vectors:
  
 A1 = (  -2.4500000000,   2.4500000000,   1.2740000000)
 A2 = (   2.4500000000,  -2.4500000000,   1.2740000000)
 A3 = (   2.4500000000,   2.4500000000,  -1.2740000000)


Analysis of symmetry for initial positions (statically):
=====================================================================
 Subroutine PRICEL returns:
 Original cell was already a primitive cell.
 

 Routine SETGRP: Setting up the symmetry group for a 
 body centered tetragonal supercell.


 Subroutine GETGRP returns: Found 16 space group operations
 (whereof  8 operations were pure point group operations)
 out of a pool of 16 trial point group operations.


The static configuration has the point symmetry D_2d.
 The point group associated with its full space group is D_4h.


Analysis of symmetry for dynamics (positions and initial velocities):
=====================================================================
 Subroutine PRICEL returns:
 Original cell was already a primitive cell.
 

 Routine SETGRP: Setting up the symmetry group for a 
 body centered tetragonal supercell.


 Subroutine GETGRP returns: Found 16 space group operations
 (whereof  8 operations were pure point group operations)
 out of a pool of 16 trial point group operations.


The dynamic configuration has the point symmetry D_2d.
 The point group associated with its full space group is D_4h.


 Subroutine INISYM returns: Found 16 space group operations
 (whereof  8 operations are pure point group operations),
 and found     1 'primitive' translations

 
 
 KPOINTS: Automatic kpoint scheme                 

Automatic generation of k-mesh.
Space group operators:
 irot       det(A)        alpha          n_x          n_y          n_z        tau_x        tau_y        tau_z
    1     1.000000     0.000000     1.000000     0.000000     0.000000     0.000000     0.000000     0.000000
    2    -1.000000    90.000000    -0.000000    -0.000000    -1.000000     0.000000     0.000000     0.000000
    3     1.000000   180.000000    -0.000000    -0.000000    -1.000000     0.000000     0.000000     0.000000
    4    -1.000000    90.000000    -0.000000     0.000000     1.000000     0.000000     0.000000     0.000000
    5    -1.000000   180.000000     0.000000    -1.000000     0.000000     0.000000     0.000000     0.000000
    6     1.000000   180.000000     0.707107     0.707107    -0.000000     0.000000     0.000000     0.000000
    7    -1.000000   180.000000     1.000000     0.000000     0.000000     0.000000     0.000000     0.000000
    8     1.000000   180.000000     0.707107    -0.707107     0.000000     0.000000     0.000000     0.000000
    9    -1.000000     0.000000     1.000000     0.000000     0.000000     0.250000     0.750000     0.500000
   10     1.000000    90.000000    -0.000000    -0.000000    -1.000000     0.250000     0.750000     0.500000
   11    -1.000000   180.000000    -0.000000    -0.000000    -1.000000     0.250000     0.750000     0.500000
   12     1.000000    90.000000    -0.000000     0.000000     1.000000     0.250000     0.750000     0.500000
   13     1.000000   180.000000     0.000000    -1.000000     0.000000     0.250000     0.750000     0.500000
   14    -1.000000   180.000000     0.707107     0.707107    -0.000000     0.250000     0.750000     0.500000
   15     1.000000   180.000000     1.000000     0.000000     0.000000     0.250000     0.750000     0.500000
   16    -1.000000   180.000000     0.707107    -0.707107     0.000000     0.250000     0.750000     0.500000
 
 Subroutine IBZKPT returns following result:
 ===========================================
 
 Found     56 irreducible k-points:
 
 Following reciprocal coordinates:
            Coordinates               Weight
  0.062500  0.062500  0.062500    128.000000
  0.187500  0.062500  0.062500    256.000000
  0.312500  0.062500  0.062500    256.000000
  0.437500  0.062500  0.062500    128.000000
 -0.062500  0.062500  0.062500     64.000000
  0.187500  0.187500  0.062500    128.000000
  0.312500  0.187500  0.062500    256.000000
  0.437500  0.187500  0.062500    256.000000
 -0.437500  0.187500  0.062500    256.000000
 -0.312500  0.187500  0.062500    128.000000
 -0.187500  0.187500  0.062500    128.000000
 -0.062500  0.187500  0.062500    128.000000
  0.312500  0.312500  0.062500    128.000000
  0.437500  0.312500  0.062500    256.000000
 -0.437500  0.312500  0.062500    128.000000
 -0.312500  0.312500  0.062500    128.000000
 -0.187500  0.312500  0.062500    256.000000
 -0.062500  0.312500  0.062500    128.000000
  0.437500  0.437500  0.062500     64.000000
 -0.437500  0.437500  0.062500    128.000000
 -0.312500  0.437500  0.062500    256.000000
 -0.187500  0.437500  0.062500    256.000000
 -0.062500  0.437500  0.062500    128.000000
 -0.437500 -0.437500  0.062500    128.000000
 -0.312500 -0.437500  0.062500    256.000000
 -0.187500 -0.437500  0.062500    256.000000
 -0.062500 -0.437500  0.062500    128.000000
 -0.312500 -0.312500  0.062500    128.000000
 -0.187500 -0.312500  0.062500    256.000000
 -0.062500 -0.312500  0.062500    128.000000
 -0.187500 -0.187500  0.062500    128.000000
 -0.062500 -0.187500  0.062500    128.000000
 -0.062500 -0.062500  0.062500     32.000000
  0.187500  0.187500  0.187500    128.000000
  0.312500  0.187500  0.187500    128.000000
 -0.187500  0.187500  0.187500     64.000000
  0.312500  0.312500  0.187500     64.000000
 -0.312500  0.312500  0.187500    128.000000
 -0.187500  0.312500  0.187500    128.000000
 -0.437500  0.437500  0.187500    128.000000
 -0.312500  0.437500  0.187500    256.000000
 -0.187500  0.437500  0.187500    128.000000
 -0.437500 -0.437500  0.187500    128.000000
 -0.312500 -0.437500  0.187500    256.000000
 -0.187500 -0.437500  0.187500    128.000000
 -0.312500 -0.312500  0.187500    128.000000
 -0.187500 -0.312500  0.187500    128.000000
 -0.187500 -0.187500  0.187500     32.000000
 -0.312500  0.312500  0.312500     64.000000
 -0.437500  0.437500  0.312500    128.000000
 -0.312500  0.437500  0.312500    128.000000
 -0.437500 -0.437500  0.312500    128.000000
 -0.312500 -0.437500  0.312500    128.000000
 -0.312500 -0.312500  0.312500     32.000000
 -0.437500  0.437500  0.437500     64.000000
 -0.437500 -0.437500  0.437500     32.000000
 
 Following cartesian coordinates:
            Coordinates               Weight
  0.025510  0.025510  0.049058    128.000000
  0.025510  0.051020  0.098116    256.000000
  0.025510  0.076531  0.147174    256.000000
  0.025510  0.102041  0.196232    128.000000
  0.025510  0.000000  0.000000     64.000000
  0.051020  0.051020  0.147174    128.000000
  0.051020  0.076531  0.196232    256.000000
  0.051020  0.102041  0.245290    256.000000
  0.051020 -0.076531 -0.098116    256.000000
  0.051020 -0.051020 -0.049058    128.000000
  0.051020 -0.025510  0.000000    128.000000
  0.051020  0.000000  0.049058    128.000000
  0.076531  0.076531  0.245290    128.000000
  0.076531  0.102041  0.294349    256.000000
  0.076531 -0.076531 -0.049058    128.000000
  0.076531 -0.051020  0.000000    128.000000
  0.076531 -0.025510  0.049058    256.000000
  0.076531  0.000000  0.098116    128.000000
  0.102041  0.102041  0.343407     64.000000
  0.102041 -0.076531  0.000000    128.000000
  0.102041 -0.051020  0.049058    256.000000
  0.102041 -0.025510  0.098116    256.000000
  0.102041  0.000000  0.147174    128.000000
 -0.076531 -0.076531 -0.343407    128.000000
 -0.076531 -0.051020 -0.294349    256.000000
 -0.076531 -0.025510 -0.245290    256.000000
 -0.076531 -0.000000 -0.196232    128.000000
 -0.051020 -0.051020 -0.245290    128.000000
 -0.051020 -0.025510 -0.196232    256.000000
 -0.051020 -0.000000 -0.147174    128.000000
 -0.025510 -0.025510 -0.147174    128.000000
 -0.025510  0.000000 -0.098116    128.000000
 -0.000000  0.000000 -0.049058     32.000000
  0.076531  0.076531  0.147174    128.000000
  0.076531  0.102041  0.196232    128.000000
  0.076531  0.000000  0.000000     64.000000
  0.102041  0.102041  0.245290     64.000000
  0.102041 -0.025510 -0.000000    128.000000
  0.102041  0.000000  0.049058    128.000000
  0.127551 -0.051020  0.000000    128.000000
  0.127551 -0.025510  0.049058    256.000000
  0.127551  0.000000  0.098116    128.000000
 -0.051020 -0.051020 -0.343407    128.000000
 -0.051020 -0.025510 -0.294349    256.000000
 -0.051020  0.000000 -0.245290    128.000000
 -0.025510 -0.025510 -0.245290    128.000000
 -0.025510 -0.000000 -0.196232    128.000000
  0.000000  0.000000 -0.147174     32.000000
  0.127551  0.000000  0.000000     64.000000
  0.153061 -0.025510  0.000000    128.000000
  0.153061  0.000000  0.049058    128.000000
 -0.025510 -0.025510 -0.343407    128.000000
 -0.025510 -0.000000 -0.294349    128.000000
 -0.000000  0.000000 -0.245290     32.000000
  0.178571  0.000000  0.000000     64.000000
 -0.000000  0.000000 -0.343407     32.000000
 


--------------------------------------------------------------------------------------------------------




 Dimension of arrays:
   k-points           NKPTS =     56   k-points in BZ     NKDIM =     56   number of bands    NBANDS=      8
   number of dos      NEDOS =    301   number of ions     NIONS =      2
   non local maximal  LDIM  =      4   non local SUM 2l+1 LMDIM =      8
   total plane-waves  NPLWV =   1728
   max r-space proj   IRMAX =      1   max aug-charges    IRDMAX=   2088
   dimension x,y,z NGX =    12 NGY =   12 NGZ =   12
   dimension x,y,z NGXF=    24 NGYF=   24 NGZF=   24
   support grid    NGXF=    24 NGYF=   24 NGZF=   24
   ions per type =               2
   NGX,Y,Z   is equivalent  to a cutoff of   5.40,  5.40,  5.40 a.u.
   NGXF,Y,Z  is equivalent  to a cutoff of  10.81, 10.81, 10.81 a.u.

 SYSTEM =  unknown system                          
 POSCAR =  Si2                                     

 Startparameter for this run:
   NWRITE =      2    write-flag & timer
   PREC   = normal    normal or accurate (medium, high low for compatibility)
   ISTART =      0    job   : 0-new  1-cont  2-samecut
   ICHARG =      2    charge: 1-file 2-atom 10-const
   ISPIN  =      1    spin polarized calculation?
   LNONCOLLINEAR =      F non collinear calculations
   LSORBIT =      F    spin-orbit coupling
   INIWAV =      1    electr: 0-lowe 1-rand  2-diag
   LASPH  =      F    aspherical Exc in radial PAW
   METAGGA=      F    non-selfconsistent MetaGGA calc.

 Electronic Relaxation 1
   ENCUT  =  150.0 eV  11.02 Ry    3.32 a.u.   3.69  3.69  3.69*2*pi/ulx,y,z
   ENINI  =  150.0     initial cutoff
   ENAUG  =  322.1 eV  augmentation charge cutoff
   NELM   =     60;   NELMIN=  2; NELMDL= -5     # of ELM steps 
   EDIFF  = 0.4E-03   stopping-criterion for ELM
   LREAL  =      F    real-space projection
   NLSPLINE    = F    spline interpolate recip. space projectors
   LCOMPAT=      F    compatible to vasp.4.4
   GGA_COMPAT  = T    GGA compatible to vasp.4.4-vasp.4.6
   LMAXPAW     = -100 max onsite density
   LMAXMIX     =    2 max onsite mixed and CHGCAR
   VOSKOWN=      0    Vosko Wilk Nusair interpolation
   ROPT   =    0.00000
 Ionic relaxation
   EDIFFG = -.1E-01   stopping-criterion for IOM
   NSW    =     15    number of steps for IOM
   NBLOCK =      1;   KBLOCK =     15    inner block; outer block 
   IBRION =      2    ionic relax: 0-MD 1-quasi-New 2-CG
   NFREE  =      1    steps in history (QN), initial steepest desc. (CG)
   ISIF   =      3    stress and relaxation
   IWAVPR =     11    prediction:  0-non 1-charg 2-wave 3-comb
   ISYM   =      2    0-nonsym 1-usesym 2-fastsym
   LCORR  =      T    Harris-Foulkes like correction to forces

   POTIM  = 0.5000    time-step for ionic-motion
   TEIN   =    0.0    initial temperature
   TEBEG  =    0.0;   TEEND  =   0.0 temperature during run
   SMASS  =  -3.00    Nose mass-parameter (am)
   estimated Nose-frequenzy (Omega)   =  0.10E-29 period in steps =****** mass=  -0.311E-27a.u.
   SCALEE = 1.0000    scale energy and forces
   NPACO  =    256;   APACO  = 16.0  distance and # of slots for P.C.
   PSTRESS=    0.0 pullay stress

  Mass of Ions in am
   POMASS =  28.09
  Ionic Valenz
   ZVAL   =   4.00
  Atomic Wigner-Seitz radii
   RWIGS  =  -1.00
  virtual crystal weights 
   VCA    =   1.00
   NELECT =       8.0000    total number of electrons
   NUPDOWN=      -1.0000    fix difference up-down

 DOS related values:
   EMIN   =  10.00;   EMAX   =-10.00  energy-range for DOS
   EFERMI =   0.00
   ISMEAR =     0;   SIGMA  =   0.20  broadening in eV -4-tet -1-fermi 0-gaus

 Electronic relaxation 2 (details)
   IALGO  =     38    algorithm
   LDIAG  =      T    sub-space diagonalisation (order eigenvalues)
   LSUBROT=      F    optimize rotation matrix (better conditioning)
   TURBO    =      0    0=normal 1=particle mesh
   IRESTART =      0    0=no restart 2=restart with 2 vectors
   NREBOOT  =      0    no. of reboots
   NMIN     =      0    reboot dimension
   EREF     =   0.00    reference energy to select bands
   IMIX   =      4    mixing-type and parameters
     AMIX     =   0.40;   BMIX     =  1.00
     AMIX_MAG =   1.60;   BMIX_MAG =  1.00
     AMIN     =   0.10
     WC   =   100.;   INIMIX=   1;  MIXPRE=   1;  MAXMIX= -45

 Intra band minimization:
   WEIMIN = 0.0010     energy-eigenvalue tresh-hold
   EBREAK =  0.13E-04  absolut break condition
   DEPER  =   0.30     relativ break condition  

   TIME   =   0.40     timestep for ELM

  volume/ion in A,a.u.               =      15.29       103.21
  Fermi-wavevector in a.u.,A,eV,Ry     =   1.046930  1.978411 14.912834  1.096062
  Thomas-Fermi vector in A             =   2.181789
 
 Write flags
   LWAVE        =      T    write WAVECAR
   LDOWNSAMPLE  =      F    k-point downsampling of WAVECAR
   LCHARG       =      T    write CHGCAR
   LVTOT        =      F    write LOCPOT, total local potential
   LVHAR        =      F    write LOCPOT, Hartree potential only
   LELF         =      F    write electronic localiz. function (ELF)
   LORBIT       =      0    0 simple, 1 ext, 2 COOP (PROOUT), +10 PAW based schemes


 Dipole corrections
   LMONO  =      F    monopole corrections only (constant potential shift)
   LDIPOL =      F    correct potential (dipole corrections)
   IDIPOL =      0    1-x, 2-y, 3-z, 4-all directions 
   EPSILON=  1.0000000 bulk dielectric constant

 Exchange correlation treatment:
   GGA     =    --    GGA type
   LEXCH   =     8    internal setting for exchange type
   VOSKOWN=      0    Vosko Wilk Nusair interpolation
   LHFCALC =     F    Hartree Fock is set to
   LHFONE  =     F    Hartree Fock one center treatment
   AEXX    =    0.0000 exact exchange contribution

 Linear response parameters
   LEPSILON=     F    determine dielectric tensor
   LRPA    =     F    only Hartree local field effects (RPA)
   LNABLA  =     F    use nabla operator in PAW spheres
   LVEL    =     F    velocity operator in full k-point grid
   LINTERFAST=   F  fast interpolation
   KINTER  =     0    interpolate to denser k-point grid
   CSHIFT  =0.1000    complex shift for real part using Kramers Kronig
   OMEGAMAX=  -1.0    maximum frequency
   DEG_THRESHOLD= 0.2000000E-02 threshold for treating states as degnerate
   RTIME   =   -0.100 relaxation time in fs
  (WPLASMAI=    0.000 imaginary part of plasma frequency in eV, 0.658/RTIME)
   DFIELD  = 0.0000000 0.0000000 0.0000000 field for delta impulse in time
 
 Orbital magnetization related:
   ORBITALMAG=     F  switch on orbital magnetization
   LCHIMAG   =     F  perturbation theory with respect to B field
   DQ        =  0.001000  dq finite difference perturbation B field
   LLRAUG    =     F  two centre corrections for induced B field



--------------------------------------------------------------------------------------------------------


 conjugate gradient relaxation of ions
 charge density and potential will be updated during run
 non-spin polarized calculation
 Variant of blocked Davidson
 Davidson routine will perform the subspace rotation
 perform sub-space diagonalisation
    after iterative eigenvector-optimisation
 modified Broyden-mixing scheme, WC =      100.0
 initial mixing is a Kerker type mixing with AMIX =  0.4000 and BMIX =      1.0000
 Hartree-type preconditioning will be used
 using additional bands            4
 reciprocal scheme for non local part
 use partial core corrections
 calculate Harris-corrections to forces 
   (improved forces if not selfconsistent)
 use gradient corrections 
 use of overlap-Matrix (Vanderbilt PP)
 Gauss-broadening in eV      SIGMA  =   0.20


--------------------------------------------------------------------------------------------------------


  energy-cutoff  :      150.00
  volume of cell :       30.59
      direct lattice vectors                 reciprocal lattice vectors
    -2.450000000  2.450000000  1.274000000     0.000000000  0.204081633  0.392464678
     2.450000000 -2.450000000  1.274000000     0.204081633  0.000000000  0.392464678
     2.450000000  2.450000000 -1.274000000     0.204081633  0.204081633 -0.000000000

  length of vectors
     3.691622408  3.691622408  3.691622408     0.442354876  0.442354876  0.288615013


 
 k-points in units of 2pi/SCALE and weight: Automatic kpoint scheme                 
   0.02551020  0.02551020  0.04905808       0.016
   0.02551020  0.05102041  0.09811617       0.031
   0.02551020  0.07653061  0.14717425       0.031
   0.02551020  0.10204082  0.19623234       0.016
   0.02551020  0.00000000 -0.00000000       0.008
   0.05102041  0.05102041  0.14717425       0.016
   0.05102041  0.07653061  0.19623234       0.031
   0.05102041  0.10204082  0.24529042       0.031
   0.05102041 -0.07653061 -0.09811617       0.031
   0.05102041 -0.05102041 -0.04905808       0.016
   0.05102041 -0.02551020  0.00000000       0.016
   0.05102041  0.00000000  0.04905808       0.016
   0.07653061  0.07653061  0.24529042       0.016
   0.07653061  0.10204082  0.29434851       0.031
   0.07653061 -0.07653061 -0.04905808       0.016
   0.07653061 -0.05102041  0.00000000       0.016
   0.07653061 -0.02551020  0.04905808       0.031
   0.07653061  0.00000000  0.09811617       0.016
   0.10204082  0.10204082  0.34340659       0.008
   0.10204082 -0.07653061  0.00000000       0.016
   0.10204082 -0.05102041  0.04905808       0.031
   0.10204082 -0.02551020  0.09811617       0.031
   0.10204082  0.00000000  0.14717425       0.016
  -0.07653061 -0.07653061 -0.34340659       0.016
  -0.07653061 -0.05102041 -0.29434851       0.031
  -0.07653061 -0.02551020 -0.24529042       0.031
  -0.07653061 -0.00000000 -0.19623234       0.016
  -0.05102041 -0.05102041 -0.24529042       0.016
  -0.05102041 -0.02551020 -0.19623234       0.031
  -0.05102041 -0.00000000 -0.14717425       0.016
  -0.02551020 -0.02551020 -0.14717425       0.016
  -0.02551020 -0.00000000 -0.09811617       0.016
   0.00000000  0.00000000 -0.04905808       0.004
   0.07653061  0.07653061  0.14717425       0.016
   0.07653061  0.10204082  0.19623234       0.016
   0.07653061  0.00000000  0.00000000       0.008
   0.10204082  0.10204082  0.24529042       0.008
   0.10204082 -0.02551020  0.00000000       0.016
   0.10204082  0.00000000  0.04905808       0.016
   0.12755102 -0.05102041 -0.00000000       0.016
   0.12755102 -0.02551020  0.04905808       0.031
   0.12755102  0.00000000  0.09811617       0.016
  -0.05102041 -0.05102041 -0.34340659       0.016
  -0.05102041 -0.02551020 -0.29434851       0.031
  -0.05102041  0.00000000 -0.24529042       0.016
  -0.02551020 -0.02551020 -0.24529042       0.016
  -0.02551020 -0.00000000 -0.19623234       0.016
   0.00000000 -0.00000000 -0.14717425       0.004
   0.12755102  0.00000000 -0.00000000       0.008
   0.15306122 -0.02551020 -0.00000000       0.016
   0.15306122  0.00000000  0.04905808       0.016
  -0.02551020 -0.02551020 -0.34340659       0.016
  -0.02551020 -0.00000000 -0.29434851       0.016
   0.00000000  0.00000000 -0.24529042       0.004
   0.17857143  0.00000000 -0.00000000       0.008
   0.00000000 -0.00000000 -0.34340659       0.004
 
 k-points in reciprocal lattice and weights: Automatic kpoint scheme                 
   0.06250000  0.06250000  0.06250000       0.016
   0.18750000  0.06250000  0.06250000       0.031
   0.31250000  0.06250000  0.06250000       0.031
   0.43750000  0.06250000  0.06250000       0.016
  -0.06250000  0.06250000  0.06250000       0.008
   0.18750000  0.18750000  0.06250000       0.016
   0.31250000  0.18750000  0.06250000       0.031
   0.43750000  0.18750000  0.06250000       0.031
  -0.43750000  0.18750000  0.06250000       0.031
  -0.31250000  0.18750000  0.06250000       0.016
  -0.18750000  0.18750000  0.06250000       0.016
  -0.06250000  0.18750000  0.06250000       0.016
   0.31250000  0.31250000  0.06250000       0.016
   0.43750000  0.31250000  0.06250000       0.031
  -0.43750000  0.31250000  0.06250000       0.016
  -0.31250000  0.31250000  0.06250000       0.016
  -0.18750000  0.31250000  0.06250000       0.031
  -0.06250000  0.31250000  0.06250000       0.016
   0.43750000  0.43750000  0.06250000       0.008
  -0.43750000  0.43750000  0.06250000       0.016
  -0.31250000  0.43750000  0.06250000       0.031
  -0.18750000  0.43750000  0.06250000       0.031
  -0.06250000  0.43750000  0.06250000       0.016
  -0.43750000 -0.43750000  0.06250000       0.016
  -0.31250000 -0.43750000  0.06250000       0.031
  -0.18750000 -0.43750000  0.06250000       0.031
  -0.06250000 -0.43750000  0.06250000       0.016
  -0.31250000 -0.31250000  0.06250000       0.016
  -0.18750000 -0.31250000  0.06250000       0.031
  -0.06250000 -0.31250000  0.06250000       0.016
  -0.18750000 -0.18750000  0.06250000       0.016
  -0.06250000 -0.18750000  0.06250000       0.016
  -0.06250000 -0.06250000  0.06250000       0.004
   0.18750000  0.18750000  0.18750000       0.016
   0.31250000  0.18750000  0.18750000       0.016
  -0.18750000  0.18750000  0.18750000       0.008
   0.31250000  0.31250000  0.18750000       0.008
  -0.31250000  0.31250000  0.18750000       0.016
  -0.18750000  0.31250000  0.18750000       0.016
  -0.43750000  0.43750000  0.18750000       0.016
  -0.31250000  0.43750000  0.18750000       0.031
  -0.18750000  0.43750000  0.18750000       0.016
  -0.43750000 -0.43750000  0.18750000       0.016
  -0.31250000 -0.43750000  0.18750000       0.031
  -0.18750000 -0.43750000  0.18750000       0.016
  -0.31250000 -0.31250000  0.18750000       0.016
  -0.18750000 -0.31250000  0.18750000       0.016
  -0.18750000 -0.18750000  0.18750000       0.004
  -0.31250000  0.31250000  0.31250000       0.008
  -0.43750000  0.43750000  0.31250000       0.016
  -0.31250000  0.43750000  0.31250000       0.016
  -0.43750000 -0.43750000  0.31250000       0.016
  -0.31250000 -0.43750000  0.31250000       0.016
  -0.31250000 -0.31250000  0.31250000       0.004
  -0.43750000  0.43750000  0.43750000       0.008
  -0.43750000 -0.43750000  0.43750000       0.004
 
 position of ions in fractional coordinates (direct lattice) 
   0.25000000  0.75000000  0.50000000
   0.00000000  0.00000000  0.00000000
 
 position of ions in cartesian coordinates  (Angst):
   2.45000000  0.00000000  0.63700000
   0.00000000  0.00000000  0.00000000
 


--------------------------------------------------------------------------------------------------------


 k-point  1 :   0.0625 0.0625 0.0625  plane waves:     130
 k-point  2 :   0.1875 0.0625 0.0625  plane waves:     129
 k-point  3 :   0.3125 0.0625 0.0625  plane waves:     128
 k-point  4 :   0.4375 0.0625 0.0625  plane waves:     122
 k-point  5 :  -0.0625 0.0625 0.0625  plane waves:     127
 k-point  6 :   0.1875 0.1875 0.0625  plane waves:     128
 k-point  7 :   0.3125 0.1875 0.0625  plane waves:     126
 k-point  8 :   0.4375 0.1875 0.0625  plane waves:     128
 k-point  9 :  -0.4375 0.1875 0.0625  plane waves:     130
 k-point 10 :  -0.3125 0.1875 0.0625  plane waves:     128
 k-point 11 :  -0.1875 0.1875 0.0625  plane waves:     133
 k-point 12 :  -0.0625 0.1875 0.0625  plane waves:     133
 k-point 13 :   0.3125 0.3125 0.0625  plane waves:     128
 k-point 14 :   0.4375 0.3125 0.0625  plane waves:     129
 k-point 15 :  -0.4375 0.3125 0.0625  plane waves:     127
 k-point 16 :  -0.3125 0.3125 0.0625  plane waves:     131
 k-point 17 :  -0.1875 0.3125 0.0625  plane waves:     130
 k-point 18 :  -0.0625 0.3125 0.0625  plane waves:     131
 k-point 19 :   0.4375 0.4375 0.0625  plane waves:     130
 k-point 20 :  -0.4375 0.4375 0.0625  plane waves:     133
 k-point 21 :  -0.3125 0.4375 0.0625  plane waves:     129
 k-point 22 :  -0.1875 0.4375 0.0625  plane waves:     129
 k-point 23 :  -0.0625 0.4375 0.0625  plane waves:     128
 k-point 24 :  -0.4375-0.4375 0.0625  plane waves:     126
 k-point 25 :  -0.3125-0.4375 0.0625  plane waves:     124
 k-point 26 :  -0.1875-0.4375 0.0625  plane waves:     123
 k-point 27 :  -0.0625-0.4375 0.0625  plane waves:     124
 k-point 28 :  -0.3125-0.3125 0.0625  plane waves:     121
 k-point 29 :  -0.1875-0.3125 0.0625  plane waves:     125
 k-point 30 :  -0.0625-0.3125 0.0625  plane waves:     125
 k-point 31 :  -0.1875-0.1875 0.0625  plane waves:     123
 k-point 32 :  -0.0625-0.1875 0.0625  plane waves:     131
 k-point 33 :  -0.0625-0.0625 0.0625  plane waves:     131
 k-point 34 :   0.1875 0.1875 0.1875  plane waves:     131
 k-point 35 :   0.3125 0.1875 0.1875  plane waves:     130
 k-point 36 :  -0.1875 0.1875 0.1875  plane waves:     129
 k-point 37 :   0.3125 0.3125 0.1875  plane waves:     126
 k-point 38 :  -0.3125 0.3125 0.1875  plane waves:     126
 k-point 39 :  -0.1875 0.3125 0.1875  plane waves:     126
 k-point 40 :  -0.4375 0.4375 0.1875  plane waves:     129
 k-point 41 :  -0.3125 0.4375 0.1875  plane waves:     129
 k-point 42 :  -0.1875 0.4375 0.1875  plane waves:     128
 k-point 43 :  -0.4375-0.4375 0.1875  plane waves:     130
 k-point 44 :  -0.3125-0.4375 0.1875  plane waves:     127
 k-point 45 :  -0.1875-0.4375 0.1875  plane waves:     124
 k-point 46 :  -0.3125-0.3125 0.1875  plane waves:     121
 k-point 47 :  -0.1875-0.3125 0.1875  plane waves:     117
 k-point 48 :  -0.1875-0.1875 0.1875  plane waves:     119
 k-point 49 :  -0.3125 0.3125 0.3125  plane waves:     129
 k-point 50 :  -0.4375 0.4375 0.3125  plane waves:     131
 k-point 51 :  -0.3125 0.4375 0.3125  plane waves:     131
 k-point 52 :  -0.4375-0.4375 0.3125  plane waves:     129
 k-point 53 :  -0.3125-0.4375 0.3125  plane waves:     124
 k-point 54 :  -0.3125-0.3125 0.3125  plane waves:     122
 k-point 55 :  -0.4375 0.4375 0.4375  plane waves:     129
 k-point 56 :  -0.4375-0.4375 0.4375  plane waves:     126

 maximum and minimum number of plane-waves per node :       133      117

 maximum number of plane-waves:       133
 maximum index in each direction: 
   IXMAX=    4   IYMAX=    4   IZMAX=    3
   IXMIN=   -4   IYMIN=   -4   IZMIN=   -4


 serial   3D FFT for wavefunctions
 parallel 3D FFT for charge:
    minimum data exchange during FFTs selected (reduces bandwidth)


 total amount of memory used by VASP MPI-rank0    30857. kBytes
=======================================================================

   base      :      30000. kBytes
   nonl-proj :        491. kBytes
   fftplans  :         66. kBytes
   grid      :        158. kBytes
   one-center:          6. kBytes
   wavefun   :        136. kBytes
 
     INWAV:  cpu time    0.0000: real time    0.0005
 Broyden mixing: mesh for mixing (old mesh)
   NGX =  7   NGY =  7   NGZ =  7
  (NGX  = 24   NGY  = 24   NGZ  = 24)
  gives a total of    343 points

 initial charge density was supplied:
 charge density of overlapping atoms calculated
 number of electron       8.0000000 magnetization 
 keeping initial charge density in first step


--------------------------------------------------------------------------------------------------------


 Maximum index for augmentation-charges          241 (set IRDMAX)


--------------------------------------------------------------------------------------------------------


 First call to EWALD:  gamma=   0.567
 Maximum number of real-space cells 4x 4x 3
 Maximum number of reciprocal cells 3x 3x 3

    FEWALD:  cpu time    0.0080: real time    0.0072


--------------------------------------- Iteration      1(   1)  ---------------------------------------


    POTLOK:  cpu time    0.0200: real time    0.0376
    SETDIJ:  cpu time    0.0080: real time    0.0085
     EDDAV:  cpu time    0.4120: real time    0.4155
       DOS:  cpu time    0.0040: real time    0.0036
    --------------------------------------------
      LOOP:  cpu time    0.4480: real time    0.4659

 eigenvalue-minimisations  :   920
 total energy-change (2. order) :-0.4623658E+01  (-0.1760640E+03)
 number of electron       8.0000000 magnetization 
 augmentation part        8.0000000 magnetization 

 Free energy of the ion-electron system (eV)
  ---------------------------------------------------
  alpha Z        PSCENC =         4.40202223
  Ewald energy   TEWEN  =      -265.18101312
  -Hartree energ DENC   =        -2.30415367
  -exchange      EXHF   =         0.00000000
  -V(xc)+E(xc)   XCENC  =       -17.81530915
  PAW double counting   =        65.95520812      -30.76852678
  entropy T*S    EENTRO =        -0.01880474
  eigenvalues    EBANDS =        35.01508273
  atomic energy  EATOM  =       206.09183643
  Solvation  Ediel_sol  =         0.00000000
  ---------------------------------------------------
  free energy    TOTEN  =        -4.62365796 eV

  energy without entropy =       -4.60485321  energy(sigma->0) =       -4.61425558


--------------------------------------------------------------------------------------------------------




--------------------------------------- Iteration      1(   2)  ---------------------------------------


     EDDAV:  cpu time    0.6360: real time    0.6466
       DOS:  cpu time    0.0040: real time    0.0490
    --------------------------------------------
      LOOP:  cpu time    0.6400: real time    0.6954

 eigenvalue-minimisations  :  1376
 total energy-change (2. order) :-0.5434513E+01  (-0.5170173E+01)
 number of electron       8.0000000 magnetization 
 augmentation part        8.0000000 magnetization 

 Free energy of the ion-electron system (eV)
  ---------------------------------------------------
  alpha Z        PSCENC =         4.40202223
  Ewald energy   TEWEN  =      -265.18101312
  -Hartree energ DENC   =        -2.30415367
  -exchange      EXHF   =         0.00000000
  -V(xc)+E(xc)   XCENC  =       -17.81530915
  PAW double counting   =        65.95520812      -30.76852678
  entropy T*S    EENTRO =        -0.02153671
  eigenvalues    EBANDS =        29.58330139
  atomic energy  EATOM  =       206.09183643
  Solvation  Ediel_sol  =         0.00000000
  ---------------------------------------------------
  free energy    TOTEN  =       -10.05817126 eV

  energy without entropy =      -10.03663455  energy(sigma->0) =      -10.04740291


--------------------------------------------------------------------------------------------------------




--------------------------------------- Iteration      1(   3)  ---------------------------------------


     EDDAV:  cpu time    0.4720: real time    0.4790
       DOS:  cpu time    0.0040: real time    0.0032
    --------------------------------------------
      LOOP:  cpu time    0.4760: real time    0.4822

 eigenvalue-minimisations  :  1040
 total energy-change (2. order) :-0.3603086E-01  (-0.3600483E-01)
 number of electron       8.0000000 magnetization 
 augmentation part        8.0000000 magnetization 

 Free energy of the ion-electron system (eV)
  ---------------------------------------------------
  alpha Z        PSCENC =         4.40202223
  Ewald energy   TEWEN  =      -265.18101312
  -Hartree energ DENC   =        -2.30415367
  -exchange      EXHF   =         0.00000000
  -V(xc)+E(xc)   XCENC  =       -17.81530915
  PAW double counting   =        65.95520812      -30.76852678
  entropy T*S    EENTRO =        -0.02160930
  eigenvalues    EBANDS =        29.54734312
  atomic energy  EATOM  =       206.09183643
  Solvation  Ediel_sol  =         0.00000000
  ---------------------------------------------------
  free energy    TOTEN  =       -10.09420212 eV

  energy without entropy =      -10.07259282  energy(sigma->0) =      -10.08339747


--------------------------------------------------------------------------------------------------------




--------------------------------------- Iteration      1(   4)  ---------------------------------------


     EDDAV:  cpu time    0.6840: real time    0.6894
       DOS:  cpu time    0.0000: real time    0.0033
    --------------------------------------------
      LOOP:  cpu time    0.6840: real time    0.6926

 eigenvalue-minimisations  :  1432
 total energy-change (2. order) :-0.3206904E-04  (-0.3207024E-04)
 number of electron       8.0000000 magnetization 
 augmentation part        8.0000000 magnetization 

 Free energy of the ion-electron system (eV)
  ---------------------------------------------------
  alpha Z        PSCENC =         4.40202223
  Ewald energy   TEWEN  =      -265.18101312
  -Hartree energ DENC   =        -2.30415367
  -exchange      EXHF   =         0.00000000
  -V(xc)+E(xc)   XCENC  =       -17.81530915
  PAW double counting   =        65.95520812      -30.76852678
  entropy T*S    EENTRO =        -0.02160945
  eigenvalues    EBANDS =        29.54731120
  atomic energy  EATOM  =       206.09183643
  Solvation  Ediel_sol  =         0.00000000
  ---------------------------------------------------
  free energy    TOTEN  =       -10.09423419 eV

  energy without entropy =      -10.07262474  energy(sigma->0) =      -10.08342947


--------------------------------------------------------------------------------------------------------




--------------------------------------- Iteration      1(   5)  ---------------------------------------


     EDDAV:  cpu time    0.4400: real time    0.4471
       DOS:  cpu time    0.0040: real time    0.0032
    CHARGE:  cpu time    0.0120: real time    0.0116
    MIXING:  cpu time    0.0000: real time    0.0016
    --------------------------------------------
      LOOP:  cpu time    0.4560: real time    0.4636

 eigenvalue-minimisations  :   968
 total energy-change (2. order) :-0.2096158E-07  (-0.2004287E-07)
 number of electron       8.0000045 magnetization 
 augmentation part       -0.4650800 magnetization 

 Broyden mixing:
  rms(total) = 0.14852E+00    rms(broyden)= 0.14841E+00
  rms(prec ) = 0.33427E+00
  weight for this iteration     100.00

 Free energy of the ion-electron system (eV)
  ---------------------------------------------------
  alpha Z        PSCENC =         4.40202223
  Ewald energy   TEWEN  =      -265.18101312
  -Hartree energ DENC   =        -2.30415367
  -exchange      EXHF   =         0.00000000
  -V(xc)+E(xc)   XCENC  =       -17.81530915
  PAW double counting   =        65.95520812      -30.76852678
  entropy T*S    EENTRO =        -0.02160945
  eigenvalues    EBANDS =        29.54731118
  atomic energy  EATOM  =       206.09183643
  Solvation  Ediel_sol  =         0.00000000
  ---------------------------------------------------
  free energy    TOTEN  =       -10.09423421 eV

  energy without entropy =      -10.07262476  energy(sigma->0) =      -10.08342949


--------------------------------------------------------------------------------------------------------




--------------------------------------- Iteration      1(   6)  ---------------------------------------


    POTLOK:  cpu time    0.0160: real time    0.0224
    SETDIJ:  cpu time    0.0080: real time    0.0081
     EDDAV:  cpu time    0.4760: real time    0.4754
       DOS:  cpu time    0.0040: real time    0.0032
    CHARGE:  cpu time    0.0080: real time    0.0102
    MIXING:  cpu time    0.0000: real time    0.0015
    --------------------------------------------
      LOOP:  cpu time    0.5160: real time    0.5210

 eigenvalue-minimisations  :  1056
 total energy-change (2. order) : 0.8804907E-02  (-0.1868409E-03)
 number of electron       8.0000045 magnetization 
 augmentation part       -0.4667523 magnetization 

 Broyden mixing:
  rms(total) = 0.92739E-01    rms(broyden)= 0.92733E-01
  rms(prec ) = 0.20901E+00
  weight for this iteration     100.00

 eigenvalues of (default mixing * dielectric matrix)
  average eigenvalue GAMMA=   2.6599
  2.6599

 Free energy of the ion-electron system (eV)
  ---------------------------------------------------
  alpha Z        PSCENC =         4.40202223
  Ewald energy   TEWEN  =      -265.18101312
  -Hartree energ DENC   =        -2.32989541
  -exchange      EXHF   =         0.00000000
  -V(xc)+E(xc)   XCENC  =       -17.71825766
  PAW double counting   =        68.44279793      -33.29631890
  entropy T*S    EENTRO =        -0.02164763
  eigenvalues    EBANDS =        29.52504681
  atomic energy  EATOM  =       206.09183643
  Solvation  Ediel_sol  =         0.00000000
  ---------------------------------------------------
  free energy    TOTEN  =       -10.08542931 eV

  energy without entropy =      -10.06378168  energy(sigma->0) =      -10.07460549


--------------------------------------------------------------------------------------------------------




--------------------------------------- Iteration      1(   7)  ---------------------------------------


    POTLOK:  cpu time    0.0160: real time    0.0230
    SETDIJ:  cpu time    0.0080: real time    0.0080
     EDDAV:  cpu time    0.4400: real time    0.4380
       DOS:  cpu time    0.0000: real time    0.0033
    CHARGE:  cpu time    0.0120: real time    0.0103
    MIXING:  cpu time    0.0000: real time    0.0015
    --------------------------------------------
      LOOP:  cpu time    0.4720: real time    0.4842

 eigenvalue-minimisations  :   992
 total energy-change (2. order) : 0.6754385E-02  (-0.5212743E-03)
 number of electron       8.0000045 magnetization 
 augmentation part       -0.4698853 magnetization 

 Broyden mixing:
  rms(total) = 0.35531E-02    rms(broyden)= 0.35357E-02
  rms(prec ) = 0.93649E-02
  weight for this iteration     100.00

 eigenvalues of (default mixing * dielectric matrix)
  average eigenvalue GAMMA=   2.5318
  2.5318  2.5318

 Free energy of the ion-electron system (eV)
  ---------------------------------------------------
  alpha Z        PSCENC =         4.40202223
  Ewald energy   TEWEN  =      -265.18101312
  -Hartree energ DENC   =        -2.47143114
  -exchange      EXHF   =         0.00000000
  -V(xc)+E(xc)   XCENC  =       -17.54197451
  PAW double counting   =        72.47151558      -37.39452741
  entropy T*S    EENTRO =        -0.02170030
  eigenvalues    EBANDS =        29.56659731
  atomic energy  EATOM  =       206.09183643
  Solvation  Ediel_sol  =         0.00000000
  ---------------------------------------------------
  free energy    TOTEN  =       -10.07867492 eV

  energy without entropy =      -10.05697462  energy(sigma->0) =      -10.06782477


--------------------------------------------------------------------------------------------------------




--------------------------------------- Iteration      1(   8)  ---------------------------------------


    POTLOK:  cpu time    0.0160: real time    0.0248
    SETDIJ:  cpu time    0.0080: real time    0.0081
     EDDAV:  cpu time    0.2520: real time    0.2513
       DOS:  cpu time    0.0040: real time    0.0034
    --------------------------------------------
      LOOP:  cpu time    0.2800: real time    0.2874

 eigenvalue-minimisations  :   504
 total energy-change (2. order) : 0.2292529E-04  (-0.7427051E-05)
 number of electron       8.0000045 magnetization 
 augmentation part       -0.4698853 magnetization 

 Free energy of the ion-electron system (eV)
  ---------------------------------------------------
  alpha Z        PSCENC =         4.40202223
  Ewald energy   TEWEN  =      -265.18101312
  -Hartree energ DENC   =        -2.49280806
  -exchange      EXHF   =         0.00000000
  -V(xc)+E(xc)   XCENC  =       -17.54135705
  PAW double counting   =        72.30873478      -37.23314274
  entropy T*S    EENTRO =        -0.02170259
  eigenvalues    EBANDS =        29.58877812
  atomic energy  EATOM  =       206.09183643
  Solvation  Ediel_sol  =         0.00000000
  ---------------------------------------------------
  free energy    TOTEN  =       -10.07865200 eV

  energy without entropy =      -10.05694941  energy(sigma->0) =      -10.06780070


--------------------------------------------------------------------------------------------------------




 average (electrostatic) potential at core
  the test charge radii are     0.9892
  (the norm of the test charge is              1.0000)
       1 -80.5657       2 -80.5657
 
 
 
 E-fermi :   9.1088     XC(G=0): -10.8950     alpha+bet :-15.6819


 k-point     1 :       0.0625    0.0625    0.0625
  band No.  band energies     occupation 
      1      -4.0829      2.00000
      2       4.4072      2.00000
      3       6.7798      2.00000
      4       8.1024      2.00000
      5      12.1045      0.00000
      6      14.6194      0.00000
      7      15.4337      0.00000
      8      16.5994      0.00000

 k-point     2 :       0.1875    0.0625    0.0625
  band No.  band energies     occupation 
      1      -2.7666      2.00000
      2       4.2949      2.00000
      3       7.2301      2.00000
      4       9.6339      0.00020
      5      11.4363      0.00000
      6      11.9221      0.00000
      7      14.2614      0.00000
      8      14.8348      0.00000

 k-point     3 :       0.3125    0.0625    0.0625
  band No.  band energies     occupation 
      1      -0.5972      2.00000
      2       4.9292      2.00000
      3       6.2073      2.00000
      4       7.7187      2.00000
      5       9.2280      0.39919
      6      12.4907      0.00000
      7      13.6904      0.00000
      8      13.9352      0.00000

 k-point     4 :       0.4375    0.0625    0.0625
  band No.  band energies     occupation 
      1       2.1335      2.00000
      2       2.6799      2.00000
      3       6.3921      2.00000
      4       6.4383      2.00000
      5       9.1216      0.92776
      6      11.0800      0.00000
      7      13.6187      0.00000
      8      14.6495      0.00000

 k-point     5 :      -0.0625    0.0625    0.0625
  band No.  band energies     occupation 
      1      -4.5238      2.00000
      2       4.9229      2.00000
      3       5.9424      2.00000
      4       7.7393      2.00000
      5      11.1977      0.00000
      6      15.1727      0.00000
      7      17.4540      0.00000
      8      18.3204      0.00000

 k-point     6 :       0.1875    0.1875    0.0625
  band No.  band energies     occupation 
      1      -0.7780      2.00000
      2       4.8415      2.00000
      3       7.2135      2.00000
      4       7.2912      2.00000
      5       9.9711      0.00000
      6      11.9296      0.00000
      7      13.6830      0.00000
      8      13.7084      0.00000

 k-point     7 :       0.3125    0.1875    0.0625
  band No.  band energies     occupation 
      1       1.9955      2.00000
      2       3.5068      2.00000
      3       4.8481      2.00000
      4       6.1749      2.00000
      5      10.4176      0.00000
      6      12.1314      0.00000
      7      13.0721      0.00000
      8      15.0444      0.00000

 k-point     8 :       0.4375    0.1875    0.0625
  band No.  band energies     occupation 
      1       0.3067      2.00000
      2       3.1255      2.00000
      3       5.6899      2.00000
      4       7.8732      2.00000
      5       9.5186      0.00376
      6      12.1029      0.00000
      7      14.1668      0.00000
      8      15.1298      0.00000

 k-point     9 :      -0.4375    0.1875    0.0625
  band No.  band energies     occupation 
      1      -2.0311      2.00000
      2       2.2730      2.00000
      3       7.8541      2.00000
      4       9.6654      0.00008
      5      11.1521      0.00000
      6      11.7029      0.00000
      7      13.0686      0.00000
      8      15.3252      0.00000

 k-point    10 :      -0.3125    0.1875    0.0625
  band No.  band energies     occupation 
      1      -3.5265      2.00000
      2       2.2339      2.00000
      3       7.2980      2.00000
      4       9.0560      1.29084
      5      12.6496      0.00000
      6      14.2801      0.00000
      7      14.6023      0.00000
      8      15.6456      0.00000

 k-point    11 :      -0.1875    0.1875    0.0625
  band No.  band energies     occupation 
      1      -4.1521      2.00000
      2       2.9823      2.00000
      3       6.0378      2.00000
      4       9.0047      1.53847
      5      12.9258      0.00000
      6      13.1155      0.00000
      7      15.9666      0.00000
      8      19.1837      0.00000

 k-point    12 :      -0.0625    0.1875    0.0625
  band No.  band energies     occupation 
      1      -3.8975      2.00000
      2       4.0872      2.00000
      3       5.4912      2.00000
      4       9.6163      0.00033
      5      12.8295      0.00000
      6      13.0938      0.00000
      7      14.9510      0.00000
      8      17.0275      0.00000

 k-point    13 :       0.3125    0.3125    0.0625
  band No.  band energies     occupation 
      1       1.5453      2.00000
      2       1.5682      2.00000
      3       5.5193      2.00000
      4       7.8778      2.00000
      5      10.1148      0.00000
      6      11.0732      0.00000
      7      15.0290      0.00000
      8      16.0648      0.00000

 k-point    14 :       0.4375    0.3125    0.0625
  band No.  band energies     occupation 
      1      -0.9355      2.00000
      2       0.5076      2.00000
      3       8.7231      1.99362
      4       9.4063      0.03538
      5      10.3306      0.00000
      6      12.0273      0.00000
      7      12.7000      0.00000
      8      14.0508      0.00000

 k-point    15 :      -0.4375    0.3125    0.0625
  band No.  band energies     occupation 
      1      -2.6040      2.00000
      2       0.2988      2.00000
      3       8.1612      2.00000
      4      10.0444      0.00000
      5      10.8840      0.00000
      6      12.7392      0.00000
      7      15.1542      0.00000
      8      15.1681      0.00000

 k-point    16 :      -0.3125    0.3125    0.0625
  band No.  band energies     occupation 
      1      -3.4113      2.00000
      2       0.9298      2.00000
      3       6.7191      2.00000
      4       9.9743      0.00000
      5      10.8942      0.00000
      6      14.1376      0.00000
      7      16.1212      0.00000
      8      18.8879      0.00000

 k-point    17 :      -0.1875    0.3125    0.0625
  band No.  band energies     occupation 
      1      -3.3425      2.00000
      2       2.3452      2.00000
      3       5.5758      2.00000
      4      10.8321      0.00000
      5      11.0759      0.00000
      6      14.1472      0.00000
      7      15.1859      0.00000
      8      16.7743      0.00000

 k-point    18 :      -0.0625    0.3125    0.0625
  band No.  band energies     occupation 
      1      -2.3992      2.00000
      2       4.0829      2.00000
      3       5.6361      2.00000
      4       9.4736      0.00989
      5      11.5073      0.00000
      6      12.7517      0.00000
      7      14.0668      0.00000
      8      14.6870      0.00000

 k-point    19 :       0.4375    0.4375    0.0625
  band No.  band energies     occupation 
      1      -1.3244      2.00000
      2      -1.3244      2.00000
      3       9.3534      0.08369
      4       9.3534      0.08368
      5      11.2817      0.00000
      6      11.2817      0.00000
      7      15.0163      0.00000
      8      15.0164      0.00000

 k-point    20 :      -0.4375    0.4375    0.0625
  band No.  band energies     occupation 
      1      -2.3079      2.00000
      2      -0.8537      2.00000
      3       7.7671      2.00000
      4       9.1666      0.68268
      5      11.1003      0.00000
      6      12.4896      0.00000
      7      18.5381      0.00000
      8      18.6608      0.00000

 k-point    21 :      -0.3125    0.4375    0.0625
  band No.  band energies     occupation 
      1      -2.4230      2.00000
      2       0.4603      2.00000
      3       6.3994      2.00000
      4       9.1611      0.71169
      5      11.8298      0.00000
      6      13.6755      0.00000
      7      15.4814      0.00000
      8      16.3680      0.00000

 k-point    22 :      -0.1875    0.4375    0.0625
  band No.  band energies     occupation 
      1      -1.6679      2.00000
      2       2.5410      2.00000
      3       5.8113      2.00000
      4       8.8962      1.86714
      5       9.8633      0.00000
      6      13.4465      0.00000
      7      14.2057      0.00000
      8      16.3448      0.00000

 k-point    23 :      -0.0625    0.4375    0.0625
  band No.  band energies     occupation 
      1      -0.0564      2.00000
      2       4.7623      2.00000
      3       5.5077      2.00000
      4       6.4673      2.00000
      5       9.7146      0.00002
      6      12.2744      0.00000
      7      12.4309      0.00000
      8      15.6782      0.00000

 k-point    24 :      -0.4375   -0.4375    0.0625
  band No.  band energies     occupation 
      1      -1.1503      2.00000
      2      -1.1473      2.00000
      3       7.5999      2.00000
      4       7.6242      2.00000
      5      12.4146      0.00000
      6      13.4073      0.00000
      7      14.7968      0.00000
      8      16.3008      0.00000

 k-point    25 :      -0.3125   -0.4375    0.0625
  band No.  band energies     occupation 
      1      -0.5807      2.00000
      2       0.8423      2.00000
      3       6.7670      2.00000
      4       8.0423      2.00000
      5       8.7945      1.97373
      6      13.2478      0.00000
      7      15.2071      0.00000
      8      16.6412      0.00000

 k-point    26 :      -0.1875   -0.4375    0.0625
  band No.  band energies     occupation 
      1       0.8358      2.00000
      2       3.5297      2.00000
      3       4.8781      2.00000
      4       6.7917      2.00000
      5       9.0558      1.29223
      6      11.2365      0.00000
      7      13.8930      0.00000
      8      16.9117      0.00000

 k-point    27 :      -0.0625   -0.4375    0.0625
  band No.  band energies     occupation 
      1       1.6406      2.00000
      2       3.1641      2.00000
      3       6.5222      2.00000
      4       7.6903      2.00000
      5       8.0244      2.00000
      6      10.7503      0.00000
      7      12.2019      0.00000
      8      15.8453      0.00000

 k-point    28 :      -0.3125   -0.3125    0.0625
  band No.  band energies     occupation 
      1       2.0309      2.00000
      2       2.0848      2.00000
      3       4.6803      2.00000
      4       7.6719      2.00000
      5       8.0126      2.00000
      6      10.9486      0.00000
      7      15.7176      0.00000
      8      16.1711      0.00000

 k-point    29 :      -0.1875   -0.3125    0.0625
  band No.  band energies     occupation 
      1       1.3039      2.00000
      2       4.1703      2.00000
      3       5.4559      2.00000
      4       7.6016      2.00000
      5       8.8339      1.94807
      6      10.6812      0.00000
      7      12.1532      0.00000
      8      14.4588      0.00000

 k-point    30 :      -0.0625   -0.3125    0.0625
  band No.  band energies     occupation 
      1      -1.1435      2.00000
      2       6.4959      2.00000
      3       7.0771      2.00000
      4       7.7413      2.00000
      5       9.1274      0.89529
      6      11.7070      0.00000
      7      12.2670      0.00000
      8      13.7336      0.00000

 k-point    31 :      -0.1875   -0.1875    0.0625
  band No.  band energies     occupation 
      1      -1.3261      2.00000
      2       6.8666      2.00000
      3       7.8564      2.00000
      4       7.9192      2.00000
      5       9.2691      0.25684
      6      11.0341      0.00000
      7      12.2619      0.00000
      8      12.4751      0.00000

 k-point    32 :      -0.0625   -0.1875    0.0625
  band No.  band energies     occupation 
      1      -3.1359      2.00000
      2       6.1894      2.00000
      3       7.1349      2.00000
      4       8.7836      1.97851
      5      11.8575      0.00000
      6      12.4136      0.00000
      7      12.5300      0.00000
      8      14.9160      0.00000

 k-point    33 :      -0.0625   -0.0625    0.0625
  band No.  band energies     occupation 
      1      -4.2689      2.00000
      2       6.5305      2.00000
      3       6.6068      2.00000
      4       6.6068      2.00000
      5      11.0114      0.00000
      6      15.8444      0.00000
      7      15.9451      0.00000
      8      17.2366      0.00000

 k-point    34 :       0.1875    0.1875    0.1875
  band No.  band energies     occupation 
      1       0.1293      2.00000
      2       2.9718      2.00000
      3       6.7941      2.00000
      4       6.8340      2.00000
      5      10.9137      0.00000
      6      12.6976      0.00000
      7      13.9588      0.00000
      8      14.5081      0.00000

 k-point    35 :       0.3125    0.1875    0.1875
  band No.  band energies     occupation 
      1       2.8461      2.00000
      2       3.3303      2.00000
      3       4.3709      2.00000
      4       4.7438      2.00000
      5      12.0549      0.00000
      6      13.9472      0.00000
      7      14.1536      0.00000
      8      14.4346      0.00000

 k-point    36 :      -0.1875    0.1875    0.1875
  band No.  band energies     occupation 
      1      -3.7821      2.00000
      2       2.7636      2.00000
      3       4.3642      2.00000
      4      10.7166      0.00000
      5      11.1207      0.00000
      6      14.2258      0.00000
      7      17.8716      0.00000
      8      18.0736      0.00000

 k-point    37 :       0.3125    0.3125    0.1875
  band No.  band energies     occupation 
      1       1.3866      2.00000
      2       1.3866      2.00000
      3       6.6623      2.00000
      4       6.6624      2.00000
      5      12.1357      0.00000
      6      12.1358      0.00000
      7      13.9320      0.00000
      8      13.9321      0.00000

 k-point    38 :      -0.3125    0.3125    0.1875
  band No.  band energies     occupation 
      1      -3.0455      2.00000
      2       1.2017      2.00000
      3       4.5419      2.00000
      4       8.6650      1.99830
      5      12.5613      0.00000
      6      16.5080      0.00000
      7      16.7312      0.00000
      8      18.3501      0.00000

 k-point    39 :      -0.1875    0.3125    0.1875
  band No.  band energies     occupation 
      1      -2.7920      2.00000
      2       2.2766      2.00000
      3       3.9679      2.00000
      4       8.8829      1.88983
      5      12.3898      0.00000
      6      14.3848      0.00000
      7      16.4384      0.00000
      8      17.8361      0.00000

 k-point    40 :      -0.4375    0.4375    0.1875
  band No.  band energies     occupation 
      1      -1.9506      2.00000
      2      -0.5161      2.00000
      3       5.5287      2.00000
      4       6.9209      2.00000
      5      13.7577      0.00000
      6      15.0719      0.00000
      7      17.9658      0.00000
      8      18.0768      0.00000

 k-point    41 :      -0.3125    0.4375    0.1875
  band No.  band energies     occupation 
      1      -1.8829      2.00000
      2       0.9035      2.00000
      3       4.2832      2.00000
      4       6.9907      2.00000
      5      12.4119      0.00000
      6      15.4198      0.00000
      7      17.8160      0.00000
      8      18.0677      0.00000

 k-point    42 :      -0.1875    0.4375    0.1875
  band No.  band energies     occupation 
      1      -0.9474      2.00000
      2       2.6395      2.00000
      3       4.3632      2.00000
      4       7.7496      2.00000
      5       8.4534      2.00000
      6      14.6901      0.00000
      7      16.3619      0.00000
      8      16.6385      0.00000

 k-point    43 :      -0.4375   -0.4375    0.1875
  band No.  band energies     occupation 
      1      -0.6347      2.00000
      2      -0.6291      2.00000
      3       5.4336      2.00000
      4       5.4359      2.00000
      5      12.3249      0.00000
      6      16.3084      0.00000
      7      17.0545      0.00000
      8      17.8824      0.00000

 k-point    44 :      -0.3125   -0.4375    0.1875
  band No.  band energies     occupation 
      1       0.1152      2.00000
      2       1.4601      2.00000
      3       4.8282      2.00000
      4       6.1250      2.00000
      5       8.0628      2.00000
      6      14.9856      0.00000
      7      17.5331      0.00000
      8      18.2060      0.00000

 k-point    45 :      -0.1875   -0.4375    0.1875
  band No.  band energies     occupation 
      1       1.6961      2.00000
      2       3.6927      2.00000
      3       4.4997      2.00000
      4       5.5432      2.00000
      5       7.5931      2.00000
      6      12.3773      0.00000
      7      13.8938      0.00000
      8      17.2174      0.00000

 k-point    46 :      -0.3125   -0.3125    0.1875
  band No.  band energies     occupation 
      1       2.7487      2.00000
      2       2.8823      2.00000
      3       4.2299      2.00000
      4       6.1532      2.00000
      5       6.2263      2.00000
      6      12.6638      0.00000
      7      15.2004      0.00000
      8      15.8922      0.00000

 k-point    47 :      -0.1875   -0.3125    0.1875
  band No.  band energies     occupation 
      1       0.9515      2.00000
      2       5.1203      2.00000
      3       5.9176      2.00000
      4       7.3561      2.00000
      5       8.0018      2.00000
      6      10.9040      0.00000
      7      12.0310      0.00000
      8      13.3975      0.00000

 k-point    48 :      -0.1875   -0.1875    0.1875
  band No.  band energies     occupation 
      1      -1.5091      2.00000
      2       8.1360      2.00000
      3       8.4463      2.00000
      4       8.4464      2.00000
      5       8.7470      1.98947
      6       9.9930      0.00000
      7      11.9550      0.00000
      8      11.9550      0.00000

 k-point    49 :      -0.3125    0.3125    0.3125
  band No.  band energies     occupation 
      1      -2.3194      2.00000
      2       1.2973      2.00000
      3       3.0602      2.00000
      4       6.5945      2.00000
      5      14.7484      0.00000
      6      16.9933      0.00000
      7      18.0794      0.00000
      8      18.3901      0.00000

 k-point    50 :      -0.4375    0.4375    0.3125
  band No.  band energies     occupation 
      1      -1.2493      2.00000
      2       0.1051      2.00000
      3       3.5311      2.00000
      4       4.8599      2.00000
      5      15.9267      0.00000
      6      16.5427      0.00000
      7      18.2408      0.00000
      8      18.9406      0.00000

 k-point    51 :      -0.3125    0.4375    0.3125
  band No.  band energies     occupation 
      1      -0.9988      2.00000
      2       1.1754      2.00000
      3       2.9636      2.00000
      4       5.0974      2.00000
      5      12.0769      0.00000
      6      17.7822      0.00000
      7      19.1693      0.00000
      8      19.7393      0.00000

 k-point    52 :      -0.4375   -0.4375    0.3125
  band No.  band energies     occupation 
      1       0.1671      2.00000
      2       0.1748      2.00000
      3       3.6007      2.00000
      4       3.6016      2.00000
      5      11.9415      0.00000
      6      19.0944      0.00000
      7      19.4516      0.00000
      8      19.7672      0.00000

 k-point    53 :      -0.3125   -0.4375    0.3125
  band No.  band energies     occupation 
      1       1.0958      2.00000
      2       1.9094      2.00000
      3       3.6933      2.00000
      4       4.4919      2.00000
      5       7.7185      2.00000
      6      16.5457      0.00000
      7      18.0018      0.00000
      8      18.8814      0.00000

 k-point    54 :      -0.3125   -0.3125    0.3125
  band No.  band energies     occupation 
      1       3.1971      2.00000
      2       3.5134      2.00000
      3       4.2724      2.00000
      4       5.2218      2.00000
      5       5.2218      2.00000
      6      14.2064      0.00000
      7      15.0164      0.00000
      8      15.0164      0.00000

 k-point    55 :      -0.4375    0.4375    0.4375
  band No.  band energies     occupation 
      1      -0.2630      2.00000
      2       0.5573      2.00000
      3       2.3770      2.00000
      4       3.1857      2.00000
      5      16.3814      0.00000
      6      16.4776      0.00000
      7      19.9796      0.00000
      8      20.7632      0.00000

 k-point    56 :      -0.4375   -0.4375    0.4375
  band No.  band energies     occupation 
      1       0.7999      2.00000
      2       0.8108      2.00000
      3       2.6211      2.00000
      4       2.6211      2.00000
      5      11.7998      0.00000
      6      20.1622      0.00000
      7      20.9207      0.00000
      8      20.9259      0.00000


--------------------------------------------------------------------------------------------------------


 soft charge-density along one line, spin component           1
         0         1         2         3         4         5         6         7         8         9
 total charge-density along one line
 
 pseudopotential strength for first ion, spin component:           1
 18.069  -0.003   0.000  -0.000  -0.000  -0.000   0.000   0.000
 -0.003   0.005  -0.000   0.000   0.000   0.000  -0.000  -0.000
  0.000  -0.000   4.118   0.000   0.000  -0.006  -0.000  -0.000
 -0.000   0.000   0.000   4.119   0.000  -0.000  -0.006  -0.000
 -0.000   0.000   0.000   0.000   4.118  -0.000  -0.000  -0.006
 -0.000   0.000  -0.006  -0.000  -0.000   0.005   0.000   0.000
  0.000  -0.000  -0.000  -0.006  -0.000   0.000   0.005   0.000
  0.000  -0.000  -0.000  -0.000  -0.006   0.000   0.000   0.005
 total augmentation occupancy for first ion, spin component:           1
  1.619  -0.680   0.000   0.000   0.000   0.000   0.000   0.000
 -0.680   1.114   0.000   0.000   0.000   0.000   0.000   0.000
  0.000   0.000   0.872  -0.000  -0.000  -0.802   0.000   0.000
  0.000   0.000   0.000   0.854   0.000   0.000  -0.814   0.000
  0.000   0.000  -0.000   0.000   0.872   0.000  -0.000  -0.802
  0.000  -0.000  -0.802   0.000   0.000   0.826   0.000  -0.000
  0.000   0.000   0.000  -0.814  -0.000   0.000   0.869  -0.000
  0.000  -0.000   0.000   0.000  -0.802  -0.000  -0.000   0.826


------------------------ aborting loop because EDIFF is reached ----------------------------------------


    CHARGE:  cpu time    0.0120: real time    0.0100
    FORLOC:  cpu time    0.0000: real time    0.0004
    FORNL :  cpu time    0.0080: real time    0.0081
    STRESS:  cpu time    0.0720: real time    0.0722
    FORCOR:  cpu time    0.0080: real time    0.0092
    FORHAR:  cpu time    0.0040: real time    0.0030
    MIXING:  cpu time    0.0000: real time    0.0008
    OFIELD:  cpu time    0.0000: real time    0.0004

  FORCE on cell =-STRESS in cart. coord.  units (eV):
  Direction    XX          YY          ZZ          XY          YZ          ZX
  --------------------------------------------------------------------------------------
  Alpha Z     4.40202     4.40202     4.40202
  Ewald     -90.96023   -90.96023   -83.26083    -0.00000     0.00000     0.00000
  Hartree     0.55221     0.55221     1.39297     0.00000    -0.00000    -0.00000
  E(xc)     -25.42231   -25.42231   -25.38329     0.00012     0.00006     0.00006
  Local     -11.23394   -11.23394   -17.72206    -0.00004    -0.00012    -0.00012
  n-local    77.30314    77.33114    77.00114     0.99089    -0.49299    -0.45931
  augment   -11.97834   -11.97834   -11.91959     0.00008     0.00008     0.00008
  Kinetic    56.65275    56.94079    56.93316     3.19846    -2.05559    -2.75490
  Fock        0.00000     0.00000     0.00000     0.00000     0.00000     0.00000
  -------------------------------------------------------------------------------------
  Total      -0.52667    -0.52667     1.44353    -0.00000     0.00000     0.00000
  in kB     -27.58590   -27.58590    75.60928    -0.00000     0.00000     0.00000
  external pressure =        6.81 kB  Pullay stress =        0.00 kB


 VOLUME and BASIS-vectors are now :
 -----------------------------------------------------------------------------
  energy-cutoff  :      150.00
  volume of cell :       30.59
      direct lattice vectors                 reciprocal lattice vectors
    -2.450000000  2.450000000  1.274000000     0.000000000  0.204081633  0.392464678
     2.450000000 -2.450000000  1.274000000     0.204081633  0.000000000  0.392464678
     2.450000000  2.450000000 -1.274000000     0.204081633  0.204081633 -0.000000000

  length of vectors
     3.691622408  3.691622408  3.691622408     0.442354876  0.442354876  0.288615013


 FORCES acting on ions
    electron-ion (+dipol)            ewald-force                    non-local-force                 convergence-correction
 -----------------------------------------------------------------------------------------------
   -.269E-04 0.269E-04 -.520E-14   0.198E-14 0.156E-15 0.342E-17   0.143E-16 -.690E-16 0.182E-16   -.340E-06 0.340E-06 -.276E-15
   0.269E-04 -.269E-04 -.101E-14   -.185E-14 0.943E-16 0.891E-15   -.681E-17 0.626E-16 -.101E-16   0.340E-06 -.340E-06 0.133E-16
 -----------------------------------------------------------------------------------------------
   -.884E-14 0.170E-15 -.621E-14   0.139E-15 0.250E-15 0.894E-15   0.746E-17 -.642E-17 0.806E-17   0.443E-16 -.769E-16 -.263E-15
 
 
 POSITION                                       TOTAL-FORCE (eV/Angst)
 -----------------------------------------------------------------------------------
      2.45000      0.00000      0.63700        -0.000000     -0.000000     -0.000000
      0.00000      0.00000      0.00000         0.000000      0.000000      0.000000
 -----------------------------------------------------------------------------------
    total drift:                               -0.000000      0.000000     -0.000000


--------------------------------------------------------------------------------------------------------



  FREE ENERGIE OF THE ION-ELECTRON SYSTEM (eV)
  ---------------------------------------------------
  free  energy   TOTEN  =       -10.07865200 eV

  energy  without entropy=      -10.05694941  energy(sigma->0) =      -10.06780070
 


--------------------------------------------------------------------------------------------------------


    POTLOK:  cpu time    0.0280: real time    0.0448


--------------------------------------------------------------------------------------------------------




--------------------------------------------------------------------------------------------------------


    WAVPRE:  cpu time    0.3000: real time    0.7350
    FEWALD:  cpu time    0.0000: real time    0.0009
    GENKIN:  cpu time    0.0120: real time    0.0120
    ORTHCH:  cpu time    0.0320: real time    0.0315
     LOOP+:  cpu time    4.5320: real time    5.2356


--------------------------------------- Iteration      2(   1)  ---------------------------------------


    POTLOK:  cpu time    0.0160: real time    0.0266
    SETDIJ:  cpu time    0.0080: real time    0.0086
     EDDAV:  cpu time    0.5680: real time    0.5702
       DOS:  cpu time    0.0040: real time    0.0033
    CHARGE:  cpu time    0.0080: real time    0.0108
    MIXING:  cpu time    0.0040: real time    0.0010
    --------------------------------------------
      LOOP:  cpu time    0.6080: real time    0.6211

 eigenvalue-minimisations  :  1240
 total energy-change (2. order) :-0.7423692E-01  (-0.1600589E+00)
 number of electron       8.0000009 magnetization 
 augmentation part       -0.4690798 magnetization 

 Broyden mixing:
  rms(total) = 0.75539E-01    rms(broyden)= 0.75415E-01
  rms(prec ) = 0.23109E+00
  weight for this iteration     100.00

 Free energy of the ion-electron system (eV)
  ---------------------------------------------------
  alpha Z        PSCENC =         4.36407979
  Ewald energy   TEWEN  =      -264.53329758
  -Hartree energ DENC   =        -2.46412931
  -exchange      EXHF   =         0.00000000
  -V(xc)+E(xc)   XCENC  =       -17.58578396
  PAW double counting   =        72.31676168      -37.24168627
  entropy T*S    EENTRO =        -0.02098035
  eigenvalues    EBANDS =        28.92028773
  atomic energy  EATOM  =       206.09183643
  Solvation  Ediel_sol  =         0.00000000
  ---------------------------------------------------
  free energy    TOTEN  =       -10.15291184 eV

  energy without entropy =      -10.13193149  energy(sigma->0) =      -10.14242167


--------------------------------------------------------------------------------------------------------




--------------------------------------- Iteration      2(   2)  ---------------------------------------


    POTLOK:  cpu time    0.0160: real time    0.0291
    SETDIJ:  cpu time    0.0080: real time    0.0120
     EDDAV:  cpu time    0.4880: real time    0.4889
       DOS:  cpu time    0.0000: real time    0.0034
    CHARGE:  cpu time    0.0120: real time    0.0102
    MIXING:  cpu time    0.0000: real time    0.0010
    --------------------------------------------
      LOOP:  cpu time    0.5240: real time    0.5447

 eigenvalue-minimisations  :  1088
 total energy-change (2. order) : 0.1616473E-01  (-0.3141988E-02)
 number of electron       8.0000009 magnetization 
 augmentation part       -0.4697053 magnetization 

 Broyden mixing:
  rms(total) = 0.42338E-01    rms(broyden)= 0.42332E-01
  rms(prec ) = 0.12945E+00
  weight for this iteration     100.00

 eigenvalues of (default mixing * dielectric matrix)
  average eigenvalue GAMMA=   2.2742
  2.2742

 Free energy of the ion-electron system (eV)
  ---------------------------------------------------
  alpha Z        PSCENC =         4.36407979
  Ewald energy   TEWEN  =      -264.53329758
  -Hartree energ DENC   =        -2.46698068
  -exchange      EXHF   =         0.00000000
  -V(xc)+E(xc)   XCENC  =       -17.58668768
  PAW double counting   =        72.29402642      -37.21823941
  entropy T*S    EENTRO =        -0.02106038
  eigenvalues    EBANDS =        28.93957599
  atomic energy  EATOM  =       206.09183643
  Solvation  Ediel_sol  =         0.00000000
  ---------------------------------------------------
  free energy    TOTEN  =       -10.13674711 eV

  energy without entropy =      -10.11568672  energy(sigma->0) =      -10.12621692


--------------------------------------------------------------------------------------------------------




--------------------------------------- Iteration      2(   3)  ---------------------------------------


    POTLOK:  cpu time    0.0160: real time    0.0292
    SETDIJ:  cpu time    0.0080: real time    0.0083
     EDDAV:  cpu time    0.5200: real time    0.5207
       DOS:  cpu time    0.0040: real time    0.0033
    CHARGE:  cpu time    0.0080: real time    0.0102
    MIXING:  cpu time    0.0040: real time    0.0013
    --------------------------------------------
      LOOP:  cpu time    0.5600: real time    0.5729

 eigenvalue-minimisations  :  1160
 total energy-change (2. order) : 0.7784639E-02  (-0.2081193E-02)
 number of electron       8.0000009 magnetization 
 augmentation part       -0.4695082 magnetization 

 Broyden mixing:
  rms(total) = 0.36075E-02    rms(broyden)= 0.36043E-02
  rms(prec ) = 0.85453E-02
  weight for this iteration     100.00

 eigenvalues of (default mixing * dielectric matrix)
  average eigenvalue GAMMA=   1.3797
  2.2341  0.5254

 Free energy of the ion-electron system (eV)
  ---------------------------------------------------
  alpha Z        PSCENC =         4.36407979
  Ewald energy   TEWEN  =      -264.53329758
  -Hartree energ DENC   =        -2.49925826
  -exchange      EXHF   =         0.00000000
  -V(xc)+E(xc)   XCENC  =       -17.58617970
  PAW double counting   =        72.24884712      -37.17241193
  entropy T*S    EENTRO =        -0.02114127
  eigenvalues    EBANDS =        28.97856294
  atomic energy  EATOM  =       206.09183643
  Solvation  Ediel_sol  =         0.00000000
  ---------------------------------------------------
  free energy    TOTEN  =       -10.12896247 eV

  energy without entropy =      -10.10782120  energy(sigma->0) =      -10.11839183


--------------------------------------------------------------------------------------------------------




--------------------------------------- Iteration      2(   4)  ---------------------------------------


    POTLOK:  cpu time    0.0120: real time    0.0265
    SETDIJ:  cpu time    0.0080: real time    0.0081
     EDDAV:  cpu time    0.3560: real time    0.3566
       DOS:  cpu time    0.0040: real time    0.0032
    --------------------------------------------
      LOOP:  cpu time    0.3800: real time    0.3946

 eigenvalue-minimisations  :   784
 total energy-change (2. order) :-0.4925288E-04  (-0.6718731E-04)
 number of electron       8.0000009 magnetization 
 augmentation part       -0.4695082 magnetization 

 Free energy of the ion-electron system (eV)
  ---------------------------------------------------
  alpha Z        PSCENC =         4.36407979
  Ewald energy   TEWEN  =      -264.53329758
  -Hartree energ DENC   =        -2.49777719
  -exchange      EXHF   =         0.00000000
  -V(xc)+E(xc)   XCENC  =       -17.58669791
  PAW double counting   =        72.23864294      -37.16183433
  entropy T*S    EENTRO =        -0.02113936
  eigenvalues    EBANDS =        28.97717549
  atomic energy  EATOM  =       206.09183643
  Solvation  Ediel_sol  =         0.00000000
  ---------------------------------------------------
[...]
      8      16.0675      0.00000

 k-point    22 :      -0.1875    0.4375    0.0625
  band No.  band energies     occupation 
      1      -1.7648      2.00000
      2       2.7060      2.00000
      3       5.8812      2.00000
      4       7.8814      2.00000
      5      10.1398      0.00000
      6      12.7910      0.00000
      7      14.6751      0.00000
      8      15.7193      0.00000

 k-point    23 :      -0.0625    0.4375    0.0625
  band No.  band energies     occupation 
      1      -0.3694      2.00000
      2       4.1630      2.00000
      3       5.5316      2.00000
      4       6.1847      2.00000
      5       9.4768      0.00079
      6      11.8113      0.00000
      7      12.3954      0.00000
      8      15.7848      0.00000

 k-point    24 :      -0.4375   -0.4375    0.0625
  band No.  band energies     occupation 
      1      -1.0415      2.00000
      2      -1.0337      2.00000
      3       7.9584      2.00000
      4       7.9828      2.00000
      5      11.6469      0.00000
      6      14.0418      0.00000
      7      14.8697      0.00000
      8      15.0692      0.00000

 k-point    25 :      -0.3125   -0.4375    0.0625
  band No.  band energies     occupation 
      1      -0.6174      2.00000
      2       0.8893      2.00000
      3       6.7501      2.00000
      4       7.5679      2.00000
      5       8.6461      1.98817
      6      12.3920      0.00000
      7      15.8290      0.00000
      8      17.0936      0.00000

 k-point    26 :      -0.1875   -0.4375    0.0625
  band No.  band energies     occupation 
      1       0.5600      2.00000
      2       3.2247      2.00000
      3       4.3326      2.00000
      4       6.7080      2.00000
      5       9.0060      0.97775
      6      10.9887      0.00000
      7      13.4732      0.00000
      8      17.1577      0.00000

 k-point    27 :      -0.0625   -0.4375    0.0625
  band No.  band energies     occupation 
      1       0.9545      2.00000
      2       2.7544      2.00000
      3       6.5714      2.00000
      4       7.0991      2.00000
      5       7.9594      2.00000
      6      10.5221      0.00000
      7      12.0799      0.00000
      8      16.0017      0.00000

 k-point    28 :      -0.3125   -0.3125    0.0625
  band No.  band energies     occupation 
      1       1.7189      2.00000
      2       1.9283      2.00000
      3       3.9667      2.00000
      4       7.5962      2.00000
      5       8.0734      2.00000
      6      10.5721      0.00000
      7      15.4187      0.00000
      8      16.1798      0.00000

 k-point    29 :      -0.1875   -0.3125    0.0625
  band No.  band energies     occupation 
      1       0.6315      2.00000
      2       3.7923      2.00000
      3       5.1996      2.00000
      4       7.4254      2.00000
      5       8.5763      1.99739
      6      10.4595      0.00000
      7      12.1113      0.00000
      8      14.6735      0.00000

 k-point    30 :      -0.0625   -0.3125    0.0625
  band No.  band energies     occupation 
      1      -1.5086      2.00000
      2       5.9794      2.00000
      3       7.2340      2.00000
      4       7.4162      2.00000
      5       8.7378      1.93832
      6      11.1868      0.00000
      7      12.1252      0.00000
      8      13.8764      0.00000

 k-point    31 :      -0.1875   -0.1875    0.0625
  band No.  band energies     occupation 
      1      -1.7002      2.00000
      2       6.7097      2.00000
      3       7.2896      2.00000
      4       7.7259      2.00000
      5       9.1119      0.43736
      6      10.9247      0.00000
      7      12.0198      0.00000
      8      12.2248      0.00000

 k-point    32 :      -0.0625   -0.1875    0.0625
  band No.  band energies     occupation 
      1      -3.3122      2.00000
      2       6.5907      2.00000
      3       7.2033      2.00000
      4       9.2854      0.04512
      5      11.1384      0.00000
      6      11.5508      0.00000
      7      12.4848      0.00000
      8      14.0925      0.00000

 k-point    33 :      -0.0625   -0.0625    0.0625
  band No.  band energies     occupation 
      1      -4.3297      2.00000
      2       6.8947      2.00000
      3       6.8947      2.00000
      4       7.5531      2.00000
      5      11.1601      0.00000
      6      14.7126      0.00000
      7      14.8584      0.00000
      8      16.8418      0.00000

 k-point    34 :       0.1875    0.1875    0.1875
  band No.  band energies     occupation 
      1      -0.1730      2.00000
      2       2.7974      2.00000
      3       6.1190      2.00000
      4       6.2278      2.00000
      5      11.0316      0.00000
      6      13.0082      0.00000
      7      14.2433      0.00000
      8      14.6068      0.00000

 k-point    35 :       0.3125    0.1875    0.1875
  band No.  band energies     occupation 
      1       2.0992      2.00000
      2       2.8826      2.00000
      3       3.9593      2.00000
      4       4.6605      2.00000
      5      11.9242      0.00000
      6      13.9205      0.00000
      7      14.2589      0.00000
      8      14.4264      0.00000

 k-point    36 :      -0.1875    0.1875    0.1875
  band No.  band energies     occupation 
      1      -3.7574      2.00000
      2       3.2915      2.00000
      3       4.5379      2.00000
      4      11.2419      0.00000
      5      11.9533      0.00000
      6      14.6211      0.00000
      7      16.3667      0.00000
      8      16.7919      0.00000

 k-point    37 :       0.3125    0.3125    0.1875
  band No.  band energies     occupation 
      1       1.1436      2.00000
      2       1.1436      2.00000
      3       5.9985      2.00000
      4       5.9985      2.00000
      5      12.3491      0.00000
      6      12.3491      0.00000
      7      14.2437      0.00000
      8      14.2438      0.00000

 k-point    38 :      -0.3125    0.3125    0.1875
  band No.  band energies     occupation 
      1      -2.9799      2.00000
      2       1.5429      2.00000
      3       4.8226      2.00000
      4       9.1471      0.30518
      5      13.2546      0.00000
      6      15.6182      0.00000
      7      16.2810      0.00000
      8      17.4589      0.00000

 k-point    39 :      -0.1875    0.3125    0.1875
  band No.  band energies     occupation 
      1      -2.7717      2.00000
      2       2.7225      2.00000
      3       4.0554      2.00000
      4       9.2678      0.06023
      5      11.5127      0.00000
      6      14.7552      0.00000
      7      16.5772      0.00000
      8      16.6087      0.00000

 k-point    40 :      -0.4375    0.4375    0.1875
  band No.  band energies     occupation 
      1      -1.8227      2.00000
      2      -0.3011      2.00000
      3       5.8844      2.00000
      4       7.3407      2.00000
      5      14.1833      0.00000
      6      14.9481      0.00000
      7      16.3677      0.00000
      8      17.0271      0.00000

 k-point    41 :      -0.3125    0.4375    0.1875
  band No.  band energies     occupation 
      1      -1.8101      2.00000
      2       1.1715      2.00000
      3       4.4886      2.00000
      4       7.3428      2.00000
      5      11.0536      0.00000
      6      16.0638      0.00000
      7      16.6965      0.00000
      8      18.5546      0.00000

 k-point    42 :      -0.1875    0.4375    0.1875
  band No.  band energies     occupation 
      1      -1.0030      2.00000
      2       2.9076      2.00000
      3       4.2932      2.00000
      4       7.0718      2.00000
      5       8.3073      2.00000
      6      14.0957      0.00000
      7      15.4255      0.00000
      8      17.3298      0.00000

 k-point    43 :      -0.4375   -0.4375    0.1875
  band No.  band energies     occupation 
      1      -0.4896      2.00000
      2      -0.4734      2.00000
      3       5.7081      2.00000
      4       5.7393      2.00000
      5      10.8864      0.00000
      6      16.3211      0.00000
      7      17.4020      0.00000
      8      17.8270      0.00000

 k-point    44 :      -0.3125   -0.4375    0.1875
  band No.  band energies     occupation 
      1       0.1245      2.00000
      2       1.5731      2.00000
      3       4.8543      2.00000
      4       6.1279      2.00000
      5       7.1488      2.00000
      6      14.2453      0.00000
      7      17.1309      0.00000
      8      18.4757      0.00000

 k-point    45 :      -0.1875   -0.4375    0.1875
  band No.  band energies     occupation 
      1       1.4306      2.00000
      2       3.1033      2.00000
      3       4.4460      2.00000
      4       5.2413      2.00000
      5       7.6052      2.00000
      6      12.1520      0.00000
      7      13.3680      0.00000
      8      17.2932      0.00000

 k-point    46 :      -0.3125   -0.3125    0.1875
  band No.  band energies     occupation 
      1       2.2314      2.00000
      2       2.8251      2.00000
      3       3.7647      2.00000
      4       6.0236      2.00000
      5       6.1667      2.00000
      6      12.3756      0.00000
      7      14.8619      0.00000
      8      15.7699      0.00000

 k-point    47 :      -0.1875   -0.3125    0.1875
  band No.  band energies     occupation 
      1       0.2729      2.00000
      2       4.8438      2.00000
      3       5.8827      2.00000
      4       6.7642      2.00000
      5       7.6777      2.00000
      6      10.9835      0.00000
      7      11.9469      0.00000
      8      13.6055      0.00000

 k-point    48 :      -0.1875   -0.1875    0.1875
  band No.  band energies     occupation 
      1      -1.8924      2.00000
      2       7.9996      2.00000
      3       7.9996      2.00000
      4       8.2129      2.00000
      5       8.4095      1.99997
      6      10.0633      0.00000
      7      11.7252      0.00000
      8      11.7252      0.00000

 k-point    49 :      -0.3125    0.3125    0.3125
  band No.  band energies     occupation 
      1      -2.2108      2.00000
      2       1.7567      2.00000
      3       3.1569      2.00000
      4       7.0042      2.00000
      5      14.5274      0.00000
      6      15.1034      0.00000
      7      17.2222      0.00000
      8      18.8802      0.00000

 k-point    50 :      -0.4375    0.4375    0.3125
  band No.  band energies     occupation 
      1      -1.0716      2.00000
      2       0.3937      2.00000
      3       3.7583      2.00000
      4       5.1865      2.00000
      5      14.6044      0.00000
      6      14.7354      0.00000
      7      18.4727      0.00000
      8      19.6047      0.00000

 k-point    51 :      -0.3125    0.4375    0.3125
  band No.  band energies     occupation 
      1      -0.8669      2.00000
      2       1.5687      2.00000
      3       2.9965      2.00000
      4       5.3721      2.00000
      5      10.5467      0.00000
      6      17.6722      0.00000
      7      18.7649      0.00000
      8      19.3847      0.00000

 k-point    52 :      -0.4375   -0.4375    0.3125
  band No.  band energies     occupation 
      1       0.3907      2.00000
      2       0.4174      2.00000
      3       3.7622      2.00000
      4       3.7814      2.00000
      5      10.3738      0.00000
      6      17.8540      0.00000
      7      19.9633      0.00000
      8      20.0785      0.00000

 k-point    53 :      -0.3125   -0.4375    0.3125
  band No.  band energies     occupation 
      1       1.1881      2.00000
      2       2.1440      2.00000
      3       3.5910      2.00000
      4       4.5070      2.00000
      5       6.6308      2.00000
      6      16.0397      0.00000
      7      17.2197      0.00000
      8      18.5708      0.00000

 k-point    54 :      -0.3125   -0.3125    0.3125
  band No.  band energies     occupation 
      1       2.3910      2.00000
      2       3.6307      2.00000
      3       4.3223      2.00000
      4       4.9090      2.00000
      5       4.9090      2.00000
      6      14.2755      0.00000
      7      14.6667      0.00000
      8      14.6667      0.00000

 k-point    55 :      -0.4375    0.4375    0.4375
  band No.  band energies     occupation 
      1       0.0078      2.00000
      2       0.9809      2.00000
      3       2.4369      2.00000
      4       3.3945      2.00000
      5      14.4209      0.00000
      6      14.4478      0.00000
      7      20.9011      0.00000
      8      21.5869      0.00000

 k-point    56 :      -0.4375   -0.4375    0.4375
  band No.  band energies     occupation 
      1       1.1576      2.00000
      2       1.2033      2.00000
      3       2.6360      2.00000
      4       2.6360      2.00000
      5      10.2002      0.00000
      6      18.2373      0.00000
      7      20.7929      0.00000
      8      20.7929      0.00000


--------------------------------------------------------------------------------------------------------


 soft charge-density along one line, spin component           1
         0         1         2         3         4         5         6         7         8         9
 total charge-density along one line
 
 pseudopotential strength for first ion, spin component:           1
 18.084  -0.003   0.000  -0.000  -0.000  -0.000   0.000   0.000
 -0.003   0.005  -0.000   0.000   0.000   0.000  -0.000  -0.000
  0.000  -0.000   4.120   0.000   0.000  -0.006  -0.000  -0.000
 -0.000   0.000   0.000   4.121   0.000  -0.000  -0.006  -0.000
 -0.000   0.000   0.000   0.000   4.120  -0.000  -0.000  -0.006
 -0.000   0.000  -0.006  -0.000  -0.000   0.005   0.000   0.000
  0.000  -0.000  -0.000  -0.006  -0.000   0.000   0.005   0.000
  0.000  -0.000  -0.000  -0.000  -0.006   0.000   0.000   0.005
 total augmentation occupancy for first ion, spin component:           1
  1.617  -0.679   0.000   0.000   0.000  -0.000   0.000   0.000
 -0.679   1.078   0.000   0.000  -0.000   0.000   0.000  -0.000
  0.000   0.000   0.897   0.000  -0.000  -0.826   0.000   0.000
  0.000   0.000   0.000   0.807   0.000   0.000  -0.782   0.000
  0.000  -0.000  -0.000   0.000   0.897   0.000   0.000  -0.826
 -0.000   0.000  -0.826   0.000   0.000   0.850   0.000  -0.000
  0.000   0.000   0.000  -0.782   0.000   0.000   0.840  -0.000
  0.000  -0.000   0.000   0.000  -0.826  -0.000  -0.000   0.850


------------------------ aborting loop because EDIFF is reached ----------------------------------------


    CHARGE:  cpu time    0.0080: real time    0.0080
    FORLOC:  cpu time    0.0000: real time    0.0003
    FORNL :  cpu time    0.0080: real time    0.0071
    STRESS:  cpu time    0.0600: real time    0.0601
    FORCOR:  cpu time    0.0040: real time    0.0065
    FORHAR:  cpu time    0.0040: real time    0.0019
    MIXING:  cpu time    0.0000: real time    0.0005
    OFIELD:  cpu time    0.0000: real time    0.0007

  FORCE on cell =-STRESS in cart. coord.  units (eV):
  Direction    XX          YY          ZZ          XY          YZ          ZX
  --------------------------------------------------------------------------------------
  Alpha Z     4.36054     4.36054     4.36054
  Ewald     -86.30869   -86.30869   -91.77877     0.00000    -0.00000     0.00000
  Hartree     0.89591     0.89591     0.74537     0.00000    -0.00000    -0.00000
  E(xc)     -25.41601   -25.41601   -25.25445     0.00008     0.00004     0.00004
  Local     -16.04104   -16.04104    -8.64010    -0.00005    -0.00012    -0.00012
  n-local    78.17298    78.25576    75.21853     1.28682    -0.49216    -0.66383
  augment   -12.03252   -12.03252   -11.79407     0.00007     0.00007     0.00007
  Kinetic    54.40510    58.27092    57.13343     2.68390    -1.61163    -1.57892
  Fock        0.00000     0.00000     0.00000     0.00000     0.00000     0.00000
  -------------------------------------------------------------------------------------
  Total       0.01057     0.01057    -0.00951     0.00000    -0.00000     0.00000
  in kB       0.54833     0.54833    -0.49350     0.00000    -0.00000     0.00000
  external pressure =        0.20 kB  Pullay stress =        0.00 kB


 VOLUME and BASIS-vectors are now :
 -----------------------------------------------------------------------------
  energy-cutoff  :      150.00
  volume of cell :       30.88
      direct lattice vectors                 reciprocal lattice vectors
    -2.391621090  2.391621090  1.349674377    -0.000000000  0.209063217  0.370459726
     2.391621090 -2.391621090  1.349674377     0.209063217 -0.000000000  0.370459726
     2.391621090  2.391621090 -1.349674377     0.209063217  0.209063217  0.000000000

  length of vectors
     3.641610056  3.641610056  3.641610056     0.425379639  0.425379639  0.295660037


 FORCES acting on ions
    electron-ion (+dipol)            ewald-force                    non-local-force                 convergence-correction
 -----------------------------------------------------------------------------------------------
   -.181E-04 0.181E-04 -.193E-14   -.872E-15 -.281E-14 0.507E-14   -.325E-17 -.449E-16 -.382E-17   0.487E-06 -.487E-06 -.121E-15
   0.181E-04 -.181E-04 -.387E-14   0.721E-15 0.244E-14 -.457E-14   0.223E-16 0.570E-16 -.533E-17   -.487E-06 0.487E-06 0.228E-15
 -----------------------------------------------------------------------------------------------
   -.928E-14 0.444E-15 -.579E-14   -.151E-15 -.374E-15 0.505E-15   0.191E-16 0.121E-16 -.915E-17   -.164E-15 0.707E-16 0.107E-15
 
 
 POSITION                                       TOTAL-FORCE (eV/Angst)
 -----------------------------------------------------------------------------------
      2.39162      0.00000      0.67484         0.000000     -0.000000     -0.000000
      0.00000      0.00000      0.00000        -0.000000      0.000000      0.000000
 -----------------------------------------------------------------------------------
    total drift:                               -0.000000      0.000000     -0.000000


--------------------------------------------------------------------------------------------------------



  FREE ENERGIE OF THE ION-ELECTRON SYSTEM (eV)
  ---------------------------------------------------
  free  energy   TOTEN  =       -10.14278287 eV

  energy  without entropy=      -10.12437872  energy(sigma->0) =      -10.13358080
 
 d Force = 0.0000000E+00[ 0.000E+00, 0.000E+00]  d Energy = 0.4213459E-04-0.421E-04
 d Force = 0.0000000E+00[ 0.000E+00, 0.000E+00]  d Ewald  =-0.1980703E+00 0.198E+00


--------------------------------------------------------------------------------------------------------


    POTLOK:  cpu time    0.0200: real time    0.0345


--------------------------------------------------------------------------------------------------------




--------------------------------------------------------------------------------------------------------


  
 reached required accuracy - stopping structural energy minimisation
 writing wavefunctions
     LOOP+:  cpu time    1.0960: real time    1.7349
    4ORBIT:  cpu time    0.0000: real time    0.0000

 total amount of memory used by VASP MPI-rank0    30857. kBytes
=======================================================================

   base      :      30000. kBytes
   nonl-proj :        491. kBytes
   fftplans  :         66. kBytes
   grid      :        158. kBytes
   one-center:          6. kBytes
   wavefun   :        136. kBytes
 
  
  
 General timing and accounting informations for this job:
 ========================================================
  
                  Total CPU time used (sec):       19.596
                            User time (sec):       17.912
                          System time (sec):        1.684
                         Elapsed time (sec):       23.443
  
                   Maximum memory used (kb):        9904.
                   Average memory used (kb):           0.
  
                          Minor page faults:        38088
                          Major page faults:           38
                 Voluntary context switches:        43542
