unknown system                          
           1
    -2.450000    2.450000    1.274000
     2.450000   -2.450000    1.274000
     2.450000    2.450000   -1.274000
   Si
   2
Direct configuration=     1
   0.25000000  0.75000000  0.50000000
   0.00000000  0.00000000  0.00000000
unknown system                          
           1
    -2.418875    2.418875    1.318361
     2.418875   -2.418875    1.318361
     2.418875    2.418875   -1.318361
   Si
   2
Direct configuration=     2
   0.25000000  0.75000000  0.50000000
   0.00000000  0.00000000  0.00000000
unknown system                          
           1
    -2.380748    2.380748    1.372702
     2.380748   -2.380748    1.372702
     2.380748    2.380748   -1.372702
   Si
   2
Direct configuration=     3
   0.25000000  0.75000000  0.50000000
   0.00000000  0.00000000  0.00000000
unknown system                          
           1
    -2.396062    2.396062    1.350875
     2.396062   -2.396062    1.350875
     2.396062    2.396062   -1.350875
   Si
   2
Direct configuration=     4
   0.25000000  0.75000000  0.50000000
   0.00000000  0.00000000  0.00000000
unknown system                          
           1
    -2.395634    2.395634    1.351485
     2.395634   -2.395634    1.351485
     2.395634    2.395634   -1.351485
   Si
   2
Direct configuration=     5
   0.25000000  0.75000000  0.50000000
   0.00000000  0.00000000  0.00000000
unknown system                          
           1
    -2.395735    2.395735    1.351341
     2.395735   -2.395735    1.351341
     2.395735    2.395735   -1.351341
   Si
   2
Direct configuration=     6
   0.25000000  0.75000000  0.50000000
   0.00000000  0.00000000  0.00000000
unknown system                          
           1
    -2.395898    2.395898    1.351108
     2.395898   -2.395898    1.351108
     2.395898    2.395898   -1.351108
   Si
   2
Direct configuration=     7
   0.25000000  0.75000000  0.50000000
   0.00000000  0.00000000  0.00000000
unknown system                          
           1
    -2.395980    2.395980    1.350992
     2.395980   -2.395980    1.350992
     2.395980    2.395980   -1.350992
   Si
   2
Direct configuration=     8
   0.25000000  0.75000000  0.50000000
   0.00000000  0.00000000  0.00000000
unknown system                          
           1
    -2.387773    2.387773    1.348511
     2.387773   -2.387773    1.348511
     2.387773    2.387773   -1.348511
   Si
   2
Direct configuration=     9
   0.25000000  0.75000000  0.50000000
   0.00000000  0.00000000  0.00000000
unknown system                          
           1
    -2.389487    2.389487    1.349029
     2.389487   -2.389487    1.349029
     2.389487    2.389487   -1.349029
   Si
   2
Direct configuration=    10
   0.25000000  0.75000000  0.50000000
   0.00000000  0.00000000  0.00000000
unknown system                          
           1
    -2.391621    2.391621    1.349674
     2.391621   -2.391621    1.349674
     2.391621    2.391621   -1.349674
   Si
   2
Direct configuration=    11
   0.25000000  0.75000000  0.50000000
   0.00000000  0.00000000  0.00000000
