unknown system                          
   1.00000000000000     
    -2.406988    2.406988    1.324866
     2.406988   -2.406988    1.324866
     2.406988    2.406988   -1.324866
   Si
     2
Direct
  0.250000  0.750000  0.500000
  0.000000  0.000000  0.000000
 
   32   32   32
 -5.3479     -4.1686     -1.0030      3.1895      7.2466      10.219      11.641      11.578      10.500      9.0279    
  7.5787      6.2965      5.2539      4.4715      3.9383      3.6315      3.5316      3.6315      3.9383      4.4715    
  5.2538      6.2965      7.5787      9.0279      10.500      11.578      11.641      10.219      7.2467      3.1895    
 -1.0031     -4.1687     -4.1687     -4.7848     -3.1170     0.30615      4.4568      8.2122      10.741      11.719    
  11.327      10.089      8.6068      7.1975      5.9789      5.0084      4.2964      3.8274      3.5782      3.5318    
  3.6844      4.0466      4.6394      5.4846      6.5877      7.9175      9.3886      10.825      11.739      11.525    
  9.7943      6.5933      2.5037     -1.4615     -1.0031     -3.1170     -3.1738     -1.1610      2.2784      6.1148    
  9.3289      11.248      11.701      10.970      9.6076      8.1422      6.7902      5.6484      4.7584      4.1215    
  3.7184      3.5267      3.5322      3.7347      4.1477      4.7930      5.6903      6.8392      8.1991      9.6743    
  11.057      11.829      11.430      9.5569      6.3625      2.5037      3.1895     0.30614     -1.1610     -.73781    
  1.4293      4.6378      7.9215      10.416      11.630      11.541      10.509      9.0796      7.6525      6.3732    
  5.3183      4.5140      3.9535      3.6153      3.4787      3.5327      3.7802      4.2370      4.9252      5.8615    
  7.0395      8.4107      9.8722      11.196      11.869      11.393      9.5569      6.5933      7.2467      4.4568    
  2.2784      1.4293      2.1952      4.3090      7.0685      9.6265      11.305      11.801      11.218      9.9642    
  8.5262      7.1567      5.9632      5.0015      4.2842      3.7984      3.5218      3.4358      3.5328      3.8187    
  4.3107      5.0300      5.9900      7.1788      8.5419      9.9736      11.243      11.869      11.430      9.7943    
  10.219      8.2122      6.1149      4.6378      4.3090      5.2486      7.1184      9.2712      11.018      11.878    
  11.720      10.747      9.3758      7.9691      6.6748      5.5759      4.7094      4.0770      3.6615      3.4408    
  3.3993      3.5326      3.8488      4.3656      5.1027      6.0697      7.2503      8.5865      9.9736      11.196    
  11.829      11.525      11.641      10.741      9.3289      7.9215      7.0685      7.1184      8.0634      9.5453    
  11.014      11.957      12.082      11.399      10.175      8.7823      7.4314      6.2255      5.2254      4.4521    
  3.8990      3.5467      3.3749      3.3706      3.5321      3.8693      4.3994      5.1398      6.0968      7.2503    
  8.5419      9.8722      11.057      11.739      11.578      11.719      11.248      10.416      9.6265      9.2712    
  9.5453      10.358      11.375      12.169      12.399      11.938      10.900      9.5727      8.2115      6.9360    
  5.8262      4.9237      4.2374      3.7554      3.4578      3.3262      3.3506      3.5316      3.8797      4.4108    
  5.1398      6.0697      7.1788      8.4107      9.6743      10.825      10.500      11.327      11.701      11.630    
  11.305      11.018      11.014      11.375      11.969      12.516      12.719      12.391      11.531      10.318    
  8.9930      7.6910      6.5037      5.4912      4.6804      4.0717      3.6502      3.3970      3.2962      3.3403    
  3.5315      3.8797      4.3994      5.1027      5.9900      7.0395      8.1991      9.3886      9.0279      10.089    
  10.970      11.541      11.801      11.878      11.957      12.169      12.516      12.863      13.002      12.753    
  12.054      10.991      9.7503      8.4699      7.2455      6.1513      5.2316      4.5023      3.9590      3.5860    
  3.3662      3.2861      3.3403      3.5316      3.8693      4.3656      5.0300      5.8615      6.8392      7.9175    
  7.5787      8.6068      9.6076      10.509      11.218      11.720      12.082      12.399      12.719      13.002    
  13.128      12.964      12.429      11.549      10.448      9.2442      8.0326      6.8952      5.8916      5.0547    
  4.3938      3.9020      3.5645      3.3662      3.2962      3.3506      3.5321      3.8488      4.3107      4.9252    
  5.6903      6.5877      6.2965      7.1975      8.1422      9.0796      9.9641      10.747      11.399      11.938    
  12.391      12.753      12.964      12.936      12.597      11.942      11.039      9.9741      8.8345      7.7044    
  6.6543      5.7328      4.9653      4.3574      3.9020      3.5860      3.3970      3.3262      3.3706      3.5326    
  3.8187      4.2370      4.7930      5.4846      5.2538      5.9789      6.7902      7.6525      8.5261      9.3758    
  10.175      10.900      11.531      12.054      12.429      12.597      12.501      12.116      11.468      10.608    
  9.6077      8.5471      7.5014      6.5317      5.6794      4.9653      4.3938      3.9590      3.6502      3.4578    
  3.3749      3.3993      3.5328      3.7802      4.1477      4.6394      4.4715      5.0084      5.6484      6.3732    
  7.1568      7.9691      8.7822      9.5727      10.318      10.991      11.549      11.942      12.116      12.033    
  11.684      11.089      10.298      9.3768      8.3993      7.4328      6.5317      5.7328      5.0547      4.5023    
  4.0717      3.7554      3.5467      3.4408      3.4358      3.5327      3.7347      4.0466      3.9383      4.2964    
  4.7584      5.3183      5.9633      6.6748      7.4314      8.2114      8.9930      9.7503      10.448      11.039    
  11.468      11.684      11.653      11.366      10.845      10.136      9.2980      8.3993      7.5014      6.6543    
  5.8916      5.2316      4.6804      4.2374      3.8990      3.6615      3.5218      3.4787      3.5322      3.6844    
  3.6315      3.8274      4.1215      4.5140      5.0015      5.5759      6.2255      6.9360      7.6910      8.4699    
  9.2442      9.9741      10.608      11.089      11.366      11.406      11.198      10.761      10.136      9.3768    
  8.5471      7.7044      6.8952      6.1513      5.4912      4.9237      4.4521      4.0770      3.7984      3.6153    
  3.5267      3.5318      3.5316      3.5782      3.7184      3.9536      4.2843      4.7094      5.2254      5.8263    
  6.5037      7.2455      8.0326      8.8345      9.6077      10.298      10.845      11.198      11.320      11.198    
  10.845      10.298      9.6077      8.8345      8.0326      7.2455      6.5037      5.8262      5.2254      4.7094    
  4.2842      3.9535      3.7184      3.5782      3.6315      3.5319      3.5267      3.6154      3.7985      4.0771    
  4.4521      4.9238      5.4913      6.1513      6.8952      7.7044      8.5471      9.3768      10.136      10.761    
  11.198      11.406      11.366      11.089      10.608      9.9741      9.2442      8.4699      7.6910      6.9360    
  6.2255      5.5759      5.0015      4.5140      4.1215      3.8274      3.9383      3.6845      3.5323      3.4787    
  3.5219      3.6615      3.8991      4.2374      4.6804      5.2316      5.8916      6.6543      7.5014      8.3993    
  9.2980      10.136      10.845      11.366      11.653      11.684      11.468      11.039      10.448      9.7503    
  8.9930      8.2115      7.4314      6.6748      5.9632      5.3183      4.7584      4.2964      4.4715      4.0466    
  3.7348      3.5327      3.4359      3.4409      3.5468      3.7554      4.0717      4.5023      5.0547      5.7328    
  6.5317      7.4328      8.3993      9.3768      10.298      11.089      11.684      12.033      12.116      11.942    
  11.549      10.991      10.318      9.5727      8.7823      7.9691      7.1567      6.3732      5.6484      5.0084    
  5.2539      4.6395      4.1477      3.7803      3.5328      3.3993      3.3749      3.4578      3.6502      3.9589    
  4.3938      4.9653      5.6794      6.5317      7.5014      8.5471      9.6077      10.608      11.468      12.116    
  12.501      12.597      12.429      12.054      11.531      10.900      10.175      9.3758      8.5262      7.6525    
  6.7902      5.9789      6.2965      5.4846      4.7931      4.2371      3.8188      3.5326      3.3705      3.3261    
  3.3970      3.5860      3.9020      4.3574      4.9653      5.7328      6.6543      7.7044      8.8345      9.9741    
  11.039      11.942      12.597      12.936      12.964      12.753      12.391      11.938      11.399      10.747    
  9.9642      9.0796      8.1422      7.1975      7.5787      6.5877      5.6903      4.9252      4.3107      3.8488    
  3.5321      3.3505      3.2961      3.3661      3.5645      3.9020      4.3938      5.0547      5.8916      6.8952    
  8.0326      9.2442      10.448      11.549      12.429      12.964      13.128      13.002      12.719      12.399    
  12.082      11.720      11.218      10.509      9.6076      8.6068      9.0279      7.9175      6.8392      5.8615    
  5.0300      4.3656      3.8693      3.5316      3.3402      3.2860      3.3661      3.5860      3.9589      4.5023    
  5.2316      6.1513      7.2455      8.4699      9.7503      10.991      12.054      12.753      13.002      12.863    
  12.516      12.169      11.957      11.878      11.801      11.541      10.970      10.089      10.500      9.3886    
  8.1992      7.0395      5.9900      5.1026      4.3994      3.8797      3.5314      3.3402      3.2961      3.3970    
  3.6502      4.0717      4.6804      5.4913      6.5037      7.6910      8.9930      10.318      11.531      12.391    
  12.719      12.516      11.969      11.375      11.014      11.018      11.305      11.630      11.701      11.327    
  11.578      10.825      9.6743      8.4107      7.1788      6.0697      5.1398      4.4108      3.8797      3.5316    
  3.3505      3.3261      3.4578      3.7554      4.2374      4.9238      5.8263      6.9360      8.2114      9.5727    
  10.900      11.938      12.399      12.169      11.375      10.358      9.5453      9.2712      9.6265      10.416    
  11.248      11.719      11.641      11.739      11.057      9.8722      8.5419      7.2503      6.0967      5.1398    
  4.3994      3.8693      3.5321      3.3705      3.3749      3.5468      3.8991      4.4521      5.2254      6.2255    
  7.4314      8.7822      10.175      11.399      12.082      11.957      11.014      9.5453      8.0634      7.1184    
  7.0685      7.9215      9.3289      10.741      10.219      11.525      11.829      11.196      9.9736      8.5865    
  7.2503      6.0697      5.1026      4.3656      3.8488      3.5326      3.3993      3.4409      3.6615      4.0771    
  4.7094      5.5759      6.6748      7.9691      9.3758      10.747      11.720      11.878      11.018      9.2712    
  7.1184      5.2486      4.3090      4.6378      6.1148      8.2122      7.2466      9.7943      11.430      11.869    
  11.243      9.9736      8.5419      7.1788      5.9900      5.0300      4.3107      3.8188      3.5328      3.4359    
  3.5219      3.7985      4.2843      5.0015      5.9633      7.1568      8.5261      9.9641      11.218      11.801    
  11.305      9.6265      7.0685      4.3090      2.1952      1.4293      2.2784      4.4568      3.1895      6.5933    
  9.5569      11.393      11.869      11.196      9.8722      8.4107      7.0395      5.8615      4.9252      4.2371    
  3.7803      3.5327      3.4787      3.6154      3.9536      4.5140      5.3183      6.3732      7.6525      9.0796    
  10.509      11.541      11.630      10.416      7.9215      4.6378      1.4293     -.73781     -1.1610     0.30615    
 -1.0030      2.5037      6.3625      9.5569      11.430      11.829      11.057      9.6743      8.1992      6.8392    
  5.6903      4.7931      4.1477      3.7348      3.5323      3.5267      3.7184      4.1215      4.7584      5.6484    
  6.7902      8.1422      9.6076      10.970      11.701      11.248      9.3289      6.1149      2.2784     -1.1610    
 -3.1738     -3.1170     -4.1686     -1.4614      2.5037      6.5933      9.7943      11.525      11.739      10.825    
  9.3886      7.9175      6.5877      5.4846      4.6395      4.0466      3.6845      3.5319      3.5782      3.8274    
  4.2964      5.0084      5.9789      7.1975      8.6068      10.089      11.327      11.719      10.741      8.2122    
  4.4568     0.30614     -3.1170     -4.7848     -4.1685     -3.3005     -.51057      3.3468      7.1790      10.053    
  11.472      11.452      10.414      8.9549      7.5028      6.2089      5.1495      4.3483      3.7949      3.4659    
  3.3404      3.4091      3.6776      4.1644      4.8933      5.8797      7.1101      8.5217      9.9893      11.170    
  11.468      10.402      7.8464      4.1805     0.25495     -2.8422     -3.3005     -4.1686     -2.8423     0.25498    
  4.1806      7.8463      10.402      11.468      11.170      9.9894      8.5217      7.1101      5.8798      4.8934    
  4.1644      3.6776      3.4091      3.3404      3.4659      3.7949      4.3482      5.1495      6.2089      7.5028    
  8.9548      10.414      11.452      11.472      10.053      7.1790      3.3468     -.51049     -.41792     -2.7418    
 -3.1169     -1.4331      1.7644      5.5023      8.7587      10.811      11.420      10.811      9.5066      8.0538    
  6.6984      5.5447      4.6401      3.9884      3.5706      3.3631      3.3506      3.5314      3.9180      4.5331    
  5.3985      6.5189      7.8609      9.3368      10.767      11.672      11.482      9.8568      6.8800      3.1345    
  3.5811     0.52174     -1.2443     -1.1611     0.72737      3.7977      7.1064      9.7528      11.175      11.277    
  10.369      8.9853      7.5679      6.2834      5.2165      4.3993      3.8267      3.4773      3.3293      3.3706    
  3.6031      4.0422      4.7112      5.6297      6.7964      8.1690      9.6514      11.041      11.842      11.539    
  9.8713      7.0092      7.5523      4.6222      2.1743     0.98293      1.4292      3.3407      6.0675      8.7528    
  10.658      11.396      11.005      9.8539      8.4454      7.0810      5.8802      4.9070      4.1791      3.6846    
  3.4010      3.3088      3.3993      3.6780      4.1624      4.8753      5.8331      7.0286      8.4126      9.8843    
  11.230      11.971      11.657      10.108      10.529      8.4236      6.1031      4.3066      3.6366      4.3090    
  6.0618      8.2716      10.213      11.330      11.409      10.598      9.2933      7.9048      6.6104      5.5028    
  4.6264      3.9865      3.5664      3.3437      3.3018      3.4357      3.7536      4.2738      5.0180      5.9990    
  7.2042      8.5794      10.023      11.326      12.055      11.826      12.009      11.057      9.4824      7.8071    
  6.6271      6.3717      7.1183      8.5608      10.147      11.310      11.680      11.196      10.084      8.7250    
  7.3833      6.1732      5.1644      4.3839      3.8274      3.4754      3.3071      3.3088      3.4786      3.8268    
  4.3717      5.1331      6.1195      7.3140      8.6601      10.059      11.324      12.078      12.020      12.153    
  11.587      10.559      9.4937      8.8375      8.8627      9.5452      10.579      11.515      11.952      11.691    
  10.790      9.5189      8.1750      6.9011      5.7852      4.8761      4.1866      3.7061      3.4142      3.2921    
  3.3293      3.5265      3.8950      4.4522      5.2150      6.1883      7.3519      8.6498      9.9887      11.215    
  10.995      11.856      12.199      12.011      11.486      10.942      10.685      10.857      11.375      11.967    
  12.303      12.137      11.412      10.268      8.9640      7.6683      6.4780      5.4603      4.6467      4.0401    
  3.6258      3.3843      3.2993      3.3631      3.5781      3.9556      4.5116      5.2597      6.2017      7.3156    
  8.5479      9.8142      9.5426      10.666      11.569      12.097      12.239      12.131      11.991      12.000    
  12.212      12.516      12.699      12.547      11.949      10.949      9.7271      8.4538      7.2289      6.1311    
  5.2096      4.4832      3.9481      3.5887      3.3868      3.3287      3.4091      3.6314      4.0061      4.5471    
  5.2649      6.1586      7.2063      8.3589      8.0917      9.1855      10.238      11.155      11.821      12.215    
  12.419      12.559      12.725      12.907      13.002      12.860      12.372      11.527      10.433      9.2308    
  8.0179      6.8780      5.8738      5.0409      4.3898      3.9132      3.5958      3.4216      3.3796      3.4659    
  3.6844      4.0442      4.5568      5.2299      6.0610      7.0293      6.7932      7.7588      8.7588      9.7344    
  10.630      11.374      11.936      12.347      12.661      12.902      13.031      12.964      12.615      11.954    
  11.036      9.9612      8.8154      7.6817      6.6316      5.7154      4.9594      4.3691      3.9362      3.6469    
  3.4879      3.4503      3.5314      3.7348      4.0680      4.5400      5.1563      5.9136      5.7234      6.5094    
  7.3757      8.2810      9.1791      10.028      10.795      11.446      11.975      12.386      12.661      12.751    
  12.597      12.166      11.480      10.595      9.5791      8.5107      7.4642      6.5007      5.6617      4.9676    
  4.4218      4.0169      3.7412      3.5841      3.5386      3.6031      3.7803      4.0761      4.4972      5.0475    
  4.9088      5.4999      6.1912      6.9595      7.7730      8.5963      9.3969      10.149      10.831      11.418    
  11.881      12.181      12.271      12.116      11.709      11.073      10.255      9.3193      8.3379      7.3773    
  6.4911      5.7147      5.0658      4.5474      4.1538      3.8763      3.7072      3.6416      3.6782      3.8188    
  4.0679      4.4304      4.3429      4.7468      5.2533      5.8531      6.5288      7.2570      8.0117      8.7680    
  9.5032      10.194      10.810      11.311      11.651      11.785      11.684      11.342      10.783      10.050    
  9.2039      8.3094      7.4269      6.6045      5.8743      5.2525      4.7433      4.3438      4.0489      3.8539    
  3.7557      3.7536      3.8489      4.0442      4.0061      4.2390      4.5692      4.9950      5.5098      6.1017    
  6.7548      7.4511      8.1721      8.8975      9.6016      10.250      10.796      11.192      11.392      11.366    
  11.110      10.641      10.001      9.2440      8.4294      7.6128      6.8386      6.1367      5.5235      5.0051    
  4.5823      4.2541      4.0193      3.8769      3.8269      3.8694      3.8798      3.9556      4.1234      4.3837    
  4.7356      5.1753      5.6956      6.2872      6.9388      7.6372      8.3640      9.0919      9.7825      10.387    
  10.853      11.134      11.198      11.037      10.664      10.116      9.4403      8.6943      7.9293      7.1868    
  6.4953      5.8719      5.3258      4.8624      4.4856      4.1980      4.0010      3.8950      3.9556      3.8798    
  3.8951      4.0010      4.1980      4.4856      4.8625      5.3258      5.8719      6.4953      7.1868      7.9293    
  8.6943      9.4403      10.116      10.664      11.037      11.198      11.134      10.853      10.387      9.7825    
  9.0919      8.3640      7.6372      6.9388      6.2871      5.6956      5.1753      4.7356      4.3837      4.1233    
  4.2390      4.0061      3.8694      3.8268      3.8769      4.0193      4.2541      4.5823      5.0051      5.5235    
  6.1368      6.8386      7.6128      8.4294      9.2441      10.001      10.641      11.110      11.366      11.392    
  11.192      10.796      10.250      9.6016      8.8974      8.1721      7.4511      6.7548      6.1017      5.5097    
  4.9949      4.5692      4.7468      4.3429      4.0442      3.8489      3.7537      3.7557      3.8538      4.0489    
  4.3438      4.7433      5.2525      5.8742      6.6045      7.4269      8.3094      9.2039      10.050      10.783    
  11.342      11.684      11.785      11.651      11.311      10.810      10.194      9.5032      8.7680      8.0117    
  7.2570      6.5288      5.8531      5.2534      5.4999      4.9088      4.4304      4.0679      3.8188      3.6781    
  3.6416      3.7072      3.8763      4.1538      4.5474      5.0659      5.7148      6.4910      7.3773      8.3379    
  9.3193      10.255      11.073      11.709      12.116      12.271      12.181      11.881      11.418      10.831    
  10.149      9.3968      8.5963      7.7731      6.9595      6.1912      6.5093      5.7235      5.0475      4.4971    
  4.0760      3.7802      3.6031      3.5386      3.5840      3.7412      4.0169      4.4218      4.9676      5.6617    
  6.5007      7.4642      8.5108      9.5791      10.595      11.480      12.166      12.597      12.751      12.661    
  12.386      11.975      11.446      10.795      10.028      9.1792      8.2810      7.3756      7.7588      6.7932    
  5.9136      5.1563      4.5399      4.0679      3.7347      3.5314      3.4503      3.4879      3.6469      3.9362    
  4.3691      4.9595      5.7155      6.6316      7.6817      8.8154      9.9612      11.036      11.954      12.615    
  12.964      13.031      12.902      12.661      12.347      11.936      11.374      10.630      9.7344      8.7588    
  9.1855      8.0917      7.0293      6.0610      5.2299      4.5568      4.0442      3.6843      3.4659      3.3796    
  3.4216      3.5958      3.9132      4.3898      5.0410      5.8738      6.8779      8.0179      9.2308      10.433    
  11.527      12.372      12.860      13.002      12.907      12.724      12.559      12.419      12.215      11.821    
  11.155      10.238      10.666      9.5425      8.3590      7.2063      6.1586      5.2649      4.5471      4.0061    
  3.6313      3.4091      3.3287      3.3868      3.5887      3.9481      4.4832      5.2096      6.1311      7.2289    
  8.4538      9.7271      10.949      11.949      12.547      12.699      12.516      12.212      12.000      11.991    
  12.131      12.239      12.097      11.569      11.856      10.995      9.8142      8.5479      7.3156      6.2017    
  5.2597      4.5116      3.9556      3.5780      3.3631      3.2994      3.3844      3.6258      4.0401      4.6468    
  5.4603      6.4780      7.6682      8.9641      10.268      11.412      12.137      12.303      11.967      11.375    
  10.857      10.684      10.942      11.486      12.011      12.199      12.153      12.020      11.215      9.9887    
  8.6498      7.3520      6.1883      5.2150      4.4522      3.8950      3.5266      3.3293      3.2921      3.4142    
  3.7061      4.1866      4.8761      5.7852      6.9011      8.1750      9.5189      10.790      11.691      11.952    
  11.515      10.579      9.5452      8.8627      8.8376      9.4937      10.559      11.587      11.057      12.009    
  12.078      11.324      10.059      8.6602      7.3140      6.1195      5.1331      4.3718      3.8268      3.4786    
  3.3088      3.3071      3.4755      3.8274      4.3839      5.1644      6.1732      7.3833      8.7250      10.084    
  11.196      11.680      11.310      10.147      8.5609      7.1184      6.3718      6.6271      7.8071      9.4825    
  8.4237      10.529      11.826      12.055      11.326      10.023      8.5794      7.2042      5.9991      5.0181    
  4.2738      3.7536      3.4358      3.3019      3.3438      3.5664      3.9865      4.6265      5.5029      6.6104    
  7.9048      9.2933      10.598      11.409      11.330      10.213      8.2717      6.0619      4.3090      3.6366    
  4.3067      6.1032      4.6222      7.5523      10.108      11.657      11.971      11.230      9.8843      8.4126    
  7.0286      5.8331      4.8753      4.1625      3.6781      3.3993      3.3088      3.4010      3.6846      4.1791    
  4.9069      5.8801      7.0810      8.4454      9.8538      11.005      11.396      10.658      8.7529      6.0675    
  3.3407      1.4294     0.98311      2.1744     0.52175      3.5812      7.0093      9.8713      11.539      11.842    
  11.041      9.6515      8.1690      6.7964      5.6298      4.7113      4.0422      3.6031      3.3706      3.3294    
  3.4774      3.8267      4.3993      5.2165      6.2834      7.5679      8.9853      10.369      11.277      11.175    
  9.7527      7.1064      3.7977     0.72752     -1.1610     -1.2442     -2.7417     -.41782      3.1345      6.8800    
  9.8568      11.482      11.672      10.767      9.3367      7.8610      6.5189      5.3985      4.5330      3.9180    
  3.5315      3.3507      3.3631      3.5705      3.9884      4.6401      5.5447      6.6984      8.0538      9.5066    
  10.811      11.420      10.811      8.7587      5.5024      1.7645     -1.4331     -3.1169     -1.0028     -.41775    
  1.8290      5.0276      8.2309      10.609      11.706      11.525      10.435      8.9796      7.5370      6.2472    
  5.1842      4.3721      3.8017      3.4502      3.2962      3.3287      3.5510      3.9794      4.6370      5.5420    
  6.6889      8.0291      9.4588      10.744      11.372      10.868      9.0507      6.1750      2.9312     0.25510    
 -.51041     -1.4613     -.51040      2.0305      5.3590      8.5065      10.691      11.546      11.161      9.9699    
  8.5176      7.1188      5.8939      4.9053      4.1677      3.6669      3.3795      3.2861      3.3795      3.6669    
  4.1677      4.9054      5.8939      7.1187      8.5176      9.9699      11.161      11.546      10.691      8.5065    
  5.3590      2.0305      1.8290     -.41776     -1.0028     0.25511      2.9312      6.1750      9.0507      10.868    
  11.372      10.744      9.4588      8.0291      6.6889      5.5420      4.6370      3.9793      3.5510      3.3287    
  3.2962      3.4502      3.8017      4.3721      5.1842      6.2472      7.5370      8.9796      10.435      11.525    
  11.706      10.609      8.2309      5.0276      5.2455      2.3629     0.52186     0.30628      1.7645      4.3893    
  7.3331      9.7438      11.059      11.146      10.268      8.9212      7.5308      6.2630      5.2042      4.3886    
  3.8131      3.4573      3.2993      3.3262      3.5386      3.9507      4.5852      5.4632      6.5882      7.9272    
  9.3969      10.839      11.838      11.885      10.677      8.2937      8.7019      5.9875      3.5571      2.1744    
  2.2785      3.7977      6.1823      8.6386      10.441      11.176      10.834      9.7411      8.3749      7.0389    
  5.8553      4.8914      4.1677      3.6740      3.3887      3.2921      3.3749      3.6415      4.1086      4.7991    
  5.7311      6.9023      8.2722      9.7509      11.168      12.103      12.095      10.915      11.298      9.3979    
  7.1449      5.2396      4.3066      4.6378      6.0674      8.0477      9.8831      11.003      11.149      10.421    
  9.1817      7.8353      6.5689      5.4788      4.6134      3.9808      3.5659      3.3469      3.3071      3.4408    
  3.7557      4.2697      5.0050      5.9761      7.1750      8.5552      10.023      11.408      12.309      12.328    
  12.552      11.764      10.272      8.5452      7.1722      6.6271      7.0683      8.2715      9.7324      10.885    
  11.326      10.944      9.9212      8.6207      7.3188      6.1355      5.1450      4.3781      3.8330      3.4914    
  3.3329      3.3438      3.5218      3.8769      4.4277      5.1942      6.1870      7.3927      8.7608      10.198    
  11.544      12.441      12.474      12.721      12.228      11.182      9.9830      9.0919      8.8374      9.2710    
  10.147      11.039      11.526      11.366      10.570      9.3737      8.0803      6.8430      5.7532      4.8642    
  4.1920      3.7279      3.4524      3.3470      3.4011      3.6153      4.0011      4.5762      5.3581      6.3531    
  7.5436      8.8771      10.264      11.563      11.455      12.386      12.782      12.593      11.980      11.257    
  10.758      10.684      11.014      11.515      11.857      11.766      11.140      10.080      8.8327      7.5814    
  6.4253      5.4345      4.6444      4.0601      3.6683      3.4499      3.3888      3.4774      3.7184      4.1234    
  4.7089      5.4890      6.4659      7.6190      8.8962      10.214      10.048      11.217      12.157      12.690    
  12.777      12.541      12.206      11.992      12.000      12.169      12.303      12.178      11.649      10.723    
  9.5572      8.3309      7.1459      6.0817      5.1901      4.4922      3.9858      3.6557      3.4840      3.4575    
  3.5706      3.8274      4.2391      4.8198      5.5802      6.5191      7.6141      8.8158      8.6390      9.7746    
  10.857      11.783      12.419      12.727      12.785      12.737      12.705      12.724      12.719      12.547    
  12.081      11.282      10.229      9.0682      7.8961      6.7942      5.8258      5.0279      4.4119      3.9712    
  3.6906      3.5543      3.5511      3.6777      3.9383      4.3430      4.9033      5.6267      6.5093      7.5285    
  7.3661      8.3744      9.4054      10.395      11.277      11.969      12.428      12.692      12.833      12.906    
  12.902      12.753      12.372      11.713      10.810      9.7605      8.6490      7.5533      6.5428      5.6673    
  4.9533      4.4060      4.0171      3.7726      3.6589      3.6671      3.7950      4.0466      4.4304      4.9553    
  5.6260      6.4367      6.3047      7.1352      8.0351      8.9583      9.8530      10.671      11.371      11.915    
  12.303      12.559      12.687      12.661      12.429      11.954      11.246      10.362      9.3666      8.3300    