    2    2   15    1
  0.1529437E+02  0.3691622E-09  0.3691622E-09  0.3691622E-09  0.5000000E-15
  1.000000000000000E-004
  CAR 
 unknown system                          
      8     40      8
 
  0.0000000E+00  0.0000000E+00  0.0000000E+00  0.2915452E-02
    1       -4.615469   1.000000
    2        6.186653   1.000000
    3        6.297943   1.000000
    4        6.297949   1.000000
    5       10.523259   0.000000
    6       16.771114   0.000000
    7       17.366567   0.000000
    8       17.366574   0.000000
 
  0.1428571E+00 -0.1404355E-16  0.1404355E-16  0.2332362E-01
    1       -4.039630   1.000000
    2        5.159575   1.000000
    3        6.232526   1.000000
    4        8.317360   0.999999
    5       11.661316   0.000000
    6       14.519189   0.000000
    7       14.902451   0.000000
    8       16.619723   0.000000
 
  0.2857143E+00 -0.2600542E-16  0.2600542E-16  0.2332362E-01
    1       -2.324051   1.000000
    2        5.141565   1.000000
    3        6.531804   1.000000
    4        8.959697   0.581622
    5       11.204977   0.000000
    6       12.153741   0.000000
    7       13.502710   0.000000
    8       14.399403   0.000000
 
  0.4285714E+00 -0.1733103E-16  0.1733103E-16  0.2332362E-01
    1        0.485949   1.000000
    2        4.357526   1.000000
    3        6.225488   1.000000
    4        7.458643   1.000000
    5        8.447181   0.999936
    6       10.930932   0.000000
    7       13.576401   0.000000
    8       14.476338   0.000000
 
  0.1428571E+00  0.1428571E+00  0.2808709E-16  0.2332362E-01
    1       -2.564108   1.000000
    2        5.430732   1.000000
    3        7.936322   1.000000
    4        9.069302   0.284683
    5       10.669875   0.000000
    6       11.142606   0.000000
    7       13.597494   0.000000
    8       14.398418   0.000000
 
  0.2857143E+00  0.1428571E+00  0.4508661E-16  0.4664723E-01
    1        0.018774   1.000000
    2        5.449738   1.000000
    3        6.321464   1.000000
    4        6.885720   1.000000
    5        9.419856   0.001153
    6       11.532184   0.000000
    7       12.359524   0.000000
    8       13.653565   0.000000
 
  0.4285714E+00  0.1428571E+00  0.7177282E-16  0.4664723E-01
    1        1.407981   1.000000
    2        3.651716   1.000000
    3        4.645696   1.000000
    4        7.529852   1.000000
    5        8.836202   0.859769
    6       11.515382   0.000000
    7       12.632489   0.000000
    8       16.111489   0.000000
 
 -0.4285714E+00  0.1428571E+00 -0.1801182E-16  0.4664723E-01
    1       -1.607003   1.000000
    2        3.218369   1.000000
    3        6.715345   1.000000
    4        8.277512   1.000000
    5       10.665529   0.000000
    6       12.535240   0.000000
    7       13.271943   0.000000
    8       15.278564   0.000000
 
 -0.2857143E+00  0.1428571E+00 -0.1576439E-16  0.4664723E-01
    1       -3.555636   1.000000
    2        2.959243   1.000000
    3        6.388692   1.000000
    4        9.664977   0.000001
    5       12.433259   0.000000
    6       13.740649   0.000000
    7       14.294495   0.000000
    8       16.009392   0.000000
 
 -0.1428571E+00  0.1428571E+00 -0.3929902E-17  0.1166181E-01
    1       -4.372445   1.000000
    2        3.750442   1.000000
    3        6.522946   1.000000
    4        7.922748   1.000000
    5       11.969458   0.000000
    6       14.286619   0.000000
    7       15.865592   0.000000
    8       19.445163   0.000000
 
  0.2857143E+00  0.2857143E+00  0.5201085E-16  0.2332362E-01
    1        2.645216   1.000000
    2        2.814185   1.000000
    3        3.642726   1.000000
    4        7.670516   1.000000
    5        9.320994   0.009419
    6       10.461739   0.000000
    7       14.595670   0.000000
    8       15.287710   0.000000
 
  0.4285714E+00  0.2857143E+00  0.7869706E-16  0.4664723E-01
    1       -0.422511   1.000000
    2        1.207220   1.000000
    3        7.586240   1.000000
    4        8.001894   1.000000
    5        9.267065   0.024570
    6       11.781741   0.000000
    7       14.374171   0.000000
    8       15.926307   0.000000
 
 -0.4285714E+00  0.2857143E+00 -0.2288370E-16  0.4664723E-01
    1       -2.592793   1.000000
    2        0.708845   1.000000
    3        7.266510   1.000000
    4       10.326764   0.000000
    5       10.756585   0.000000
    6       13.153572   0.000000
    7       14.754084   0.000000
    8       15.171199   0.000000
 
 -0.2857143E+00  0.2857143E+00 -0.7859804E-17  0.1166181E-01
    1       -3.645700   1.000000
    2        1.310763   1.000000
    3        7.197660   1.000000
    4        8.979243   0.527039
    5       11.882362   0.000000
    6       13.744084   0.000000
    7       15.215000   0.000000
    8       19.037020   0.000000
 
  0.4285714E+00  0.4285714E+00  0.1053833E-15  0.2332362E-01
    1       -1.163833   1.000000
    2       -1.162121   1.000000
    3        8.578278   0.998152
    4        8.622461   0.995210
    5       11.703715   0.000000
    6       12.285008   0.000000
    7       14.142486   0.000000
    8       15.024073   0.000000
 
 -0.4285714E+00  0.4285714E+00  0.4248060E-17  0.1166181E-01
    1       -2.443249   1.000000
    2       -0.780402   1.000000
    3        8.319812   0.999999
    4        9.884335   0.000000
    5       10.220065   0.000000
    6       11.815192   0.000000
    7       18.660602   0.000000
    8       18.818535   0.000000
 
  0.1428571E+00  0.1428571E+00  0.1428571E+00  0.2332362E-01
    1       -1.844396   1.000000
    2        3.049657   1.000000
    3        8.356551   0.999996
    4        9.189278   0.078191
    5       10.263133   0.000000
    6       11.169333   0.000000
    7       14.061243   0.000000
    8       14.805102   0.000000
 
  0.2857143E+00  0.1428571E+00  0.1428571E+00  0.4664723E-01
    1        0.956512   1.000000
    2        4.108843   1.000000
    3        4.908377   1.000000
    4        6.343571   1.000000
    5       10.600924   0.000000
    6       13.155650   0.000000
    7       13.871560   0.000000
    8       14.233006   0.000000
 
 -0.1428571E+00  0.1428571E+00  0.1428571E+00  0.1166181E-01
    1       -4.130157   1.000000
    2        3.447673   1.000000
    3        4.923212   1.000000
    4        9.826416   0.000000
    5       12.206440   0.000000
    6       12.827404   0.000000
    7       17.765057   0.000000
    8       17.939105   0.000000
 
  0.2857143E+00  0.2857143E+00  0.1428571E+00  0.2332362E-01
    1        2.325775   1.000000
    2        2.356064   1.000000
    3        4.656404   1.000000
    4        6.147992   1.000000
    5       11.672677   0.000000
    6       12.476987   0.000000
    7       14.455281   0.000000
    8       15.447772   0.000000
 
  0.4285714E+00  0.2857143E+00  0.1428571E+00  0.2332362E-01
    1       -0.654154   1.000000
    2        0.989386   1.000000
    3        8.690113   0.982669
    4        8.906007   0.720957
    5       10.653443   0.000000
    6       11.678303   0.000000
    7       12.541056   0.000000
    8       13.595298   0.000000
 
 -0.2857143E+00  0.2857143E+00  0.1428571E+00  0.2332362E-01
    1       -3.406039   1.000000
    2        1.481122   1.000000
    3        5.118966   1.000000
    4        9.814389   0.000000
    5       11.326753   0.000000
    6       15.614119   0.000000
    7       15.948291   0.000000
    8       18.463132   0.000000
 
 -0.1428571E+00  0.2857143E+00  0.1428571E+00  0.2332362E-01
    1       -3.074998   1.000000
    2        2.816405   1.000000
    3        4.443951   1.000000
    4       10.078239   0.000000
    5       11.689803   0.000000
    6       13.729496   0.000000
    7       15.230607   0.000000
    8       16.929688   0.000000
 
 -0.4285714E+00  0.4285714E+00  0.1428571E+00  0.2332362E-01
    1       -2.209216   1.000000
    2       -0.560290   1.000000
    3        6.211895   1.000000
    4        7.795051   1.000000
    5       12.616919   0.000000
    6       14.152260   0.000000
    7       18.021086   0.000000
    8       18.176695   0.000000
 
 -0.2857143E+00  0.4285714E+00  0.1428571E+00  0.4664723E-01
    1       -2.120427   1.000000
    2        1.096397   1.000000
    3        4.795545   1.000000
    4        7.891512   1.000000
    5       11.897648   0.000000
    6       14.502887   0.000000
    7       16.778031   0.000000
    8       17.407792   0.000000
 
 -0.1428571E+00  0.4285714E+00  0.1428571E+00  0.2332362E-01
    1       -0.899204   1.000000
    2        3.283519   1.000000
    3        4.957712   1.000000
    4        7.436444   1.000000
    5        8.965352   0.565944
    6       13.382205   0.000000
    7       14.946942   0.000000
    8       16.040607   0.000000
 
 -0.4285714E+00 -0.4285714E+00  0.1428571E+00  0.2332362E-01
    1       -0.712938   1.000000
    2       -0.707764   1.000000
    3        6.096379   1.000000
    4        6.102285   1.000000
    5       11.800050   0.000000
    6       15.454393   0.000000
    7       16.237326   0.000000
    8       16.742732   0.000000
 
 -0.2857143E+00 -0.4285714E+00  0.1428571E+00  0.4664723E-01
    1        0.262797   1.000000
    2        1.820218   1.000000
    3        5.489421   1.000000
    4        6.815024   1.000000
    5        7.247549   1.000000
    6       13.521608   0.000000
    7       16.568143   0.000000
    8       17.559366   0.000000
 
 -0.1428571E+00 -0.4285714E+00  0.1428571E+00  0.2332362E-01
    1        2.245596   1.000000
    2        3.063942   1.000000
    3        4.933123   1.000000
    4        6.439717   1.000000
    5        8.562353   0.998718
    6       11.129016   0.000000
    7       12.297860   0.000000
    8       16.465915   0.000000
 
 -0.2857143E+00 -0.2857143E+00  0.1428571E+00  0.2332362E-01
    1        2.608789   1.000000
    2        3.660482   1.000000
    3        3.828370   1.000000
    4        7.095746   1.000000
    5        7.245460   1.000000
    6       11.168324   0.000000
    7       13.873916   0.000000
    8       14.750973   0.000000
 
 -0.1428571E+00 -0.2857143E+00  0.1428571E+00  0.2332362E-01
    1       -0.453529   1.000000
    2        6.499668   1.000000
    3        7.350951   1.000000
    4        8.218896   1.000000
    5        8.302596   0.999999
    6       10.744333   0.000000
    7       11.153316   0.000000
    8       12.465390   0.000000
 
 -0.1428571E+00 -0.1428571E+00  0.1428571E+00  0.5830904E-02
    1       -2.804862   1.000000
    2        7.764970   1.000000
    3        7.764976   1.000000
    4        7.768120   1.000000
    5       11.073183   0.000000
    6       11.506780   0.000000
    7       12.341552   0.000000
    8       13.722062   0.000000
 
 -0.2857143E+00  0.2857143E+00  0.2857143E+00  0.1166181E-01
    1       -2.691189   1.000000
    2        1.541173   1.000000
    3        3.277798   1.000000
    4        7.393085   1.000000
    5       13.920674   0.000000
    6       17.015069   0.000000
    7       17.236361   0.000000
    8       18.091776   0.000000
 
 -0.4285714E+00  0.4285714E+00  0.2857143E+00  0.2332362E-01
    1       -1.516695   1.000000
    2        0.058611   1.000000
    3        3.825274   1.000000
    4        5.361287   1.000000
    5       15.418953   0.000000
    6       16.356083   0.000000
    7       17.959597   0.000000
    8       18.523793   0.000000
 
 -0.2857143E+00  0.4285714E+00  0.2857143E+00  0.2332362E-01
    1       -1.189118   1.000000
    2        1.381922   1.000000
    3        3.155967   1.000000
    4        5.669171   1.000000
    5       11.478181   0.000000
    6       17.169898   0.000000
    7       18.436291   0.000000
    8       19.140046   0.000000
 
 -0.4285714E+00 -0.4285714E+00  0.2857143E+00  0.2332362E-01
    1        0.139609   1.000000
    2        0.148840   1.000000
    3        3.915062   1.000000
    4        3.917617   1.000000
    5       11.294433   0.000000
    6       18.560705   0.000000
    7       18.750508   0.000000
    8       19.412723   0.000000
 
 -0.2857143E+00 -0.4285714E+00  0.2857143E+00  0.2332362E-01
    1        1.347016   1.000000
    2        2.335560   1.000000
    3        4.096955   1.000000
    4        5.056813   1.000000
    5        6.630100   1.000000
    6       15.368944   0.000000
    7       16.750481   0.000000
    8       18.098400   0.000000
 
 -0.2857143E+00 -0.2857143E+00  0.2857143E+00  0.5830904E-02
    1        2.435208   1.000000
    2        4.412410   1.000000
    3        4.547828   1.000000
    4        6.045142   1.000000
    5        6.045143   1.000000
    6       13.015029   0.000000
    7       13.630290   0.000000
    8       13.630294   0.000000
 
 -0.4285714E+00  0.4285714E+00  0.4285714E+00  0.1166181E-01
    1       -0.421175   1.000000
    2        0.574668   1.000000
    3        2.395551   1.000000
    4        3.378023   1.000000
    5       16.215627   0.000000
    6       16.358011   0.000000
    7       19.689394   0.000000
    8       20.624075   0.000000
 
 -0.4285714E+00 -0.4285714E+00  0.4285714E+00  0.5830904E-02
    1        0.891867   1.000000
    2        0.906322   1.000000
    3        2.712177   1.000000
    4        2.712177   1.000000
    5       11.101261   0.000000
    6       19.727017   0.000000
    7       20.693279   0.000000
    8       20.693291   0.000000
