 vasp.5.4.4.18Apr17-6-g9f103f2a35 (build Dec 09 2018 21:25:21) complex          
  
 executed on IFC18.0.1.163_CrayMP date 2019.03.18  04:41:29
 running on    8 total cores
 distrk:  each k-point on    8 cores,    1 groups
 distr:  one band on NCORES_PER_BAND=   1 cores,    8 groups


--------------------------------------------------------------------------------------------------------


 INCAR:
 POTCAR:   PAW_PBE Si 05Jan2001                   

 ----------------------------------------------------------------------------- 
|                                                                             |
|           W    W    AA    RRRRR   N    N  II  N    N   GGGG   !!!           |
|           W    W   A  A   R    R  NN   N  II  NN   N  G    G  !!!           |
|           W    W  A    A  R    R  N N  N  II  N N  N  G       !!!           |
|           W WW W  AAAAAA  RRRRR   N  N N  II  N  N N  G  GGG   !            |
|           WW  WW  A    A  R   R   N   NN  II  N   NN  G    G                |
|           W    W  A    A  R    R  N    N  II  N    N   GGGG   !!!           |
|                                                                             |
|      For optimal performance we recommend to set                            |
|        NCORE= 4 - approx SQRT( number of cores)                             |
|      NCORE specifies how many cores store one orbital (NPAR=cpu/NCORE).     |
|      This setting can  greatly improve the performance of VASP for DFT.     |
|      The default,   NCORE=1            might be grossly inefficient         |
|      on modern multi-core architectures or massively parallel machines.     |
|      Do your own testing !!!!                                               |
|      Unfortunately you need to use the default for GW and RPA calculations. |
|      (for HF NCORE is supported but not extensively tested yet)             |
|                                                                             |
 ----------------------------------------------------------------------------- 

 POTCAR:   PAW_PBE Si 05Jan2001                   
   VRHFIN =Si: s2p2                                                             
   LEXCH  = PE                                                                  
   EATOM  =   103.0669 eV,    7.5752 Ry                                         
                                                                                
   TITEL  = PAW_PBE Si 05Jan2001                                                
   LULTRA =        F    use ultrasoft PP ?                                      
   IUNSCR =        1    unscreen: 0-lin 1-nonlin 2-no                           
   RPACOR =    1.500    partial core radius                                     
   POMASS =   28.085; ZVAL   =    4.000    mass and valenz                      
   RCORE  =    1.900    outmost cutoff radius                                   
   RWIGS  =    2.480; RWIGS  =    1.312    wigner-seitz radius (au A)           
   ENMAX  =  245.345; ENMIN  =  184.009 eV                                      
   ICORE  =        2    local potential                                         
   LCOR   =        T    correct aug charges                                     
   LPAW   =        T    paw PP                                                  
   EAUG   =  322.069                                                            
   DEXC   =    -.007                                                            
   RMAX   =    2.944    core radius for proj-oper                               
   RAUG   =    1.300    factor for augmentation sphere                          
   RDEP   =    1.993    radius for radial grids                                 
   QCUT   =   -4.246; QGAM   =    8.493    optimization parameters              
                                                                                
   Description                                                                  
     l     E      TYP  RCUT    TYP  RCUT                                        
     0   .000     23  1.900                                                     
     0   .000     23  1.900                                                     
     1   .000     23  1.900                                                     
     1   .000     23  1.900                                                     
     2   .000      7  1.900                                                     
  local pseudopotential read in
  partial core-charges read in
  atomic valenz-charges read in
  non local Contribution for L=           0  read in
    real space projection operators read in
  non local Contribution for L=           0  read in
    real space projection operators read in
  non local Contribution for L=           1  read in
    real space projection operators read in
  non local Contribution for L=           1  read in
    real space projection operators read in
    PAW grid and wavefunctions read in
 
   number of l-projection  operators is LMAX  =           4
   number of lm-projection operators is LMMAX =           8
 
 PAW_PBE Si 05Jan2001                   :
 energy of atom  1       EATOM= -103.0669
 kinetic energy error for atom=    0.0021 (will be added to EATOM!!)
 
 
 POSCAR: Si2                                     
  positions in direct lattice
  No initial velocities read in
 exchange correlation table for  LEXCH =        8
   RHO(1)=    0.500       N(1)  =     2000
   RHO(2)=  100.500       N(2)  =     4000
 


--------------------------------------------------------------------------------------------------------


 ion  position               nearest neighbor table
   1  0.250  0.750  0.500-   2 2.53   2 2.53   2 2.53   2 2.53   2 3.11   2 3.11   2 3.11   2 3.11

   2  0.000  0.000  0.000-   1 2.53   1 2.53   1 2.53   1 2.53   1 3.11   1 3.11   1 3.11   1 3.11

 
  LATTYP: Found a body centered tetragonal cell.
 ALAT       =     4.9000000000
 C/A-ratio  =     0.5200000000
  
  Lattice vectors:
  
 A1 = (  -2.4500000000,   2.4500000000,   1.2740000000)
 A2 = (   2.4500000000,  -2.4500000000,   1.2740000000)
 A3 = (   2.4500000000,   2.4500000000,  -1.2740000000)


Analysis of symmetry for initial positions (statically):
=====================================================================
 Subroutine PRICEL returns:
 Original cell was already a primitive cell.
 

 Routine SETGRP: Setting up the symmetry group for a 
 body centered tetragonal supercell.


 Subroutine GETGRP returns: Found 16 space group operations
 (whereof  8 operations were pure point group operations)
 out of a pool of 16 trial point group operations.


The static configuration has the point symmetry D_2d.
 The point group associated with its full space group is D_4h.


Analysis of symmetry for dynamics (positions and initial velocities):
=====================================================================
 Subroutine PRICEL returns:
 Original cell was already a primitive cell.
 

 Routine SETGRP: Setting up the symmetry group for a 
 body centered tetragonal supercell.


 Subroutine GETGRP returns: Found 16 space group operations
 (whereof  8 operations were pure point group operations)
 out of a pool of 16 trial point group operations.


The dynamic configuration has the point symmetry D_2d.
 The point group associated with its full space group is D_4h.


 Subroutine INISYM returns: Found 16 space group operations
 (whereof  8 operations are pure point group operations),
 and found     1 'primitive' translations

 
 
 KPOINTS: Automatic kpoint scheme                 

Automatic generation of k-mesh.
Space group operators:
 irot       det(A)        alpha          n_x          n_y          n_z        tau_x        tau_y        tau_z
    1     1.000000     0.000000     1.000000     0.000000     0.000000     0.000000     0.000000     0.000000
    2    -1.000000    90.000000    -0.000000    -0.000000    -1.000000     0.000000     0.000000     0.000000
    3     1.000000   180.000000    -0.000000    -0.000000    -1.000000     0.000000     0.000000     0.000000
    4    -1.000000    90.000000    -0.000000     0.000000     1.000000     0.000000     0.000000     0.000000
    5    -1.000000   180.000000     0.000000    -1.000000     0.000000     0.000000     0.000000     0.000000
    6     1.000000   180.000000     0.707107     0.707107    -0.000000     0.000000     0.000000     0.000000
    7    -1.000000   180.000000     1.000000     0.000000     0.000000     0.000000     0.000000     0.000000
    8     1.000000   180.000000     0.707107    -0.707107     0.000000     0.000000     0.000000     0.000000
    9    -1.000000     0.000000     1.000000     0.000000     0.000000     0.250000     0.750000     0.500000
   10     1.000000    90.000000    -0.000000    -0.000000    -1.000000     0.250000     0.750000     0.500000
   11    -1.000000   180.000000    -0.000000    -0.000000    -1.000000     0.250000     0.750000     0.500000
   12     1.000000    90.000000    -0.000000     0.000000     1.000000     0.250000     0.750000     0.500000
   13     1.000000   180.000000     0.000000    -1.000000     0.000000     0.250000     0.750000     0.500000
   14    -1.000000   180.000000     0.707107     0.707107    -0.000000     0.250000     0.750000     0.500000
   15     1.000000   180.000000     1.000000     0.000000     0.000000     0.250000     0.750000     0.500000
   16    -1.000000   180.000000     0.707107    -0.707107     0.000000     0.250000     0.750000     0.500000
 
 Subroutine IBZKPT returns following result:
 ===========================================
 
 Found     40 irreducible k-points:
 
 Following reciprocal coordinates:
            Coordinates               Weight
  0.000000  0.000000  0.000000      1.000000
  0.142857 -0.000000  0.000000      8.000000
  0.285714 -0.000000  0.000000      8.000000
  0.428571 -0.000000  0.000000      8.000000
  0.142857  0.142857  0.000000      8.000000
  0.285714  0.142857  0.000000     16.000000
  0.428571  0.142857  0.000000     16.000000
 -0.428571  0.142857 -0.000000     16.000000
 -0.285714  0.142857 -0.000000     16.000000
 -0.142857  0.142857 -0.000000      4.000000
  0.285714  0.285714  0.000000      8.000000
  0.428571  0.285714  0.000000     16.000000
 -0.428571  0.285714 -0.000000     16.000000
 -0.285714  0.285714 -0.000000      4.000000
  0.428571  0.428571  0.000000      8.000000
 -0.428571  0.428571  0.000000      4.000000
  0.142857  0.142857  0.142857      8.000000
  0.285714  0.142857  0.142857     16.000000
 -0.142857  0.142857  0.142857      4.000000
  0.285714  0.285714  0.142857      8.000000
  0.428571  0.285714  0.142857      8.000000
 -0.285714  0.285714  0.142857      8.000000
 -0.142857  0.285714  0.142857      8.000000
 -0.428571  0.428571  0.142857      8.000000
 -0.285714  0.428571  0.142857     16.000000
 -0.142857  0.428571  0.142857      8.000000
 -0.428571 -0.428571  0.142857      8.000000
 -0.285714 -0.428571  0.142857     16.000000
 -0.142857 -0.428571  0.142857      8.000000
 -0.285714 -0.285714  0.142857      8.000000
 -0.142857 -0.285714  0.142857      8.000000
 -0.142857 -0.142857  0.142857      2.000000
 -0.285714  0.285714  0.285714      4.000000
 -0.428571  0.428571  0.285714      8.000000
 -0.285714  0.428571  0.285714      8.000000
 -0.428571 -0.428571  0.285714      8.000000
 -0.285714 -0.428571  0.285714      8.000000
 -0.285714 -0.285714  0.285714      2.000000
 -0.428571  0.428571  0.428571      4.000000
 -0.428571 -0.428571  0.428571      2.000000
 
 Following cartesian coordinates:
            Coordinates               Weight
  0.000000  0.000000  0.000000      1.000000
  0.000000  0.029155  0.056066      8.000000
  0.000000  0.058309  0.112133      8.000000
  0.000000  0.087464  0.168199      8.000000
  0.029155  0.029155  0.112133      8.000000
  0.029155  0.058309  0.168199     16.000000
  0.029155  0.087464  0.224266     16.000000
  0.029155 -0.087464 -0.112133     16.000000
  0.029155 -0.058309 -0.056066     16.000000
  0.029155 -0.029155  0.000000      4.000000
  0.058309  0.058309  0.224266      8.000000
  0.058309  0.087464  0.280332     16.000000
  0.058309 -0.087464 -0.056066     16.000000
  0.058309 -0.058309  0.000000      4.000000
  0.087464  0.087464  0.336398      8.000000
  0.087464 -0.087464  0.000000      4.000000
  0.058309  0.058309  0.112133      8.000000
  0.058309  0.087464  0.168199     16.000000
  0.058309 -0.000000 -0.000000      4.000000
  0.087464  0.087464  0.224266      8.000000
  0.087464  0.116618  0.280332      8.000000
  0.087464 -0.029155 -0.000000      8.000000
  0.087464  0.000000  0.056066      8.000000
  0.116618 -0.058309  0.000000      8.000000
  0.116618 -0.029155  0.056066     16.000000
  0.116618  0.000000  0.112133      8.000000
 -0.058309 -0.058309 -0.336398      8.000000
 -0.058309 -0.029155 -0.280332     16.000000
 -0.058309  0.000000 -0.224266      8.000000
 -0.029155 -0.029155 -0.224266      8.000000
 -0.029155 -0.000000 -0.168199      8.000000
  0.000000  0.000000 -0.112133      2.000000
  0.116618  0.000000 -0.000000      4.000000
  0.145773 -0.029155  0.000000      8.000000
  0.145773  0.000000  0.056066      8.000000
 -0.029155 -0.029155 -0.336398      8.000000
 -0.029155  0.000000 -0.280332      8.000000
  0.000000  0.000000 -0.224266      2.000000
  0.174927 -0.000000  0.000000      4.000000
 -0.000000  0.000000 -0.336398      2.000000
 


--------------------------------------------------------------------------------------------------------




 Dimension of arrays:
   k-points           NKPTS =     40   k-points in BZ     NKDIM =     40   number of bands    NBANDS=      8
   number of dos      NEDOS =    301   number of ions     NIONS =      2
   non local maximal  LDIM  =      4   non local SUM 2l+1 LMDIM =      8
   total plane-waves  NPLWV =   4096
   max r-space proj   IRMAX =      1   max aug-charges    IRDMAX=   4676
   dimension x,y,z NGX =    16 NGY =   16 NGZ =   16
   dimension x,y,z NGXF=    32 NGYF=   32 NGZF=   32
   support grid    NGXF=    32 NGYF=   32 NGZF=   32
   ions per type =               2
   NGX,Y,Z   is equivalent  to a cutoff of   7.21,  7.21,  7.21 a.u.
   NGXF,Y,Z  is equivalent  to a cutoff of  14.41, 14.41, 14.41 a.u.

 SYSTEM =  unknown system                          
 POSCAR =  Si2                                     

 Startparameter for this run:
   NWRITE =      2    write-flag & timer
   PREC   = normal    normal or accurate (medium, high low for compatibility)
   ISTART =      0    job   : 0-new  1-cont  2-samecut
   ICHARG =      2    charge: 1-file 2-atom 10-const
   ISPIN  =      1    spin polarized calculation?
   LNONCOLLINEAR =      F non collinear calculations
   LSORBIT =      F    spin-orbit coupling
   INIWAV =      1    electr: 0-lowe 1-rand  2-diag
   LASPH  =      F    aspherical Exc in radial PAW
   METAGGA=      F    non-selfconsistent MetaGGA calc.

 Electronic Relaxation 1
   ENCUT  =  300.0 eV  22.05 Ry    4.70 a.u.   5.21  5.21  5.21*2*pi/ulx,y,z
   ENINI  =  300.0     initial cutoff
   ENAUG  =  322.1 eV  augmentation charge cutoff
   NELM   =     60;   NELMIN=  2; NELMDL= -5     # of ELM steps 
   EDIFF  = 0.4E-03   stopping-criterion for ELM
   LREAL  =      F    real-space projection
   NLSPLINE    = F    spline interpolate recip. space projectors
   LCOMPAT=      F    compatible to vasp.4.4
   GGA_COMPAT  = T    GGA compatible to vasp.4.4-vasp.4.6
   LMAXPAW     = -100 max onsite density
   LMAXMIX     =    2 max onsite mixed and CHGCAR
   VOSKOWN=      0    Vosko Wilk Nusair interpolation
   ROPT   =    0.00000
 Ionic relaxation
   EDIFFG = -.1E-01   stopping-criterion for IOM
   NSW    =     15    number of steps for IOM
   NBLOCK =      1;   KBLOCK =     15    inner block; outer block 
   IBRION =      2    ionic relax: 0-MD 1-quasi-New 2-CG
   NFREE  =      1    steps in history (QN), initial steepest desc. (CG)
   ISIF   =      2    stress and relaxation
   IWAVPR =     11    prediction:  0-non 1-charg 2-wave 3-comb
   ISYM   =      2    0-nonsym 1-usesym 2-fastsym
   LCORR  =      T    Harris-Foulkes like correction to forces

   POTIM  = 0.5000    time-step for ionic-motion
   TEIN   =    0.0    initial temperature
   TEBEG  =    0.0;   TEEND  =   0.0 temperature during run
   SMASS  =  -3.00    Nose mass-parameter (am)
   estimated Nose-frequenzy (Omega)   =  0.10E-29 period in steps =****** mass=  -0.311E-27a.u.
   SCALEE = 1.0000    scale energy and forces
   NPACO  =    256;   APACO  = 16.0  distance and # of slots for P.C.
   PSTRESS=    0.0 pullay stress

  Mass of Ions in am
   POMASS =  28.09
  Ionic Valenz
   ZVAL   =   4.00
  Atomic Wigner-Seitz radii
   RWIGS  =  -1.00
  virtual crystal weights 
   VCA    =   1.00
   NELECT =       8.0000    total number of electrons
   NUPDOWN=      -1.0000    fix difference up-down

 DOS related values:
   EMIN   =  10.00;   EMAX   =-10.00  energy-range for DOS
   EFERMI =   0.00
   ISMEAR =     0;   SIGMA  =   0.20  broadening in eV -4-tet -1-fermi 0-gaus

 Electronic relaxation 2 (details)
   IALGO  =     38    algorithm
   LDIAG  =      T    sub-space diagonalisation (order eigenvalues)
   LSUBROT=      F    optimize rotation matrix (better conditioning)
   TURBO    =      0    0=normal 1=particle mesh
   IRESTART =      0    0=no restart 2=restart with 2 vectors
   NREBOOT  =      0    no. of reboots
   NMIN     =      0    reboot dimension
   EREF     =   0.00    reference energy to select bands
   IMIX   =      4    mixing-type and parameters
     AMIX     =   0.40;   BMIX     =  1.00
     AMIX_MAG =   1.60;   BMIX_MAG =  1.00
     AMIN     =   0.10
     WC   =   100.;   INIMIX=   1;  MIXPRE=   1;  MAXMIX= -45

 Intra band minimization:
   WEIMIN = 0.0010     energy-eigenvalue tresh-hold
   EBREAK =  0.13E-04  absolut break condition
   DEPER  =   0.30     relativ break condition  

   TIME   =   0.40     timestep for ELM

  volume/ion in A,a.u.               =      15.29       103.21
  Fermi-wavevector in a.u.,A,eV,Ry     =   1.046930  1.978411 14.912834  1.096062
  Thomas-Fermi vector in A             =   2.181789
 
 Write flags
   LWAVE        =      T    write WAVECAR
   LDOWNSAMPLE  =      F    k-point downsampling of WAVECAR
   LCHARG       =      T    write CHGCAR
   LVTOT        =      F    write LOCPOT, total local potential
   LVHAR        =      F    write LOCPOT, Hartree potential only
   LELF         =      F    write electronic localiz. function (ELF)
   LORBIT       =      0    0 simple, 1 ext, 2 COOP (PROOUT), +10 PAW based schemes


 Dipole corrections
   LMONO  =      F    monopole corrections only (constant potential shift)
   LDIPOL =      F    correct potential (dipole corrections)
   IDIPOL =      0    1-x, 2-y, 3-z, 4-all directions 
   EPSILON=  1.0000000 bulk dielectric constant

 Exchange correlation treatment:
   GGA     =    --    GGA type
   LEXCH   =     8    internal setting for exchange type
   VOSKOWN=      0    Vosko Wilk Nusair interpolation
   LHFCALC =     F    Hartree Fock is set to
   LHFONE  =     F    Hartree Fock one center treatment
   AEXX    =    0.0000 exact exchange contribution

 Linear response parameters
   LEPSILON=     F    determine dielectric tensor
   LRPA    =     F    only Hartree local field effects (RPA)
   LNABLA  =     F    use nabla operator in PAW spheres
   LVEL    =     F    velocity operator in full k-point grid
   LINTERFAST=   F  fast interpolation
   KINTER  =     0    interpolate to denser k-point grid
   CSHIFT  =0.1000    complex shift for real part using Kramers Kronig
   OMEGAMAX=  -1.0    maximum frequency
   DEG_THRESHOLD= 0.2000000E-02 threshold for treating states as degnerate
   RTIME   =   -0.100 relaxation time in fs
  (WPLASMAI=    0.000 imaginary part of plasma frequency in eV, 0.658/RTIME)
   DFIELD  = 0.0000000 0.0000000 0.0000000 field for delta impulse in time
 
 Orbital magnetization related:
   ORBITALMAG=     F  switch on orbital magnetization
   LCHIMAG   =     F  perturbation theory with respect to B field
   DQ        =  0.001000  dq finite difference perturbation B field
   LLRAUG    =     F  two centre corrections for induced B field



--------------------------------------------------------------------------------------------------------


 conjugate gradient relaxation of ions
 charge density and potential will be updated during run
 non-spin polarized calculation
 Variant of blocked Davidson
 Davidson routine will perform the subspace rotation
 perform sub-space diagonalisation
    after iterative eigenvector-optimisation
 modified Broyden-mixing scheme, WC =      100.0
 initial mixing is a Kerker type mixing with AMIX =  0.4000 and BMIX =      1.0000
 Hartree-type preconditioning will be used
 using additional bands            4
 reciprocal scheme for non local part
 use partial core corrections
 calculate Harris-corrections to forces 
   (improved forces if not selfconsistent)
 use gradient corrections 
 use of overlap-Matrix (Vanderbilt PP)
 Gauss-broadening in eV      SIGMA  =   0.20


--------------------------------------------------------------------------------------------------------


  energy-cutoff  :      300.00
  volume of cell :       30.59
      direct lattice vectors                 reciprocal lattice vectors
    -2.450000000  2.450000000  1.274000000     0.000000000  0.204081633  0.392464678
     2.450000000 -2.450000000  1.274000000     0.204081633  0.000000000  0.392464678
     2.450000000  2.450000000 -1.274000000     0.204081633  0.204081633 -0.000000000

  length of vectors
     3.691622408  3.691622408  3.691622408     0.442354876  0.442354876  0.288615013


 
 k-points in units of 2pi/SCALE and weight: Automatic kpoint scheme                 
   0.00000000  0.00000000  0.00000000       0.003
   0.00000000  0.02915452  0.05606638       0.023
   0.00000000  0.05830904  0.11213277       0.023
   0.00000000  0.08746356  0.16819915       0.023
   0.02915452  0.02915452  0.11213277       0.023
   0.02915452  0.05830904  0.16819915       0.047
   0.02915452  0.08746356  0.22426553       0.047
   0.02915452 -0.08746356 -0.11213277       0.047
   0.02915452 -0.05830904 -0.05606638       0.047
   0.02915452 -0.02915452  0.00000000       0.012
   0.05830904  0.05830904  0.22426553       0.023
   0.05830904  0.08746356  0.28033191       0.047
   0.05830904 -0.08746356 -0.05606638       0.047
   0.05830904 -0.05830904  0.00000000       0.012
   0.08746356  0.08746356  0.33639830       0.023
   0.08746356 -0.08746356  0.00000000       0.012
   0.05830904  0.05830904  0.11213277       0.023
   0.05830904  0.08746356  0.16819915       0.047
   0.05830904 -0.00000000  0.00000000       0.012
   0.08746356  0.08746356  0.22426553       0.023
   0.08746356  0.11661808  0.28033191       0.023
   0.08746356 -0.02915452  0.00000000       0.023
   0.08746356  0.00000000  0.05606638       0.023
   0.11661808 -0.05830904  0.00000000       0.023
   0.11661808 -0.02915452  0.05606638       0.047
   0.11661808  0.00000000  0.11213277       0.023
  -0.05830904 -0.05830904 -0.33639830       0.023
  -0.05830904 -0.02915452 -0.28033191       0.047
  -0.05830904 -0.00000000 -0.22426553       0.023
  -0.02915452 -0.02915452 -0.22426553       0.023
  -0.02915452 -0.00000000 -0.16819915       0.023
  -0.00000000 -0.00000000 -0.11213277       0.006
   0.11661808  0.00000000  0.00000000       0.012
   0.14577259 -0.02915452  0.00000000       0.023
   0.14577259 -0.00000000  0.05606638       0.023
  -0.02915452 -0.02915452 -0.33639830       0.023
  -0.02915452 -0.00000000 -0.28033191       0.023
   0.00000000  0.00000000 -0.22426553       0.006
   0.17492711 -0.00000000 -0.00000000       0.012
   0.00000000 -0.00000000 -0.33639830       0.006
 
 k-points in reciprocal lattice and weights: Automatic kpoint scheme                 
   0.00000000  0.00000000  0.00000000       0.003
   0.14285714 -0.00000000  0.00000000       0.023
   0.28571429 -0.00000000  0.00000000       0.023
   0.42857143 -0.00000000  0.00000000       0.023
   0.14285714  0.14285714  0.00000000       0.023
   0.28571429  0.14285714  0.00000000       0.047
   0.42857143  0.14285714  0.00000000       0.047
  -0.42857143  0.14285714 -0.00000000       0.047
  -0.28571429  0.14285714 -0.00000000       0.047
  -0.14285714  0.14285714 -0.00000000       0.012
   0.28571429  0.28571429  0.00000000       0.023
   0.42857143  0.28571429  0.00000000       0.047
  -0.42857143  0.28571429 -0.00000000       0.047
  -0.28571429  0.28571429 -0.00000000       0.012
   0.42857143  0.42857143  0.00000000       0.023
  -0.42857143  0.42857143  0.00000000       0.012
   0.14285714  0.14285714  0.14285714       0.023
   0.28571429  0.14285714  0.14285714       0.047
  -0.14285714  0.14285714  0.14285714       0.012
   0.28571429  0.28571429  0.14285714       0.023
   0.42857143  0.28571429  0.14285714       0.023
  -0.28571429  0.28571429  0.14285714       0.023
  -0.14285714  0.28571429  0.14285714       0.023
  -0.42857143  0.42857143  0.14285714       0.023
  -0.28571429  0.42857143  0.14285714       0.047
  -0.14285714  0.42857143  0.14285714       0.023
  -0.42857143 -0.42857143  0.14285714       0.023
  -0.28571429 -0.42857143  0.14285714       0.047
  -0.14285714 -0.42857143  0.14285714       0.023
  -0.28571429 -0.28571429  0.14285714       0.023
  -0.14285714 -0.28571429  0.14285714       0.023
  -0.14285714 -0.14285714  0.14285714       0.006
  -0.28571429  0.28571429  0.28571429       0.012
  -0.42857143  0.42857143  0.28571429       0.023
  -0.28571429  0.42857143  0.28571429       0.023
  -0.42857143 -0.42857143  0.28571429       0.023
  -0.28571429 -0.42857143  0.28571429       0.023
  -0.28571429 -0.28571429  0.28571429       0.006
  -0.42857143  0.42857143  0.42857143       0.012
  -0.42857143 -0.42857143  0.42857143       0.006
 
 position of ions in fractional coordinates (direct lattice) 
   0.25000000  0.75000000  0.50000000
   0.00000000  0.00000000  0.00000000
 
 position of ions in cartesian coordinates  (Angst):
   2.45000000  0.00000000  0.63700000
   0.00000000  0.00000000  0.00000000
 


--------------------------------------------------------------------------------------------------------


 k-point  1 :   0.0000 0.0000 0.0000  plane waves:     351
 k-point  2 :   0.1429-0.0000 0.0000  plane waves:     358
 k-point  3 :   0.2857-0.0000 0.0000  plane waves:     362
 k-point  4 :   0.4286-0.0000 0.0000  plane waves:     363
 k-point  5 :   0.1429 0.1429 0.0000  plane waves:     358
 k-point  6 :   0.2857 0.1429 0.0000  plane waves:     356
 k-point  7 :   0.4286 0.1429 0.0000  plane waves:     361
 k-point  8 :  -0.4286 0.1429-0.0000  plane waves:     359
 k-point  9 :  -0.2857 0.1429-0.0000  plane waves:     366
 k-point 10 :  -0.1429 0.1429-0.0000  plane waves:     364
 k-point 11 :   0.2857 0.2857 0.0000  plane waves:     361
 k-point 12 :   0.4286 0.2857 0.0000  plane waves:     363
 k-point 13 :  -0.4286 0.2857-0.0000  plane waves:     364
 k-point 14 :  -0.2857 0.2857-0.0000  plane waves:     372
 k-point 15 :   0.4286 0.4286 0.0000  plane waves:     356
 k-point 16 :  -0.4286 0.4286 0.0000  plane waves:     376
 k-point 17 :   0.1429 0.1429 0.1429  plane waves:     365
 k-point 18 :   0.2857 0.1429 0.1429  plane waves:     358
 k-point 19 :  -0.1429 0.1429 0.1429  plane waves:     365
 k-point 20 :   0.2857 0.2857 0.1429  plane waves:     356
 k-point 21 :   0.4286 0.2857 0.1429  plane waves:     364
 k-point 22 :  -0.2857 0.2857 0.1429  plane waves:     364
 k-point 23 :  -0.1429 0.2857 0.1429  plane waves:     362
 k-point 24 :  -0.4286 0.4286 0.1429  plane waves:     367
 k-point 25 :  -0.2857 0.4286 0.1429  plane waves:     365
 k-point 26 :  -0.1429 0.4286 0.1429  plane waves:     360
 k-point 27 :  -0.4286-0.4286 0.1429  plane waves:     364
 k-point 28 :  -0.2857-0.4286 0.1429  plane waves:     359
 k-point 29 :  -0.1429-0.4286 0.1429  plane waves:     358
 k-point 30 :  -0.2857-0.2857 0.1429  plane waves:     354
 k-point 31 :  -0.1429-0.2857 0.1429  plane waves:     348
 k-point 32 :  -0.1429-0.1429 0.1429  plane waves:     363
 k-point 33 :  -0.2857 0.2857 0.2857  plane waves:     363
 k-point 34 :  -0.4286 0.4286 0.2857  plane waves:     362
 k-point 35 :  -0.2857 0.4286 0.2857  plane waves:     360
 k-point 36 :  -0.4286-0.4286 0.2857  plane waves:     367
 k-point 37 :  -0.2857-0.4286 0.2857  plane waves:     365
 k-point 38 :  -0.2857-0.2857 0.2857  plane waves:     364
 k-point 39 :  -0.4286 0.4286 0.4286  plane waves:     361
 k-point 40 :  -0.4286-0.4286 0.4286  plane waves:     364

 maximum and minimum number of plane-waves per node :       376      348

 maximum number of plane-waves:       376
 maximum index in each direction: 
   IXMAX=    5   IYMAX=    5   IZMAX=    5
   IXMIN=   -5   IYMIN=   -5   IZMIN=   -5


 serial   3D FFT for wavefunctions
 parallel 3D FFT for charge:
    minimum data exchange during FFTs selected (reduces bandwidth)


 total amount of memory used by VASP MPI-rank0    31762. kBytes
=======================================================================

   base      :      30000. kBytes
   nonl-proj :        974. kBytes
   fftplans  :        160. kBytes
   grid      :        372. kBytes
   one-center:          6. kBytes
   wavefun   :        250. kBytes
 
     INWAV:  cpu time    0.0000: real time    0.0008
 Broyden mixing: mesh for mixing (old mesh)
   NGX = 11   NGY = 11   NGZ = 11
  (NGX  = 32   NGY  = 32   NGZ  = 32)
  gives a total of   1331 points

 initial charge density was supplied:
 charge density of overlapping atoms calculated
 number of electron       8.0000000 magnetization 
 keeping initial charge density in first step


--------------------------------------------------------------------------------------------------------


 Maximum index for augmentation-charges          547 (set IRDMAX)


--------------------------------------------------------------------------------------------------------


 First call to EWALD:  gamma=   0.567
 Maximum number of real-space cells 4x 4x 3
 Maximum number of reciprocal cells 3x 3x 3

    FEWALD:  cpu time    0.0080: real time    0.0071


--------------------------------------- Iteration      1(   1)  ---------------------------------------


    POTLOK:  cpu time    0.0280: real time    0.0376
    SETDIJ:  cpu time    0.0120: real time    0.0091
     EDDAV:  cpu time    0.3240: real time    0.3326
       DOS:  cpu time    0.0040: real time    0.0028
    --------------------------------------------
      LOOP:  cpu time    0.3680: real time    0.3827

 eigenvalue-minimisations  :   640
 total energy-change (2. order) :-0.1332595E+00  (-0.2573523E+03)
 number of electron       8.0000000 magnetization 
 augmentation part        8.0000000 magnetization 

 Free energy of the ion-electron system (eV)
  ---------------------------------------------------
  alpha Z        PSCENC =         4.40202223
  Ewald energy   TEWEN  =      -265.18101312
  -Hartree energ DENC   =        -2.30415367
  -exchange      EXHF   =         0.00000000
  -V(xc)+E(xc)   XCENC  =       -17.81548033
  PAW double counting   =        65.95520812      -30.76852678
  entropy T*S    EENTRO =        -0.00733441
  eigenvalues    EBANDS =        39.45633257
  atomic energy  EATOM  =       206.12968587
  Solvation  Ediel_sol  =         0.00000000
  ---------------------------------------------------
  free energy    TOTEN  =        -0.13325952 eV

  energy without entropy =       -0.12592511  energy(sigma->0) =       -0.12959231


--------------------------------------------------------------------------------------------------------




--------------------------------------- Iteration      1(   2)  ---------------------------------------


     EDDAV:  cpu time    0.5240: real time    0.5283
       DOS:  cpu time    0.0000: real time    0.0030
    --------------------------------------------
      LOOP:  cpu time    0.5240: real time    0.5326

 eigenvalue-minimisations  :   976
 total energy-change (2. order) :-0.1002535E+02  (-0.9782873E+01)
 number of electron       8.0000000 magnetization 
 augmentation part        8.0000000 magnetization 

 Free energy of the ion-electron system (eV)
  ---------------------------------------------------
  alpha Z        PSCENC =         4.40202223
  Ewald energy   TEWEN  =      -265.18101312
  -Hartree energ DENC   =        -2.30415367
  -exchange      EXHF   =         0.00000000
  -V(xc)+E(xc)   XCENC  =       -17.81548033
  PAW double counting   =        65.95520812      -30.76852678
  entropy T*S    EENTRO =        -0.01627272
  eigenvalues    EBANDS =        29.43992530
  atomic energy  EATOM  =       206.12968587
  Solvation  Ediel_sol  =         0.00000000
  ---------------------------------------------------
  free energy    TOTEN  =       -10.15860510 eV

  energy without entropy =      -10.14233238  energy(sigma->0) =      -10.15046874


--------------------------------------------------------------------------------------------------------




--------------------------------------- Iteration      1(   3)  ---------------------------------------


     EDDAV:  cpu time    0.4720: real time    0.5224
       DOS:  cpu time    0.0040: real time    0.0028
    --------------------------------------------
      LOOP:  cpu time    0.4760: real time    0.5239

 eigenvalue-minimisations  :   888
 total energy-change (2. order) :-0.1109189E+00  (-0.1095294E+00)
 number of electron       8.0000000 magnetization 
 augmentation part        8.0000000 magnetization 

 Free energy of the ion-electron system (eV)
  ---------------------------------------------------
  alpha Z        PSCENC =         4.40202223
  Ewald energy   TEWEN  =      -265.18101312
  -Hartree energ DENC   =        -2.30415367
  -exchange      EXHF   =         0.00000000
  -V(xc)+E(xc)   XCENC  =       -17.81548033
  PAW double counting   =        65.95520812      -30.76852678
  entropy T*S    EENTRO =        -0.01628572
  eigenvalues    EBANDS =        29.32901938
  atomic energy  EATOM  =       206.12968587
  Solvation  Ediel_sol  =         0.00000000
  ---------------------------------------------------
  free energy    TOTEN  =       -10.26952401 eV

  energy without entropy =      -10.25323829  energy(sigma->0) =      -10.26138115


--------------------------------------------------------------------------------------------------------




--------------------------------------- Iteration      1(   4)  ---------------------------------------


     EDDAV:  cpu time    0.4960: real time    0.5017
       DOS:  cpu time    0.0000: real time    0.0027
    --------------------------------------------
      LOOP:  cpu time    0.5000: real time    0.5045

 eigenvalue-minimisations  :   936
 total energy-change (2. order) :-0.1863645E-03  (-0.1863552E-03)
 number of electron       8.0000000 magnetization 
 augmentation part        8.0000000 magnetization 

 Free energy of the ion-electron system (eV)
  ---------------------------------------------------
  alpha Z        PSCENC =         4.40202223
  Ewald energy   TEWEN  =      -265.18101312
  -Hartree energ DENC   =        -2.30415367
  -exchange      EXHF   =         0.00000000
  -V(xc)+E(xc)   XCENC  =       -17.81548033
  PAW double counting   =        65.95520812      -30.76852678
  entropy T*S    EENTRO =        -0.01628480
  eigenvalues    EBANDS =        29.32883210
  atomic energy  EATOM  =       206.12968587
  Solvation  Ediel_sol  =         0.00000000
  ---------------------------------------------------
  free energy    TOTEN  =       -10.26971038 eV

  energy without entropy =      -10.25342558  energy(sigma->0) =      -10.26156798


--------------------------------------------------------------------------------------------------------




--------------------------------------- Iteration      1(   5)  ---------------------------------------


     EDDAV:  cpu time    0.4800: real time    0.4857
       DOS:  cpu time    0.0040: real time    0.0028
    CHARGE:  cpu time    0.0120: real time    0.0169
    MIXING:  cpu time    0.0040: real time    0.0021
    --------------------------------------------
      LOOP:  cpu time    0.4960: real time    0.5075

 eigenvalue-minimisations  :   904
 total energy-change (2. order) :-0.4374415E-06  (-0.4380964E-06)
 number of electron       7.9999991 magnetization 
 augmentation part       -0.4705819 magnetization 

 Broyden mixing:
  rms(total) = 0.14876E+00    rms(broyden)= 0.14876E+00
  rms(prec ) = 0.33294E+00
  weight for this iteration     100.00

 Free energy of the ion-electron system (eV)
  ---------------------------------------------------
  alpha Z        PSCENC =         4.40202223
  Ewald energy   TEWEN  =      -265.18101312
  -Hartree energ DENC   =        -2.30415367
  -exchange      EXHF   =         0.00000000
  -V(xc)+E(xc)   XCENC  =       -17.81548033
  PAW double counting   =        65.95520812      -30.76852678
  entropy T*S    EENTRO =        -0.01628479
  eigenvalues    EBANDS =        29.32883166
  atomic energy  EATOM  =       206.12968587
  Solvation  Ediel_sol  =         0.00000000
  ---------------------------------------------------
  free energy    TOTEN  =       -10.26971082 eV

  energy without entropy =      -10.25342602  energy(sigma->0) =      -10.26156842


--------------------------------------------------------------------------------------------------------




--------------------------------------- Iteration      1(   6)  ---------------------------------------


    POTLOK:  cpu time    0.0200: real time    0.0250
    SETDIJ:  cpu time    0.0080: real time    0.0093
     EDDAV:  cpu time    0.4320: real time    0.4343
       DOS:  cpu time    0.0040: real time    0.0027
    CHARGE:  cpu time    0.0120: real time    0.0153
    MIXING:  cpu time    0.0040: real time    0.0017
    --------------------------------------------
      LOOP:  cpu time    0.4800: real time    0.4885

 eigenvalue-minimisations  :   824
 total energy-change (2. order) : 0.4570094E-02  (-0.1728779E-03)
 number of electron       7.9999991 magnetization 
 augmentation part       -0.4721487 magnetization 

 Broyden mixing:
  rms(total) = 0.93142E-01    rms(broyden)= 0.93142E-01
  rms(prec ) = 0.20870E+00
  weight for this iteration     100.00

 eigenvalues of (default mixing * dielectric matrix)
  average eigenvalue GAMMA=   2.6702
  2.6702

 Free energy of the ion-electron system (eV)
  ---------------------------------------------------
  alpha Z        PSCENC =         4.40202223
  Ewald energy   TEWEN  =      -265.18101312
  -Hartree energ DENC   =        -2.33386557
  -exchange      EXHF   =         0.00000000
  -V(xc)+E(xc)   XCENC  =       -17.73446072
  PAW double counting   =        67.74008063      -32.59053539
  entropy T*S    EENTRO =        -0.01628397
  eigenvalues    EBANDS =        29.31922930
  atomic energy  EATOM  =       206.12968587
  Solvation  Ediel_sol  =         0.00000000
  ---------------------------------------------------
  free energy    TOTEN  =       -10.26514072 eV

  energy without entropy =      -10.24885676  energy(sigma->0) =      -10.25699874


--------------------------------------------------------------------------------------------------------




--------------------------------------- Iteration      1(   7)  ---------------------------------------


    POTLOK:  cpu time    0.0200: real time    0.0351
    SETDIJ:  cpu time    0.0080: real time    0.0087
     EDDAV:  cpu time    0.3800: real time    0.3790
       DOS:  cpu time    0.0000: real time    0.0032
    CHARGE:  cpu time    0.0160: real time    0.0144
    MIXING:  cpu time    0.0000: real time    0.0017
    --------------------------------------------
      LOOP:  cpu time    0.4240: real time    0.4421

 eigenvalue-minimisations  :   736
 total energy-change (2. order) : 0.3814845E-02  (-0.5142806E-03)
 number of electron       7.9999991 magnetization 
 augmentation part       -0.4751161 magnetization 

 Broyden mixing:
  rms(total) = 0.32839E-02    rms(broyden)= 0.32836E-02
  rms(prec ) = 0.83698E-02
  weight for this iteration     100.00

 eigenvalues of (default mixing * dielectric matrix)
  average eigenvalue GAMMA=   2.5969
  2.5969  2.5969

 Free energy of the ion-electron system (eV)
  ---------------------------------------------------
  alpha Z        PSCENC =         4.40202223
  Ewald energy   TEWEN  =      -265.18101312
  -Hartree energ DENC   =        -2.47846619
  -exchange      EXHF   =         0.00000000
  -V(xc)+E(xc)   XCENC  =       -17.58147091
  PAW double counting   =        70.59320136      -35.50705655
  entropy T*S    EENTRO =        -0.01627001
  eigenvalues    EBANDS =        29.37804144
  atomic energy  EATOM  =       206.12968587
  Solvation  Ediel_sol  =         0.00000000
  ---------------------------------------------------
  free energy    TOTEN  =       -10.26132588 eV

  energy without entropy =      -10.24505587  energy(sigma->0) =      -10.25319087


--------------------------------------------------------------------------------------------------------




--------------------------------------- Iteration      1(   8)  ---------------------------------------


    POTLOK:  cpu time    0.0200: real time    0.0266
    SETDIJ:  cpu time    0.0080: real time    0.0087
     EDDAV:  cpu time    0.2680: real time    0.2660
       DOS:  cpu time    0.0040: real time    0.0027
    --------------------------------------------
      LOOP:  cpu time    0.3000: real time    0.3039

 eigenvalue-minimisations  :   464
 total energy-change (2. order) : 0.1395354E-04  (-0.7507918E-05)
 number of electron       7.9999991 magnetization 
 augmentation part       -0.4751161 magnetization 

 Free energy of the ion-electron system (eV)
  ---------------------------------------------------
  alpha Z        PSCENC =         4.40202223
  Ewald energy   TEWEN  =      -265.18101312
  -Hartree energ DENC   =        -2.49669155
  -exchange      EXHF   =         0.00000000
  -V(xc)+E(xc)   XCENC  =       -17.58238035
  PAW double counting   =        70.38774089      -35.30162034
  entropy T*S    EENTRO =        -0.01626519
  eigenvalues    EBANDS =        29.39720963
  atomic energy  EATOM  =       206.12968587
  Solvation  Ediel_sol  =         0.00000000
  ---------------------------------------------------
  free energy    TOTEN  =       -10.26131193 eV

  energy without entropy =      -10.24504673  energy(sigma->0) =      -10.25317933


--------------------------------------------------------------------------------------------------------




 average (electrostatic) potential at core
  the test charge radii are     0.9892
  (the norm of the test charge is              1.0000)
       1 -80.5440       2 -80.5440
 
 
 
 E-fermi :   8.9888     XC(G=0): -10.8917     alpha+bet :-15.6819


 k-point     1 :       0.0000    0.0000    0.0000
  band No.  band energies     occupation 
      1      -4.6155      2.00000
      2       6.1867      2.00000
      3       6.2979      2.00000
      4       6.2979      2.00000
      5      10.5233      0.00000
      6      16.7711      0.00000
      7      17.3666      0.00000
      8      17.3666      0.00000

 k-point     2 :       0.1429   -0.0000    0.0000
  band No.  band energies     occupation 
      1      -4.0396      2.00000
      2       5.1596      2.00000
      3       6.2325      2.00000
      4       8.3174      2.00000
      5      11.6613      0.00000
      6      14.5192      0.00000
      7      14.9025      0.00000
      8      16.6197      0.00000

 k-point     3 :       0.2857   -0.0000    0.0000
  band No.  band energies     occupation 
      1      -2.3241      2.00000
      2       5.1416      2.00000
      3       6.5318      2.00000
      4       8.9597      1.16324
      5      11.2050      0.00000
      6      12.1537      0.00000
      7      13.5027      0.00000
      8      14.3994      0.00000

 k-point     4 :       0.4286   -0.0000    0.0000
  band No.  band energies     occupation 
      1       0.4859      2.00000
      2       4.3575      2.00000
      3       6.2255      2.00000
      4       7.4586      2.00000
      5       8.4472      1.99987
      6      10.9309      0.00000
      7      13.5764      0.00000
      8      14.4763      0.00000

 k-point     5 :       0.1429    0.1429    0.0000
  band No.  band energies     occupation 
      1      -2.5641      2.00000
      2       5.4307      2.00000
      3       7.9363      2.00000
      4       9.0693      0.56937
      5      10.6699      0.00000
      6      11.1426      0.00000
      7      13.5975      0.00000
      8      14.3984      0.00000

 k-point     6 :       0.2857    0.1429    0.0000
  band No.  band energies     occupation 
      1       0.0188      2.00000
      2       5.4497      2.00000
      3       6.3215      2.00000
      4       6.8857      2.00000
      5       9.4199      0.00231
      6      11.5322      0.00000
      7      12.3595      0.00000
      8      13.6536      0.00000

 k-point     7 :       0.4286    0.1429    0.0000
  band No.  band energies     occupation 
      1       1.4080      2.00000
      2       3.6517      2.00000
      3       4.6457      2.00000
      4       7.5299      2.00000
      5       8.8362      1.71954
      6      11.5154      0.00000
      7      12.6325      0.00000
      8      16.1115      0.00000

 k-point     8 :      -0.4286    0.1429   -0.0000
  band No.  band energies     occupation 
      1      -1.6070      2.00000
      2       3.2184      2.00000
      3       6.7153      2.00000
      4       8.2775      2.00000
      5      10.6655      0.00000
      6      12.5352      0.00000
      7      13.2719      0.00000
      8      15.2786      0.00000

 k-point     9 :      -0.2857    0.1429   -0.0000
  band No.  band energies     occupation 
      1      -3.5556      2.00000
      2       2.9592      2.00000
      3       6.3887      2.00000
      4       9.6650      0.00000
      5      12.4333      0.00000
      6      13.7406      0.00000
      7      14.2945      0.00000
      8      16.0094      0.00000

 k-point    10 :      -0.1429    0.1429   -0.0000
  band No.  band energies     occupation 
      1      -4.3724      2.00000
      2       3.7504      2.00000
      3       6.5229      2.00000
      4       7.9227      2.00000
      5      11.9695      0.00000
      6      14.2866      0.00000
      7      15.8656      0.00000
      8      19.4452      0.00000

 k-point    11 :       0.2857    0.2857    0.0000
  band No.  band energies     occupation 
      1       2.6452      2.00000
      2       2.8142      2.00000
      3       3.6427      2.00000
      4       7.6705      2.00000
      5       9.3210      0.01884
      6      10.4617      0.00000
      7      14.5957      0.00000
      8      15.2877      0.00000

 k-point    12 :       0.4286    0.2857    0.0000
  band No.  band energies     occupation 
      1      -0.4225      2.00000
      2       1.2072      2.00000
      3       7.5862      2.00000
      4       8.0019      2.00000
      5       9.2671      0.04914
      6      11.7817      0.00000
      7      14.3742      0.00000
      8      15.9263      0.00000

 k-point    13 :      -0.4286    0.2857   -0.0000
  band No.  band energies     occupation 
      1      -2.5928      2.00000
      2       0.7088      2.00000
      3       7.2665      2.00000
      4      10.3268      0.00000
      5      10.7566      0.00000
      6      13.1536      0.00000
      7      14.7541      0.00000
      8      15.1712      0.00000

 k-point    14 :      -0.2857    0.2857   -0.0000
  band No.  band energies     occupation 
      1      -3.6457      2.00000
      2       1.3108      2.00000
      3       7.1977      2.00000
      4       8.9792      1.05408
      5      11.8824      0.00000
      6      13.7441      0.00000
      7      15.2150      0.00000
      8      19.0370      0.00000

 k-point    15 :       0.4286    0.4286    0.0000
  band No.  band energies     occupation 
      1      -1.1638      2.00000
      2      -1.1621      2.00000
      3       8.5783      1.99630
      4       8.6225      1.99042
      5      11.7037      0.00000
      6      12.2850      0.00000
      7      14.1425      0.00000
      8      15.0241      0.00000

 k-point    16 :      -0.4286    0.4286    0.0000
  band No.  band energies     occupation 
      1      -2.4432      2.00000
      2      -0.7804      2.00000
      3       8.3198      2.00000
      4       9.8843      0.00000
      5      10.2201      0.00000
      6      11.8152      0.00000
      7      18.6606      0.00000
      8      18.8185      0.00000

 k-point    17 :       0.1429    0.1429    0.1429
  band No.  band energies     occupation 
      1      -1.8444      2.00000
      2       3.0497      2.00000
      3       8.3566      1.99999
      4       9.1893      0.15638
      5      10.2631      0.00000
      6      11.1693      0.00000
      7      14.0612      0.00000
      8      14.8051      0.00000

 k-point    18 :       0.2857    0.1429    0.1429
  band No.  band energies     occupation 
      1       0.9565      2.00000
      2       4.1088      2.00000
      3       4.9084      2.00000
      4       6.3436      2.00000
      5      10.6009      0.00000
      6      13.1556      0.00000
      7      13.8716      0.00000
      8      14.2330      0.00000

 k-point    19 :      -0.1429    0.1429    0.1429
  band No.  band energies     occupation 
      1      -4.1302      2.00000
      2       3.4477      2.00000
      3       4.9232      2.00000
      4       9.8264      0.00000
      5      12.2064      0.00000
      6      12.8274      0.00000
      7      17.7651      0.00000
      8      17.9391      0.00000

 k-point    20 :       0.2857    0.2857    0.1429
  band No.  band energies     occupation 
      1       2.3258      2.00000
      2       2.3561      2.00000
      3       4.6564      2.00000
      4       6.1480      2.00000
      5      11.6727      0.00000
      6      12.4770      0.00000
      7      14.4553      0.00000
      8      15.4478      0.00000

 k-point    21 :       0.4286    0.2857    0.1429
  band No.  band energies     occupation 
      1      -0.6542      2.00000
      2       0.9894      2.00000
      3       8.6901      1.96534
      4       8.9060      1.44191
      5      10.6534      0.00000
      6      11.6783      0.00000
      7      12.5411      0.00000
      8      13.5953      0.00000

 k-point    22 :      -0.2857    0.2857    0.1429
  band No.  band energies     occupation 
      1      -3.4060      2.00000
      2       1.4811      2.00000
      3       5.1190      2.00000
      4       9.8144      0.00000
      5      11.3268      0.00000
      6      15.6141      0.00000
      7      15.9483      0.00000
      8      18.4631      0.00000

 k-point    23 :      -0.1429    0.2857    0.1429
  band No.  band energies     occupation 
      1      -3.0750      2.00000
      2       2.8164      2.00000
      3       4.4440      2.00000
      4      10.0782      0.00000
      5      11.6898      0.00000
      6      13.7295      0.00000
      7      15.2306      0.00000
      8      16.9297      0.00000

 k-point    24 :      -0.4286    0.4286    0.1429
  band No.  band energies     occupation 
      1      -2.2092      2.00000
      2      -0.5603      2.00000
      3       6.2119      2.00000
      4       7.7951      2.00000
      5      12.6169      0.00000
      6      14.1523      0.00000
      7      18.0211      0.00000
      8      18.1767      0.00000

 k-point    25 :      -0.2857    0.4286    0.1429
  band No.  band energies     occupation 
      1      -2.1204      2.00000
      2       1.0964      2.00000
      3       4.7955      2.00000
      4       7.8915      2.00000
      5      11.8976      0.00000
      6      14.5029      0.00000
      7      16.7780      0.00000
      8      17.4078      0.00000

 k-point    26 :      -0.1429    0.4286    0.1429
  band No.  band energies     occupation 
      1      -0.8992      2.00000
      2       3.2835      2.00000
      3       4.9577      2.00000
      4       7.4364      2.00000
      5       8.9654      1.13189
      6      13.3822      0.00000
      7      14.9469      0.00000
      8      16.0406      0.00000

 k-point    27 :      -0.4286   -0.4286    0.1429
  band No.  band energies     occupation 
      1      -0.7129      2.00000
      2      -0.7078      2.00000
      3       6.0964      2.00000
      4       6.1023      2.00000
      5      11.8000      0.00000
      6      15.4544      0.00000
      7      16.2373      0.00000
      8      16.7427      0.00000

 k-point    28 :      -0.2857   -0.4286    0.1429
  band No.  band energies     occupation 
      1       0.2628      2.00000
      2       1.8202      2.00000
      3       5.4894      2.00000
      4       6.8150      2.00000
      5       7.2475      2.00000
      6      13.5216      0.00000
      7      16.5681      0.00000
      8      17.5594      0.00000

 k-point    29 :      -0.1429   -0.4286    0.1429
  band No.  band energies     occupation 
      1       2.2456      2.00000
      2       3.0639      2.00000
      3       4.9331      2.00000
      4       6.4397      2.00000
      5       8.5624      1.99744
      6      11.1290      0.00000
      7      12.2979      0.00000
      8      16.4659      0.00000

 k-point    30 :      -0.2857   -0.2857    0.1429
  band No.  band energies     occupation 
      1       2.6088      2.00000
      2       3.6605      2.00000
      3       3.8284      2.00000
      4       7.0957      2.00000
      5       7.2455      2.00000
      6      11.1683      0.00000
      7      13.8739      0.00000
      8      14.7510      0.00000

 k-point    31 :      -0.1429   -0.2857    0.1429
  band No.  band energies     occupation 
      1      -0.4535      2.00000
      2       6.4997      2.00000
      3       7.3510      2.00000
      4       8.2189      2.00000
      5       8.3026      2.00000
      6      10.7443      0.00000
      7      11.1533      0.00000
      8      12.4654      0.00000

 k-point    32 :      -0.1429   -0.1429    0.1429
  band No.  band energies     occupation 
      1      -2.8049      2.00000
      2       7.7650      2.00000
      3       7.7650      2.00000
      4       7.7681      2.00000
      5      11.0732      0.00000
      6      11.5068      0.00000
      7      12.3416      0.00000
      8      13.7221      0.00000

 k-point    33 :      -0.2857    0.2857    0.2857
  band No.  band energies     occupation 
      1      -2.6912      2.00000
      2       1.5412      2.00000
      3       3.2778      2.00000
      4       7.3931      2.00000
      5      13.9207      0.00000
      6      17.0151      0.00000
      7      17.2364      0.00000
      8      18.0918      0.00000

 k-point    34 :      -0.4286    0.4286    0.2857
  band No.  band energies     occupation 
      1      -1.5167      2.00000
      2       0.0586      2.00000
      3       3.8253      2.00000
      4       5.3613      2.00000
      5      15.4190      0.00000
      6      16.3561      0.00000
      7      17.9596      0.00000
      8      18.5238      0.00000

 k-point    35 :      -0.2857    0.4286    0.2857
  band No.  band energies     occupation 
      1      -1.1891      2.00000
      2       1.3819      2.00000
      3       3.1560      2.00000
      4       5.6692      2.00000
      5      11.4782      0.00000
      6      17.1699      0.00000
      7      18.4363      0.00000
      8      19.1400      0.00000

 k-point    36 :      -0.4286   -0.4286    0.2857
  band No.  band energies     occupation 
      1       0.1396      2.00000
      2       0.1488      2.00000
      3       3.9151      2.00000
      4       3.9176      2.00000
      5      11.2944      0.00000
      6      18.5607      0.00000
      7      18.7505      0.00000
      8      19.4127      0.00000

 k-point    37 :      -0.2857   -0.4286    0.2857
  band No.  band energies     occupation 
      1       1.3470      2.00000
      2       2.3356      2.00000
      3       4.0970      2.00000
      4       5.0568      2.00000
      5       6.6301      2.00000
      6      15.3689      0.00000
      7      16.7505      0.00000
      8      18.0984      0.00000

 k-point    38 :      -0.2857   -0.2857    0.2857
  band No.  band energies     occupation 
      1       2.4352      2.00000
      2       4.4124      2.00000
      3       4.5478      2.00000
      4       6.0451      2.00000
      5       6.0451      2.00000
      6      13.0150      0.00000
      7      13.6303      0.00000
      8      13.6303      0.00000

 k-point    39 :      -0.4286    0.4286    0.4286
  band No.  band energies     occupation 
      1      -0.4212      2.00000
      2       0.5747      2.00000
      3       2.3956      2.00000
      4       3.3780      2.00000
      5      16.2156      0.00000
      6      16.3580      0.00000
      7      19.6894      0.00000
      8      20.6241      0.00000

 k-point    40 :      -0.4286   -0.4286    0.4286
  band No.  band energies     occupation 
      1       0.8919      2.00000
      2       0.9063      2.00000
      3       2.7122      2.00000
      4       2.7122      2.00000
      5      11.1013      0.00000
      6      19.7270      0.00000
      7      20.6933      0.00000
      8      20.6933      0.00000


--------------------------------------------------------------------------------------------------------


 soft charge-density along one line, spin component           1
         0         1         2         3         4         5         6         7         8         9
 total charge-density along one line
 
 pseudopotential strength for first ion, spin component:           1
 18.064  -0.003   0.000  -0.000  -0.000  -0.000   0.000   0.000
 -0.003   0.005  -0.000   0.000   0.000   0.000  -0.000  -0.000
  0.000  -0.000   4.116   0.000   0.000  -0.006  -0.000  -0.000
 -0.000   0.000   0.000   4.117   0.000  -0.000  -0.006  -0.000
 -0.000   0.000   0.000   0.000   4.116  -0.000  -0.000  -0.006
 -0.000   0.000  -0.006  -0.000  -0.000   0.005   0.000   0.000
  0.000  -0.000  -0.000  -0.006  -0.000   0.000   0.005   0.000
  0.000  -0.000  -0.000  -0.000  -0.006   0.000   0.000   0.005
 total augmentation occupancy for first ion, spin component:           1
  1.622  -0.484   0.000   0.000   0.000   0.000   0.000  -0.000
 -0.484   0.909  -0.000   0.000   0.000  -0.000   0.000   0.000
  0.000   0.000   0.884   0.000  -0.000  -0.491   0.000   0.000
  0.000   0.000   0.000   0.880   0.000   0.000  -0.515   0.000
  0.000   0.000  -0.000   0.000   0.884   0.000   0.000  -0.491
  0.000   0.000  -0.491   0.000   0.000   0.353   0.000  -0.000
  0.000   0.000   0.000  -0.515   0.000   0.000   0.393  -0.000
 -0.000  -0.000   0.000   0.000  -0.491  -0.000  -0.000   0.353


------------------------ aborting loop because EDIFF is reached ----------------------------------------


    CHARGE:  cpu time    0.0120: real time    0.0146
    FORLOC:  cpu time    0.0000: real time    0.0007
    FORNL :  cpu time    0.0160: real time    0.0145
    STRESS:  cpu time    0.1280: real time    0.1260
    FORCOR:  cpu time    0.0120: real time    0.0145
    FORHAR:  cpu time    0.0040: real time    0.0038
    MIXING:  cpu time    0.0000: real time    0.0013
    OFIELD:  cpu time    0.0000: real time    0.0008

  FORCE on cell =-STRESS in cart. coord.  units (eV):
  Direction    XX          YY          ZZ          XY          YZ          ZX
  --------------------------------------------------------------------------------------
  Alpha Z     4.40202     4.40202     4.40202
  Ewald     -90.96023   -90.96023   -83.26083    -0.00000     0.00000     0.00000
  Hartree     0.54825     0.54825     1.40422    -0.00000    -0.00000    -0.00000
  E(xc)     -25.42410   -25.42410   -25.37684     0.00001     0.00000     0.00000
  Local     -11.14213   -11.14213   -17.60011    -0.00005    -0.00003    -0.00003
  n-local    77.02866    77.08981    76.55305     0.89728    -0.23417    -0.44555
  augment   -12.09381   -12.09381   -12.06968     0.00003     0.00003     0.00003
  Kinetic    60.75921    53.00667    57.60339     3.80854    -1.25459    -3.57553
  Fock        0.00000     0.00000     0.00000     0.00000     0.00000     0.00000
  -------------------------------------------------------------------------------------
  Total      -0.72782    -0.72782     1.65521    -0.00000     0.00000    -0.00000
  in kB     -38.12200   -38.12200    86.69681    -0.00000     0.00000    -0.00000
  external pressure =        3.48 kB  Pullay stress =        0.00 kB


 VOLUME and BASIS-vectors are now :
 -----------------------------------------------------------------------------
  energy-cutoff  :      300.00
  volume of cell :       30.59
      direct lattice vectors                 reciprocal lattice vectors
    -2.450000000  2.450000000  1.274000000     0.000000000  0.204081633  0.392464678
     2.450000000 -2.450000000  1.274000000     0.204081633  0.000000000  0.392464678
     2.450000000  2.450000000 -1.274000000     0.204081633  0.204081633 -0.000000000

  length of vectors
     3.691622408  3.691622408  3.691622408     0.442354876  0.442354876  0.288615013


 FORCES acting on ions
    electron-ion (+dipol)            ewald-force                    non-local-force                 convergence-correction
 -----------------------------------------------------------------------------------------------
   0.404E-06 -.404E-06 -.123E-13   0.198E-14 0.156E-15 0.342E-17   0.764E-17 -.114E-16 -.407E-17   -.568E-08 0.568E-08 -.466E-16
   -.404E-06 0.404E-06 -.828E-14   -.185E-14 0.943E-16 0.891E-15   0.771E-18 0.216E-16 0.914E-18   0.568E-08 -.568E-08 -.465E-17
 -----------------------------------------------------------------------------------------------
   0.716E-14 0.751E-14 -.206E-13   0.139E-15 0.250E-15 0.894E-15   0.841E-17 0.101E-16 -.316E-17   0.832E-16 0.235E-15 -.512E-16
 
 
 POSITION                                       TOTAL-FORCE (eV/Angst)
 -----------------------------------------------------------------------------------
      2.45000      0.00000      0.63700         0.000000      0.000000     -0.000000
      0.00000      0.00000      0.00000        -0.000000     -0.000000      0.000000
 -----------------------------------------------------------------------------------
    total drift:                                0.000000      0.000000     -0.000000


--------------------------------------------------------------------------------------------------------



  FREE ENERGIE OF THE ION-ELECTRON SYSTEM (eV)
  ---------------------------------------------------
  free  energy   TOTEN  =       -10.26131193 eV

  energy  without entropy=      -10.24504673  energy(sigma->0) =      -10.25317933
 


--------------------------------------------------------------------------------------------------------


    POTLOK:  cpu time    0.0360: real time    0.0432


--------------------------------------------------------------------------------------------------------




--------------------------------------------------------------------------------------------------------


  
 reached required accuracy - stopping structural energy minimisation
 writing wavefunctions
     LOOP+:  cpu time    4.2480: real time    4.9383
    4ORBIT:  cpu time    0.0000: real time    0.0000

 total amount of memory used by VASP MPI-rank0    31762. kBytes
=======================================================================

   base      :      30000. kBytes
   nonl-proj :        974. kBytes
   fftplans  :        160. kBytes
   grid      :        372. kBytes
   one-center:          6. kBytes
   wavefun   :        250. kBytes
 
  
  
 General timing and accounting informations for this job:
 ========================================================
  
                  Total CPU time used (sec):        8.312
                            User time (sec):        7.212
                          System time (sec):        1.100
                         Elapsed time (sec):        9.667
  
                   Maximum memory used (kb):        9496.
                   Average memory used (kb):           0.
  
                          Minor page faults:        38073
                          Major page faults:           37
                 Voluntary context switches:        30722
