 running on    8 total cores
 distrk:  each k-point on    8 cores,    1 groups
 distr:  one band on    1 cores,    8 groups
 using from now: INCAR     
 vasp.5.4.4.18Apr17-6-g9f103f2a35 (build Dec 09 2018 21:25:21) complex          
  
 POSCAR found type information on POSCAR  Si
 POSCAR found :  1 types and       2 ions
 scaLAPACK will be used

 ----------------------------------------------------------------------------- 
|                                                                             |
|           W    W    AA    RRRRR   N    N  II  N    N   GGGG   !!!           |
|           W    W   A  A   R    R  NN   N  II  NN   N  G    G  !!!           |
|           W    W  A    A  R    R  N N  N  II  N N  N  G       !!!           |
|           W WW W  AAAAAA  RRRRR   N  N N  II  N  N N  G  GGG   !            |
|           WW  WW  A    A  R   R   N   NN  II  N   NN  G    G                |
|           W    W  A    A  R    R  N    N  II  N    N   GGGG   !!!           |
|                                                                             |
|      For optimal performance we recommend to set                            |
|        NCORE= 4 - approx SQRT( number of cores)                             |
|      NCORE specifies how many cores store one orbital (NPAR=cpu/NCORE).     |
|      This setting can  greatly improve the performance of VASP for DFT.     |
|      The default,   NCORE=1            might be grossly inefficient         |
|      on modern multi-core architectures or massively parallel machines.     |
|      Do your own testing !!!!                                               |
|      Unfortunately you need to use the default for GW and RPA calculations. |
|      (for HF NCORE is supported but not extensively tested yet)             |
|                                                                             |
 ----------------------------------------------------------------------------- 

 LDA part: xc-table for Pade appr. of Perdew
 POSCAR, INCAR and KPOINTS ok, starting setup
 FFT: planning ...
 WAVECAR not read
 entering main loop
       N       E                     dE             d eps       ncg     rms          rms(c)
DAV:   1    -0.133259517848E+00   -0.13326E+00   -0.25735E+03   640   0.515E+02
DAV:   2    -0.101586050981E+02   -0.10025E+02   -0.97829E+01   976   0.617E+01
DAV:   3    -0.102695240149E+02   -0.11092E+00   -0.10953E+00   888   0.775E+00
DAV:   4    -0.102697103797E+02   -0.18636E-03   -0.18636E-03   936   0.311E-01
DAV:   5    -0.102697108170E+02   -0.43730E-06   -0.43810E-06   904   0.988E-03    0.149E+00
DAV:   6    -0.102651407235E+02    0.45701E-02   -0.17288E-03   824   0.322E-01    0.931E-01
DAV:   7    -0.102613258791E+02    0.38148E-02   -0.51428E-03   736   0.566E-01    0.328E-02
DAV:   8    -0.102613119254E+02    0.13954E-04   -0.75079E-05   464   0.735E-02
   1 F= -.10261312E+02 E0= -.10253179E+02  d E =-.102613E+02
 curvature:   0.00 expect dE= 0.000E+00 dE for cont linesearch  0.000E+00
 trial: gam= 0.00000 g(F)=  0.184E-46 g(S)=  0.916E-01 ort = 0.000E+00 (trialstep = 0.100E+01)
 search vector abs. value=  0.916E-01
 bond charge predicted
       N       E                     dE             d eps       ncg     rms          rms(c)
DAV:   1    -0.103395716083E+02   -0.78246E-01   -0.22770E+00   904   0.875E+00    0.921E-01
DAV:   2    -0.103157144674E+02    0.23857E-01   -0.51330E-02   808   0.175E+00    0.514E-01
DAV:   3    -0.103042743465E+02    0.11440E-01   -0.31544E-02   816   0.964E-01    0.480E-02
DAV:   4    -0.103043737529E+02   -0.99406E-04   -0.12279E-03   696   0.285E-01
   2 F= -.10304374E+02 E0= -.10299005E+02  d E =-.430618E-01
 trial-energy change:   -0.043062  1 .order   -0.041509   -0.091642    0.008624
 step:   0.9140(harm=  0.9140)  dis= 0.00000  next Energy=   -10.303192 (dE=-0.419E-01)
 bond charge predicted
       N       E                     dE             d eps       ncg     rms          rms(c)
DAV:   1    -0.103049595377E+02   -0.68519E-03   -0.16127E-02   888   0.724E-01    0.929E-02
DAV:   2    -0.103047090183E+02    0.25052E-03   -0.39575E-04   544   0.151E-01
   3 F= -.10304709E+02 E0= -.10299310E+02  d E =-.433971E-01
 curvature:  -0.46 expect dE=-0.663E-04 dE for cont linesearch -0.526E-04
 ZBRENT: interpolating
 opt :   0.8827  next Energy=   -10.304760 (dE=-0.434E-01)
 bond charge predicted
       N       E                     dE             d eps       ncg     rms          rms(c)
DAV:   1    -0.103045385034E+02    0.42103E-03   -0.11032E-03   920   0.198E-01    0.259E-02
DAV:   2    -0.103045195179E+02    0.18986E-04   -0.26584E-05   320   0.382E-02
   4 F= -.10304520E+02 E0= -.10299127E+02  d E =-.432076E-01
 curvature:  -0.44 expect dE=-0.557E-04 dE for cont linesearch -0.411E-04
 ZBRENT: interpolating
 opt :   0.8975  next Energy=   -10.304541 (dE=-0.432E-01)
 bond charge predicted
       N       E                     dE             d eps       ncg     rms          rms(c)
DAV:   1    -0.103045681690E+02   -0.29666E-04   -0.68255E-04   512   0.148E-01    0.135E-02
DAV:   2    -0.103045644046E+02    0.37643E-05   -0.23236E-05   320   0.392E-02
   5 F= -.10304564E+02 E0= -.10299173E+02  d E =-.432525E-01
 curvature:  -0.23 expect dE=-0.350E-04 dE for cont linesearch -0.280E-04
 ZBRENT: interpolating
 opt :   0.9058  next Energy=   -10.304722 (dE=-0.434E-01)
 bond charge predicted
       N       E                     dE             d eps       ncg     rms          rms(c)
DAV:   1    -0.103045831115E+02   -0.14943E-04   -0.10948E-04   344   0.610E-02    0.706E-03
DAV:   2    -0.103045819328E+02    0.11787E-05   -0.43499E-06   320   0.167E-02
   6 F= -.10304582E+02 E0= -.10299189E+02  d E =-.432700E-01
 curvature:  -0.11 expect dE=-0.920E-05 dE for cont linesearch -0.607E-05
 ZBRENT: interpolating
 opt :   0.9092  next Energy=   -10.304586 (dE=-0.433E-01)
 bond charge predicted
       N       E                     dE             d eps       ncg     rms          rms(c)
DAV:   1    -0.103045876859E+02   -0.45744E-05   -0.16927E-05   320   0.245E-02    0.296E-03
DAV:   2    -0.103045874975E+02    0.18836E-06   -0.82952E-07   320   0.712E-03
   7 F= -.10304587E+02 E0= -.10299194E+02  d E =-.432756E-01
 curvature:  -0.07 expect dE=-0.425E-05 dE for cont linesearch -0.235E-05
 ZBRENT: bisectioning
 opt :   0.9116  next Energy=   -10.304591 (dE=-0.433E-01)
 bond charge predicted
       N       E                     dE             d eps       ncg     rms          rms(c)
DAV:   1    -0.103045913504E+02   -0.36645E-05   -0.10465E-05   320   0.190E-02    0.217E-03
DAV:   2    -0.103045912465E+02    0.10387E-06   -0.41284E-07   320   0.514E-03
   8 F= -.10304591E+02 E0= -.10299198E+02  d E =-.432793E-01
 curvature:  -0.11 expect dE=-0.598E-05 dE for cont linesearch -0.290E-05
 ZBRENT: bisectioning
 opt :   0.9128  next Energy=   -10.304593 (dE=-0.433E-01)
 bond charge predicted
       N       E                     dE             d eps       ncg     rms          rms(c)
DAV:   1    -0.103045929299E+02   -0.15795E-05   -0.23363E-06   320   0.909E-03    0.107E-03
DAV:   2    -0.103045929066E+02    0.23298E-07   -0.10594E-07   320   0.257E-03
   9 F= -.10304593E+02 E0= -.10299199E+02  d E =-.432810E-01
 curvature:  -0.07 expect dE=-0.332E-05 dE for cont linesearch -0.145E-05
 ZBRENT: bisectioning
 opt :   0.9134  next Energy=   -10.304594 (dE=-0.433E-01)
 bond charge predicted
       N       E                     dE             d eps       ncg     rms          rms(c)
DAV:   1    -0.103045937056E+02   -0.77572E-06   -0.60054E-07   320   0.461E-03    0.548E-04
DAV:   2    -0.103045936997E+02    0.58727E-08   -0.27180E-08   320   0.129E-03
  10 F= -.10304594E+02 E0= -.10299200E+02  d E =-.432818E-01
 curvature:  -0.04 expect dE=-0.178E-05 dE for cont linesearch -0.728E-06
 ZBRENT: bisectioning
 opt :   0.9137  next Energy=   -10.304594 (dE=-0.433E-01)
 bond charge predicted
       N       E                     dE             d eps       ncg     rms          rms(c)
DAV:   1    -0.103045940882E+02   -0.38262E-06   -0.14930E-07   320   0.230E-03    0.275E-04
DAV:   2    -0.103045940875E+02    0.65674E-09   -0.67644E-09   320   0.643E-04
  11 F= -.10304594E+02 E0= -.10299201E+02  d E =-.432822E-01
 curvature:  -0.02 expect dE=-0.930E-06 dE for cont linesearch -0.368E-06
 ZBRENT: bisectioning
 opt :   0.9138  next Energy=   -10.304594 (dE=-0.433E-01)
 bond charge predicted
       N       E                     dE             d eps       ncg     rms          rms(c)
DAV:   1    -0.103045942789E+02   -0.19066E-06   -0.37385E-08   320   0.115E-03    0.138E-04
DAV:   2    -0.103045942778E+02    0.10168E-08   -0.16758E-09   320   0.318E-04
  12 F= -.10304594E+02 E0= -.10299201E+02  d E =-.432824E-01
 curvature:  -0.01 expect dE=-0.476E-06 dE for cont linesearch -0.185E-06
 ZBRENT: bisectioning
 opt :   0.9139  next Energy=   -10.304594 (dE=-0.433E-01)
 bond charge predicted
       N       E                     dE             d eps       ncg     rms          rms(c)
DAV:   1    -0.103045943740E+02   -0.95096E-07   -0.93253E-09   320   0.575E-04    0.699E-05
DAV:   2    -0.103045943728E+02    0.11782E-08   -0.41450E-10   320   0.158E-04
  13 F= -.10304594E+02 E0= -.10299201E+02  d E =-.432824E-01
 curvature:  -0.01 expect dE=-0.241E-06 dE for cont linesearch -0.929E-07
 ZBRENT: bisectioning
 opt :   0.9140  next Energy=   -10.304594 (dE=-0.433E-01)
 bond charge predicted
       N       E                     dE             d eps       ncg     rms          rms(c)
DAV:   1    -0.103045944208E+02   -0.46862E-07   -0.23288E-09   320   0.287E-04    0.368E-05
DAV:   2    -0.103045944210E+02   -0.18221E-09   -0.10276E-10   320   0.785E-05
  14 F= -.10304594E+02 E0= -.10299201E+02  d E =-.432825E-01
 curvature:  -0.00 expect dE=-0.121E-06 dE for cont linesearch -0.465E-07
 ZBRENT: bisectioning
 opt :   0.9140  next Energy=   -10.304594 (dE=-0.433E-01)
 bond charge predicted
       N       E                     dE             d eps       ncg     rms          rms(c)
DAV:   1    -0.103045944440E+02   -0.23184E-07   -0.58121E-10   320   0.144E-04    0.217E-05
DAV:   2    -0.103045944447E+02   -0.70625E-09   -0.25504E-11   320   0.391E-05
  15 F= -.10304594E+02 E0= -.10299201E+02  d E =-.432825E-01
 curvature:  -0.00 expect dE=-0.608E-07 dE for cont linesearch -0.233E-07
 ZBRENT: bisectioning
 opt :   0.9140  next Energy=   -10.304594 (dE=-0.433E-01)
 writing wavefunctions
