unknown system                          
           1
    -2.450000    2.450000    1.274000
     2.450000   -2.450000    1.274000
     2.450000    2.450000   -1.274000
   Si
   2
Direct configuration=     1
   0.25000000  0.75000000  0.50000000
   0.00000000  0.00000000  0.00000000
unknown system                          
           1
    -2.406988    2.406988    1.324866
     2.406988   -2.406988    1.324866
     2.406988    2.406988   -1.324866
   Si
   2
Direct configuration=     2
   0.25000000  0.75000000  0.50000000
  -0.00000000 -0.00000000 -0.00000000
unknown system                          
           1
    -2.410687    2.410687    1.320491
     2.410687   -2.410687    1.320491
     2.410687    2.410687   -1.320491
   Si
   2
Direct configuration=     3
   0.25000000  0.75000000  0.50000000
  -0.00000000 -0.00000000 -0.00000000
unknown system                          
           1
    -2.412033    2.412033    1.318899
     2.412033   -2.412033    1.318899
     2.412033    2.412033   -1.318899
   Si
   2
Direct configuration=     4
   0.25000000  0.75000000  0.50000000
  -0.00000000 -0.00000000 -0.00000000
unknown system                          
           1
    -2.411396    2.411396    1.319652
     2.411396   -2.411396    1.319652
     2.411396    2.411396   -1.319652
   Si
   2
Direct configuration=     5
   0.25000000  0.75000000  0.50000000
  -0.00000000 -0.00000000 -0.00000000
unknown system                          
           1
    -2.411037    2.411037    1.320076
     2.411037   -2.411037    1.320076
     2.411037    2.411037   -1.320076
   Si
   2
Direct configuration=     6
   0.25000000  0.75000000  0.50000000
  -0.00000000 -0.00000000 -0.00000000
unknown system                          
           1
    -2.410894    2.410894    1.320246
     2.410894   -2.410894    1.320246
     2.410894    2.410894   -1.320246
   Si
   2
Direct configuration=     7
   0.25000000  0.75000000  0.50000000
  -0.00000000 -0.00000000 -0.00000000
unknown system                          
           1
    -2.410791    2.410791    1.320368
     2.410791   -2.410791    1.320368
     2.410791    2.410791   -1.320368
   Si
   2
Direct configuration=     8
   0.25000000  0.75000000  0.50000000
  -0.00000000 -0.00000000 -0.00000000
unknown system                          
           1
    -2.410739    2.410739    1.320429
     2.410739   -2.410739    1.320429
     2.410739    2.410739   -1.320429
   Si
   2
Direct configuration=     9
   0.25000000  0.75000000  0.50000000
  -0.00000000 -0.00000000 -0.00000000
unknown system                          
           1
    -2.410713    2.410713    1.320460
     2.410713   -2.410713    1.320460
     2.410713    2.410713   -1.320460
   Si
   2
Direct configuration=    10
   0.25000000  0.75000000  0.50000000
  -0.00000000 -0.00000000 -0.00000000
unknown system                          
           1
    -2.410700    2.410700    1.320475
     2.410700   -2.410700    1.320475
     2.410700    2.410700   -1.320475
   Si
   2
Direct configuration=    11
   0.25000000  0.75000000  0.50000000
  -0.00000000 -0.00000000 -0.00000000
unknown system                          
           1
    -2.410694    2.410694    1.320483
     2.410694   -2.410694    1.320483
     2.410694    2.410694   -1.320483
   Si
   2
Direct configuration=    12
   0.25000000  0.75000000  0.50000000
  -0.00000000 -0.00000000 -0.00000000
unknown system                          
           1
    -2.410690    2.410690    1.320487
     2.410690   -2.410690    1.320487
     2.410690    2.410690   -1.320487
   Si
   2
Direct configuration=    13
   0.25000000  0.75000000  0.50000000
  -0.00000000 -0.00000000 -0.00000000
unknown system                          
           1
    -2.410689    2.410689    1.320489
     2.410689   -2.410689    1.320489
     2.410689    2.410689   -1.320489
   Si
   2
Direct configuration=    14
   0.25000000  0.75000000  0.50000000
  -0.00000000 -0.00000000 -0.00000000
unknown system                          
           1
    -2.410688    2.410688    1.320490
     2.410688   -2.410688    1.320490
     2.410688    2.410688   -1.320490
   Si
   2
Direct configuration=    15
   0.25000000  0.75000000  0.50000000
  -0.00000000 -0.00000000 -0.00000000
