unknown system                          
   1.00000000000000     
    -2.450000    2.450000    1.274000
     2.450000   -2.450000    1.274000
     2.450000    2.450000   -1.274000
   Si
     2
Direct
  0.250000  0.750000  0.500000
  0.000000  0.000000  0.000000
 
   28   28   28
 -5.5833     -4.0535     -.65813E-01  4.8743      9.0805      11.421      11.690      10.497      8.7930      7.1759    
  5.8240      4.7982      4.0956      3.6899      3.5576      3.6899      4.0956      4.7983      5.8240      7.1759    
  8.7930      10.497      11.690      11.421      9.0805      4.8743     -.65825E-01 -4.0535     -4.0535     -4.8387    
 -2.6889      1.5443      6.2763      9.9403      11.645      11.421      10.002      8.2991      6.7497      5.4893    
  4.5575      3.9421      3.6156      3.5576      3.7629      4.2440      5.0259      6.1319      7.5541      9.2115    
  10.877      11.838      11.181      8.4594      4.0906     -.63974     -.65825E-01 -2.6889     -2.7415     -.21183    
  3.8836      8.0084      10.827      11.742      11.006      9.4209      7.7587      6.3010      5.1472      4.3171    
  3.7917      3.5442      3.5576      3.8308      4.3788      5.2269      6.3940      7.8609      9.5295      11.130    
  11.904      11.030      8.2331      4.0906      4.8743      1.5443     -.21183     0.33043      2.9338      6.5243    
  9.7324      11.530      11.627      10.449      8.7926      7.2025      5.8549      4.8162      4.0897      3.6521    
  3.4791      3.5576      3.8899      4.4925      5.3894      6.5941      8.0769      9.7282      11.256      11.921    
  11.030      8.4594      9.0805      6.2763      3.8836      2.9338      3.8481      6.2173      9.0200      11.143    
  11.898      11.269      9.7938      8.1527      6.6603      5.4344      4.5127      3.8860      3.5299      3.4235    
  3.5577      3.9370      4.5785      5.5035      6.7194      8.1885      9.7957      11.256      11.904      11.181    
  11.421      9.9403      8.0084      6.5244      6.2173      7.2525      9.1407      11.005      12.035      11.870    
  10.707      9.1088      7.5349      6.1592      5.0591      4.2497      3.7146      3.4302      3.3798      3.5577    
  3.9698      4.6320      5.5623      6.7621      8.1885      9.7282      11.130      11.838      11.690      11.645    
  10.827      9.7324      9.0200      9.1407      10.075      11.342      12.265      12.344      11.490      10.033    
  8.4462      6.9708      5.7216      4.7439      4.0372      3.5815      3.3567      3.3498      3.5577      3.9866    
  4.6502      5.5623      6.7194      8.0769      9.5295      10.877      10.497      11.421      11.742      11.530    
  11.143      11.005      11.342      12.028      12.655      12.771      12.144      10.886      9.3582      7.8440    
  6.4873      5.3652      4.4998      3.8815      3.4909      3.3117      3.3345      3.5577      3.9866      4.6320    
  5.5035      6.5941      7.8609      9.2115      8.7930      10.002      11.006      11.627      11.898      12.035    
  12.265      12.655      13.039      13.120      12.654      11.616      10.226      8.7457      7.3369      6.1061    
  5.1026      4.3338      3.7868      3.4451      3.2965      3.3345      3.5577      3.9698      4.5785      5.3894    
  6.3940      7.5541      7.1759      8.2991      9.4209      10.449      11.269      11.870      12.344      12.771    
  13.120      13.237      12.942      12.157      10.988      9.6288      8.2413      6.9534      5.8433      4.9420    
  4.2499      3.7550      3.4451      3.3117      3.3498      3.5577      3.9370      4.4925      5.2269      6.1319    
  5.8240      6.7497      7.7587      8.7926      9.7938      10.707      11.490      12.144      12.654      12.942    
  12.891      12.421      11.561      10.426      9.1542      7.8826      6.7147      5.7093      4.8879      4.2499    
  3.7868      3.4909      3.3567      3.3798      3.5577      3.8899      4.3788      5.0259      4.7983      5.4893    
  6.3010      7.2025      8.1527      9.1089      10.033      10.886      11.616      12.157      12.421      12.329    
  11.859      11.052      10.007      8.8495      7.6964      6.6336      5.7093      4.9420      4.3338      3.8815    
  3.5815      3.4302      3.4235      3.5576      3.8308      4.2440      4.0956      4.5575      5.1472      5.8549    
  6.6603      7.5349      8.4462      9.3582      10.226      10.988      11.561      11.859      11.818      11.421    
  10.713      9.7842      8.7445      7.6964      6.7147      5.8433      5.1026      4.4998      4.0372      3.7146    
  3.5299      3.4791      3.5576      3.7629      3.6899      3.9421      4.3171      4.8162      5.4344      6.1592    
  6.9708      7.8440      8.7457      9.6288      10.426      11.052      11.421      11.471      11.183      10.595    
  9.7842      8.8495      7.8826      6.9534      6.1061      5.3652      4.7439      4.2497      3.8860      3.6521    
  3.5442      3.5576      3.5576      3.6156      3.7917      4.0897      4.5127      5.0591      5.7216      6.4873    
  7.3369      8.2413      9.1542      10.007      10.713      11.183      11.348      11.183      10.713      10.007    
  9.1542      8.2413      7.3369      6.4873      5.7216      5.0591      4.5127      4.0897      3.7917      3.6156    
  3.6899      3.5576      3.5442      3.6521      3.8860      4.2497      4.7439      5.3652      6.1061      6.9534    
  7.8826      8.8495      9.7842      10.595      11.183      11.471      11.421      11.052      10.426      9.6288    
  8.7457      7.8440      6.9708      6.1592      5.4344      4.8162      4.3171      3.9421      4.0956      3.7629    
  3.5576      3.4791      3.5299      3.7146      4.0372      4.4998      5.1026      5.8433      6.7146      7.6964    
  8.7445      9.7842      10.713      11.421      11.818      11.859      11.561      10.988      10.226      9.3582    
  8.4462      7.5349      6.6603      5.8549      5.1472      4.5575      4.7982      4.2440      3.8308      3.5576    
  3.4235      3.4302      3.5815      3.8815      4.3338      4.9420      5.7093      6.6336      7.6964      8.8495    
  10.007      11.052      11.859      12.329      12.421      12.157      11.616      10.886      10.033      9.1088    
  8.1527      7.2025      6.3010      5.4893      5.8240      5.0258      4.3788      3.8899      3.5577      3.3798    
  3.3567      3.4909      3.7868      4.2498      4.8879      5.7093      6.7146      7.8826      9.1542      10.426    
  11.561      12.421      12.891      12.942      12.654      12.144      11.490      10.707      9.7938      8.7926    
  7.7587      6.7497      7.1759      6.1318      5.2269      4.4925      3.9370      3.5577      3.3498      3.3117    
  3.4451      3.7550      4.2498      4.9420      5.8433      6.9534      8.2413      9.6288      10.988      12.157    
  12.942      13.237      13.120      12.771      12.344      11.870      11.269      10.449      9.4209      8.2991    
  8.7930      7.5541      6.3940      5.3894      4.5785      3.9698      3.5577      3.3346      3.2966      3.4451    
  3.7868      4.3338      5.1026      6.1061      7.3369      8.7457      10.226      11.616      12.654      13.120    
  13.039      12.655      12.265      12.035      11.898      11.627      11.006      10.002      10.497      9.2115    
  7.8609      6.5941      5.5035      4.6320      3.9866      3.5577      3.3346      3.3117      3.4909      3.8815    
  4.4998      5.3652      6.4873      7.8440      9.3582      10.886      12.144      12.771      12.655      12.028    
  11.342      11.005      11.143      11.530      11.742      11.421      11.690      10.877      9.5295      8.0769    
  6.7194      5.5623      4.6502      3.9866      3.5577      3.3498      3.3567      3.5815      4.0372      4.7439    
  5.7216      6.9708      8.4462      10.033      11.490      12.344      12.265      11.342      10.075      9.1407    
  9.0200      9.7324      10.827      11.645      11.421      11.838      11.130      9.7282      8.1885      6.7621    
  5.5623      4.6320      3.9698      3.5577      3.3798      3.4302      3.7146      4.2497      5.0591      6.1592    
  7.5349      9.1089      10.707      11.870      12.035      11.005      9.1407      7.2525      6.2173      6.5243    
  8.0084      9.9403      9.0805      11.181      11.904      11.256      9.7957      8.1885      6.7194      5.5035    
  4.5785      3.9370      3.5577      3.4235      3.5299      3.8860      4.5127      5.4344      6.6603      8.1527    
  9.7938      11.269      11.898      11.143      9.0200      6.2173      3.8481      2.9338      3.8836      6.2763    
  4.8743      8.4594      11.030      11.921      11.256      9.7282      8.0769      6.5941      5.3894      4.4925    
  3.8899      3.5576      3.4791      3.6521      4.0897      4.8162      5.8549      7.2025      8.7926      10.449    
  11.627      11.530      9.7324      6.5244      2.9338     0.33043     -.21183      1.5443     -.65813E-01  4.0906    
  8.2331      11.030      11.904      11.130      9.5295      7.8609      6.3940      5.2269      4.3788      3.8308    
  3.5576      3.5442      3.7917      4.3171      5.1472      6.3010      7.7587      9.4209      11.006      11.742    
  10.827      8.0084      3.8836     -.21183     -2.7415     -2.6889     -4.0535     -.63973      4.0906      8.4594    
  11.181      11.838      10.877      9.2115      7.5541      6.1318      5.0258      4.2440      3.7629      3.5576    
  3.6156      3.9421      4.5575      5.4893      6.7497      8.2991      10.002      11.421      11.645      9.9403    
  6.2763      1.5443     -2.6889     -4.8387     -4.0534     -2.9468     0.53669      5.0540      9.0084      11.264    
  11.550      10.393      8.7004      7.0787      5.7124      4.6657      3.9379      3.5025      3.3345      3.4228    
  3.7743      4.4111      5.3608      6.6337      8.1852      9.8728      11.225      11.347      9.5753      5.9720    
  1.4842     -2.3468     -2.9469     -4.0534     -2.3468      1.4842      5.9719      9.5753      11.347      11.225    
  9.8727      8.1852      6.6337      5.3608      4.4110      3.7743      3.4228      3.3345      3.5025      3.9379    
  4.6658      5.7124      7.0787      8.7004      10.393      11.550      11.264      9.0084      5.0540     0.53669    
 0.63958     -2.2370     -2.6888     -.55362      3.2887      7.3605      10.290      11.385      10.799      9.2830    
  7.6366      6.1772      5.0126      4.1680      3.6260      3.3594      3.3498      3.5948      4.1091      4.9193    
  6.0486      7.4876      9.1539      10.821      11.797      11.233      8.7570      4.8154      5.3208      1.7801    
 -.34778     -.21180      2.0972      5.5989      8.9219      10.954      11.287      10.265      8.6600      7.0829    
  5.7328      4.6852      3.9484      3.5002      3.3154      3.3798      3.6954      4.2793      5.1580      6.3503    
  7.8363      9.5191      11.141      11.990      11.321      8.9090      9.4468      6.4736      3.7419      2.3747    
  2.9338      5.1325      7.9920      10.346      11.392      11.000      9.6449      8.0355      6.5509      5.3215    
  4.3936      3.7620      3.4023      3.2927      3.4235      3.7998      4.4399      5.3689      6.5996      8.1030    
  9.7726      11.341      12.138      11.539      11.841      10.251      8.0400      6.1586      5.4515      6.2173    
  8.0520      10.073      11.383      11.500      10.524      8.9932      7.4382      6.0647      4.9613      4.1500    
  3.6164      3.3366      3.2928      3.4792      3.9030      4.5825      5.5394      6.7805      8.2693      9.8962    
  11.410      12.226      12.216      12.136      11.131      9.7087      8.6020      8.3825      9.1407      10.439    
  11.561      11.903      11.269      9.9210      8.3627      6.8951      5.6448      4.6661      3.9632      3.5168    
  3.3053      3.3154      3.5443      4.0000      4.6992      5.6591      6.8807      8.3228      9.8787      11.335    
  11.104      12.067      12.310      11.882      11.168      10.682      10.755      11.342      12.041      12.340    
  11.911      10.780      9.2904      7.7870      6.4304      5.3072      4.4459      3.8389      3.4660      3.3093    
  3.3595      3.6158      4.0857      4.7830      5.7200      6.8926      8.2580      9.7181      9.4227      10.720    
  11.743      12.271      12.331      12.180      12.128      12.325      12.655      12.803      12.463      11.531    
  10.178      8.7061      7.2969      6.0642      5.0640      4.3071      3.7802      3.4649      3.3479      3.4228    
  3.6900      4.1552      4.8284      5.7174      6.8141      8.0778      7.7935      9.0107      10.203      11.241    
  11.972      12.389      12.628      12.837      13.045      13.120      12.855      12.118      10.964      9.6034    
  8.2116      6.9201      5.8125      4.9232      4.2529      3.7877      3.5128      3.4191      3.5025      3.7630    
  4.2042      4.8322      5.6507      6.6499      6.4107      7.4243      8.5091      9.5906      10.592      11.430    
  12.065      12.535      12.877      13.049      12.942      12.448      11.564      10.409      9.1242      7.8454    
  6.6790      5.6865      4.8893      4.2845      3.8606      3.6078      3.5201      3.5947      3.8309      4.2295    
  4.7936      5.5239      5.3453      6.1129      6.9950      7.9507      8.9255      9.8640      10.721      11.456    
  12.042      12.445      12.597      12.421      11.886      11.036      9.9632      8.7915      7.6382      6.5895    
  5.6928      4.9638      4.4007      3.9967      3.7465      3.6468      3.6953      3.8899      4.2295      4.7148    
  4.6009      5.1266      5.7761      6.5336      7.3703      8.2476      9.1248      9.9635      10.725      11.361    
  11.808      11.992      11.859      11.394      10.640      9.6868      8.6430      7.6099      6.6600      5.8335    
  5.1457      4.5991      4.1924      3.9247      3.7945      3.7997      3.9369      4.2042      4.1551      4.4590    
  4.8820      5.4215      6.0678      6.8014      7.5958      8.4207      9.2425      10.020      10.697      11.203    
  11.462      11.421      11.068      10.442      9.6201      8.6995      7.7682      6.8908      6.1054      5.4306    
  4.8746      4.4422      4.1363      3.9573      3.9029      3.9697      3.9864      4.0856      4.2983      4.6263    
  5.0696      5.6228      6.2736      7.0042      7.7924      8.6097      9.4152      10.150      10.738      11.101    
  11.183      10.964      10.474      9.7781      8.9628      8.1078      7.2740      6.5004      5.8107      5.2197    
  4.7383      4.3736      4.1280      3.9999      4.0856      3.9864      3.9999      4.1280      4.3736      4.7383    
  5.2197      5.8107      6.5005      7.2739      8.1078      8.9628      9.7781      10.474      10.964      11.183    
  11.101      10.738      10.149      9.4151      8.6098      7.7924      7.0042      6.2736      5.6228      5.0696    
  4.6263      4.2983      4.4590      4.1552      3.9697      3.9029      3.9573      4.1363      4.4422      4.8746    
  5.4306      6.1055      6.8908      7.7682      8.6995      9.6201      10.442      11.068      11.421      11.462    
  11.203      10.697      10.020      9.2425      8.4207      7.5958      6.8014      6.0678      5.4215      4.8820    
  5.1266      4.6009      4.2042      3.9370      3.7997      3.7946      3.9247      4.1924      4.5991      5.1457    
  5.8335      6.6600      7.6098      8.6430      9.6868      10.640      11.394      11.859      11.992      11.808    
  11.361      10.725      9.9635      9.1248      8.2476      7.3703      6.5336      5.7761      6.1129      5.3453    
  4.7149      4.2295      3.8899      3.6953      3.6468      3.7465      3.9967      4.4007      4.9639      5.6928    
  6.5895      7.6381      8.7915      9.9632      11.036      11.886      12.421      12.597      12.445      12.042    
  11.456      10.721      9.8640      8.9255      7.9507      6.9951      7.4243      6.4107      5.5239      4.7937    
  4.2296      3.8309      3.5948      3.5201      3.6078      3.8606      4.2845      4.8893      5.6865      6.6790    
  7.8454      9.1242      10.409      11.564      12.448      12.942      13.049      12.877      12.535      12.065    
  11.430      10.592      9.5906      8.5091      9.0107      7.7935      6.6499      5.6507      4.8323      4.2042    
  3.7630      3.5025      3.4191      3.5129      3.7877      4.2529      4.9232      5.8125      6.9201      8.2116    
  9.6034      10.964      12.118      12.855      13.120      13.045      12.837      12.628      12.389      11.972    
  11.241      10.203      10.720      9.4227      8.0778      6.8141      5.7174      4.8285      4.1552      3.6900    
  3.4228      3.3479      3.4649      3.7801      4.3071      5.0640      6.0642      7.2969      8.7061      10.178    
  11.531      12.463      12.803      12.655      12.325      12.128      12.180      12.331      12.271      11.743    
  12.067      11.104      9.7181      8.2580      6.8926      5.7200      4.7830      4.0857      3.6157      3.3594    
  3.3093      3.4660      3.8389      4.4459      5.3072      6.4303      7.7870      9.2903      10.780      11.911    
  12.340      12.041      11.342      10.755      10.682      11.168      11.882      12.310      12.136      12.217    
  11.335      9.8787      8.3228      6.8808      5.6592      4.6992      4.0000      3.5442      3.3153      3.3053    
  3.5168      3.9632      4.6661      5.6447      6.8951      8.3627      9.9210      11.269      11.903      11.561    
  10.439      9.1407      8.3825      8.6020      9.7087      11.131      10.251      11.841      12.226      11.410    
  9.8962      8.2693      6.7805      5.5394      4.5825      3.9030      3.4791      3.2927      3.3365      3.6164    
  4.1500      4.9613      6.0647      7.4382      8.9932      10.524      11.500      11.383      10.073      8.0520    
  6.2173      5.4515      6.1586      8.0400      6.4737      9.4468      11.539      12.138      11.341      9.7726    
  8.1029      6.5996      5.3688      4.4399      3.7997      3.4235      3.2927      3.4023      3.7620      4.3936    
  5.3215      6.5509      8.0355      9.6449      11.000      11.392      10.346      7.9920      5.1325      2.9338    
  2.3747      3.7419      1.7801      5.3208      8.9090      11.321      11.990      11.141      9.5191      7.8363    
  6.3503      5.1580      4.2793      3.6954      3.3798      3.3153      3.5002      3.9484      4.6852      5.7328    
  7.0829      8.6600      10.265      11.287      10.954      8.9219      5.5989      2.0972     -.21177     -.34775    
 -2.2370     0.63960      4.8153      8.7570      11.233      11.797      10.821      9.1539      7.4876      6.0485    
  4.9192      4.1091      3.5948      3.3498      3.3594      3.6260      4.1680      5.0126      6.1772      7.6366    
  9.2830      10.799      11.385      10.290      7.3605      3.2888     -.55359     -2.6888     -.65644E-01 0.63970    
  3.3286      6.9159      10.046      11.727      11.709      10.453      8.7610      7.1509      5.7880      4.7332    
  3.9857      3.5202      3.3117      3.3480      3.6326      4.1842      5.0289      6.1826      7.6185      9.2317    
  10.729      11.380      10.517      8.0374      4.6111      1.4843     0.53680     -.63955     0.53680      3.5724    
  7.2406      10.190      11.555      11.254      9.8680      8.2008      6.6673      5.4015      4.4472      3.7953    
  3.4192      3.2966      3.4192      3.7953      4.4472      5.4015      6.6672      8.2008      9.8680      11.254    
  11.555      10.190      7.2406      3.5724      3.3286     0.63970     -.65639E-01  1.4843      4.6111      8.0374    
  10.517      11.380      10.729      9.2317      7.6186      6.1826      5.0290      4.1842      3.6326      3.3480    
  3.3117      3.5201      3.9857      4.7332      5.7880      7.1509      8.7610      10.453      11.709      11.727    
  10.046      6.9159      7.1674      3.9470      1.7802      1.5445      3.2888      6.2155      9.0979      10.882    
  11.137      10.135      8.5791      7.0430      5.7202      4.6873      3.9554      3.5042      3.3093      3.3567    
  3.6469      4.1957      5.0290      6.1693      7.6077      9.2682      10.957      12.099      11.951      10.181    
  10.606      7.9651      5.3148      3.7420      3.8837      5.5990      8.0544      10.166      11.136      10.776    
  9.4894      7.9398      6.4997      5.3003      4.3912      3.7704      3.4155      3.3053      3.4302      3.7946    
  4.4162      5.3203      6.5247      8.0110      9.6908      11.353      12.422      12.243      12.570      11.245    
  9.1514      7.1675      6.1586      6.5244      7.9920      9.7767      11.009      11.166      10.282      8.8325    
  7.3393      6.0111      4.9398      4.1519      3.6362      3.3701      3.3365      3.5299      3.9573      4.6369    
  5.5916      6.8331      8.3344      9.9990      11.616      12.656      12.765      12.859      11.955      10.482    
  9.1547      8.6020      9.0199      10.073      11.096      11.469      10.934      9.6906      8.2090      6.8009    
  5.5954      4.6516      3.9780      3.5577      3.3701      3.4023      3.6521      4.1280      4.8467      5.8272    
  7.0745      8.5543      10.168      11.721      11.647      12.708      13.019      12.561      11.687      10.924    
  10.682      11.004      11.561      11.851      11.503      10.481      9.0790      7.6456      6.3450      5.2670    
  4.4450      3.8748      3.5373      3.4154      3.5001      3.7917      4.2982      5.0339      6.0121      7.2315    
  8.6530      10.180      10.032      11.388      12.452      12.964      12.910      12.540      12.204      12.127    
  12.265      12.340      12.030      11.182      9.9137      8.5134      7.1675      5.9888      5.0367      4.3258    
  3.8446      3.5751      3.5041      3.6260      3.9421      4.4590      5.1869      6.1335      7.2916      8.6207    
  8.4579      9.7312      10.957      11.991      12.649      12.907      12.910      12.856      12.837      12.771    
  12.463      11.756      10.659      9.3589      8.0302      6.7982      5.7463      4.9115      4.2965      3.8874    
  3.6692      3.6324      3.7742      4.0956      4.6008      5.2954      6.1819      7.2491      7.1064      8.1761    
  9.2990      10.388      11.350      12.083      12.542      12.785      12.894      12.877      12.653      12.118    
  11.239      10.116      8.8833      7.6633      6.5577      5.6277      4.8954      4.3574      4.0013      3.8158    
  3.7952      3.9378      4.2440      4.7148      5.3519      6.1533      6.0494      6.8736      7.7959      8.7673    
  9.7225      10.595      11.331      11.889      12.265      12.461      12.445      12.157      11.564      10.703    
  9.6573      8.5342      7.4419      6.4620      5.6398      4.9894      4.5066      4.1823      4.0096      3.9856    
  4.1090      4.3788      4.7937      5.3519      5.2955      5.8776      6.5680      7.3453      8.1736      9.0063    
  9.7951      10.499      11.088      11.529      11.784      11.808      11.561      11.036      10.270      9.3419    
  8.3507      7.3882      6.5212      5.7853      5.1922      4.7402      4.4250      4.2438      4.1956      4.2792    
  4.4925      4.8323      4.8285      5.1870      5.6503      6.2113      6.8551      7.5570      8.2850      9.0046    
  9.6828      10.286      10.774      11.097      11.203      11.052      10.640      10.004      9.2154      8.3594    
  7.5150      6.7390      6.0630      5.4997      5.0525      4.7222      4.5099      4.4161      4.4399      4.5785    
  4.6320      4.7830      5.0340      5.3833      5.8271      6.3559      6.9539      7.5999      8.2697      8.9362    
  9.5660      10.114      10.524      10.738      10.713      10.442      9.9516      9.3035      8.5715      7.8240    
  7.1121      6.4668      5.9046      5.4349      5.0642      4.7974      4.6369      4.5825      4.6992      4.6502    
  4.6992      4.8468      5.0935      5.4380      5.8750      6.3951      6.9852      7.6290      8.3052      8.9813    
  9.6097      10.129      10.474      10.595      10.474      10.129      9.6097      8.9813      8.3052      7.6290    
  6.9852      6.3951      5.8750      5.4380      5.0935      4.8468      5.0340      4.7831      4.6320      4.5825    
  4.6370      4.7974      5.0642      5.4349      5.9046      6.4668      7.1121      7.8240      8.5715      9.3036    
  9.9516      10.442      10.713      10.738      10.524      10.114      9.5660      8.9362      8.2697      7.5999    
  6.9539      6.3559      5.8271      5.3833      5.6503      5.1870      4.8285      4.5785      4.4399      4.4162    
  4.5099      4.7222      5.0525      5.4997      6.0630      6.7390      7.5150      8.3594      9.2154      10.004    
  10.640      11.052      11.203      11.097      10.774      10.286      9.6828      9.0046      8.2850      7.5570    
  6.8551      6.2113      6.5680      5.8776      5.2956      4.8323      4.4924      4.2792      4.1956      4.2439    
  4.4250      4.7402      5.1922      5.7854      6.5212      7.3882      8.3507      9.3419      10.270      11.036    
  11.561      11.808      11.784      11.529      11.088      10.499      9.7951      9.0063      8.1736      7.3453    
  7.7959      6.8736      6.0494      5.3519      4.7937      4.3788      4.1090      3.9856      4.0096      4.1823    
  4.5066      4.9894      5.6398      6.4620      7.4419      8.5342      9.6573      10.703      11.564      12.157    
  12.445      12.461      12.265      11.889      11.331      10.595      9.7225      8.7673      9.2991      8.1761    
  7.1064      6.1534      5.3519      4.7148      4.2440      3.9378      3.7952      3.8158      4.0013      4.3574    
  4.8954      5.6277      6.5577      7.6633      8.8833      10.116      11.239      12.118      12.653      12.877    
  12.894      12.785      12.542      12.083      11.350      10.388      10.957      9.7312      8.4579      7.2491    
  6.1820      5.2955      4.6008      4.0956      3.7742      3.6325      3.6692      3.8874      4.2965      4.9115    
  5.7462      6.7982      8.0303      9.3589      10.659      11.756      12.463      12.771      12.837      12.856    
  12.910      12.907      12.649      11.991      12.452      11.388      10.032      8.6207      7.2916      6.1335    
  5.1869      4.4590      3.9421      3.6260      3.5041      3.5751      3.8446      4.3258      5.0367      5.9888    
  7.1675      8.5134      9.9137      11.182      12.030      12.340      12.265      12.127      12.204      12.540    
  12.910      12.964      13.019      12.708      11.647      10.180      8.6530      7.2315      6.0122      5.0339    
  4.2982      3.7917      3.5001      3.4154      3.5373      3.8748      4.4451      5.2670      6.3450      7.6456    
  9.0790      10.481      11.503      11.851      11.561      11.004      10.682      10.924      11.687      12.561    
  11.955      12.859      12.765      11.721      10.168      8.5543      7.0745      5.8272      4.8467      4.1280    
  3.6521      3.4023      3.3701      3.5577      3.9780      4.6516      5.5954      6.8009      8.2090      9.6906    
  10.934      11.469      11.096      10.073      9.0199      8.6020      9.1547      10.482      9.1514      11.245    
  12.570      12.656      11.616      9.9990      8.3343      6.8331      5.5916      4.6369      3.9573      3.5299    
  3.3365      3.3701      3.6362      4.1519      4.9398      6.0111      7.3393      8.8326      10.282      11.166    
  11.009      9.7768      7.9920      6.5244      6.1586      7.1675      5.3148      7.9651      10.606      12.243    
  12.422      11.353      9.6908      8.0110      6.5246      5.3203      4.4162      3.7946      3.4302      3.3053    
  3.4154      3.7704      4.3912      5.3003      6.4997      7.9398      9.4894      10.776      11.136      10.166    
  8.0544      5.5990      3.8837      3.7420      1.7802      3.9470      7.1674      10.181      11.951      12.099    
  10.957      9.2682      7.6077      6.1693      5.0290      4.1957      3.6469      3.3567      3.3093      3.5042    
  3.9554      4.6873      5.7201      7.0430      8.5791      10.135      11.137      10.882      9.0978      6.2155    
  3.2888      1.5445      4.8744      5.3209      7.1674      9.6199      11.650      12.506      12.028      10.628    
  8.9598      7.3893      6.0535      5.0053      4.2439      3.7465      3.4909      3.4649      3.6693      4.1173    
  4.8310      5.8283      7.0985      8.5710      10.083      11.181      11.262      10.092      8.0374      5.9720    
  5.0541      4.0907      4.8154      6.9159      9.4681      11.417      12.086      11.437      9.9726      8.3448    
  6.8538      5.6165      4.6712      4.0097      3.6078      3.4451      3.5129      3.8159      4.3713      5.2031    
  6.3253      7.7138      9.2745      10.782      11.653      11.312      9.6603      7.2406      6.9159      4.8154    
  4.0907      5.0541      7.2406      9.6604      11.312      11.653      10.782      9.2745      7.7139      6.3253    
  5.2031      4.3713      3.8159      3.5129      3.4451      3.6078      4.0097      4.6712      5.6165      6.8538    
  8.3448      9.9726      11.437      12.086      11.417      9.4681      9.6199      7.1674      5.3209      4.8745    
  5.9720      8.0374      10.092      11.262      11.181      10.083      8.5710      7.0985      5.8284      4.8310    