unknown system                          
   1.00000000000000     
    -2.450000    2.450000    1.274000
     2.450000   -2.450000    1.274000
     2.450000    2.450000   -1.274000
   Si
     2
Direct
  0.250000  0.750000  0.500000
  0.000000  0.000000  0.000000
 
   28   28   28
 -.55833461827E+01 -.40534991284E+01 -.65813082837E-01 0.48743096887E+01 0.90805353690E+01
 0.11420694940E+02 0.11690305601E+02 0.10497352562E+02 0.87930430338E+01 0.71758843466E+01
 0.58240325092E+01 0.47982486892E+01 0.40956251126E+01 0.36898814471E+01 0.35575581722E+01
 0.36898743869E+01 0.40956326476E+01 0.47982720670E+01 0.58240474209E+01 0.71758813744E+01
 0.87930391357E+01 0.10497357870E+02 0.11690310616E+02 0.11420694804E+02 0.90805365270E+01
 0.48743091738E+01 -.65825493386E-01 -.40535155449E+01 -.40535155449E+01 -.48386614989E+01
 -.26888526609E+01 0.15443384594E+01 0.62763244758E+01 0.99403088646E+01 0.11645132688E+02
 0.11421272632E+02 0.10002454830E+02 0.82991465596E+01 0.67497257877E+01 0.54893114977E+01
 0.45575078299E+01 0.39420746586E+01 0.36156399342E+01 0.35575710190E+01 0.37629365447E+01
 0.42440046713E+01 0.50258594661E+01 0.61318529008E+01 0.75540585602E+01 0.92114536858E+01
 0.10877042983E+02 0.11837976191E+02 0.11181053695E+02 0.84593627977E+01 0.40905789224E+01
 -.63974357822E+00 -.65825493386E-01 -.26888625193E+01 -.27414887995E+01 -.21183482010E+00
 0.38835888892E+01 0.80083840866E+01 0.10826841515E+02 0.11741949319E+02 0.11005850615E+02
 0.94209075543E+01 0.77587367690E+01 0.63009819027E+01 0.51471698467E+01 0.43171318289E+01
 0.37916767932E+01 0.35441656371E+01 0.35576054060E+01 0.38308457075E+01 0.43788437445E+01
 0.52269313502E+01 0.63939866876E+01 0.78608637862E+01 0.95294868732E+01 0.11130056224E+02
 0.11903504335E+02 0.11030218186E+02 0.82331423823E+01 0.40905789224E+01 0.48743091738E+01
 0.15443327220E+01 -.21183390358E+00 0.33043487067E+00 0.29337796594E+01 0.65243497009E+01
 0.97323777158E+01 0.11530396773E+02 0.11626504669E+02 0.10449252404E+02 0.87926124009E+01
 0.72024919094E+01 0.58548659332E+01 0.48161855910E+01 0.40897040790E+01 0.36521133444E+01
 0.34790920758E+01 0.35576489656E+01 0.38899227128E+01 0.44924731605E+01 0.53894190536E+01
 0.65940593331E+01 0.80769379245E+01 0.97281811139E+01 0.11255526818E+02 0.11920911712E+02
 0.11030218186E+02 0.84593627977E+01 0.90805365270E+01 0.62763208230E+01 0.38835916215E+01
 0.29337917480E+01 0.38480638861E+01 0.62172973925E+01 0.90199692772E+01 0.11142607370E+02
 0.11898074208E+02 0.11269402897E+02 0.97937707027E+01 0.81526711416E+01 0.66603123926E+01
 0.54344202915E+01 0.45126571966E+01 0.38860147760E+01 0.35299168866E+01 0.34235090404E+01
 0.35576884873E+01 0.39370399546E+01 0.45784587257E+01 0.55035043719E+01 0.67194170008E+01
 0.81885329390E+01 0.97957436964E+01 0.11255526818E+02 0.11903504335E+02 0.11181053695E+02
 0.11420694804E+02 0.99403041247E+01 0.80083773176E+01 0.65243597648E+01 0.62173171574E+01
 0.72524767248E+01 0.91407215273E+01 0.11004542701E+02 0.12034711943E+02 0.11870330727E+02
 0.10707053800E+02 0.91088481493E+01 0.75349401908E+01 0.61591651034E+01 0.50590764101E+01
 0.42497407632E+01 0.37145747948E+01 0.34302067992E+01 0.33798401203E+01 0.35577160150E+01
 0.39697909946E+01 0.46320071917E+01 0.55623106581E+01 0.67621058171E+01 0.81885329390E+01
 0.97281811139E+01 0.11130056224E+02 0.11837976191E+02 0.11690310616E+02 0.11645138069E+02
 0.10826832097E+02 0.97323691151E+01 0.90199830980E+01 0.91407429315E+01 0.10075406395E+02
 0.11341677987E+02 0.12265199022E+02 0.12343746356E+02 0.11490300050E+02 0.10032872097E+02
 0.84461596072E+01 0.69707933644E+01 0.57216199783E+01 0.47439471261E+01 0.40371769974E+01
 0.35815353792E+01 0.33566620371E+01 0.33498216219E+01 0.35577305252E+01 0.39865665529E+01
 0.46501849490E+01 0.55623106581E+01 0.67194170008E+01 0.80769379245E+01 0.95294868732E+01
 0.10877042983E+02 0.10497357870E+02 0.11421291450E+02 0.11741959140E+02 0.11530385817E+02
 0.11142599034E+02 0.11004555655E+02 0.11341694714E+02 0.12028116554E+02 0.12654678708E+02
 0.12770647155E+02 0.12144179856E+02 0.10885584573E+02 0.93582009756E+01 0.78440023799E+01
 0.64872798467E+01 0.53652194496E+01 0.44998373451E+01 0.38815378994E+01 0.34909339347E+01
 0.33116676731E+01 0.33345499234E+01 0.35577347974E+01 0.39865665529E+01 0.46320071917E+01
 0.55035043719E+01 0.65940593331E+01 0.78608637862E+01 0.92114536858E+01 0.87930391357E+01
 0.10002467641E+02 0.11005876880E+02 0.11626516766E+02 0.11898065559E+02 0.12034706016E+02
 0.12265207191E+02 0.12654686447E+02 0.13039085743E+02 0.13119579008E+02 0.12653542285E+02
 0.11615957509E+02 0.10226227571E+02 0.87457259497E+01 0.73369009040E+01 0.61060986057E+01
 0.51025795415E+01 0.43337860255E+01 0.37868030061E+01 0.34451097124E+01 0.32965319313E+01
 0.33345499234E+01 0.35577305252E+01 0.39697909946E+01 0.45784587257E+01 0.53894190536E+01
 0.63939866876E+01 0.75540585602E+01 0.71758813744E+01 0.82991420682E+01 0.94209221741E+01
 0.10449277865E+02 0.11269414714E+02 0.11870327376E+02 0.12343744269E+02 0.12770648741E+02
 0.13119576843E+02 0.13237077348E+02 0.12941775409E+02 0.12157018733E+02 0.10987637022E+02
 0.96287513919E+01 0.82412817962E+01 0.69534000099E+01 0.58432802391E+01 0.49419524791E+01
 0.42498535512E+01 0.37550183363E+01 0.34451097124E+01 0.33116676731E+01 0.33498216219E+01
 0.35577160150E+01 0.39370399546E+01 0.44924731605E+01 0.52269313502E+01 0.61318529008E+01
 0.58240474209E+01 0.67497231103E+01 0.77587323043E+01 0.87926231358E+01 0.97937882579E+01
 0.10707063049E+02 0.11490302904E+02 0.12144181878E+02 0.12653538102E+02 0.12941765751E+02
 0.12891243756E+02 0.12420726893E+02 0.11560721843E+02 0.10425786652E+02 0.91541794124E+01
 0.78826132168E+01 0.67146514005E+01 0.57092953634E+01 0.48879231838E+01 0.42498535512E+01
 0.37868030061E+01 0.34909339347E+01 0.33566620371E+01 0.33798401203E+01 0.35576884873E+01
 0.38899227128E+01 0.43788437445E+01 0.50258594661E+01 0.47982720670E+01 0.54893271940E+01
 0.63009814599E+01 0.72024881279E+01 0.81526745886E+01 0.91088542239E+01 0.10032877179E+02
 0.10885592091E+02 0.11615962775E+02 0.12157011576E+02 0.12420714042E+02 0.12329008075E+02
 0.11858859791E+02 0.11052096560E+02 0.10007179491E+02 0.88494920426E+01 0.76963927487E+01
 0.66336146090E+01 0.57092953634E+01 0.49419524791E+01 0.43337860255E+01 0.38815378994E+01
 0.35815353792E+01 0.34302067992E+01 0.34235090404E+01 0.35576489656E+01 0.38308457075E+01
 0.42440046713E+01 0.40956326476E+01 0.45575252869E+01 0.51471830771E+01 0.58548684641E+01
 0.66603099389E+01 0.75349365178E+01 0.84461549355E+01 0.93582011132E+01 0.10226236483E+02
 0.10987644017E+02 0.11560715036E+02 0.11858847816E+02 0.11817659423E+02 0.11421405342E+02
 0.10713380007E+02 0.97841854278E+01 0.87445259529E+01 0.76963927487E+01 0.67146514005E+01
 0.58432802391E+01 0.51025795415E+01 0.44998373451E+01 0.40371769974E+01 0.37145747948E+01
 0.35299168866E+01 0.34790920758E+01 0.35576054060E+01 0.37629365447E+01 0.36898743869E+01
 0.39420730964E+01 0.43171386854E+01 0.48161939632E+01 0.54344249061E+01 0.61591645609E+01
 0.69707859920E+01 0.78439909788E+01 0.87457211376E+01 0.96287582177E+01 0.10425793921E+02
 0.11052092370E+02 0.11421396300E+02 0.11470853286E+02 0.11183237309E+02 0.10594734326E+02
 0.97841854278E+01 0.88494920426E+01 0.78826132168E+01 0.69534000099E+01 0.61060986057E+01
 0.53652194496E+01 0.47439471261E+01 0.42497407632E+01 0.38860147760E+01 0.36521133444E+01
 0.35441656371E+01 0.35575710190E+01 0.35575581722E+01 0.36156298556E+01 0.37916662511E+01
 0.40897002847E+01 0.45126594781E+01 0.50590808497E+01 0.57216217705E+01 0.64872736870E+01
 0.73368878370E+01 0.82412726835E+01 0.91541820813E+01 0.10007186219E+02 0.10713378685E+02
 0.11183230634E+02 0.11348404512E+02 0.11183237309E+02 0.10713380007E+02 0.10007179491E+02
 0.91541794124E+01 0.82412817962E+01 0.73369009040E+01 0.64872798467E+01 0.57216199783E+01
 0.50590764101E+01 0.45126571966E+01 0.40897040790E+01 0.37916767932E+01 0.36156399342E+01
 0.36898814471E+01 0.35575715713E+01 0.35441545283E+01 0.36520982180E+01 0.38860043088E+01
 0.42497367736E+01 0.47439486902E+01 0.53652237231E+01 0.61060976843E+01 0.69533890162E+01
 0.78826009624E+01 0.88494908044E+01 0.97841916124E+01 0.10594734217E+02 0.11183230634E+02
 0.11470853286E+02 0.11421405342E+02 0.11052096560E+02 0.10425786652E+02 0.96287513919E+01
 0.87457259497E+01 0.78440023799E+01 0.69707933644E+01 0.61591651034E+01 0.54344202915E+01
 0.48161855910E+01 0.43171318289E+01 0.39420746586E+01 0.40956251126E+01 0.37629395738E+01
 0.35576054341E+01 0.34790825162E+01 0.35299040054E+01 0.37145634239E+01 0.40371673563E+01
 0.44998341375E+01 0.51025860696E+01 0.58432857866E+01 0.67146434547E+01 0.76963788457E+01
 0.87445231372E+01 0.97841916124E+01 0.10713378685E+02 0.11421396300E+02 0.11817659423E+02
 0.11858859791E+02 0.11560721843E+02 0.10987637022E+02 0.10226227571E+02 0.93582009756E+01
 0.84461596072E+01 0.75349401908E+01 0.66603123926E+01 0.58548659332E+01 0.51471698467E+01
 0.45575078299E+01 0.47982486892E+01 0.42439920784E+01 0.38308445818E+01 0.35576467791E+01
 0.34235034170E+01 0.34302024423E+01 0.35815279187E+01 0.38815238146E+01 0.43337779217E+01
 0.49419606103E+01 0.57093052657E+01 0.66336080388E+01 0.76963788457E+01 0.88494908044E+01
 0.10007186219E+02 0.11052092370E+02 0.11858847816E+02 0.12329008075E+02 0.12420726893E+02
 0.12157018733E+02 0.11615957509E+02 0.10885584573E+02 0.10032872097E+02 0.91088481493E+01
 0.81526711416E+01 0.72024919094E+01 0.63009819027E+01 0.54893114977E+01 0.58240325092E+01
 0.50258380032E+01 0.43788323360E+01 0.38899178765E+01 0.35576825828E+01 0.33798397710E+01
 0.33566691366E+01 0.34909321999E+01 0.37867860981E+01 0.42498423757E+01 0.48879318994E+01
 0.57093052657E+01 0.67146434547E+01 0.78826009624E+01 0.91541820813E+01 0.10425793921E+02
 0.11560715036E+02 0.12420714042E+02 0.12891243756E+02 0.12941775409E+02 0.12653542285E+02
 0.12144179856E+02 0.11490300050E+02 0.10707053800E+02 0.97937707027E+01 0.87926124009E+01
 0.77587367690E+01 0.67497257877E+01 0.71758843466E+01 0.61318420999E+01 0.52269198083E+01
 0.44924685778E+01 0.39370321531E+01 0.35577058876E+01 0.33498262568E+01 0.33116844203E+01
 0.34451120026E+01 0.37550004626E+01 0.42498423757E+01 0.49419606103E+01 0.58432857866E+01
 0.69533890162E+01 0.82412726835E+01 0.96287582177E+01 0.10987644017E+02 0.12157011576E+02
 0.12941765751E+02 0.13237077348E+02 0.13119579008E+02 0.12770647155E+02 0.12343746356E+02
 0.11870330727E+02 0.11269402897E+02 0.10449252404E+02 0.94209075543E+01 0.82991465596E+01
 0.87930430338E+01 0.75540595991E+01 0.63939823772E+01 0.53894223755E+01 0.45784635997E+01
 0.39697811414E+01 0.35577170687E+01 0.33345575832E+01 0.32965524301E+01 0.34451120026E+01
 0.37867860981E+01 0.43337779217E+01 0.51025860696E+01 0.61060976843E+01 0.73368878370E+01
 0.87457211376E+01 0.10226236483E+02 0.11615962775E+02 0.12653538102E+02 0.13119576843E+02
 0.13039085743E+02 0.12654678708E+02 0.12265199022E+02 0.12034711943E+02 0.11898074208E+02
 0.11626504669E+02 0.11005850615E+02 0.10002454830E+02 0.10497352562E+02 0.92114565318E+01
 0.78608613911E+01 0.65940620758E+01 0.55035222966E+01 0.46320200690E+01 0.39865556555E+01
 0.35577200803E+01 0.33345575832E+01 0.33116844203E+01 0.34909321999E+01 0.38815238146E+01
 0.44998341375E+01 0.53652237231E+01 0.64872736870E+01 0.78439909788E+01 0.93582011132E+01
 0.10885592091E+02 0.12144181878E+02 0.12770648741E+02 0.12654686447E+02 0.12028116554E+02
 0.11341677987E+02 0.11004542701E+02 0.11142607370E+02 0.11530396773E+02 0.11741949319E+02
 0.11421272632E+02 0.11690305601E+02 0.10877048562E+02 0.95294885350E+01 0.80769319916E+01
 0.67194251859E+01 0.55623375699E+01 0.46502009394E+01 0.39865556555E+01 0.35577170687E+01
 0.33498262568E+01 0.33566691366E+01 0.35815279187E+01 0.40371673563E+01 0.47439486902E+01
 0.57216217705E+01 0.69707859920E+01 0.84461549355E+01 0.10032877179E+02 0.11490302904E+02
 0.12343744269E+02 0.12265207191E+02 0.11341694714E+02 0.10075406395E+02 0.91407215273E+01
 0.90199692772E+01 0.97323777158E+01 0.10826841515E+02 0.11645132688E+02 0.11420694940E+02
 0.11837986947E+02 0.11130072339E+02 0.97281818572E+01 0.81885247980E+01 0.67621160477E+01
 0.55623375699E+01 0.46320200690E+01 0.39697811414E+01 0.35577058876E+01 0.33798397710E+01
 0.34302024423E+01 0.37145634239E+01 0.42497367736E+01 0.50590808497E+01 0.61591645609E+01
 0.75349365178E+01 0.91088542239E+01 0.10707063049E+02 0.11870327376E+02 0.12034706016E+02
 0.11004555655E+02 0.91407429315E+01 0.72524767248E+01 0.62172973925E+01 0.65243497009E+01
 0.80083840866E+01 0.99403088646E+01 0.90805353690E+01 0.11181058872E+02 0.11903527486E+02
 0.11255549366E+02 0.97957440960E+01 0.81885247980E+01 0.67194251859E+01 0.55035222966E+01
 0.45784635997E+01 0.39370321531E+01 0.35576825828E+01 0.34235034170E+01 0.35299040054E+01
 0.38860043088E+01 0.45126594781E+01 0.54344249061E+01 0.66603099389E+01 0.81526745886E+01
 0.97937882579E+01 0.11269414714E+02 0.11898065559E+02 0.11142599034E+02 0.90199830980E+01
 0.62173171574E+01 0.38480638861E+01 0.29337796594E+01 0.38835888892E+01 0.62763244758E+01
 0.48743096887E+01 0.84593568577E+01 0.11030226374E+02 0.11920939548E+02 0.11255549366E+02
 0.97281818572E+01 0.80769319916E+01 0.65940620758E+01 0.53894223755E+01 0.44924685778E+01
 0.38899178765E+01 0.35576467791E+01 0.34790825162E+01 0.36520982180E+01 0.40897002847E+01
 0.48161939632E+01 0.58548684641E+01 0.72024881279E+01 0.87926231358E+01 0.10449277865E+02
 0.11626516766E+02 0.11530385817E+02 0.97323691151E+01 0.65243597648E+01 0.29337917480E+01
 0.33043487067E+00 -.21183482010E+00 0.15443384594E+01 -.65813082837E-01 0.40905775002E+01
 0.82331346179E+01 0.11030226374E+02 0.11903527486E+02 0.11130072339E+02 0.95294885350E+01
 0.78608613911E+01 0.63939823772E+01 0.52269198083E+01 0.43788323360E+01 0.38308445818E+01
 0.35576054341E+01 0.35441545283E+01 0.37916662511E+01 0.43171386854E+01 0.51471830771E+01
 0.63009814599E+01 0.77587323043E+01 0.94209221741E+01 0.11005876880E+02 0.11741959140E+02
 0.10826832097E+02 0.80083773176E+01 0.38835916215E+01 -.21183390358E+00 -.27414887995E+01
 -.26888526609E+01 -.40534991284E+01 -.63972864441E+00 0.40905775002E+01 0.84593568577E+01
 0.11181058872E+02 0.11837986947E+02 0.10877048562E+02 0.92114565318E+01 0.75540595991E+01
 0.61318420999E+01 0.50258380032E+01 0.42439920784E+01 0.37629395738E+01 0.35575715713E+01
 0.36156298556E+01 0.39420730964E+01 0.45575252869E+01 0.54893271940E+01 0.67497231103E+01
 0.82991420682E+01 0.10002467641E+02 0.11421291450E+02 0.11645138069E+02 0.99403041247E+01
 0.62763208230E+01 0.15443327220E+01 -.26888625193E+01 -.48386614989E+01 -.40534275444E+01
 -.29468476540E+01 0.53668847238E+00 0.50539949850E+01 0.90084262938E+01 0.11264314056E+02
 0.11549777229E+02 0.10393479617E+02 0.87003661081E+01 0.70786773669E+01 0.57123810017E+01
 0.46657424568E+01 0.39379217127E+01 0.35025302908E+01 0.33344907067E+01 0.34228382985E+01
 0.37742842047E+01 0.44110500139E+01 0.53608284666E+01 0.66337042617E+01 0.81851659719E+01
 0.98727518492E+01 0.11225284659E+02 0.11346600539E+02 0.95753368816E+01 0.59719699372E+01
 0.14842468781E+01 -.23467871746E+01 -.29468591719E+01 -.40534348328E+01 -.23467929335E+01
 0.14842311321E+01 0.59719493118E+01 0.95753220178E+01 0.11346584234E+02 0.11225258615E+02
 0.98727317631E+01 0.81851681879E+01 0.66337125326E+01 0.53608178436E+01 0.44110292162E+01
 0.37742788073E+01 0.34228462698E+01 0.33344926834E+01 0.35025312131E+01 0.39379415850E+01
 0.46657742117E+01 0.57123975865E+01 0.70786761237E+01 0.87003695886E+01 0.10393496301E+02
 0.11549795405E+02 0.11264330080E+02 0.90084459849E+01 0.50540111373E+01 0.53668788409E+00
 0.63958161458E+00 -.22370097306E+01 -.26887999828E+01 -.55361553883E+00 0.32887286003E+01
 0.73605001258E+01 0.10290061097E+02 0.11384653938E+02 0.10799120900E+02 0.92830292590E+01
 0.76365739615E+01 0.61772355451E+01 0.50126288474E+01 0.41680180780E+01 0.36260460709E+01
 0.33594421541E+01 0.33497819492E+01 0.35947896673E+01 0.41090978623E+01 0.49192586856E+01
 0.60485702622E+01 0.74875748904E+01 0.91539204842E+01 0.10820947658E+02 0.11796684945E+02
 0.11233470776E+02 0.87569724947E+01 0.48153515018E+01 0.53208152884E+01 0.17800960394E+01
 -.34777618740E+00 -.21179707521E+00 0.20972000142E+01 0.55989132269E+01 0.89219338017E+01
 0.10953796399E+02 0.11287376434E+02 0.10264724778E+02 0.86599697331E+01 0.70828628533E+01
 0.57327804965E+01 0.46852097517E+01 0.39483971888E+01 0.35001817848E+01 0.33153543183E+01
 0.33798320054E+01 0.36953965537E+01 0.42792980060E+01 0.51580367995E+01 0.63503273241E+01
 0.78363215798E+01 0.95191456063E+01 0.11140512149E+02 0.11990014679E+02 0.11320513067E+02
 0.89089909340E+01 0.94467925574E+01 0.64736343134E+01 0.37419164976E+01 0.23746547226E+01
 0.29337995977E+01 0.51324615799E+01 0.79919571079E+01 0.10345586735E+02 0.11391891847E+02
 0.11000033055E+02 0.96448828023E+01 0.80354766523E+01 0.65508713650E+01 0.53215323570E+01
 0.43936374363E+01 0.37620011777E+01 0.34023334565E+01 0.32927485106E+01 0.34235416400E+01
 0.37997587912E+01 0.44399189765E+01 0.53688550216E+01 0.65996058443E+01 0.81029514234E+01
 0.97726454460E+01 0.11341046067E+02 0.12138138350E+02 0.11538694828E+02 0.11841436202E+02
 0.10250632484E+02 0.80400139713E+01 0.61585726166E+01 0.54514837151E+01 0.62172980658E+01
 0.80520025391E+01 0.10073070298E+02 0.11383255526E+02 0.11500137272E+02 0.10524405072E+02
 0.89931794858E+01 0.74381881206E+01 0.60647013364E+01 0.49613344512E+01 0.41500181140E+01
 0.36164041610E+01 0.33365779796E+01 0.32927535631E+01 0.34791658545E+01 0.39029934145E+01
 0.45825162552E+01 0.55394154541E+01 0.67805430564E+01 0.82693190308E+01 0.98961772340E+01
 0.11410290737E+02 0.12225675920E+02 0.12216482934E+02 0.12135583125E+02 0.11131300117E+02
 0.97086722289E+01 0.86020094255E+01 0.83825269190E+01 0.91407045503E+01 0.10438908051E+02
 0.11561333468E+02 0.11903343300E+02 0.11268865855E+02 0.99210242304E+01 0.83627381433E+01
 0.68951107613E+01 0.56447549705E+01 0.46661382682E+01 0.39632111988E+01 0.35167737608E+01
 0.33053138510E+01 0.33153660887E+01 0.35442699300E+01 0.40000184272E+01 0.46991805077E+01
 0.56591438470E+01 0.68807485039E+01 0.83228309083E+01 0.98786765118E+01 0.11334708018E+02
 0.11104246931E+02 0.12066708776E+02 0.12310145347E+02 0.11881559376E+02 0.11168085825E+02
 0.10681670820E+02 0.10755433694E+02 0.11341648729E+02 0.12040702703E+02 0.12340216603E+02
 0.11910750858E+02 0.10779706875E+02 0.92903534395E+01 0.77869653031E+01 0.64303555767E+01
 0.53072216555E+01 0.44459320698E+01 0.38389330858E+01 0.34659837582E+01 0.33093118441E+01
 0.33594518926E+01 0.36157540294E+01 0.40857120570E+01 0.47829675396E+01 0.57200114369E+01
 0.68925536088E+01 0.82580410189E+01 0.97181147961E+01 0.94226722731E+01 0.10720178404E+02
 0.11743250716E+02 0.12271234287E+02 0.12331111534E+02 0.12179735825E+02 0.12127554189E+02
 0.12324936166E+02 0.12654645003E+02 0.12803305727E+02 0.12463103885E+02 0.11530572956E+02
 0.10178113468E+02 0.87060934259E+01 0.72968755494E+01 0.60641833856E+01 0.50640351116E+01
 0.43070824728E+01 0.37801600775E+01 0.34649177288E+01 0.33478867049E+01 0.34228434231E+01
 0.36899797772E+01 0.41551886134E+01 0.48284334830E+01 0.57173742539E+01 0.68140800200E+01
 0.80777895980E+01 0.77934910149E+01 0.90106895917E+01 0.10202521274E+02 0.11240908850E+02
 0.11972157329E+02 0.12389339465E+02 0.12627988764E+02 0.12836964256E+02 0.13044707152E+02
 0.13119548388E+02 0.12854533475E+02 0.12117731616E+02 0.10963990101E+02 0.96034407787E+01
 0.82116056076E+01 0.69200869584E+01 0.58124623577E+01 0.49231965043E+01 0.42529346682E+01
 0.37876820893E+01 0.35128484822E+01 0.34191208513E+01 0.35025067175E+01 0.37629993650E+01
 0.42041910905E+01 0.48322305500E+01 0.56506902696E+01 0.66498615204E+01 0.64107418451E+01
 0.74242839345E+01 0.85091254407E+01 0.95905647992E+01 0.10591992141E+02 0.11429553376E+02
 0.12064603455E+02 0.12535314011E+02 0.12876592064E+02 0.13049231283E+02 0.12941752459E+02
 0.12447971346E+02 0.11563918558E+02 0.10409135379E+02 0.91242474389E+01 0.78454163133E+01
 0.66789972894E+01 0.56864633072E+01 0.48892718150E+01 0.42844617708E+01 0.38606228706E+01
 0.36077599577E+01 0.35200599376E+01 0.35947338317E+01 0.38308526997E+01 0.42295392748E+01
 0.47936349008E+01 0.55238992824E+01 0.53452655976E+01 0.61129024860E+01 0.69950434779E+01
 0.79506936485E+01 0.89254578343E+01 0.98639902487E+01 0.10721189027E+02 0.11456478384E+02
 0.12042278416E+02 0.12444658799E+02 0.12596796869E+02 0.12420712248E+02 0.11885871782E+02
 0.11035551846E+02 0.99631565056E+01 0.87915101440E+01 0.76381510090E+01 0.65894793793E+01
 0.56928193667E+01 0.49638391261E+01 0.44007406324E+01 0.39967472625E+01 0.37464944153E+01
 0.36468131287E+01 0.36953149124E+01 0.38898738178E+01 0.42295266371E+01 0.47148366451E+01
 0.46008547872E+01 0.51266052302E+01 0.57761143077E+01 0.65336024314E+01 0.73702772413E+01
 0.82476287929E+01 0.91247664394E+01 0.99634667906E+01 0.10725153076E+02 0.11361355692E+02
 0.11807700940E+02 0.11992217025E+02 0.11858851177E+02 0.11394144656E+02 0.10640427475E+02
 0.96868141695E+01 0.86429994175E+01 0.76098521331E+01 0.66599710766E+01 0.58334688140E+01
 0.51456803738E+01 0.45990674840E+01 0.41924280309E+01 0.39246601380E+01 0.37945295319E+01
 0.37996625022E+01 0.39369462048E+01 0.42041542198E+01 0.41551307096E+01 0.44590409089E+01
 0.48820024787E+01 0.54215498458E+01 0.60677744545E+01 0.68014201941E+01 0.75958408281E+01
 0.84206629547E+01 0.92424990532E+01 0.10020066310E+02 0.10697256458E+02 0.11202675958E+02
 0.11462107586E+02 0.11421399725E+02 0.11068451944E+02 0.10441712630E+02 0.96200713627E+01
 0.86995146812E+01 0.77682434791E+01 0.68908404645E+01 0.61054445159E+01 0.54305770624E+01
 0.48746180931E+01 0.44422444308E+01 0.41363195039E+01 0.39572820136E+01 0.39028961761E+01
 0.39696694632E+01 0.39864353275E+01 0.40856385312E+01 0.42982634281E+01 0.46262843124E+01
 0.50696275392E+01 0.56228066055E+01 0.62736043934E+01 0.70042017803E+01 0.77924330932E+01
 0.86097487429E+01 0.94151515087E+01 0.10149508966E+02 0.10737518417E+02 0.11101470449E+02
 0.11183232454E+02 0.10964307327E+02 0.10473504009E+02 0.97780610247E+01 0.89628263195E+01
 0.81078267460E+01 0.72739555781E+01 0.65004411792E+01 0.58106814016E+01 0.52196981455E+01
 0.47383169270E+01 0.43735773733E+01 0.41279538796E+01 0.39999330921E+01 0.40856480045E+01
 0.39864419122E+01 0.39999367139E+01 0.41279635571E+01 0.43735914087E+01 0.47383279341E+01
 0.52197105959E+01 0.58107007997E+01 0.65004547781E+01 0.72739499102E+01 0.81078152395E+01
 0.89628313963E+01 0.97780774241E+01 0.10473509529E+02 0.10964301387E+02 0.11183231621E+02
 0.11101472508E+02 0.10737505733E+02 0.10149485017E+02 0.94151399060E+01 0.86097547122E+01
 0.77924367617E+01 0.70041916622E+01 0.62735893406E+01 0.56227931798E+01 0.50696126232E+01
 0.46262718640E+01 0.42982634711E+01 0.44590497927E+01 0.41551504754E+01 0.39696869610E+01
 0.39029123649E+01 0.39573013920E+01 0.41363336794E+01 0.44422480267E+01 0.48746249437E+01
 0.54305969063E+01 0.61054604447E+01 0.68908351072E+01 0.77682303029E+01 0.86995154366E+01
 0.96200793337E+01 0.10441708394E+02 0.11068439897E+02 0.11421396459E+02 0.11462106878E+02
 0.11202658943E+02 0.10697227823E+02 0.10020048582E+02 0.92424969608E+01 0.84206618127E+01
 0.75958341958E+01 0.68014129771E+01 0.60677653514E+01 0.54215357958E+01 0.48819939354E+01
 0.51266035384E+01 0.46008712030E+01 0.42041789098E+01 0.39369686401E+01 0.37996875434E+01
 0.37945569934E+01 0.39246734929E+01 0.41924230461E+01 0.45990666390E+01 0.51456974001E+01
 0.58334844367E+01 0.66599666220E+01 0.76098408530E+01 0.86429991008E+01 0.96868143971E+01
 0.10640412324E+02 0.11394124782E+02 0.11858843638E+02 0.11992212851E+02 0.11807681921E+02
 0.11361327036E+02 0.10725132643E+02 0.99634566687E+01 0.91247589190E+01 0.82476253720E+01
 0.73702798366E+01 0.65336014099E+01 0.57761056434E+01 0.61129020114E+01 0.53452733699E+01
 0.47148588707E+01 0.42295497966E+01 0.38898936061E+01 0.36953429166E+01 0.36468449678E+01
 0.37465058321E+01 0.39967350740E+01 0.44007332235E+01 0.49638513418E+01 0.56928310420E+01
 0.65894745616E+01 0.76381435017E+01 0.87915111047E+01 0.99631504775E+01 0.11035527078E+02
 0.11885844526E+02 0.12420698746E+02 0.12596787387E+02 0.12444639632E+02 0.12042255382E+02
 0.11456460766E+02 0.10721173760E+02 0.98639773892E+01 0.89254578236E+01 0.79507057122E+01
 0.69950511397E+01 0.74242973716E+01 0.64107497090E+01 0.55239174427E+01 0.47936605252E+01
 0.42295551488E+01 0.38308632719E+01 0.35947582990E+01 0.35200905480E+01 0.36077677226E+01
 0.38606066356E+01 0.42844513335E+01 0.48892785643E+01 0.56864676308E+01 0.66789899861E+01
 0.78454122129E+01 0.91242497272E+01 0.10409124676E+02 0.11563888233E+02 0.12447940209E+02
 0.12941732932E+02 0.13049215273E+02 0.12876574775E+02 0.12535301933E+02 0.12064594322E+02
 0.11429537806E+02 0.10591977739E+02 0.95905690286E+01 0.85091441671E+01 0.90107103772E+01
 0.77935048653E+01 0.66498751170E+01 0.56507169390E+01 0.48322562411E+01 0.42041961457E+01
 0.37629973154E+01 0.35025221887E+01 0.34191437428E+01 0.35128503268E+01 0.37876653243E+01
 0.42529252749E+01 0.49231981501E+01 0.58124576699E+01 0.69200757639E+01 0.82116027888E+01
 0.96034420293E+01 0.10963976115E+02 0.12117701936E+02 0.12854504674E+02 0.13119525459E+02
 0.13044685876E+02 0.12836951597E+02 0.12627991105E+02 0.12389342320E+02 0.11972146452E+02
 0.11240898230E+02 0.10202530701E+02 0.10720193264E+02 0.94226900425E+01 0.80777980789E+01
 0.68140947650E+01 0.57174045057E+01 0.48284551419E+01 0.41551822882E+01 0.36899656892E+01
 0.34228466854E+01 0.33478961754E+01 0.34649115426E+01 0.37801453505E+01 0.43070767944E+01
 0.50640325500E+01 0.60641707819E+01 0.72968610814E+01 0.87060893112E+01 0.10178110211E+02
 0.11530557176E+02 0.12463081837E+02 0.12803286638E+02 0.12654623857E+02 0.12324914022E+02
 0.12127549376E+02 0.12179752831E+02 0.12331126059E+02 0.12271231316E+02 0.11743248626E+02
 0.12066717326E+02 0.11104266011E+02 0.97181255218E+01 0.82580401218E+01 0.68925643890E+01
 0.57200382552E+01 0.47829809375E+01 0.40856964580E+01 0.36157317408E+01 0.33594425277E+01
 0.33093049041E+01 0.34659688098E+01 0.38389214313E+01 0.44459302570E+01 0.53072158653E+01
 0.64303388561E+01 0.77869505616E+01 0.92903465768E+01 0.10779696730E+02 0.11910735443E+02
 0.12340208131E+02 0.12040699396E+02 0.11341635488E+02 0.10755417052E+02 0.10681676445E+02
 0.11168114037E+02 0.11881581228E+02 0.12310150463E+02 0.12135593399E+02 0.12216500420E+02
 0.11334728436E+02 0.98786784052E+01 0.83228199354E+01 0.68807513212E+01 0.56591600509E+01
 0.46991822890E+01 0.39999972648E+01 0.35442447843E+01 0.33153463594E+01 0.33052916509E+01
 0.35167518219E+01 0.39632024159E+01 0.46661381069E+01 0.56447467654E+01 0.68950952940E+01
 0.83627277630E+01 0.99210154123E+01 0.11268849390E+02 0.11903331242E+02 0.11561341579E+02
 0.10438922782E+02 0.91407037829E+01 0.83825216371E+01 0.86020260984E+01 0.97087052329E+01
 0.11131322343E+02 0.10250647944E+02 0.11841446684E+02 0.12225697089E+02 0.11410308458E+02
 0.98961711784E+01 0.82693008494E+01 0.67805362848E+01 0.55394160028E+01 0.45825051092E+01
 0.39029707760E+01 0.34791427634E+01 0.32927276907E+01 0.33365459945E+01 0.36163798142E+01
 0.41500116425E+01 0.49613326973E+01 0.60646914772E+01 0.74381791261E+01 0.89931780841E+01
 0.10524397247E+02 0.11500118371E+02 0.11383250032E+02 0.10073093816E+02 0.80520323720E+01
 0.62173106401E+01 0.54514925444E+01 0.61585980830E+01 0.80400441693E+01 0.64736550628E+01
 0.94467964414E+01 0.11538700435E+02 0.12138156094E+02 0.11341056999E+02 0.97726345102E+01
 0.81029313772E+01 0.65995907002E+01 0.53688388808E+01 0.44398965520E+01 0.37997382465E+01
 0.34235237118E+01 0.32927215218E+01 0.34023001245E+01 0.37619809408E+01 0.43936333145E+01
 0.53215266431E+01 0.65508608867E+01 0.80354774397E+01 0.96448929603E+01 0.11000029968E+02
 0.11391876356E+02 0.10345590074E+02 0.79919907041E+01 0.51324988995E+01 0.29338219243E+01
 0.23746757493E+01 0.37419456449E+01 0.17801219289E+01 0.53208227260E+01 0.89089824554E+01
 0.11320510547E+02 0.11990022522E+02 0.11140513462E+02 0.95191338908E+01 0.78363054961E+01
 0.63503073474E+01 0.51580075871E+01 0.42792691022E+01 0.36953808019E+01 0.33798201603E+01
 0.33153308352E+01 0.35001560471E+01 0.39483876513E+01 0.46852090478E+01 0.57327707845E+01
 0.70828532614E+01 0.86599805464E+01 0.10264745580E+02 0.11287380721E+02 0.10953789735E+02
 0.89219461731E+01 0.55989488239E+01 0.20972348036E+01 -.21177208911E+00 -.34774939967E+00
 -.22369862365E+01 0.63959730396E+00 0.48153454704E+01 0.87569551501E+01 0.11233459989E+02
 0.11796679392E+02 0.10820938858E+02 0.91539117364E+01 0.74875669374E+01 0.60485499960E+01
 0.49192237524E+01 0.41090696070E+01 0.35947806345E+01 0.33497755538E+01 0.33594255487E+01
 0.36260346594E+01 0.41680235830E+01 0.50126332110E+01 0.61772244207E+01 0.76365671391E+01
 0.92830472119E+01 0.10799147780E+02 0.11384665663E+02 0.10290065912E+02 0.73605190699E+01
 0.32887576240E+01 -.55359252151E+00 -.26887805865E+01 -.65643866163E-01 0.63969787875E+00
 0.33286461413E+01 0.69159178505E+01 0.10046319531E+02 0.11727254590E+02 0.11708978264E+02
 0.10453082236E+02 0.87609788394E+01 0.71508747304E+01 0.57880377068E+01 0.47331831876E+01
 0.39856927080E+01 0.35201613782E+01 0.33116933781E+01 0.33479507952E+01 0.36325909896E+01
 0.41841625080E+01 0.50289416553E+01 0.61825525580E+01 0.76185394978E+01 0.92317305242E+01
 0.10729163881E+02 0.11380021802E+02 0.10516697819E+02 0.80374322378E+01 0.46110637927E+01
 0.14843402514E+01 0.53680014020E+00 -.63954705984E+00 0.53680024075E+00 0.35724311164E+01
 0.72406435857E+01 0.10189679130E+02 0.11554514702E+02 0.11253793981E+02 0.98679830497E+01
 0.82008082869E+01 0.66672714071E+01 0.54015366725E+01 0.44472056426E+01 0.37953385475E+01
 0.34192155378E+01 0.32965581168E+01 0.34192059659E+01 0.37953396878E+01 0.44472144490E+01
 0.54015271270E+01 0.66672429356E+01 0.82007920938E+01 0.98679924989E+01 0.11253806819E+02
 0.11554513467E+02 0.10189674120E+02 0.72406460721E+01 0.35724351023E+01 0.33286466970E+01
 0.63969880002E+00 -.65639310411E-01 0.14843393793E+01 0.46110556344E+01 0.80374336681E+01