unknown system                          
   1.00000000000000     
    -2.427193    2.427193    1.336822
     2.427193   -2.427193    1.336822
     2.427193    2.427193   -1.336822
   Si
     2
Direct
  0.750000  0.250000  0.500000
  0.500000  0.500000  0.000000
 
   36   36   36
  9.7283      9.6586      9.4560      9.1377      8.7289      8.2571      7.7482      7.2233      6.6988      6.1873    
  5.6999      5.2474      4.8402      4.4875      4.1958      3.9688      3.8076      3.7116      3.6798      3.7116    
  3.8076      3.9688      4.1958      4.4875      4.8402      5.2474      5.6999      6.1874      6.6988      7.2233    
  7.7481      8.2571      8.7289      9.1377      9.4560      9.6587      9.6587      9.8126      9.8252      9.6996    
  9.4504      9.0999      8.6731      8.1940      7.6825      7.1546      6.6240      6.1041      5.6089      5.1522    
  4.7464      4.4005      4.1199      3.9065      3.7602      3.6796      3.6640      3.7132      3.8282      4.0094    
  4.2564      4.5667      4.9359      5.3577      5.8250      6.3302      6.8645      7.4161      7.9684      8.4981    
  8.9766      9.3730      9.4560      9.8252      10.060      10.147      10.088      9.8953      9.5898      9.1952    
  8.7338      8.2244      7.6826      7.1227      6.5601      6.0117      5.4953      5.0266      4.6179      4.2769    
  4.0069      3.8081      3.6792      3.6188      3.6264      3.7020      3.8461      4.0583      4.3374      4.6808    
  5.0850      5.5462      6.0597      6.6186      7.2116      7.8207      8.4198      8.9766      9.1377      9.6996    
  10.147      10.452      10.601      10.594      10.442      10.168      9.7944      9.3417      8.8271      8.2647    
  7.6685      7.0552      6.4450      5.8597      5.3198      4.8413      4.4349      4.1055      3.8539      3.6787    
  3.5777      3.5495      3.5933      3.7091      3.8968      4.1561      4.4863      4.8870      5.3572      5.8947    
  6.4938      7.1427      7.8207      8.4981      8.7289      9.4504      10.088      10.601      10.961      11.152    
  11.177      11.051      10.797      10.436      9.9878      9.4655      8.8799      8.2436      7.5743      6.8956    
  6.2343      5.6166      5.0633      4.5885      4.1990      3.8963      3.6784      3.5420      3.4845      3.5043    
  3.6008      3.7741      4.0252      4.3554      4.7671      5.2618      5.8392      6.4938      7.2116      7.9684    
  8.2571      9.0999      9.8953      10.594      11.152      11.542      11.746      11.771      11.647      11.404    
  11.065      10.635      10.113      9.5062      8.8291      8.1006      7.3486      6.6064      5.9066      5.2759    
  4.7323      4.2846      3.9342      3.6784      3.5127      3.4330      3.4367      3.5227      3.6918      3.9462    
  4.2896      4.7269      5.2618      5.8947      6.6186      7.4161      7.7481      8.6731      9.5898      10.442    
  11.177      11.746      12.104      12.253      12.230      12.089      11.868      11.582      11.212      10.730    
  10.121      9.4053      8.6164      7.7885      6.9625      6.1792      5.4715      4.8614      4.3592      3.9663    
  3.6787      3.4903      3.3957      3.3912      3.4756      3.6505      3.9198      4.2896      4.7671      5.3572    
  6.0597      6.8645      7.2233      8.1940      9.1952      10.168      11.051      11.771      12.253      12.482    
  12.501      12.392      12.235      12.073      11.896      11.649      11.263      10.694      9.9531      9.1039    
  8.1993      7.2897      6.4242      5.6428      4.9709      4.4203      3.9916      3.6792      3.4754      3.3732    
  3.3683      3.4599      3.6505      3.9462      4.3554      4.8870      5.5462      6.3302      6.6988      7.6825    
  8.7338      9.7944      10.797      11.647      12.230      12.501      12.497      12.325      12.115      11.972    
  11.931      11.941      11.895      11.671      11.189      10.453      9.5463      8.5662      7.5754      6.6324    
  5.7832      5.0569      4.4656      4.0090      3.6796      3.4679      3.3657      3.3683      3.4756      3.6918    
  4.0252      4.4863      5.0850      5.8250      6.1874      7.1546      8.2245      9.3417      10.436      11.404    
  12.089      12.392      12.325      12.000      11.598      11.304      11.237      11.404      11.698      11.937    
  11.938      11.587      10.882      9.9288      8.8761      7.8092      6.7957      5.8876      5.1162      4.4936    
  4.0179      3.6798      3.4679      3.3732      3.3912      3.5227      3.7741      4.1561      4.6808      5.3577    
  5.6999      6.6240      7.6826      8.8271      9.9878      11.065      11.869      12.235      12.115      11.598    
  10.891      10.259      9.9338      10.034      10.516      11.191      11.792      12.071      11.882      11.227    
  10.239      9.1180      7.9825      6.9081      5.9518      5.1463      4.5030      4.0179      3.6796      3.4754    
  3.3957      3.4367      3.6008      3.8968      4.3374      4.9359      5.2474      6.1041      7.1228      8.2647    
  9.4655      10.635      11.582      12.073      11.972      11.304      10.259      9.1519      8.3307      8.0636    
  8.4431      9.3499      10.493      11.513      12.099      12.084      11.483      10.467      9.2838      8.0889    
  6.9654      5.9735      5.1463      4.4936      4.0090      3.6792      3.4903      3.4330      3.5043      3.7091    
  4.0583      4.5667      4.8402      5.6089      6.5601      7.6685      8.8799      10.113      11.212      11.896    
  11.931      11.237      9.9338      8.3308      6.8556      5.9314      5.8388      6.6162      8.0425      9.7125    
  11.173      12.063      12.208      11.650      10.605      9.3681      8.1248      6.9654      5.9518      5.1162    
  4.4656      3.9916      3.6787      3.5127      3.4845      3.5933      3.8461      4.2564      4.4875      5.1522    
  6.0117      7.0552      8.2436      9.5062      10.730      11.649      11.941      11.404      10.034      8.0636    
  5.9314      4.1733      3.2678      3.4778      4.7574      6.7639      8.9744      10.853      12.007      12.273    
  11.733      10.652      9.3681      8.0889      6.9081      5.8876      5.0569      4.4203      3.9663      3.6784    
  3.5420      3.5495      3.7020      4.0094      4.1958      4.7464      5.4953      6.4450      7.5743      8.8291    
  10.121      11.263      11.895      11.698      10.516      8.4431      5.8388      3.2678      1.3581     0.61318    
  1.2444      3.0947      5.6909      8.4009      10.628      11.969      12.293      11.733      10.605      9.2838    
  7.9825      6.7957      5.7832      4.9709      4.3592      3.9342      3.6784      3.5777      3.6264      3.8282    
  3.9688      4.4005      5.0266      5.8597      6.8956      8.1006      9.4053      10.694      11.671      11.937    
  11.191      9.3499      6.6162      3.4778     0.61318     -1.2868     -1.7306     -.59208      1.8438      4.9771    
  8.0877      10.547      11.969      12.273      11.650      10.467      9.1180      7.8092      6.6324      5.6428    
  4.8614      4.2846      3.8963      3.6787      3.6188      3.7132      3.8076      4.1199      4.6179      5.3198    
  6.2343      7.3486      8.6164      9.9531      11.189      11.938      11.792      10.493      8.0425      4.7574    
  1.2444     -1.7306     -3.4520     -3.4798     -1.7992      1.1726      4.7269      8.0877      10.628      12.007    
  12.208      11.483      10.239      8.8761      7.5754      6.4242      5.4715      4.7323      4.1990      3.8539    
  3.6792      3.6640      3.7116      3.9065      4.2769      4.8414      5.6166      6.6064      7.7885      9.1039    
  10.453      11.587      12.071      11.513      9.7125      6.7639      3.0946     -.59210     -3.4798     -4.8715    
 -4.4143     -2.2200      1.1726      4.9771      8.4009      10.853      12.063      12.084      11.227      9.9288    
  8.5662      7.2897      6.1792      5.2759      4.5885      4.1055      3.8081      3.6796      3.6798      3.7602    
  4.0069      4.4349      5.0633      5.9066      6.9626      8.1993      9.5463      10.882      11.882      12.099    
  11.173      8.9744      5.6909      1.8438     -1.7992     -4.4143     -5.3658     -4.4143     -1.7992      1.8438    
  5.6909      8.9744      11.173      12.099      11.882      10.882      9.5463      8.1993      6.9625      5.9066    
  5.0633      4.4349      4.0069      3.7602      3.7116      3.6796      3.8081      4.1055      4.5885      5.2759    
  6.1792      7.2897      8.5662      9.9288      11.227      12.084      12.063      10.853      8.4008      4.9771    
  1.1725     -2.2200     -4.4143     -4.8715     -3.4798     -.59208      3.0947      6.7639      9.7125      11.513    
  12.071      11.587      10.453      9.1039      7.7885      6.6064      5.6166      4.8413      4.2769      3.9065    
  3.8076      3.6640      3.6792      3.8539      4.1991      4.7324      5.4715      6.4242      7.5754      8.8761    
  10.239      11.483      12.208      12.007      10.628      8.0876      4.7268      1.1725     -1.7992     -3.4798    
 -3.4520     -1.7306      1.2444      4.7574      8.0425      10.493      11.792      11.938      11.189      9.9531    
  8.6164      7.3486      6.2343      5.3198      4.6179      4.1199      3.9688      3.7132      3.6188      3.6787    
  3.8964      4.2846      4.8614      5.6428      6.6324      7.8092      9.1180      10.467      11.650      12.273    
  11.969      10.546      8.0876      4.9771      1.8438     -.59210     -1.7306     -1.2868     0.61318      3.4778    
  6.6162      9.3499      11.191      11.937      11.671      10.694      9.4053      8.1006      6.8956      5.8597    
  5.0266      4.4005      4.1958      3.8282      3.6264      3.5777      3.6784      3.9342      4.3592      4.9709    
  5.7832      6.7957      7.9824      9.2838      10.605      11.733      12.293      11.969      10.628      8.4008    
  5.6909      3.0946      1.2444     0.61318      1.3581      3.2678      5.8388      8.4431      10.516      11.698    
  11.895      11.263      10.121      8.8291      7.5743      6.4450      5.4953      4.7464      4.4875      4.0094    
  3.7020      3.5495      3.5420      3.6784      3.9663      4.4203      5.0569      5.8875      6.9081      8.0889    
  9.3680      10.652      11.733      12.273      12.007      10.853      8.9744      6.7639      4.7574      3.4778    
  3.2678      4.1733      5.9314      8.0636      10.034      11.404      11.941      11.649      10.730      9.5062    
  8.2436      7.0552      6.0117      5.1522      4.8402      4.2564      3.8461      3.5933      3.4846      3.5127    
  3.6787      3.9916      4.4657      5.1161      5.9518      6.9654      8.1247      9.3680      10.605      11.650    
  12.208      12.063      11.173      9.7125      8.0425      6.6162      5.8388      5.9314      6.8556      8.3307    
  9.9338      11.237      11.931      11.896      11.212      10.113      8.8799      7.6685      6.5601      5.6089    
  5.2474      4.5667      4.0583      3.7091      3.5044      3.4330      3.4904      3.6792      4.0090      4.4936    
  5.1463      5.9735      6.9654      8.0889      9.2838      10.467      11.483      12.084      12.099      11.513    
  10.493      9.3499      8.4431      8.0636      8.3308      9.1519      10.259      11.304      11.972      12.073    
  11.582      10.635      9.4655      8.2647      7.1227      6.1041      5.6999      4.9359      4.3374      3.8968    
  3.6008      3.4367      3.3957      3.4754      3.6797      4.0180      4.5030      5.1463      5.9518      6.9081    
  7.9824      9.1180      10.239      11.227      11.882      12.071      11.792      11.191      10.516      10.034    
  9.9338      10.259      10.891      11.598      12.115      12.235      11.868      11.065      9.9878      8.8271    
  7.6826      6.6240      6.1873      5.3577      4.6808      4.1560      3.7741      3.5227      3.3912      3.3732    
  3.4679      3.6798      4.0180      4.4936      5.1161      5.8875      6.7957      7.8092      8.8761      9.9288    
  10.882      11.587      11.938      11.937      11.698      11.404      11.237      11.304      11.598      12.000    
  12.325      12.392      12.089      11.404      10.436      9.3417      8.2244      7.1546      6.6988      5.8250    
  5.0850      4.4863      4.0251      3.6918      3.4756      3.3684      3.3657      3.4679      3.6797      4.0090    
  4.4657      5.0569      5.7832      6.6324      7.5754      8.5662      9.5463      10.453      11.189      11.671    
  11.895      11.941      11.931      11.972      12.115      12.325      12.497      12.501      12.230      11.647    
  10.797      9.7944      8.7338      7.6825      7.2233      6.3302      5.5462      4.8870      4.3554      3.9461    
  3.6505      3.4599      3.3684      3.3732      3.4754      3.6792      3.9916      4.4203      4.9709      5.6428    
  6.4242      7.2897      8.1993      9.1039      9.9531      10.694      11.263      11.649      11.896      12.073    
  12.235      12.392      12.501      12.482      12.253      11.771      11.051      10.168      9.1952      8.1940    
  7.7482      6.8645      6.0597      5.3572      4.7670      4.2896      3.9197      3.6505      3.4756      3.3912    
  3.3957      3.4904      3.6787      3.9663      4.3592      4.8614      5.4715      6.1792      6.9626      7.7885    
  8.6164      9.4053      10.121      10.730      11.212      11.582      11.869      12.089      12.230      12.253    
  12.104      11.746      11.177      10.442      9.5898      8.6731      8.2571      7.4161      6.6186      5.8947    
  5.2618      4.7269      4.2896      3.9461      3.6918      3.5227      3.4367      3.4330      3.5127      3.6784    
  3.9342      4.2846      4.7324      5.2759      5.9066      6.6064      7.3486      8.1006      8.8291      9.5062    
  10.113      10.635      11.065      11.404      11.647      11.771      11.746      11.542      11.152      10.594    
  9.8953      9.0999      8.7289      7.9684      7.2116      6.4938      5.8392      5.2618      4.7670      4.3554    
  4.0251      3.7741      3.6008      3.5044      3.4846      3.5420      3.6784      3.8964      4.1991      4.5885    
  5.0633      5.6166      6.2343      6.8956      7.5743      8.2436      8.8799      9.4655      9.9878      10.436    
  10.797      11.051      11.177      11.152      10.961      10.601      10.088      9.4504      9.1377      8.4981    
  7.8207      7.1427      6.4938      5.8947      5.3572      4.8870      4.4863      4.1560      3.8968      3.7091    
  3.5933      3.5495      3.5777      3.6787      3.8539      4.1055      4.4349      4.8414      5.3198      5.8597    
  6.4450      7.0552      7.6685      8.2647      8.8271      9.3417      9.7944      10.168      10.442      10.594    
  10.601      10.452      10.147      9.6996      9.4560      8.9766      8.4198      7.8207      7.2116      6.6186    
  6.0597      5.5462      5.0850      4.6808      4.3374      4.0583      3.8461      3.7020      3.6264      3.6188    
  3.6792      3.8081      4.0069      4.2769      4.6179      5.0266      5.4953      6.0117      6.5601      7.1228    
  7.6826      8.2245      8.7338      9.1952      9.5898      9.8953      10.088      10.147      10.060      9.8252    
  9.6586      9.3730      8.9766      8.4981      7.9684      7.4161      6.8645      6.3302      5.8250      5.3577    
  4.9359      4.5667      4.2564      4.0094      3.8282      3.7132      3.6640      3.6796      3.7602      3.9065    
  4.1199      4.4005      4.7464      5.1522      5.6089      6.1041      6.6240      7.1546      7.6825      8.1940    
  8.6731      9.0999      9.4504      9.6996      9.8252      9.8126      9.6587      9.5490      9.3193      8.9874    
  8.5775      8.1162      7.6282      7.1334      6.6463      6.1777      5.7362      5.3302      4.9684      4.6584    
  4.4061      4.2152      4.0870      4.0214      4.0179      4.0763      4.1970      4.3808      4.6275      4.9349    
  5.2977      5.7074      6.1531      6.6227      7.1043      7.5868      8.0587      8.5058      8.9099      9.2490    
  9.4997      9.6409      9.5490      9.6587      9.6409      9.4997      9.2490      8.9099      8.5058      8.0587    
  7.5868      7.1043      6.6227      6.1531      5.7074      5.2977      4.9349      4.6275      4.3808      4.1970    
  4.0763      4.0179      4.0214      4.0870      4.2152      4.4061      4.6584      4.9684      5.3302      5.7362    
  6.1777      6.6463      7.1334      7.6282      8.1162      8.5775      8.9874      9.3193      9.3031      9.6243    
  9.8252      9.8949      9.8341      9.6543      9.3740      9.0142      8.5950      8.1330      7.6420      7.1345    
  6.6242      6.1261      5.6563      5.2295      4.8571      4.5466      4.3015      4.1226      4.0090      3.9600    
  3.9752      4.0549      4.1992      4.4071      4.6765      5.0035      5.3835      5.8113      6.2817      6.7879    
  7.3200      7.8624      8.3927      8.8832      8.9405      9.4508      9.8613      10.147      10.294      10.302    
  10.180      9.9449      9.6172      9.2145      8.7518      8.2420      7.6982      7.1361      6.5746      6.0339    
  5.5331      5.0874      4.7069      4.3968      4.1587      3.9916      3.8941      3.8653      3.9047      4.0121    
  4.1869      4.4281      4.7339      5.1025      5.5320      6.0197      6.5605      7.1443      7.7537      8.3631    
  8.4882      9.1545      9.7517      10.243      10.601      10.811      10.871      10.791      10.589      10.283    
  9.8890      9.4186      8.8831      8.2953      7.6730      7.0389      6.4183      5.8355      5.3102      4.8558    
  4.4795      4.1834      3.9663      3.8260      3.7605      3.7684      3.8489      4.0019      4.2274      4.5257    
  4.8979      5.3448      5.8658      6.4565      7.1056      7.7928      7.9762      8.7597      9.5107      10.184    
  10.741      11.152      11.404      11.496      11.442      11.262      10.974      10.587      10.106      9.5419    
  8.9056      8.2170      7.5033      6.7961      6.1256      5.5172      4.9878      4.5465      4.1959      3.9342    
  3.7579      3.6636      3.6489      3.7127      3.8550      4.0772      4.3819      4.7726      5.2525      5.8224    
  6.4773      7.2036      7.4327      8.2936      9.1608      9.9845      10.716      11.314      11.746      11.995    
  12.077      12.025      11.867      11.614      11.258      10.785      10.194      9.5072      8.7485      7.9508    
  7.1528      6.3923      5.7002      5.0977      4.5954      4.1959      3.8964      3.6917      3.5769      3.5487    
  3.6054      3.7479      3.9791      4.3036      4.7275      5.2557      5.8891      6.6208      6.8809      7.7822    
  8.7275      9.6657      10.541      11.300      11.883      12.253      12.428      12.457      12.397      12.280    
  12.101      11.824      11.403      10.813      10.078      9.2478      8.3642      7.4746      6.6247      5.8520    
  5.1812      4.6243      4.1834      3.8539      3.6291      3.5024      3.4694      3.5287      3.6820      3.9339    
  4.2915      4.7627      5.3533      6.0630      6.3386      7.2476      8.2357      9.2532      10.240      11.132    
  11.837      12.291      12.501      12.534      12.484      12.429      12.397      12.355      12.222      11.908    
  11.362      10.598      9.6964      8.7275      7.7484      6.8136      5.9665      5.2351      4.6322      4.1587    
  3.8081      3.5716      3.4414      3.4124      3.4836      3.6579      3.9420      4.3453      4.8770      5.5427    
  5.8191      6.7074      7.7065      8.7708      9.8393      10.839      11.651      12.168      12.370      12.325    
  12.166      12.034      12.026      12.151      12.327      12.412      12.267      11.808      11.044      10.077    
  9.0265      7.9636      6.9514      6.0391      5.2574      4.6188      4.1226      3.7602      3.5208      3.3955    
  3.3789      3.4708      3.6760      4.0033      4.4641      5.0683      5.3328      6.1757      7.1573      8.2387    
  9.3607      10.448      11.366      11.955      12.142      11.972      11.598      11.226      11.045      11.155    
  11.527      12.010      12.391      12.471      12.136      11.396      10.377      9.2504      8.1119      7.0329    
  6.0673      5.2472      4.5845      4.0763      3.7116      3.4780      3.3656      3.3695      3.4908      3.7363    
  4.1173      4.6464      4.8894      5.6655      6.6032      7.6733      8.8221      9.9755      11.005      11.701    
  11.916      11.639      11.004      10.259      9.6907      9.5256      9.8482      10.567      11.446      12.188    
  12.533      12.346      11.644      10.586      9.3913      8.1883      7.0553      6.0501      5.2053      4.5308    
  4.0214      3.6640      3.4445      3.3528      3.3850      3.5438      3.8386      4.2827      4.4975      5.1891    
  6.0589      7.0895      8.2375      9.4327      10.568      11.414      11.742      11.447      10.600      9.4429    
  8.3308      7.6239      7.5693      8.2115      9.3736      10.718      11.859      12.486      12.450      11.788    
  10.698      9.4454      8.1907      7.0185      5.9888      5.1333      4.4598      3.9600      3.6188      3.4214    
  3.3578      3.4255      3.6296      3.9819      4.1641      4.7580      5.5393      6.5033      7.6203      8.8305    
  10.044      11.066      11.598      11.429      10.518      9.0408      7.3585      5.9314      5.1806      5.3487    
  6.4130      8.0909      9.9354      11.479      12.372      12.467      11.833      10.712      9.4122      8.1200    
  6.9245      5.8860      5.0343      4.3740      3.8941      3.5777      3.4096      3.3808      3.4906      3.7470    
  3.8942      4.3821      5.0593      5.9321      6.9868      8.1793      9.4326      10.612      11.411      11.518    
  10.757      9.1756      7.0652      4.9110      3.2678      2.5935      3.0965      4.6616      6.8877      9.2215    
  11.128      12.237      12.419      11.787      10.630      9.2944      7.9797      6.7772      5.7459      4.9121    
  4.2767      3.8261      3.5420      3.4096      3.4214      3.5794      3.6900      4.0682      4.6314      5.3941    
  6.3572      7.4954      8.7492      10.023      11.089      11.575      11.178      9.7821      7.5364      4.8550    
  2.3381     0.61321     0.14373      1.0734      3.1756      5.9293      8.6884      10.873      12.115      12.321    
  11.656      10.456      9.0971      7.7757      6.5827      5.5740      4.7711      4.1712      3.7579      3.5127    
  3.4214      3.4789      3.5517      3.8198      4.2649      4.9056      5.7536      6.8022      8.0137      9.3130    
  10.568      11.450      11.561      10.630      8.6173      5.7801      2.6507     -.75736E-01 -1.7306     -1.8802    
 -.47143      2.1487      5.3501      8.4182      10.757      12.024      12.180      11.444      10.198      8.8281    
  7.5157      6.3484      5.3766      4.6165      4.0609      3.6917      3.4904      3.4445      3.4780      3.6377    
  3.9654      4.4792      5.1971      6.1271      7.2534      8.5253      9.8537      11.044      11.692      11.408    
  9.9671      7.4171      4.1221     0.71602     -2.0417     -3.4798     -3.2275     -1.3406      1.7179      5.2310    
  8.4487      10.790      11.964      11.993      11.155      9.8642      8.4970      7.2093      6.0829      5.1609    
  4.4533      3.9491      3.6291      3.4754      3.4679      3.5208      3.7345      4.1226      4.7046      5.4971    
  6.5026      7.6960      9.0143      10.352      11.437      11.835      11.179      9.3056      6.3531      2.7807    
 -.70340     -3.3134     -4.4143     -3.7267     -1.4211      1.9397      5.5847      8.7657      10.948      11.912    
  11.750      10.789      9.4654      8.1152      6.8676      5.7958      4.9344      4.2870      3.8393      3.5716    
  3.5208      3.4679      3.5716      3.8393      4.2870      4.9344      5.7958      6.8676      8.1152      9.4653    
  10.789      11.750      11.912      10.948      8.7657      5.5847      1.9397     -1.4211     -3.7267     -4.4143    
 -3.3134     -.70340      2.7807      6.3531      9.3056      11.179      11.835      11.437      10.352      9.0144    
  7.6960      6.5026      5.4971      4.7046      4.1226      3.7345      3.6377      3.4780      3.4754      3.6291    
  3.9491      4.4533      5.1609      6.0829      7.2093      8.4969      9.8642      11.155      11.993      11.964    
  10.790      8.4487      5.2310      1.7178     -1.3406     -3.2275     -3.4798     -2.0418     0.71600      4.1221    
  7.4171      9.9671      11.408      11.692      11.044      9.8537      8.5254      7.2534      6.1271      5.1971    
  4.4792      3.9654      3.8198      3.5517      3.4445      3.4904      3.6917      4.0609      4.6165      5.3766    
  6.3484      7.5156      8.8280      10.198      11.444      12.180      12.024      10.757      8.4182      5.3501    
  2.1487     -.47147     -1.8802     -1.7306     -.75788E-01  2.6506      5.7800      8.6172      10.630      11.561    
  11.450      10.568      9.3130      8.0137      6.8022      5.7536      4.9056      4.2649      4.0682      3.6900    
  3.4789      3.4214      3.5127      3.7579      4.1712      4.7711      5.5740      6.5827      7.7756      9.0970    
  10.456      11.656      12.321      12.115      10.873      8.6883      5.9292      3.1756      1.0734     0.14368    
 0.61314      2.3380      4.8550      7.5364      9.7820      11.178      11.575      11.089      10.023      8.7493    
  7.4954      6.3572      5.3941      4.6313      4.3821      3.8942      3.5794      3.4214      3.4096      3.5421    
  3.8261      4.2767      4.9121      5.7459      6.7772      7.9797      9.2943      10.630      11.787      12.419    
  12.237      11.128      9.2215      6.8877      4.6615      3.0965      2.5935      3.2677      4.9109      7.0652    
  9.1756      10.757      11.518      11.411      10.612      9.4326      8.1793      6.9868      5.9321      5.0592    
  4.7580      4.1641      3.7470      3.4906      3.3808      3.4097      3.5778      3.8942      4.3741      5.0343    
  5.8860      6.9244      8.1199      9.4122      10.712      11.833      12.467      12.373      11.479      9.9354    
  8.0909      6.4130      5.3487      5.1806      5.9313      7.3584      9.0408      10.518      11.429      11.598    
  11.066      10.044      8.8305      7.6203      6.5033      5.5393      5.1891      4.4975      3.9819      3.6296    
  3.4255      3.3578      3.4214      3.6189      3.9600      4.4598      5.1333      5.9888      7.0185      8.1906    
  9.4454      10.698      11.788      12.450      12.486      11.859      10.718      9.3736      8.2115      7.5693    
  7.6239      8.3307      9.4428      10.600      11.447      11.742      11.414      10.568      9.4327      8.2375    
  7.0895      6.0589      5.6655      4.8894      4.2827      3.8386      3.5438      3.3850      3.3529      3.4445    
  3.6640      4.0215      4.5309      5.2053      6.0501      7.0553      8.1883      9.3913      10.586      11.644    
  12.346      12.533      12.188      11.446      10.567      9.8482      9.5256      9.6907      10.259      11.004    
  11.639      11.916      11.701      11.005      9.9755      8.8221      7.6733      6.6032      6.1757      5.3328    
  4.6464      4.1173      3.7363      3.4908      3.3695      3.3657      3.4781      3.7116      4.0763      4.5845    
  5.2472      6.0673      7.0329      8.1119      9.2504      10.377      11.396      12.136      12.471      12.391    
  12.010      11.527      11.155      11.045      11.226      11.598      11.972      12.142      11.955      11.366    
  10.448      9.3607      8.2387      7.1573      6.7073      5.8190      5.0682      4.4641      4.0033      3.6760    
  3.4708      3.3789      3.3955      3.5209      3.7602      4.1226      4.6188      5.2574      6.0391      6.9514    
  7.9636      9.0266      10.077      11.044      11.808      12.267      12.412      12.327      12.151      12.026    
  12.034      12.166      12.325      12.370      12.168      11.651      10.839      9.8393      8.7708      7.7065    
  7.2476      6.3386      5.5426      4.8770      4.3453      3.9420      3.6579      3.4836      3.4124      3.4414    
  3.5717      3.8081      4.1587      4.6322      5.2351      5.9665      6.8136      7.7484      8.7275      9.6964    
  10.598      11.362      11.908      12.222      12.355      12.397      12.429      12.484      12.534      12.501    
  12.291      11.837      11.132      10.240      9.2532      8.2357      7.7822      6.8809      6.0630      5.3533    
  4.7627      4.2915      3.9339      3.6820      3.5287      3.4694      3.5024      3.6291      3.8539      4.1834    
  4.6243      5.1812      5.8520      6.6247      7.4746      8.3643      9.2479      10.078      10.813      11.403    
  11.824      12.101      12.280      12.397      12.457      12.428      12.253      11.883      11.300      10.541    
  9.6657      8.7275      8.2936      7.4327      6.6208      5.8891      5.2557      4.7275      4.3036      3.9791    
  3.7479      3.6054      3.5487      3.5769      3.6917      3.8963      4.1959      4.5954      5.0977      5.7002    
  6.3923      7.1528      7.9508      8.7485      9.5072      10.194      10.785      11.258      11.614      11.867    
  12.025      12.077      11.995      11.746      11.314      10.716      9.9845      9.1608      8.7597      7.9762    