unknown system                          
   1.00000000000000     
    -2.427193    2.427193    1.336822
     2.427193   -2.427193    1.336822
     2.427193    2.427193   -1.336822
   Si
     2
Direct
  0.750000  0.250000  0.500000
  0.500000  0.500000  0.000000
 
   36   36   36
 0.97283072863E+01 0.96586479579E+01 0.94559589701E+01 0.91377131826E+01 0.87288812116E+01
 0.82570894675E+01 0.77481518047E+01 0.72233177026E+01 0.66988306233E+01 0.61873445852E+01
 0.56999404752E+01 0.52474132458E+01 0.48402207345E+01 0.44874580064E+01 0.41957503585E+01
 0.39687726642E+01 0.38075887661E+01 0.37116030554E+01 0.36797678354E+01 0.37116024575E+01
 0.38075890794E+01 0.39687757608E+01 0.41957558995E+01 0.44874625484E+01 0.48402218893E+01
 0.52474139983E+01 0.56999454787E+01 0.61873530991E+01 0.66988372155E+01 0.72233192064E+01
 0.77481498054E+01 0.82570867575E+01 0.87288795575E+01 0.91377142698E+01 0.94559632787E+01
 0.96586523044E+01 0.96586523044E+01 0.98125952153E+01 0.98252011742E+01 0.96996240314E+01
 0.94504250541E+01 0.90998726706E+01 0.86731463233E+01 0.81940393195E+01 0.76825109458E+01
 0.71545869469E+01 0.66239925121E+01 0.61041101730E+01 0.56088943180E+01 0.51522439183E+01
 0.47464070718E+01 0.44004940610E+01 0.41198638301E+01 0.39065121590E+01 0.37601554333E+01
 0.36796001208E+01 0.36639562080E+01 0.37132426840E+01 0.38281915376E+01 0.40094191111E+01
 0.42564071431E+01 0.45667446969E+01 0.49359186224E+01 0.53577282322E+01 0.58250389091E+01
 0.63302063281E+01 0.68644578081E+01 0.74161041423E+01 0.79683568282E+01 0.84980843249E+01
 0.89766334382E+01 0.93730013266E+01 0.94559632787E+01 0.98252042354E+01 0.10059762337E+02
 0.10147059690E+02 0.10087967980E+02 0.98952835363E+01 0.95897749867E+01 0.91951647416E+01
 0.87338003324E+01 0.82244492043E+01 0.76826429220E+01 0.71227451313E+01 0.65600970153E+01
 0.60117388188E+01 0.54952643631E+01 0.50265886933E+01 0.46179332973E+01 0.42769164682E+01
 0.40068780377E+01 0.38080621117E+01 0.36791716721E+01 0.36188174357E+01 0.36263709040E+01
 0.37019992643E+01 0.38460607008E+01 0.40583163266E+01 0.43374017380E+01 0.46807665223E+01
 0.50850101722E+01 0.55462214390E+01 0.60597062462E+01 0.66186195437E+01 0.72116485179E+01
 0.78206853603E+01 0.84198174597E+01 0.89766334382E+01 0.91377142698E+01 0.96996262280E+01
 0.10147060921E+02 0.10452354285E+02 0.10601117404E+02 0.10593520885E+02 0.10442313996E+02
 0.10168226637E+02 0.97943690666E+01 0.93416941628E+01 0.88271297751E+01 0.82647008669E+01
 0.76684612050E+01 0.70551746191E+01 0.64449953216E+01 0.58597397290E+01 0.53198013355E+01
 0.48413438328E+01 0.44348847279E+01 0.41054531222E+01 0.38538919205E+01 0.36786848858E+01
 0.35777233036E+01 0.35494726340E+01 0.35932885289E+01 0.37090785809E+01 0.38967778554E+01
 0.41560529018E+01 0.44863427305E+01 0.48870194793E+01 0.53571974258E+01 0.58946762255E+01
 0.64937986086E+01 0.71426503554E+01 0.78206853603E+01 0.84980843249E+01 0.87288795575E+01
 0.94504247751E+01 0.10087968257E+02 0.10601117101E+02 0.10960505644E+02 0.11151988271E+02
 0.11177418000E+02 0.11051489064E+02 0.10796702233E+02 0.10436089324E+02 0.99878032851E+01
 0.94654649317E+01 0.88799060848E+01 0.82436056159E+01 0.75742879050E+01 0.68955566591E+01
 0.62343340719E+01 0.56165622427E+01 0.50632733359E+01 0.45884628391E+01 0.41990400195E+01
 0.38963413579E+01 0.36783708352E+01 0.35420024077E+01 0.34845334877E+01 0.35043340785E+01
 0.36008082472E+01 0.37741361775E+01 0.40251629842E+01 0.43554370990E+01 0.47670527487E+01
 0.52617952249E+01 0.58392286289E+01 0.64937986086E+01 0.72116485179E+01 0.79683568282E+01
 0.82570867575E+01 0.90998708676E+01 0.98952830657E+01 0.10593520256E+02 0.11151987109E+02
 0.11541518814E+02 0.11745615782E+02 0.11771230386E+02 0.11646703891E+02 0.11404141900E+02
 0.11064801318E+02 0.10634795065E+02 0.10113040175E+02 0.95061885511E+01 0.88290892036E+01
 0.81006158326E+01 0.73486298614E+01 0.66063790073E+01 0.59065526575E+01 0.52759131823E+01
 0.47323285126E+01 0.42845707598E+01 0.39341966551E+01 0.36783778260E+01 0.35126617211E+01
 0.34329784144E+01 0.34366602930E+01 0.35227127225E+01 0.36917867730E+01 0.39461611015E+01
 0.42896338844E+01 0.47268799380E+01 0.52617952249E+01 0.58946762255E+01 0.66186195437E+01
 0.74161041423E+01 0.77481498054E+01 0.86731439506E+01 0.95897744495E+01 0.10442314545E+02
 0.11177417407E+02 0.11745614386E+02 0.12104178484E+02 0.12253116501E+02 0.12230401842E+02
 0.12088565742E+02 0.11868498487E+02 0.11582155071E+02 0.11212402186E+02 0.10730292453E+02
 0.10121271352E+02 0.94052964266E+01 0.86163890084E+01 0.77884721902E+01 0.69625499945E+01
 0.61791891816E+01 0.54715106143E+01 0.48613747553E+01 0.43591771401E+01 0.39662996695E+01
 0.36787029405E+01 0.34903483806E+01 0.33957095063E+01 0.33911753807E+01 0.34756060092E+01
 0.36504621506E+01 0.39197572564E+01 0.42896338844E+01 0.47670527487E+01 0.53571974258E+01
 0.60597062462E+01 0.68644578081E+01 0.72233192064E+01 0.81940378514E+01 0.91951636655E+01
 0.10168228170E+02 0.11051491143E+02 0.11771230406E+02 0.12253115501E+02 0.12481512405E+02
 0.12501098762E+02 0.12392440355E+02 0.12235081262E+02 0.12072719164E+02 0.11895589811E+02
 0.11648678059E+02 0.11262692847E+02 0.10693724469E+02 0.99531459842E+01 0.91038617903E+01
 0.81993003190E+01 0.72896593726E+01 0.64242372527E+01 0.56427736189E+01 0.49709236377E+01
 0.44202697125E+01 0.39915596829E+01 0.36791957785E+01 0.34753922191E+01 0.33732125906E+01
 0.33683426631E+01 0.34598680380E+01 0.36504621506E+01 0.39461611015E+01 0.43554370990E+01
 0.48870194793E+01 0.55462214390E+01 0.63302063281E+01 0.66988372155E+01 0.76825131739E+01
 0.87337995133E+01 0.97943696942E+01 0.10796705949E+02 0.11646707500E+02 0.12230403013E+02
 0.12501099012E+02 0.12497318807E+02 0.12324991336E+02 0.12115278142E+02 0.11972242838E+02
 0.11930506072E+02 0.11941441867E+02 0.11895342764E+02 0.11670678096E+02 0.11189076038E+02
 0.10452553869E+02 0.95462975321E+01 0.85662273355E+01 0.75754441674E+01 0.66323875612E+01
 0.57832367236E+01 0.50569272070E+01 0.44656420647E+01 0.40090176738E+01 0.36796283089E+01
 0.34679060477E+01 0.33656961780E+01 0.33683426631E+01 0.34756060092E+01 0.36917867730E+01
 0.40251629842E+01 0.44863427305E+01 0.50850101722E+01 0.58250389091E+01 0.61873530991E+01
 0.71545935338E+01 0.82244514373E+01 0.93416941028E+01 0.10436092094E+02 0.11404147825E+02
 0.12088570921E+02 0.12392443563E+02 0.12324993934E+02 0.11999985177E+02 0.11598223178E+02
 0.11304073248E+02 0.11236895002E+02 0.11404209435E+02 0.11697847129E+02 0.11936565396E+02
 0.11937549500E+02 0.11586911131E+02 0.10881647104E+02 0.99288190317E+01 0.88760841178E+01
 0.78092383283E+01 0.67957367165E+01 0.58875662204E+01 0.51161543203E+01 0.44935899301E+01
 0.40179455688E+01 0.36797990166E+01 0.34679060477E+01 0.33732125906E+01 0.33911753807E+01
 0.35227127225E+01 0.37741361775E+01 0.41560529018E+01 0.46807665223E+01 0.53577282322E+01
 0.56999454787E+01 0.66239991609E+01 0.76826488781E+01 0.88271318310E+01 0.99878048538E+01
 0.11064807107E+02 0.11868506762E+02 0.12235088250E+02 0.12115284522E+02 0.11598229162E+02
 0.10891455165E+02 0.10259018658E+02 0.99338155917E+01 0.10033763700E+02 0.10516025830E+02
 0.11191013230E+02 0.11791941402E+02 0.12070814323E+02 0.11882411171E+02 0.11226725450E+02
 0.10238977673E+02 0.91180174348E+01 0.79824599457E+01 0.69081326023E+01 0.59517947768E+01
 0.51463483837E+01 0.45030300964E+01 0.40179455688E+01 0.36796283089E+01 0.34753922191E+01
 0.33957095063E+01 0.34366602930E+01 0.36008082472E+01 0.38967778554E+01 0.43374017380E+01
 0.49359186224E+01 0.52474139983E+01 0.61041120457E+01 0.71227510966E+01 0.82647063922E+01
 0.94654675642E+01 0.10634799837E+02 0.11582164841E+02 0.12072729721E+02 0.11972251808E+02
 0.11304083579E+02 0.10259028399E+02 0.91518890930E+01 0.83307487211E+01 0.80636225143E+01
 0.84431148787E+01 0.93498735373E+01 0.10493260035E+02 0.11512901342E+02 0.12098716455E+02
 0.12083952911E+02 0.11482707437E+02 0.10466681868E+02 0.92838286486E+01 0.80888891181E+01
 0.69653879728E+01 0.59734793057E+01 0.51463483837E+01 0.44935899301E+01 0.40090176738E+01
 0.36791957785E+01 0.34903483806E+01 0.34329784144E+01 0.35043340785E+01 0.37090785809E+01
 0.40583163266E+01 0.45667446969E+01 0.48402218893E+01 0.56088925395E+01 0.65600993178E+01
 0.76684681461E+01 0.88799115681E+01 0.10113044477E+02 0.11212411562E+02 0.11895603773E+02
 0.11930518238E+02 0.11236905657E+02 0.99338295138E+01 0.83307612540E+01 0.68555536255E+01
 0.59313567669E+01 0.58387980024E+01 0.66161960780E+01 0.80424523669E+01 0.97124878408E+01
 0.11172961062E+02 0.12062646482E+02 0.12208083358E+02 0.11650386116E+02 0.10605359196E+02
 0.93680820226E+01 0.81247813418E+01 0.69653879728E+01 0.59517947768E+01 0.51161543203E+01
 0.44656420647E+01 0.39915596829E+01 0.36787029405E+01 0.35126617211E+01 0.34845334877E+01
 0.35932885289E+01 0.38460607008E+01 0.42564071431E+01 0.44874625484E+01 0.51522446663E+01
 0.60117386808E+01 0.70551804615E+01 0.82436140751E+01 0.95061938678E+01 0.10730299108E+02
 0.11648692321E+02 0.11941458840E+02 0.11404221799E+02 0.10033774947E+02 0.80636379580E+01
 0.59313694482E+01 0.41732895600E+01 0.32677573107E+01 0.34778395319E+01 0.47573618416E+01
 0.67638990340E+01 0.89744425815E+01 0.10853494078E+02 0.12007016159E+02 0.12273139687E+02
 0.11732968306E+02 0.10651880066E+02 0.93680820226E+01 0.80888891181E+01 0.69081326023E+01
 0.58875662204E+01 0.50569272070E+01 0.44202697125E+01 0.39662996695E+01 0.36783778260E+01
 0.35420024077E+01 0.35494726340E+01 0.37019992643E+01 0.40094191111E+01 0.41957558995E+01
 0.47464140335E+01 0.54952666823E+01 0.64449996467E+01 0.75742981079E+01 0.88290979462E+01
 0.10121275621E+02 0.11262701619E+02 0.11895360456E+02 0.11697864541E+02 0.10516036420E+02
 0.84431246988E+01 0.58388110903E+01 0.32677661679E+01 0.13580503638E+01 0.61317835843E+00
 0.12443721951E+01 0.30946574095E+01 0.56908860237E+01 0.84008573548E+01 0.10627773129E+02
 0.11968763150E+02 0.12293094650E+02 0.11732968306E+02 0.10605359196E+02 0.92838286486E+01
 0.79824599457E+01 0.67957367165E+01 0.57832367236E+01 0.49709236377E+01 0.43591771401E+01
 0.39341966551E+01 0.36783708352E+01 0.35777233036E+01 0.36263709040E+01 0.38281915376E+01
 0.39687757608E+01 0.44005048960E+01 0.50265968989E+01 0.58597444599E+01 0.68955662831E+01
 0.81006287532E+01 0.94053029052E+01 0.10693726339E+02 0.11670687586E+02 0.11936583304E+02
 0.11191027616E+02 0.93498801298E+01 0.66162015992E+01 0.34778452083E+01 0.61317916627E+00
 -.12867933454E+01 -.17306088515E+01 -.59208276424E+00 0.18438022561E+01 0.49770962855E+01
 0.80876776584E+01 0.10546501018E+02 0.11968763150E+02 0.12273139687E+02 0.11650386116E+02
 0.10466681868E+02 0.91180174348E+01 0.78092383283E+01 0.66323875612E+01 0.56427736189E+01
 0.48613747553E+01 0.42845707598E+01 0.38963413579E+01 0.36786848858E+01 0.36188174357E+01
 0.37132426840E+01 0.38075890794E+01 0.41198732592E+01 0.46179465118E+01 0.53198094875E+01
 0.62343416198E+01 0.73486434154E+01 0.86164009778E+01 0.99531472293E+01 0.11189074315E+02
 0.11937557430E+02 0.11791955235E+02 0.10493267647E+02 0.80424526311E+01 0.47573597142E+01
 0.12443657893E+01 -.17306189424E+01 -.34520129760E+01 -.34797573433E+01 -.17991723181E+01
 0.11725655383E+01 0.47268620601E+01 0.80876776584E+01 0.10627773129E+02 0.12007016159E+02
 0.12208083358E+02 0.11482707437E+02 0.10238977673E+02 0.88760841178E+01 0.75754441674E+01
 0.64242372527E+01 0.54715106143E+01 0.47323285126E+01 0.41990400195E+01 0.38538919205E+01
 0.36791716721E+01 0.36639562080E+01 0.37116024575E+01 0.39065163102E+01 0.42769302626E+01
 0.48413579359E+01 0.56165706075E+01 0.66063888600E+01 0.77884859049E+01 0.91038679516E+01
 0.10452547821E+02 0.11586905471E+02 0.12070818252E+02 0.11512906637E+02 0.97124852146E+01
 0.67638907085E+01 0.30946449405E+01 -.59210329545E+00 -.34797780914E+01 -.48715021224E+01
 -.44142789803E+01 -.22199927003E+01 0.11725655383E+01 0.49770962855E+01 0.84008573548E+01
 0.10853494078E+02 0.12062646482E+02 0.12083952911E+02 0.11226725450E+02 0.99288190317E+01
 0.85662273355E+01 0.72896593726E+01 0.61791891816E+01 0.52759131823E+01 0.45884628391E+01
 0.41054531222E+01 0.38080621117E+01 0.36796001208E+01 0.36797678354E+01 0.37601542445E+01
 0.40068867490E+01 0.44349030196E+01 0.50632883990E+01 0.59065610882E+01 0.69625592947E+01
 0.81993084632E+01 0.95462938554E+01 0.10881633934E+02 0.11882402425E+02 0.12098714221E+02
 0.11172954174E+02 0.89744273799E+01 0.56908679382E+01 0.18437792631E+01 -.17992044660E+01
 -.44143063709E+01 -.53657675983E+01 -.44142789803E+01 -.17991723181E+01 0.18438022561E+01
 0.56908860237E+01 0.89744425815E+01 0.11172961062E+02 0.12098716455E+02 0.11882411171E+02
 0.10881647104E+02 0.95462975321E+01 0.81993003190E+01 0.69625499945E+01 0.59065526575E+01
 0.50632733359E+01 0.44348847279E+01 0.40068780377E+01 0.37601554333E+01 0.37116030554E+01
 0.36795977669E+01 0.38080642267E+01 0.41054697088E+01 0.45884858619E+01 0.52759278316E+01
 0.61791950711E+01 0.72896628854E+01 0.85662244730E+01 0.99288042574E+01 0.11226707684E+02
 0.12083942421E+02 0.12062636572E+02 0.10853473549E+02 0.84008299758E+01 0.49770700225E+01
 0.11725357491E+01 -.22200293763E+01 -.44143063709E+01 -.48715021224E+01 -.34797573433E+01
 -.59208276424E+00 0.30946574095E+01 0.67638990340E+01 0.97124878408E+01 0.11512901342E+02
 0.12070814323E+02 0.11586911131E+02 0.10452553869E+02 0.91038617903E+01 0.77884721902E+01
 0.66063790073E+01 0.56165622427E+01 0.48413438328E+01 0.42769164682E+01 0.39065121590E+01
 0.38075887661E+01 0.36639577792E+01 0.36791729793E+01 0.38539038342E+01 0.41990658531E+01
 0.47323532564E+01 0.54715210819E+01 0.64242364106E+01 0.75754371676E+01 0.88760676743E+01
 0.10238953606E+02 0.11482688220E+02 0.12208071990E+02 0.12006998602E+02 0.10627741440E+02
 0.80876425547E+01 0.47268325592E+01 0.11725357491E+01 -.17992044660E+01 -.34797780914E+01
 -.34520129760E+01 -.17306088515E+01 0.12443721951E+01 0.47573618416E+01 0.80424523669E+01
 0.10493260035E+02 0.11791941402E+02 0.11937549500E+02 0.11189076038E+02 0.99531459842E+01
 0.86163890084E+01 0.73486298614E+01 0.62343340719E+01 0.53198013355E+01 0.46179332973E+01
 0.41198638301E+01 0.39687726642E+01 0.37132487386E+01 0.36188254158E+01 0.36786963024E+01
 0.38963647728E+01 0.42846013958E+01 0.48613949252E+01 0.56427754282E+01 0.66323771488E+01
 0.78092191194E+01 0.91179885077E+01 0.10466651707E+02 0.11650367377E+02 0.12273127708E+02
 0.11968740644E+02 0.10546464960E+02 0.80876425547E+01 0.49770700225E+01 0.18437792631E+01
 -.59210329545E+00 -.17306189424E+01 -.12867933454E+01 0.61317835843E+00 0.34778395319E+01
 0.66161960780E+01 0.93498735373E+01 0.11191013230E+02 0.11936565396E+02 0.11670678096E+02
 0.10693724469E+02 0.94052964266E+01 0.81006158326E+01 0.68955566591E+01 0.58597397290E+01
 0.50265886933E+01 0.44004940610E+01 0.41957503585E+01 0.38281970679E+01 0.36263855432E+01
 0.35777402613E+01 0.36783928898E+01 0.39342270791E+01 0.43592048120E+01 0.49709334404E+01
 0.57832279190E+01 0.67957167676E+01 0.79824301588E+01 0.92837906890E+01 0.10605325896E+02
 0.11732950274E+02 0.12293082397E+02 0.11968740644E+02 0.10627741440E+02 0.84008299758E+01
 0.56908679382E+01 0.30946449405E+01 0.12443657893E+01 0.61317916627E+00 0.13580503638E+01
 0.32677573107E+01 0.58387980024E+01 0.84431148787E+01 0.10516025830E+02 0.11697847129E+02
 0.11895342764E+02 0.11262692847E+02 0.10121271352E+02 0.88290892036E+01 0.75742879050E+01
 0.64449953216E+01 0.54952643631E+01 0.47464070718E+01 0.44874580064E+01 0.40094199213E+01
 0.37020126930E+01 0.35494939857E+01 0.35420263542E+01 0.36784065660E+01 0.39663304122E+01
 0.44202886632E+01 0.50569250858E+01 0.58875483110E+01 0.69081055601E+01 0.80888524054E+01
 0.93680394115E+01 0.10651845831E+02 0.11732950274E+02 0.12273127708E+02 0.12006998602E+02
 0.10853473549E+02 0.89744273799E+01 0.67638907085E+01 0.47573597142E+01 0.34778452083E+01
 0.32677661679E+01 0.41732895600E+01 0.59313567669E+01 0.80636225143E+01 0.10033763700E+02
 0.11404209435E+02 0.11941441867E+02 0.11648678059E+02 0.10730292453E+02 0.95061885511E+01
 0.82436056159E+01 0.70551746191E+01 0.60117388188E+01 0.51522439183E+01 0.48402207345E+01
 0.42564041140E+01 0.38460658524E+01 0.35933057120E+01 0.34845572037E+01 0.35126889968E+01
 0.36787339620E+01 0.39915864821E+01 0.44656511813E+01 0.51161428111E+01 0.59517712427E+01
 0.69653573075E+01 0.81247422359E+01 0.93680394115E+01 0.10605325896E+02 0.11650367377E+02
 0.12208071990E+02 0.12062636572E+02 0.11172954174E+02 0.97124852146E+01 0.80424526311E+01
 0.66162015992E+01 0.58388110903E+01 0.59313694482E+01 0.68555536255E+01 0.83307487211E+01
 0.99338155917E+01 0.11236895002E+02 0.11930506072E+02 0.11895589811E+02 0.11212402186E+02
 0.10113040175E+02 0.88799060848E+01 0.76684612050E+01 0.65600970153E+01 0.56088943180E+01
 0.52474132458E+01 0.45667400926E+01 0.40583124550E+01 0.37090844444E+01 0.35043506202E+01
 0.34330015145E+01 0.34903768638E+01 0.36792268740E+01 0.40090398695E+01 0.44935919165E+01
 0.51463319576E+01 0.59734539364E+01 0.69653573075E+01 0.80888524054E+01 0.92837906890E+01
 0.10466651707E+02 0.11482688220E+02 0.12083942421E+02 0.12098714221E+02 0.11512906637E+02
 0.10493267647E+02 0.93498801298E+01 0.84431246988E+01 0.80636379580E+01 0.83307612540E+01
 0.91518890930E+01 0.10259018658E+02 0.11304073248E+02 0.11972242838E+02 0.12072719164E+02
 0.11582155071E+02 0.10634795065E+02 0.94654649317E+01 0.82647008669E+01 0.71227451313E+01
 0.61041101730E+01 0.56999404752E+01 0.49359118915E+01 0.43373918112E+01 0.38967717201E+01
 0.36008126104E+01 0.34366746268E+01 0.33957316016E+01 0.34754214362E+01 0.36796590548E+01
 0.40179649579E+01 0.45030295421E+01 0.51463319576E+01 0.59517712427E+01 0.69081055601E+01
 0.79824301588E+01 0.91179885077E+01 0.10238953606E+02 0.11226707684E+02 0.11882402425E+02
 0.12070818252E+02 0.11791955235E+02 0.11191027616E+02 0.10516036420E+02 0.10033774947E+02
 0.99338295138E+01 0.10259028399E+02 0.10891455165E+02 0.11598223178E+02 0.12115278142E+02
 0.12235081262E+02 0.11868498487E+02 0.11064801318E+02 0.99878032851E+01 0.88271297751E+01
 0.76826429220E+01 0.66239925121E+01 0.61873445852E+01 0.53577183007E+01 0.46807530490E+01
 0.41560382714E+01 0.37741281491E+01 0.35227156503E+01 0.33911882468E+01 0.33732343950E+01
 0.34679358240E+01 0.36798296173E+01 0.40179649579E+01 0.44935919165E+01 0.51161428111E+01
 0.58875483110E+01 0.67957167676E+01 0.78092191194E+01 0.88760676743E+01 0.99288042574E+01
 0.10881633934E+02 0.11586905471E+02 0.11937557430E+02 0.11936583304E+02 0.11697864541E+02
 0.11404221799E+02 0.11236905657E+02 0.11304083579E+02 0.11598229162E+02 0.11999985177E+02
 0.12324991336E+02 0.12392440355E+02 0.12088565742E+02 0.11404141900E+02 0.10436089324E+02
 0.93416941628E+01 0.82244492043E+01 0.71545869469E+01 0.66988306233E+01 0.58250288771E+01
 0.50849960101E+01 0.44863243961E+01 0.40251458389E+01 0.36917780868E+01 0.34756084418E+01
 0.33683550737E+01 0.33657180161E+01 0.34679358240E+01 0.36796590548E+01 0.40090398695E+01
 0.44656511813E+01 0.50569250858E+01 0.57832279190E+01 0.66323771488E+01 0.75754371676E+01
 0.85662244730E+01 0.95462938554E+01 0.10452547821E+02 0.11189074315E+02 0.11670687586E+02
 0.11895360456E+02 0.11941458840E+02 0.11930518238E+02 0.11972251808E+02 0.12115284522E+02
 0.12324993934E+02 0.12497318807E+02 0.12501098762E+02 0.12230401842E+02 0.11646703891E+02
 0.10796702233E+02 0.97943690666E+01 0.87338003324E+01 0.76825109458E+01 0.72233177026E+01
 0.63302007237E+01 0.55462110498E+01 0.48870029411E+01 0.43554164235E+01 0.39461432591E+01
 0.36504535365E+01 0.34598704405E+01 0.33683550737E+01 0.33732343950E+01 0.34754214362E+01
 0.36792268740E+01 0.39915864821E+01 0.44202886632E+01 0.49709334404E+01 0.56427754282E+01
 0.64242364106E+01 0.72896628854E+01 0.81993084632E+01 0.91038679516E+01 0.99531472293E+01
 0.10693726339E+02 0.11262701619E+02 0.11648692321E+02 0.11895603773E+02 0.12072729721E+02
 0.12235088250E+02 0.12392443563E+02 0.12501099012E+02 0.12481512405E+02 0.12253116501E+02
 0.11771230386E+02 0.11051489064E+02 0.10168226637E+02 0.91951647416E+01 0.81940393195E+01
 0.77481518047E+01 0.68644573054E+01 0.60597020469E+01 0.53571874509E+01 0.47670353453E+01
 0.42896124924E+01 0.39197393652E+01 0.36504535365E+01 0.34756084418E+01 0.33911882468E+01
 0.33957316016E+01 0.34903768638E+01 0.36787339620E+01 0.39663304122E+01 0.43592048120E+01
 0.48613949252E+01 0.54715210819E+01 0.61791950711E+01 0.69625592947E+01 0.77884859049E+01
 0.86164009778E+01 0.94053029052E+01 0.10121275621E+02 0.10730299108E+02 0.11212411562E+02
 0.11582164841E+02 0.11868506762E+02 0.12088570921E+02 0.12230403013E+02 0.12253115501E+02
 0.12104178484E+02 0.11745615782E+02 0.11177418000E+02 0.10442313996E+02 0.95897749867E+01
 0.86731463233E+01 0.82570894675E+01 0.74161059867E+01 0.66186195491E+01 0.58946729992E+01
 0.52617856448E+01 0.47268623674E+01 0.42896124924E+01 0.39461432591E+01 0.36917780868E+01
 0.35227156503E+01 0.34366746268E+01 0.34330015145E+01 0.35126889968E+01 0.36784065660E+01
 0.39342270791E+01 0.42846013958E+01 0.47323532564E+01 0.52759278316E+01 0.59065610882E+01
 0.66063888600E+01 0.73486434154E+01 0.81006287532E+01 0.88290979462E+01 0.95061938678E+01
 0.10113044477E+02 0.10634799837E+02 0.11064807107E+02 0.11404147825E+02 0.11646707500E+02
 0.11771230406E+02 0.11745614386E+02 0.11541518814E+02 0.11151988271E+02 0.10593520885E+02
 0.98952835363E+01 0.90998726706E+01 0.87288812116E+01 0.79683587484E+01 0.72116495913E+01
 0.64937986307E+01 0.58392257036E+01 0.52617856448E+01 0.47670353453E+01 0.43554164235E+01
 0.40251458389E+01 0.37741281491E+01 0.36008126104E+01 0.35043506202E+01 0.34845572037E+01
 0.35420263542E+01 0.36783928898E+01 0.38963647728E+01 0.41990658531E+01 0.45884858619E+01
 0.50632883990E+01 0.56165706075E+01 0.62343416198E+01 0.68955662831E+01 0.75742981079E+01
 0.82436140751E+01 0.88799115681E+01 0.94654675642E+01 0.99878048538E+01 0.10436092094E+02
 0.10796705949E+02 0.11051491143E+02 0.11177417407E+02 0.11151987109E+02 0.10960505644E+02
 0.10601117404E+02 0.10087967980E+02 0.94504250541E+01 0.91377131826E+01 0.84980849054E+01
 0.78206862741E+01 0.71426509704E+01 0.64937986307E+01 0.58946729992E+01 0.53571874509E+01
 0.48870029411E+01 0.44863243961E+01 0.41560382714E+01 0.38967717201E+01 0.37090844444E+01
 0.35933057120E+01 0.35494939857E+01 0.35777402613E+01 0.36786963024E+01 0.38539038342E+01
 0.41054697088E+01 0.44349030196E+01 0.48413579359E+01 0.53198094875E+01 0.58597444599E+01
 0.64449996467E+01 0.70551804615E+01 0.76684681461E+01 0.82647063922E+01 0.88271318310E+01
 0.93416941028E+01 0.97943696942E+01 0.10168228170E+02 0.10442314545E+02 0.10593520256E+02
 0.10601117101E+02 0.10452354285E+02 0.10147059690E+02 0.96996240314E+01 0.94559589701E+01
 0.89766310163E+01 0.84198174311E+01 0.78206862741E+01 0.72116495913E+01 0.66186195491E+01
 0.60597020469E+01 0.55462110498E+01 0.50849960101E+01 0.46807530490E+01 0.43373918112E+01
 0.40583124550E+01 0.38460658524E+01 0.37020126930E+01 0.36263855432E+01 0.36188254158E+01
 0.36791729793E+01 0.38080642267E+01 0.40068867490E+01 0.42769302626E+01 0.46179465118E+01
 0.50265968989E+01 0.54952666823E+01 0.60117386808E+01 0.65600993178E+01 0.71227510966E+01
 0.76826488781E+01 0.82244514373E+01 0.87337995133E+01 0.91951636655E+01 0.95897744495E+01
 0.98952830657E+01 0.10087968257E+02 0.10147060921E+02 0.10059762337E+02 0.98252011742E+01
 0.96586479579E+01 0.93729960799E+01 0.89766310163E+01 0.84980849054E+01 0.79683587484E+01
 0.74161059867E+01 0.68644573054E+01 0.63302007237E+01 0.58250288771E+01 0.53577183007E+01
 0.49359118915E+01 0.45667400926E+01 0.42564041140E+01 0.40094199213E+01 0.38281970679E+01
 0.37132487386E+01 0.36639577792E+01 0.36795977669E+01 0.37601542445E+01 0.39065163102E+01
 0.41198732592E+01 0.44005048960E+01 0.47464140335E+01 0.51522446663E+01 0.56088925395E+01
 0.61041120457E+01 0.66239991609E+01 0.71545935338E+01 0.76825131739E+01 0.81940378514E+01
 0.86731439506E+01 0.90998708676E+01 0.94504247751E+01 0.96996262280E+01 0.98252042354E+01
 0.98125952153E+01 0.96586527036E+01 0.95489587015E+01 0.93193350487E+01 0.89873865298E+01
 0.85774694515E+01 0.81162042053E+01 0.76282184032E+01 0.71334021823E+01 0.66463472404E+01
 0.61776789474E+01 0.57361578510E+01 0.53302432067E+01 0.49684017956E+01 0.46583611277E+01
 0.44060832649E+01 0.42151711344E+01 0.40869958433E+01 0.40214379317E+01 0.40179204208E+01
 0.40762743598E+01 0.41970077173E+01 0.43808201903E+01 0.46275403077E+01 0.49349158417E+01
 0.52977015117E+01 0.57074298512E+01 0.61531099162E+01 0.66226571532E+01 0.71042797699E+01
 0.75868316399E+01 0.80586911154E+01 0.85057506825E+01 0.89098608256E+01 0.92490068537E+01
 0.94996877832E+01 0.96409304306E+01 0.95489621233E+01 0.96586521912E+01 0.96409264532E+01
 0.94996840751E+01 0.92490058763E+01 0.89098617717E+01 0.85057515536E+01 0.80586911857E+01
 0.75868315161E+01 0.71042809291E+01 0.66226624475E+01 0.61531223943E+01 0.57074485091E+01
 0.52977187886E+01 0.49349223240E+01 0.46275346057E+01 0.43808116478E+01 0.41970064053E+01
 0.40762803618E+01 0.40179262502E+01 0.40214400026E+01 0.40869979286E+01 0.42151760463E+01
 0.44060860187E+01 0.46583548664E+01 0.49683877076E+01 0.53302294567E+01 0.57361501253E+01
 0.61776764441E+01 0.66463467570E+01 0.71334021388E+01 0.76282181991E+01 0.81162030903E+01
 0.85774681607E+01 0.89873874788E+01 0.93193388429E+01 0.93031284655E+01 0.96242936703E+01
 0.98252040231E+01 0.98948820287E+01 0.98341442573E+01 0.96543493868E+01 0.93739813077E+01
 0.90142134058E+01 0.85950018827E+01 0.81330378429E+01 0.76420181213E+01 0.71345431744E+01
 0.66241516097E+01 0.61260811235E+01 0.56562984316E+01 0.52294765463E+01 0.48571107789E+01
 0.45466107705E+01 0.43015213690E+01 0.41225577837E+01 0.40090037051E+01 0.39599980243E+01
 0.39752430540E+01 0.40549480887E+01 0.41991918495E+01 0.44071315440E+01 0.46764826937E+01
 0.50035045094E+01 0.53834815038E+01 0.58113348539E+01 0.62817030810E+01 0.67879277622E+01
 0.73200036558E+01 0.78623575306E+01 0.83927319560E+01 0.88831536999E+01 0.89405138158E+01
 0.94507933098E+01 0.98613281570E+01 0.10147061413E+02 0.10294271736E+02 0.10301839674E+02
 0.10179690666E+02 0.99449481970E+01 0.96171710911E+01 0.92144514705E+01 0.87517776790E+01
 0.82419666423E+01 0.76981584607E+01 0.71360822068E+01 0.65745579593E+01 0.60338897911E+01
 0.55330885218E+01 0.50873693110E+01 0.47068831360E+01 0.43968418570E+01 0.41586568151E+01
 0.39915514968E+01 0.38941219642E+01 0.38653336970E+01 0.39047408651E+01 0.40121186755E+01
 0.41869367282E+01 0.44280651822E+01 0.47338566533E+01 0.51024631198E+01 0.55319535695E+01
 0.60196659337E+01 0.65604724947E+01 0.71442664973E+01 0.77536584088E+01 0.83631302467E+01
 0.84882325279E+01 0.91545278480E+01 0.97517405388E+01 0.10243175862E+02 0.10601120319E+02
 0.10810668662E+02 0.10870620190E+02 0.10791191685E+02 0.10589320462E+02 0.10283313171E+02
 0.98889581004E+01 0.94185799351E+01 0.88830597506E+01 0.82953184196E+01 0.76730378593E+01
 0.70389272928E+01 0.64183388561E+01 0.58355057440E+01 0.53101770464E+01 0.48558095841E+01
 0.44795220788E+01 0.41833744296E+01 0.39663013878E+01 0.38260457446E+01 0.37605242818E+01
 0.37683839477E+01 0.38489418334E+01 0.40019276819E+01 0.42273792048E+01 0.45257405001E+01
 0.48979107013E+01 0.53447737014E+01 0.58657735264E+01 0.64564691366E+01 0.71056101602E+01
 0.77928354782E+01 0.79762381888E+01 0.87597032023E+01 0.95107440292E+01 0.10184417448E+02
 0.10740982851E+02 0.11151994576E+02 0.11403741341E+02 0.11495796949E+02 0.11441634210E+02
 0.11262114726E+02 0.10974178627E+02 0.10586827428E+02 0.10106346412E+02 0.95418932762E+01
 0.89055597953E+01 0.82169638910E+01 0.75033364366E+01 0.67960696421E+01 0.61256495297E+01
 0.55171565353E+01 0.49877685905E+01 0.45465386592E+01 0.41959276652E+01 0.39342114589E+01
 0.37579126861E+01 0.36636174345E+01 0.36489171187E+01 0.37126682320E+01 0.38549705014E+01
 0.40771713525E+01 0.43818661304E+01 0.47725531832E+01 0.52524736945E+01 0.58223655291E+01
 0.64773272001E+01 0.72035629577E+01 0.74326887818E+01 0.82936054820E+01 0.91607614918E+01
 0.99845408077E+01 0.10715852159E+02 0.11313898121E+02 0.11745624591E+02 0.11994779139E+02
 0.12076998965E+02 0.12024675238E+02 0.11866546102E+02 0.11613513134E+02 0.11257614723E+02
 0.10784692426E+02 0.10194145214E+02 0.95071702904E+01 0.87484587909E+01 0.79508003979E+01
 0.71528201276E+01 0.63922753989E+01 0.57002019594E+01 0.50976591616E+01 0.45954205055E+01
 0.41959318937E+01 0.38963654003E+01 0.36916757230E+01 0.35769321516E+01 0.35486675079E+01
 0.36054319170E+01 0.37479379049E+01 0.39790661259E+01 0.43036347929E+01 0.47275187702E+01
 0.52556855143E+01 0.58890741237E+01 0.66207970783E+01 0.68809156253E+01 0.77822405134E+01
 0.87275161391E+01 0.96656985326E+01 0.10541100093E+02 0.11300443346E+02 0.11882665121E+02
 0.12253125083E+02 0.12427924167E+02 0.12457310290E+02 0.12396974293E+02 0.12279887929E+02
 0.12101283306E+02 0.11824061914E+02 0.11402521508E+02 0.10813306111E+02 0.10078361720E+02
 0.92478444286E+01 0.83642122241E+01 0.74745525144E+01 0.66247123236E+01 0.58519936653E+01
 0.51811872052E+01 0.46243480619E+01 0.41833824746E+01 0.38539156000E+01 0.36290700549E+01
 0.35023520867E+01 0.34693897025E+01 0.35287194594E+01 0.36820018523E+01 0.39339097799E+01
 0.42915171654E+01 0.47627195150E+01 0.53533277474E+01 0.60630147252E+01 0.63386330326E+01
 0.72476382590E+01 0.82357075793E+01 0.92531797165E+01 0.10240356573E+02 0.11132288999E+02
 0.11837015583E+02 0.12291016366E+02 0.12501105106E+02 0.12533970025E+02 0.12483524655E+02
 0.12428505492E+02 0.12397278045E+02 0.12355289567E+02 0.12221581538E+02 0.11907651392E+02
 0.11361607254E+02 0.10598256982E+02 0.96963652319E+01 0.87274684710E+01 0.77484084419E+01
 0.68135761383E+01 0.59664535347E+01 0.52350998895E+01 0.46322345251E+01 0.41586604267E+01
 0.38080780772E+01 0.35716474006E+01 0.34414234087E+01 0.34124287713E+01 0.34835816023E+01
 0.36578775370E+01 0.39420280276E+01 0.43452992048E+01 0.48770351501E+01 0.55426579701E+01
 0.58190597825E+01 0.67073522007E+01 0.77064958316E+01 0.87708413208E+01 0.98393100570E+01
 0.10839389097E+02 0.11651267164E+02 0.12168341373E+02 0.12369742651E+02 0.12324996765E+02