    2    2   15    1
  0.1575115E+02  0.3683697E-09  0.3683697E-09  0.3683697E-09  0.5000000E-15
  1.000000000000000E-004
  CAR 
 unknown system                          
      8     56      8
 
  0.6250000E-01  0.6250000E-01  0.6250000E-01  0.1562500E-01
    1       -4.211115   1.000000
    2        4.467123   1.000000
    3        6.731069   1.000000
    4        8.267109   0.999338
    5       11.885873   0.000000
    6       13.768584   0.000000
    7       14.334338   0.000000
    8       16.194078   0.000000
 
  0.1875000E+00  0.6250000E-01  0.6250000E-01  0.3125000E-01
    1       -2.991188   1.000000
    2        4.221109   1.000000
    3        7.031511   1.000000
    4        9.199151   0.000363
    5       10.864715   0.000000
    6       10.976488   0.000000
    7       13.727677   0.000000
    8       14.493894   0.000000
 
  0.3125000E+00  0.6250000E-01  0.6250000E-01  0.3125000E-01
    1       -0.988026   1.000000
    2        4.521286   1.000000
    3        5.588875   1.000000
    4        7.301254   1.000000
    5        8.659714   0.668142
    6       11.781470   0.000000
    7       13.258821   0.000000
    8       13.638095   0.000000
 
  0.4375000E+00  0.6250000E-01  0.6250000E-01  0.1562500E-01
    1        1.357565   1.000000
    2        2.264756   1.000000
    3        5.821419   1.000000
    4        6.206239   1.000000
    5        8.543572   0.895448
    6       10.611685   0.000000
    7       13.160556   0.000000
    8       14.098130   0.000000
 
 -0.6250000E-01  0.6250000E-01  0.6250000E-01  0.7812500E-02
    1       -4.620154   1.000000
    2        5.077187   1.000000
    3        5.921764   1.000000
    4        7.936109   1.000000
    5       11.013982   0.000000
    6       14.916797   0.000000
    7       17.411538   0.000000
    8       17.504484   0.000000
 
  0.1875000E+00  0.1875000E+00  0.6250000E-01  0.1562500E-01
    1       -1.171531   1.000000
    2        4.509470   1.000000
    3        6.477968   1.000000
    4        6.669189   1.000000
    5        9.627425   0.000000
    6       11.638023   0.000000
    7       12.921764   0.000000
    8       13.113811   0.000000
 
  0.3125000E+00  0.1875000E+00  0.6250000E-01  0.3125000E-01
    1        1.301757   1.000000
    2        2.999062   1.000000
    3        4.349862   1.000000
    4        5.825540   1.000000
    5        9.886462   0.000000
    6       11.621564   0.000000
    7       12.647816   0.000000
    8       14.694413   0.000000
 
  0.4375000E+00  0.1875000E+00  0.6250000E-01  0.3125000E-01
    1       -0.070932   1.000000
    2        2.772297   1.000000
    3        4.948806   1.000000
    4        7.305525   1.000000
    5        9.128187   0.002002
    6       11.792271   0.000000
    7       13.714377   0.000000
    8       14.612040   0.000000
 
 -0.4375000E+00  0.1875000E+00  0.6250000E-01  0.3125000E-01
    1       -2.240986   1.000000
    2        2.149493   1.000000
    3        7.578304   1.000000
    4        8.857287   0.167957
    5       10.391715   0.000000
    6       11.522419   0.000000
    7       12.729837   0.000000
    8       15.080073   0.000000
 
 -0.3125000E+00  0.1875000E+00  0.6250000E-01  0.1562500E-01
    1       -3.643463   1.000000
    2        2.239006   1.000000
    3        7.239170   1.000000
    4        9.189021   0.000470
    5       12.184787   0.000000
    6       13.698335   0.000000
    7       14.243501   0.000000
    8       14.887353   0.000000
 
 -0.1875000E+00  0.1875000E+00  0.6250000E-01  0.1562500E-01
    1       -4.240661   1.000000
    2        3.054943   1.000000
    3        6.040111   1.000000
    4        9.171073   0.000734
    5       12.839166   0.000000
    6       12.988617   0.000000
    7       15.931070   0.000000
    8       17.292134   0.000000
 
 -0.6250000E-01  0.1875000E+00  0.6250000E-01  0.1562500E-01
    1       -4.021846   1.000000
    2        4.187748   1.000000
    3        5.402097   1.000000
    4        9.754849   0.000000
    5       12.611932   0.000000
    6       12.753536   0.000000
    7       13.793163   0.000000
    8       15.788240   0.000000
 
  0.3125000E+00  0.3125000E+00  0.6250000E-01  0.1562500E-01
    1        1.161886   1.000000
    2        1.227440   1.000000
    3        4.756627   1.000000
    4        7.248268   1.000000
    5        9.867926   0.000000
    6       10.698010   0.000000
    7       14.750011   0.000000
    8       15.604701   0.000000
 
  0.4375000E+00  0.3125000E+00  0.6250000E-01  0.3125000E-01
    1       -1.123989   1.000000
    2        0.347529   1.000000
    3        8.107465   0.999993
    4        8.714849   0.517916
    5       10.037388   0.000000
    6       11.435698   0.000000
    7       12.542117   0.000000
    8       13.936866   0.000000
 
 -0.4375000E+00  0.3125000E+00  0.6250000E-01  0.1562500E-01
    1       -2.702311   1.000000
    2        0.260631   1.000000
    3        8.077602   0.999997
    4       10.153367   0.000000
    5       10.671729   0.000000
    6       12.758800   0.000000
    7       13.813042   0.000000
    8       13.894885   0.000000
 
 -0.3125000E+00  0.3125000E+00  0.6250000E-01  0.1562500E-01
    1       -3.484601   1.000000
    2        0.949371   1.000000
    3        6.726361   1.000000
    4       10.109252   0.000000
    5       10.860853   0.000000
    6       14.205829   0.000000
    7       15.899683   0.000000
    8       16.985101   0.000000
 
 -0.1875000E+00  0.3125000E+00  0.6250000E-01  0.3125000E-01
    1       -3.455539   1.000000
    2        2.364700   1.000000
    3        5.525437   1.000000
    4       10.704789   0.000000
    5       11.100761   0.000000
    6       13.011136   0.000000
    7       14.780741   0.000000
    8       15.700325   0.000000
 
 -0.6250000E-01  0.3125000E+00  0.6250000E-01  0.1562500E-01
    1       -2.616409   1.000000
    2        4.050097   1.000000
    3        5.408369   1.000000
    4        8.500251   0.940898
    5       11.138588   0.000000
    6       12.694604   0.000000
    7       13.365220   0.000000
    8       13.708788   0.000000
 
  0.4375000E+00  0.4375000E+00  0.6250000E-01  0.7812500E-02
    1       -1.396068   1.000000
    2       -1.396068   1.000000
    3        9.225107   0.000183
    4        9.225107   0.000183
    5       11.406594   0.000000
    6       11.406595   0.000000
    7       13.612297   0.000000
    8       13.612298   0.000000
 
 -0.4375000E+00  0.4375000E+00  0.6250000E-01  0.1562500E-01
    1       -2.358326   1.000000
    2       -0.873134   1.000000
    3        7.772108   1.000000
    4        9.157357   0.001021
    5       11.222724   0.000000
    6       12.598014   0.000000
    7       16.684028   0.000000
    8       16.782723   0.000000
 
 -0.3125000E+00  0.4375000E+00  0.6250000E-01  0.3125000E-01
    1       -2.517074   1.000000
    2        0.428754   1.000000
    3        6.361937   1.000000
    4        9.099783   0.003715
    5       11.453180   0.000000
    6       12.937844   0.000000
    7       14.884562   0.000000
    8       15.402769   0.000000
 
 -0.1875000E+00  0.4375000E+00  0.6250000E-01  0.3125000E-01
    1       -1.870457   1.000000
    2        2.435930   1.000000
    3        5.618678   1.000000
    4        7.860219   1.000000
    5        9.721905   0.000000
    6       12.551433   0.000000
    7       14.050020   0.000000
    8       15.390329   0.000000
 
 -0.6250000E-01  0.4375000E+00  0.6250000E-01  0.1562500E-01
    1       -0.440459   1.000000
    2        4.097106   1.000000
    3        5.238549   1.000000
    4        6.027594   1.000000
    5        9.193106   0.000424
    6       11.597888   0.000000
    7       11.928081   0.000000
    8       15.233969   0.000000
 
 -0.4375000E+00 -0.4375000E+00  0.6250000E-01  0.1562500E-01
    1       -1.219211   1.000000
    2       -1.212750   1.000000
    3        7.564420   1.000000
    4        7.576839   1.000000
    5       11.543335   0.000000
    6       13.447017   0.000000
    7       14.290437   0.000000
    8       14.887657   0.000000
 
 -0.3125000E+00 -0.4375000E+00  0.6250000E-01  0.3125000E-01
    1       -0.761793   1.000000
    2        0.691877   1.000000
    3        6.521837   1.000000
    4        7.439095   1.000000
    5        8.297193   0.998642
    6       12.202062   0.000000
    7       15.144634   0.000000
    8       16.456552   0.000000
 
 -0.1875000E+00 -0.4375000E+00  0.6250000E-01  0.3125000E-01
    1        0.459788   1.000000
    2        3.089595   1.000000
    3        4.244874   1.000000
    4        6.463459   1.000000
    5        8.698771   0.563011
    6       10.642097   0.000000
    7       13.142764   0.000000
    8       16.544463   0.000000
 
 -0.6250000E-01 -0.4375000E+00  0.6250000E-01  0.1562500E-01
    1        0.948955   1.000000
    2        2.674147   1.000000
    3        6.273810   1.000000
    4        7.000951   1.000000
    5        7.629842   1.000000
    6       10.225828   0.000000
    7       11.687445   0.000000
    8       15.441166   0.000000
 
 -0.3125000E+00 -0.3125000E+00  0.6250000E-01  0.1562500E-01
    1        1.599841   1.000000
    2        1.771852   1.000000
    3        3.946429   1.000000
    4        7.337995   1.000000
    5        7.746063   1.000000
    6       10.264162   0.000000
    7       14.998734   0.000000
    8       15.675458   0.000000
 
 -0.1875000E+00 -0.3125000E+00  0.6250000E-01  0.3125000E-01
    1        0.633997   1.000000
    2        3.676465   1.000000
    3        5.021355   1.000000
    4        7.198337   1.000000
    5        8.312673   0.998066
    6       10.126178   0.000000
    7       11.712213   0.000000
    8       14.128312   0.000000
 
 -0.6250000E-01 -0.3125000E+00  0.6250000E-01  0.1562500E-01
    1       -1.542721   1.000000
    2        5.870595   1.000000
    3        6.871286   1.000000
    4        7.243195   1.000000
    5        8.492352   0.947192
    6       10.957563   0.000000
    7       11.716279   0.000000
    8       13.370148   0.000000
 
 -0.1875000E+00 -0.1875000E+00  0.6250000E-01  0.1562500E-01
    1       -1.728290   1.000000
    2        6.501168   1.000000
    3        7.164183   1.000000
    4        7.456839   1.000000
    5        8.824198   0.233217
    6       10.503746   0.000000
    7       11.657753   0.000000
    8       11.882972   0.000000
 
 -0.6250000E-01 -0.1875000E+00  0.6250000E-01  0.1562500E-01
    1       -3.367793   1.000000
    2        6.188165   1.000000
    3        6.925749   1.000000
    4        8.789468   0.314651
    5       10.925257   0.000000
    6       11.359651   0.000000
    7       12.127432   0.000000
    8       13.879201   0.000000
 
 -0.6250000E-01 -0.6250000E-01  0.6250000E-01  0.3906250E-02
    1       -4.400821   1.000000
    2        6.561015   1.000000
    3        6.561016   1.000000
    4        6.854764   1.000000
    5       10.767293   0.000000
    6       14.568575   0.000000
    7       14.681435   0.000000
    8       16.563642   0.000000
 
  0.1875000E+00  0.1875000E+00  0.1875000E+00  0.1562500E-01
    1       -0.250014   1.000000
    2        2.629245   1.000000
    3        6.045190   1.000000
    4        6.133532   1.000000
    5       10.620954   0.000000
    6       12.475775   0.000000
    7       13.697794   0.000000
    8       14.141568   0.000000
 
  0.3125000E+00  0.1875000E+00  0.1875000E+00  0.1562500E-01
    1        2.066378   1.000000
    2        2.808816   1.000000
    3        3.837514   1.000000
    4        4.482655   1.000000
    5       11.551355   0.000000
    6       13.467037   0.000000
    7       13.780488   0.000000
    8       13.975204   0.000000
 
 -0.1875000E+00  0.1875000E+00  0.1875000E+00  0.7812500E-02
    1       -3.862956   1.000000
    2        2.880740   1.000000
    3        4.293063   1.000000
    4       10.712889   0.000000
    5       11.300255   0.000000
    6       14.063797   0.000000
    7       16.324339   0.000000
    8       16.851295   0.000000
 
  0.3125000E+00  0.3125000E+00  0.1875000E+00  0.7812500E-02
    1        1.024730   1.000000
    2        1.024730   1.000000
    3        5.923892   1.000000
    4        5.923892   1.000000
    5       11.873551   0.000000
    6       11.873553   0.000000
    7       13.691062   0.000000
    8       13.691068   0.000000
 
 -0.3125000E+00  0.3125000E+00  0.1875000E+00  0.1562500E-01
    1       -3.110940   1.000000
    2        1.240764   1.000000
    3        4.516873   1.000000
    4        8.678915   0.617534
    5       12.638411   0.000000
    6       15.552431   0.000000
    7       16.151405   0.000000
    8       16.936940   0.000000
 
 -0.1875000E+00  0.3125000E+00  0.1875000E+00  0.1562500E-01
    1       -2.893732   1.000000
    2        2.344015   1.000000
    3        3.846100   1.000000
    4        8.835596   0.209289
    5       11.437211   0.000000
    6       14.086755   0.000000
    7       16.087537   0.000000
    8       16.422975   0.000000
 
 -0.4375000E+00  0.4375000E+00  0.1875000E+00  0.1562500E-01
    1       -1.992556   1.000000
    2       -0.524813   1.000000
    3        5.529228   1.000000
    4        6.934069   1.000000
    5       13.684937   0.000000
    6       14.686527   0.000000
    7       16.254005   0.000000
    8       16.639402   0.000000
 
 -0.3125000E+00  0.4375000E+00  0.1875000E+00  0.3125000E-01
    1       -1.964591   1.000000
    2        0.896658   1.000000
    3        4.211892   1.000000
    4        6.958574   1.000000
    5       11.075262   0.000000
    6       15.402204   0.000000
    7       16.468781   0.000000
    8       17.921792   0.000000
 
 -0.1875000E+00  0.4375000E+00  0.1875000E+00  0.1562500E-01
    1       -1.134730   1.000000
    2        2.578098   1.000000
    3        4.121757   1.000000
    4        7.054176   1.000000
    5        7.959047   1.000000
    6       13.801290   0.000000
    7       15.202403   0.000000
    8       16.559202   0.000000
 
 -0.4375000E+00 -0.4375000E+00  0.1875000E+00  0.1562500E-01
    1       -0.690741   1.000000
    2       -0.677054   1.000000
    3        5.380476   1.000000
    4        5.402021   1.000000
    5       10.930126   0.000000
    6       16.074882   0.000000
    7       16.732684   0.000000
    8       17.055252   0.000000
 
 -0.3125000E+00 -0.4375000E+00  0.1875000E+00  0.3125000E-01
    1       -0.049165   1.000000
    2        1.335125   1.000000
    3        4.626199   1.000000
    4        5.895956   1.000000
    5        7.082815   1.000000
    6       13.982990   0.000000
    7       16.741617   0.000000
    8       17.794398   0.000000
 
 -0.1875000E+00 -0.4375000E+00  0.1875000E+00  0.1562500E-01
    1        1.309214   1.000000
    2        3.043886   1.000000
    3        4.199623   1.000000
    4        5.110491   1.000000
    5        7.308792   1.000000
    6       11.764108   0.000000
    7       13.078242   0.000000
    8       16.713864   0.000000
 
 -0.3125000E+00 -0.3125000E+00  0.1875000E+00  0.1562500E-01
    1        2.154912   1.000000
    2        2.618062   1.000000
    3        3.676737   1.000000
    4        5.805934   1.000000
    5        5.921291   1.000000
    6       12.008956   0.000000
    7       14.461249   0.000000
    8       15.282507   0.000000
 
 -0.1875000E+00 -0.3125000E+00  0.1875000E+00  0.1562500E-01
    1        0.285448   1.000000
    2        4.674780   1.000000
    3        5.607722   1.000000
    4        6.672308   1.000000
    5        7.476008   1.000000
    6       10.516750   0.000000
    7       11.560828   0.000000
    8       13.065499   0.000000
 
 -0.1875000E+00 -0.1875000E+00  0.1875000E+00  0.3906250E-02
    1       -1.914473   1.000000
    2        7.848098   1.000000
    3        7.848099   1.000000
    4        7.943841   1.000000
    5        8.167127   0.999955
    6        9.483289   0.000000
    7       11.376614   0.000000
    8       11.376617   0.000000
 
 -0.3125000E+00  0.3125000E+00  0.3125000E+00  0.7812500E-02
    1       -2.368663   1.000000
    2        1.386683   1.000000
    3        2.964722   1.000000
    4        6.609742   1.000000
    5       14.298533   0.000000
    6       15.181439   0.000000
    7       16.760930   0.000000
    8       18.163974   0.000000
 
 -0.4375000E+00  0.4375000E+00  0.3125000E+00  0.1562500E-01
    1       -1.272303   1.000000
    2        0.126560   1.000000
    3        3.490761   1.000000
    4        4.853237   1.000000
    5       14.629290   0.000000
    6       14.817679   0.000000
    7       17.741409   0.000000
    8       18.812776   0.000000
 
 -0.3125000E+00  0.4375000E+00  0.3125000E+00  0.1562500E-01
    1       -1.057988   1.000000
    2        1.219742   1.000000
    3        2.827510   1.000000
    4        5.051555   1.000000
    5       10.620365   0.000000
    6       17.576007   0.000000
    7       17.925028   0.000000
    8       18.939453   0.000000
 
 -0.4375000E+00 -0.4375000E+00  0.3125000E+00  0.1562500E-01
    1        0.139777   1.000000
    2        0.163513   1.000000
    3        3.513222   1.000000
    4        3.527797   1.000000
    5       10.459427   0.000000
    6       17.816492   0.000000
    7       19.089935   0.000000
    8       19.686106   0.000000
 
 -0.3125000E+00 -0.4375000E+00  0.3125000E+00  0.1562500E-01
    1        0.961660   1.000000
    2        1.834128   1.000000
    3        3.444216   1.000000
    4        4.286866   1.000000
    5        6.652135   1.000000
    6       15.661471   0.000000
    7       16.878879   0.000000
    8       18.068491   0.000000
 
 -0.3125000E+00 -0.3125000E+00  0.3125000E+00  0.3906250E-02
    1        2.372673   1.000000
    2        3.337477   1.000000
    3        4.074888   1.000000
    4        4.787273   1.000000
    5        4.787274   1.000000
    6       13.748181   0.000000
    7       14.279335   0.000000
    8       14.279340   0.000000
 
 -0.4375000E+00  0.4375000E+00  0.4375000E+00  0.7812500E-02
    1       -0.248095   1.000000
    2        0.631362   1.000000
    3        2.273056   1.000000
    4        3.140615   1.000000
    5       14.530215   0.000000
    6       14.568228   0.000000
    7       19.992777   0.000000
    8       20.764418   0.000000
 
 -0.4375000E+00 -0.4375000E+00  0.4375000E+00  0.3906250E-02
    1        0.822812   1.000000
    2        0.861360   1.000000
    3        2.480580   1.000000
    4        2.480580   1.000000
    5       10.295609   0.000000
    6       18.331388   0.000000
    7       20.270200   0.000000
    8       20.308123   0.000000
