       N       E                     dE             d eps       ncg     rms          rms(c)
DAV:   1     0.114682426792E+01    0.11468E+01   -0.28195E+03   912   0.609E+02
DAV:   2    -0.101367726745E+02   -0.11284E+02   -0.10949E+02  1384   0.647E+01
DAV:   3    -0.102697691371E+02   -0.13300E+00   -0.13175E+00  1200   0.846E+00
DAV:   4    -0.102700630207E+02   -0.29388E-03   -0.29388E-03  1320   0.396E-01
DAV:   5    -0.102700634300E+02   -0.40928E-06   -0.41020E-06  1256   0.111E-02    0.154E+00
DAV:   6    -0.102636631790E+02    0.64003E-02   -0.35990E-03  1160   0.401E-01    0.958E-01
DAV:   7    -0.102591594255E+02    0.45038E-02   -0.94071E-03  1144   0.675E-01    0.503E-02
DAV:   8    -0.102591077012E+02    0.51724E-04   -0.37506E-04   608   0.141E-01
   1 F= -.10259108E+02 E0= -.10248897E+02  d E =-.102591E+02
