       N       E                     dE             d eps       ncg     rms          rms(c)
DAV:   1     0.211933474269E+01    0.21193E+01   -0.24541E+03   576   0.514E+02
DAV:   2    -0.108539044117E+02   -0.12973E+02   -0.12254E+02   864   0.674E+01
DAV:   3    -0.110164099143E+02   -0.16251E+00   -0.16251E+00   720   0.947E+00
DAV:   4    -0.110169268340E+02   -0.51692E-03   -0.51692E-03   888   0.578E-01
DAV:   5    -0.110169271345E+02   -0.30045E-06   -0.30069E-06   720   0.127E-02    0.301E+00
DAV:   6    -0.108922237401E+02    0.12470E+00   -0.82393E-02   672   0.150E+00    0.178E+00
DAV:   7    -0.108352499607E+02    0.56974E-01   -0.15129E-01   696   0.215E+00    0.154E-01
DAV:   8    -0.108365726602E+02   -0.13227E-02   -0.41814E-03   624   0.480E-01    0.248E-02
DAV:   9    -0.108366634853E+02   -0.90825E-04   -0.96398E-05   440   0.794E-02
   1 F= -.10836663E+02 E0= -.10836579E+02  d E =-.108367E+02
