    2    2   15    1
  0.1529437E+02  0.3691622E-09  0.3691622E-09  0.3691622E-09  0.5000000E-15
  1.000000000000000E-004
  CAR 
 unknown system                          
      8     11      8
 
  0.1250000E+00  0.1250000E+00  0.1250000E+00  0.1250000E+00
    1       -2.861371   1.000000
    2        3.552023   1.000000
    3        7.601484   1.000000
    4        8.630368   0.549707
    5       10.255651   0.000000
    6       11.565636   0.000000
    7       14.871613   0.000000
    8       15.012945   0.000000
 
  0.3750000E+00  0.1250000E+00  0.1250000E+00  0.1250000E+00
    1        0.711706   1.000000
    2        2.046020   1.000000
    3        4.318355   1.000000
    4        5.534449   1.000000
    5       10.259059   0.000000
    6       12.443921   0.000000
    7       14.045969   0.000000
    8       14.701492   0.000000
 
 -0.1250000E+00  0.1250000E+00  0.1250000E+00  0.6250000E-01
    1       -4.300194   1.000000
    2        5.016404   1.000000
    3        5.703634   1.000000
    4       11.312648   0.000000
    5       13.172998   0.000000
    6       13.234194   0.000000
    7       15.010500   0.000000
    8       16.252640   0.000000
 
  0.3750000E+00  0.3750000E+00  0.1250000E+00  0.6250000E-01
    1       -0.399180   1.000000
    2       -0.399176   1.000000
    3        7.613427   1.000000
    4        7.613436   1.000000
    5       12.009764   0.000000
    6       12.009785   0.000000
    7       13.853565   0.000000
    8       13.853580   0.000000
 
 -0.3750000E+00  0.3750000E+00  0.1250000E+00  0.1250000E+00
    1       -2.631328   1.000000
    2        0.647300   1.000000
    3        6.933206   1.000000
    4        9.813461   0.000000
    5       12.861479   0.000000
    6       13.778228   0.000000
    7       14.744238   0.000000
    8       16.706137   0.000000
 
 -0.1250000E+00  0.3750000E+00  0.1250000E+00  0.1250000E+00
    1       -2.039141   1.000000
    2        3.784174   1.000000
    3        4.845175   1.000000
    4        6.668547   1.000000
    5       10.442866   0.000000
    6       12.978517   0.000000
    7       13.491822   0.000000
    8       16.300745   0.000000
 
 -0.3750000E+00 -0.3750000E+00  0.1250000E+00  0.1250000E+00
    1        0.318309   1.000000
    2        0.451914   1.000000
    3        5.222116   1.000000
    4        6.820503   1.000000
    5        7.539392   1.000000
    6       12.260170   0.000000
    7       17.681173   0.000000
    8       17.799150   0.000000
 
 -0.1250000E+00 -0.3750000E+00  0.1250000E+00  0.1250000E+00
    1       -0.351731   1.000000
    2        3.218043   1.000000
    3        6.183972   1.000000
    4        6.234721   1.000000
    5        8.415014   0.950293
    6       10.820469   0.000000
    7       11.022118   0.000000
    8       15.798225   0.000000
 
 -0.1250000E+00 -0.1250000E+00  0.1250000E+00  0.3125000E-01
    1       -3.691980   1.000000
    2        7.560148   1.000000
    3        7.560157   1.000000
    4        9.704233   0.000000
    5       10.371784   0.000000
    6       10.667716   0.000000
    7       12.199189   0.000000
    8       12.953606   0.000000
 
 -0.3750000E+00  0.3750000E+00  0.3750000E+00  0.6250000E-01
    1       -0.992839   1.000000
    2        1.806461   1.000000
    3        2.805738   1.000000
    4        5.510119   1.000000
    5       12.147542   0.000000
    6       12.235292   0.000000
    7       20.300863   0.000000
    8       20.674222   0.000000
 
 -0.3750000E+00 -0.3750000E+00  0.3750000E+00  0.3125000E-01
    1        1.900699   1.000000
    2        2.503135   1.000000
    3        3.374224   1.000000
    4        3.374228   1.000000
    5        5.484573   1.000000
    6       16.303879   0.000000
    7       16.972379   0.000000
    8       16.972406   0.000000
