    2    2   15    1
  0.2001288E+02  0.3839590E-09  0.3839590E-09  0.3839590E-09  0.5000000E-15
  1.000000000000000E-004
  CAR 
 unknown system                          
      8      4      8
 
  0.0000000E+00  0.0000000E+00  0.0000000E+00  0.3703704E-01
    1       -6.044993   1.000000
    2        5.936756   0.989487
    3        5.936759   0.989486
    4        5.936759   0.989486
    5        8.459457   0.000000
    6        8.459460   0.000000
    7        8.459460   0.000000
    8        9.321552   0.000000
 
  0.3333333E+00  0.6723763E-17  0.1473614E-18  0.2962963E+00
    1       -4.664607   1.000000
    2        0.584694   1.000000
    3        4.927435   1.000000
    4        4.927436   1.000000
    5        7.685788   0.000000
    6        9.400811   0.000000
    7        9.400818   0.000000
    8       13.785548   0.000000
 
  0.3333333E+00  0.3333333E+00  0.1682863E-16  0.2222222E+00
    1       -4.136483   1.000000
    2        0.922755   1.000000
    3        3.498876   1.000000
    4        3.498877   1.000000
    5        6.624910   0.005257
    6        7.883336   0.000000
    7       13.186780   0.000000
    8       13.186783   0.000000
 
 -0.3333333E+00  0.3333333E+00  0.1344753E-16  0.4444444E+00
    1       -2.770490   1.000000
    2       -0.843494   1.000000
    3        1.490298   1.000000
    4        3.807347   1.000000
    5        7.463165   0.000000
    6       11.715932   0.000000
    7       12.381549   0.000000
    8       13.005246   0.000000
