<?xml version="1.0" encoding="ISO-8859-1"?>
<modeling>
 <generator>
  <i name="program" type="string">vasp </i>
  <i name="version" type="string">5.4.4.18Apr17-6-g9f103f2a35  </i>
  <i name="subversion" type="string">(build Dec 09 2018 21:25:21) complex            parallel </i>
  <i name="platform" type="string">IFC18.0.1.163_CrayMPICH7.7.0_MKL18.0.1.163 </i>
  <i name="date" type="string">2019 03 20 </i>
  <i name="time" type="string">10:05:47 </i>
 </generator>
 <incar>
  <i type="string" name="PREC">normal</i>
  <i type="int" name="IBRION">     2</i>
  <i name="EDIFF">      0.00040000</i>
  <i name="EDIFFG">     -0.01000000</i>
  <i type="int" name="NSW">    15</i>
  <i type="int" name="ISIF">     3</i>
  <i name="ENCUT">    350.00000000</i>
  <i type="int" name="NBANDS">     8</i>
  <i type="logical" name="LREAL"> F  </i>
  <i type="int" name="ISMEAR">     0</i>
  <i name="SIGMA">      0.20000000</i>
  <v type="int" name="KPOINT_BSE">    -1     0     0     0</v>
 </incar>
 <structure name="primitive_cell" >
  <crystal>
   <varray name="basis" >
    <v>       0.00000000       2.71500000       2.71500000 </v>
    <v>       2.71500000       0.00000000       2.71500000 </v>
    <v>       2.71500000       2.71500000       0.00000000 </v>
   </varray>
   <i name="volume">     40.02575175 </i>
   <varray name="rec_basis" >
    <v>      -0.18416206       0.18416206       0.18416206 </v>
    <v>       0.18416206      -0.18416206       0.18416206 </v>
    <v>       0.18416206       0.18416206      -0.18416206 </v>
   </varray>
  </crystal>
  <varray name="positions" >
   <v>      -0.50000000      -0.50000000      -0.50000000 </v>
   <v>      -0.25000000      -0.25000000      -0.25000000 </v>
  </varray>
 </structure>
 <varray name="primitive_index" >
  <v type="int" >        1 </v>
  <v type="int" >        2 </v>
 </varray>
 <kpoints>
  <generation param="Monkhorst-Pack">
   <v type="int" name="divisions">       3        3        3 </v>
   <v name="usershift">      0.00000000       0.00000000       0.00000000 </v>
   <v name="genvec1">      0.33333333      -0.00000000       0.00000000 </v>
   <v name="genvec2">     -0.00000000       0.33333333      -0.00000000 </v>
   <v name="genvec3">      0.00000000       0.00000000       0.33333333 </v>
   <v name="shift">      0.00000000       0.00000000       0.00000000 </v>
  </generation>
  <varray name="kpointlist" >
   <v>       0.00000000       0.00000000       0.00000000 </v>
   <v>       0.33333333       0.00000000       0.00000000 </v>
   <v>       0.33333333       0.33333333       0.00000000 </v>
   <v>      -0.33333333       0.33333333       0.00000000 </v>
  </varray>
  <varray name="weights" >
   <v>       0.03703704 </v>
   <v>       0.29629630 </v>
   <v>       0.22222222 </v>
   <v>       0.44444444 </v>
  </varray>
 </kpoints>
 <parameters>
  <separator name="general" >
   <i type="string" name="SYSTEM">unknown system</i>
   <i type="logical" name="LCOMPAT"> F  </i>
  </separator>
  <separator name="electronic" >
   <i type="string" name="PREC">normal</i>
   <i name="ENMAX">    350.00000000</i>
   <i name="ENAUG">    322.06900000</i>
   <i name="EDIFF">      0.00040000</i>
   <i type="int" name="IALGO">    38</i>
   <i type="int" name="IWAVPR">    11</i>
   <i type="int" name="NBANDS">     8</i>
   <i name="NELECT">      8.00000000</i>
   <i type="int" name="TURBO">     0</i>
   <i type="int" name="IRESTART">     0</i>
   <i type="int" name="NREBOOT">     0</i>
   <i type="int" name="NMIN">     0</i>
   <i name="EREF">      0.00000000</i>
   <separator name="electronic smearing" >
    <i type="int" name="ISMEAR">     0</i>
    <i name="SIGMA">      0.20000000</i>
    <i name="KSPACING">      0.50000000</i>
    <i type="logical" name="KGAMMA"> T  </i>
   </separator>
   <separator name="electronic projectors" >
    <i type="logical" name="LREAL"> F  </i>
    <v name="ROPT">      0.00000000</v>
    <i type="int" name="LMAXPAW">  -100</i>
    <i type="int" name="LMAXMIX">     2</i>
    <i type="logical" name="NLSPLINE"> F  </i>
   </separator>
   <separator name="electronic startup" >
    <i type="int" name="ISTART">     0</i>
    <i type="int" name="ICHARG">     2</i>
    <i type="int" name="INIWAV">     1</i>
   </separator>
   <separator name="electronic spin" >
    <i type="int" name="ISPIN">     1</i>
    <i type="logical" name="LNONCOLLINEAR"> F  </i>
    <v name="MAGMOM">      1.00000000      1.00000000</v>
    <i name="NUPDOWN">     -1.00000000</i>
    <i type="logical" name="LSORBIT"> F  </i>
    <v name="SAXIS">      0.00000000      0.00000000      1.00000000</v>
    <i type="logical" name="LSPIRAL"> F  </i>
    <v name="QSPIRAL">      0.00000000      0.00000000      0.00000000</v>
    <i type="logical" name="LZEROZ"> F  </i>
   </separator>
   <separator name="electronic exchange-correlation" >
    <i type="logical" name="LASPH"> F  </i>
    <i type="logical" name="LMETAGGA"> F  </i>
   </separator>
   <separator name="electronic convergence" >
    <i type="int" name="NELM">    60</i>
    <i type="int" name="NELMDL">    -5</i>
    <i type="int" name="NELMIN">     2</i>
    <i name="ENINI">    350.00000000</i>
    <separator name="electronic convergence detail" >
     <i type="logical" name="LDIAG"> T  </i>
     <i type="logical" name="LSUBROT"> F  </i>
     <i name="WEIMIN">      0.00100000</i>
     <i name="EBREAK">      0.00001250</i>
     <i name="DEPER">      0.30000000</i>
     <i type="int" name="NRMM">     4</i>
     <i name="TIME">      0.40000000</i>
    </separator>
   </separator>
   <separator name="electronic mixer" >
    <i name="AMIX">      0.40000000</i>
    <i name="BMIX">      1.00000000</i>
    <i name="AMIN">      0.10000000</i>
    <i name="AMIX_MAG">      1.60000000</i>
    <i name="BMIX_MAG">      1.00000000</i>
    <separator name="electronic mixer details" >
     <i type="int" name="IMIX">     4</i>
     <i type="logical" name="MIXFIRST"> F  </i>
     <i type="int" name="MAXMIX">   -45</i>
     <i name="WC">    100.00000000</i>
     <i type="int" name="INIMIX">     1</i>
     <i type="int" name="MIXPRE">     1</i>
     <i type="int" name="MREMOVE">     5</i>
    </separator>
   </separator>
   <separator name="electronic dipolcorrection" >
    <i type="logical" name="LDIPOL"> F  </i>
    <i type="logical" name="LMONO"> F  </i>
    <i type="int" name="IDIPOL">     0</i>
    <i name="EPSILON">      1.00000000</i>
    <v name="DIPOL">   -100.00000000   -100.00000000   -100.00000000</v>
    <i name="EFIELD">      0.00000000</i>
   </separator>
  </separator>
  <separator name="grids" >
   <i type="int" name="NGX">    18</i>
   <i type="int" name="NGY">    18</i>
   <i type="int" name="NGZ">    18</i>
   <i type="int" name="NGXF">    36</i>
   <i type="int" name="NGYF">    36</i>
   <i type="int" name="NGZF">    36</i>
   <i type="logical" name="ADDGRID"> F  </i>
  </separator>
  <separator name="ionic" >
   <i type="int" name="NSW">    15</i>
   <i type="int" name="IBRION">     2</i>
   <i type="int" name="MDALGO">     0</i>
   <i type="int" name="ISIF">     3</i>
   <i name="PSTRESS">      0.00000000</i>
   <i name="EDIFFG">     -0.01000000</i>
   <i type="int" name="NFREE">     1</i>
   <i name="POTIM">      0.50000000</i>
   <i name="SMASS">     -3.00000000</i>
   <i name="SCALEE">      1.00000000</i>
  </separator>
  <separator name="ionic md" >
   <i name="TEBEG">      0.00010000</i>
   <i name="TEEND">      0.00010000</i>
   <i type="int" name="NBLOCK">     1</i>
   <i type="int" name="KBLOCK">    15</i>
   <i type="int" name="NPACO">   256</i>
   <i name="APACO">     16.00000000</i>
  </separator>
  <separator name="symmetry" >
   <i type="int" name="ISYM">     2</i>
   <i name="SYMPREC">      0.00001000</i>
  </separator>
  <separator name="dos" >
   <i type="int" name="LORBIT">     0</i>
   <v name="RWIGS">     -1.00000000</v>
   <i type="int" name="NEDOS">   301</i>
   <i name="EMIN">     10.00000000</i>
   <i name="EMAX">    -10.00000000</i>
   <i name="EFERMI">      0.00000000</i>
  </separator>
  <separator name="writing" >
   <i type="int" name="NWRITE">     2</i>
   <i type="logical" name="LWAVE"> T  </i>
   <i type="logical" name="LDOWNSAMPLE"> F  </i>
   <i type="logical" name="LCHARG"> T  </i>
   <i type="logical" name="LPARD"> F  </i>
   <i type="logical" name="LVTOT"> F  </i>
   <i type="logical" name="LVHAR"> F  </i>
   <i type="logical" name="LELF"> F  </i>
   <i type="logical" name="LOPTICS"> F  </i>
   <v name="STM">      0.00000000      0.00000000      0.00000000      0.00000000      0.00000000      0.00000000      0.00000000</v>
  </separator>
  <separator name="performance" >
   <i type="int" name="NPAR">     8</i>
   <i type="int" name="NSIM">     4</i>
   <i type="int" name="NBLK">    -1</i>
   <i type="logical" name="LPLANE"> T  </i>
   <i type="logical" name="LSCALAPACK"> T  </i>
   <i type="logical" name="LSCAAWARE"> F  </i>
   <i type="logical" name="LSCALU"> F  </i>
   <i type="logical" name="LASYNC"> F  </i>
   <i type="logical" name="LORBITALREAL"> F  </i>
  </separator>
  <separator name="miscellaneous" >
   <i type="int" name="IDIOT">     3</i>
   <i type="int" name="ISPECIAL">     0</i>
   <i type="logical" name="LMUSIC"> F  </i>
   <v name="POMASS">     28.08500000</v>
   <v name="DARWINR">      0.00000000</v>
   <v name="DARWINV">      1.00000000</v>
   <i type="logical" name="LCORR"> T  </i>
  </separator>
  <i type="logical" name="GGA_COMPAT"> T  </i>
  <i type="logical" name="LBERRY"> F  </i>
  <i type="int" name="ICORELEVEL">     0</i>
  <i type="logical" name="LDAU"> F  </i>
  <i type="int" name="I_CONSTRAINED_M">     0</i>
  <separator name="electronic exchange-correlation" >
   <i type="string" name="GGA">--</i>
   <i type="int" name="VOSKOWN">     0</i>
   <i type="logical" name="LHFCALC"> F  </i>
   <i type="string" name="PRECFOCK"></i>
   <i type="logical" name="LSYMGRAD"> F  </i>
   <i type="logical" name="LHFONE"> F  </i>
   <i type="logical" name="LRHFCALC"> F  </i>
   <i type="logical" name="LTHOMAS"> F  </i>
   <i type="logical" name="LMODELHF"> F  </i>
   <i name="ENCUT4O">     -1.00000000</i>
   <i type="int" name="EXXOEP">     0</i>
   <i type="int" name="FOURORBIT">     0</i>
   <i name="AEXX">      0.00000000</i>
   <i name="HFALPHA">      0.00000000</i>
   <i name="MCALPHA">      0.00000000</i>
   <i name="ALDAX">      1.00000000</i>
   <i name="AGGAX">      1.00000000</i>
   <i name="ALDAC">      1.00000000</i>
   <i name="AGGAC">      1.00000000</i>
   <i type="int" name="NKREDX">     1</i>
   <i type="int" name="NKREDY">     1</i>
   <i type="int" name="NKREDZ">     1</i>
   <i type="logical" name="SHIFTRED"> F  </i>
   <i type="logical" name="ODDONLY"> F  </i>
   <i type="logical" name="EVENONLY"> F  </i>
   <i type="int" name="LMAXFOCK">     0</i>
   <i type="int" name="NMAXFOCKAE">     0</i>
   <i type="logical" name="LFOCKAEDFT"> F  </i>
   <i name="HFSCREEN">      0.00000000</i>
   <i name="HFSCREENC">      0.00000000</i>
   <i type="int" name="NBANDSGWLOW">     0</i>
  </separator>
  <separator name="vdW DFT" >
   <i type="logical" name="LUSE_VDW"> F  </i>
   <i name="Zab_VDW">     -0.84910000</i>
   <i name="PARAM1">      0.12340000</i>
   <i name="PARAM2">      1.00000000</i>
   <i name="PARAM3">      0.00000000</i>
  </separator>
  <separator name="model GW" >
   <i type="int" name="MODEL_GW">     0</i>
   <i name="MODEL_EPS0">     12.00772552</i>
   <i name="MODEL_ALPHA">      1.00000000</i>
  </separator>
  <separator name="linear response parameters" >
   <i type="logical" name="LEPSILON"> F  </i>
   <i type="logical" name="LRPA"> F  </i>
   <i type="logical" name="LNABLA"> F  </i>
   <i type="logical" name="LVEL"> F  </i>
   <i type="int" name="KINTER">     0</i>
   <i name="CSHIFT">      0.10000000</i>
   <i name="OMEGAMAX">     -1.00000000</i>
   <i name="DEG_THRESHOLD">      0.00200000</i>
   <i name="RTIME">     -0.10000000</i>
   <i name="WPLASMAI">      0.00000000</i>
   <v name="DFIELD">      0.00000000      0.00000000      0.00000000</v>
   <v name="WPLASMA">      0.00000000      0.00000000      0.00000000      0.00000000      0.00000000      0.00000000      0.00000000      0.00000000      0.00000000</v>
  </separator>
  <separator name="orbital magnetization" >
   <i type="logical" name="NUCIND"> F  </i>
   <v name="MAGPOS">      0.00000000      0.00000000      0.00000000</v>
   <i type="logical" name="LNICSALL"> T  </i>
   <i type="logical" name="ORBITALMAG"> F  </i>
   <i type="logical" name="LMAGBLOCH"> F  </i>
   <i type="logical" name="LCHIMAG"> F  </i>
   <i type="logical" name="LGAUGE"> T  </i>
   <i type="int" name="MAGATOM">     0</i>
   <v name="MAGDIPOL">      0.00000000      0.00000000      0.00000000</v>
   <v name="AVECCONST">      0.00000000      0.00000000      0.00000000</v>
  </separator>
  <separator name="response functions" >
   <i type="logical" name="LADDER"> F  </i>
   <i type="logical" name="LRPAFORCE"> F  </i>
   <i type="logical" name="LFXC"> F  </i>
   <i type="logical" name="LHARTREE"> T  </i>
   <i type="int" name="IBSE">     0</i>
   <v type="int" name="KPOINT">    -1     0     0     0</v>
   <i type="logical" name="LTCTE"> F  </i>
   <i type="logical" name="LTETE"> F  </i>
   <i type="logical" name="LTRIPLET"> F  </i>
   <i type="logical" name="LFXCEPS"> F  </i>
   <i type="logical" name="LFXHEG"> F  </i>
   <i type="int" name="NATURALO">     2</i>
   <i type="logical" name="L2ORDER"> F  </i>
   <i type="logical" name="LMP2LT"> F  </i>
   <i type="logical" name="LUSEW"> F  </i>
   <i name="ENCUTGW">     -2.00000000</i>
   <i name="ENCUTGWSOFT">     -2.00000000</i>
   <i name="ENCUTLF">     -1.00000000</i>
   <i type="int" name="LMAXMP2">    -1</i>
   <i name="SCISSOR">      0.00000000</i>
   <i type="int" name="NOMEGA">     0</i>
   <i type="int" name="NOMEGAR">     0</i>
   <i type="int" name="NBANDSGW">    -1</i>
   <i type="int" name="NBANDSO">    -1</i>
   <i type="int" name="NBANDSV">    -1</i>
   <i type="int" name="NELM">     1</i>
   <i type="int" name="NELMHF">     1</i>
   <i type="int" name="DIM">     3</i>
   <i type="int" name="ANTIRES">     0</i>
   <i name="OMEGAMAX">    -30.00000000</i>
   <i name="OMEGAMIN">    -30.00000000</i>
   <i name="OMEGATL">   -200.00000000</i>
   <i type="int" name="OMEGAGRID">   140</i>
   <i name="CSHIFT">     -0.10000000</i>
   <i type="logical" name="SELFENERGY"> F  </i>
   <i type="logical" name="LSPECTRAL"> F  </i>
   <i type="logical" name="LSPECTRALGW"> F  </i>
   <i type="logical" name="LSINGLES"> F  </i>
   <i type="logical" name="LFERMIGW"> F  </i>
   <i type="logical" name="ODDONLYGW"> F  </i>
   <i type="logical" name="EVENONLYGW"> F  </i>
   <i type="int" name="NKREDLFX">     1</i>
   <i type="int" name="NKREDLFY">     1</i>
   <i type="int" name="NKREDLFZ">     1</i>
   <i type="int" name="MAXMEM">  2800</i>
   <i type="int" name="TELESCOPE">     0</i>
   <i type="int" name="TAUPAR">     1</i>
   <i type="int" name="OMEGAPAR">    -1</i>
   <i name="LAMBDA">      1.00000000</i>
  </separator>
  <separator name="External order field" >
   <i name="OFIELD_KAPPA">      0.00000000</i>
   <v name="OFIELD_K">      0.00000000      0.00000000      0.00000000</v>
   <i name="OFIELD_Q6_NEAR">      0.00000000</i>
   <i name="OFIELD_Q6_FAR">      0.00000000</i>
   <i name="OFIELD_A">      0.00000000</i>
  </separator>
 </parameters>
 <atominfo>
  <atoms>       2 </atoms>
  <types>       1 </types>
  <array name="atoms" >
   <dimension dim="1">ion</dimension>
   <field type="string">element</field>
   <field type="int">atomtype</field>
   <set>
    <rc><c>Si</c><c>   1</c></rc>
    <rc><c>Si</c><c>   1</c></rc>
   </set>
  </array>
  <array name="atomtypes" >
   <dimension dim="1">type</dimension>
   <field type="int">atomspertype</field>
   <field type="string">element</field>
   <field>mass</field>
   <field>valence</field>
   <field type="string">pseudopotential</field>
   <set>
    <rc><c>   2</c><c>Si</c><c>     28.08500000</c><c>      4.00000000</c><c> PAW_PBE Si 05Jan2001                   </c></rc>
   </set>
  </array>
 </atominfo>
 <structure name="initialpos" >
  <crystal>
   <varray name="basis" >
    <v>       0.00000000       2.71500000       2.71500000 </v>
    <v>       2.71500000       0.00000000       2.71500000 </v>
    <v>       2.71500000       2.71500000       0.00000000 </v>
   </varray>
   <i name="volume">     40.02575175 </i>
   <varray name="rec_basis" >
    <v>      -0.18416206       0.18416206       0.18416206 </v>
    <v>       0.18416206      -0.18416206       0.18416206 </v>
    <v>       0.18416206       0.18416206      -0.18416206 </v>
   </varray>
  </crystal>
  <varray name="positions" >
   <v>       0.50000000       0.50000000       0.50000000 </v>
   <v>       0.75000000       0.75000000       0.75000000 </v>
  </varray>
 </structure>
 <calculation>
  <scstep>
   <time name="dav">    0.06    0.07</time>
   <time name="total">    0.11    0.13</time>
   <energy>
    <i name="alphaZ">      3.36414203 </i>
    <i name="ewald">   -228.56352493 </i>
    <i name="hartreedc">    -11.00108243 </i>
    <i name="XCdc">    -18.60185131 </i>
    <i name="pawpsdc">     65.95520812 </i>
    <i name="pawaedc">    -30.76852678 </i>
    <i name="eentropy">     -0.02475661 </i>
    <i name="bandstr">     17.80961837 </i>
    <i name="atom">    206.13125414 </i>
    <i name="e_fr_energy">      4.30048060 </i>
    <i name="e_wo_entrp">      4.32523721 </i>
    <i name="e_0_energy">      4.31285890 </i>
   </energy>
  </scstep>
  <scstep>
   <time name="dav">    0.09    0.10</time>
   <time name="total">    0.09    0.10</time>
   <energy>
    <i name="e_fr_energy">    -10.27834731 </i>
    <i name="e_wo_entrp">    -10.27826416 </i>
    <i name="e_0_energy">    -10.27830573 </i>
   </energy>
  </scstep>
  <scstep>
   <time name="dav">    0.07    0.08</time>
   <time name="total">    0.07    0.08</time>
   <energy>
    <i name="e_fr_energy">    -10.46314750 </i>
    <i name="e_wo_entrp">    -10.46309616 </i>
    <i name="e_0_energy">    -10.46312183 </i>
   </energy>
  </scstep>
  <scstep>
   <time name="dav">    0.09    0.09</time>
   <time name="total">    0.09    0.09</time>
   <energy>
    <i name="e_fr_energy">    -10.46374029 </i>
    <i name="e_wo_entrp">    -10.46368907 </i>
    <i name="e_0_energy">    -10.46371468 </i>
   </energy>
  </scstep>
  <scstep>
   <time name="dav">    0.07    0.07</time>
   <time name="total">    0.09    0.10</time>
   <energy>
    <i name="e_fr_energy">    -10.46374132 </i>
    <i name="e_wo_entrp">    -10.46369010 </i>
    <i name="e_0_energy">    -10.46371571 </i>
   </energy>
  </scstep>
  <scstep>
   <time name="dav">    0.07    0.07</time>
   <time name="total">    0.12    0.13</time>
   <energy>
    <i name="e_fr_energy">    -10.29612631 </i>
    <i name="e_wo_entrp">    -10.29578504 </i>
    <i name="e_0_energy">    -10.29595568 </i>
   </energy>
  </scstep>
  <scstep>
   <time name="dav">    0.07    0.07</time>
   <time name="total">    0.12    0.13</time>
   <energy>
    <i name="e_fr_energy">    -10.22184618 </i>
    <i name="e_wo_entrp">    -10.21947560 </i>
    <i name="e_0_energy">    -10.22066089 </i>
   </energy>
  </scstep>
  <scstep>
   <time name="dav">    0.06    0.05</time>
   <time name="total">    0.11    0.12</time>
   <energy>
    <i name="e_fr_energy">    -10.22463034 </i>
    <i name="e_wo_entrp">    -10.22279902 </i>
    <i name="e_0_energy">    -10.22371468 </i>
   </energy>
  </scstep>
  <scstep>
   <time name="dav">    0.07    0.07</time>
   <time name="total">    0.11    0.12</time>
   <energy>
    <i name="alphaZ">      3.36414203 </i>
    <i name="ewald">   -228.56352493 </i>
    <i name="hartreedc">    -15.70614824 </i>
    <i name="XCdc">    -17.86314368 </i>
    <i name="pawpsdc">     74.84811736 </i>
    <i name="pawaedc">    -39.90735972 </i>
    <i name="eentropy">     -0.00182525 </i>
    <i name="bandstr">      7.47368420 </i>
    <i name="atom">    206.13125414 </i>
    <i name="e_fr_energy">    -10.22480408 </i>
    <i name="e_wo_entrp">    -10.22297882 </i>
    <i name="e_0_energy">    -10.22389145 </i>
   </energy>
  </scstep>
  <structure>
   <crystal>
    <varray name="basis" >
     <v>       0.00000000       2.71500000       2.71500000 </v>
     <v>       2.71500000       0.00000000       2.71500000 </v>
     <v>       2.71500000       2.71500000       0.00000000 </v>
    </varray>
    <i name="volume">     40.02575175 </i>
    <varray name="rec_basis" >
     <v>      -0.18416206       0.18416206       0.18416206 </v>
     <v>       0.18416206      -0.18416206       0.18416206 </v>
     <v>       0.18416206       0.18416206      -0.18416206 </v>
    </varray>
   </crystal>
   <varray name="positions" >
    <v>       0.50000000       0.50000000       0.50000000 </v>
    <v>       0.75000000       0.75000000       0.75000000 </v>
   </varray>
  </structure>
  <varray name="forces" >
   <v>      -0.00000000      -0.00000000      -0.00000000 </v>
   <v>       0.00000000       0.00000000       0.00000000 </v>
  </varray>
  <varray name="stress" >
   <v>      39.50939026       0.00000000      -0.00000000 </v>
   <v>      -0.00000000      39.50939026       0.00000000 </v>
   <v>       0.00000000       0.00000000      39.50939026 </v>
  </varray>
  <energy>
   <i name="e_fr_energy">    -10.22480408 </i>
   <i name="e_wo_entrp">    -10.22389145 </i>
   <i name="e_0_energy">     -0.00182525 </i>
  </energy>
  <time name="totalsc">    2.04    2.64</time>
 </calculation>
 <calculation>
  <scstep>
   <time name="dav">    0.06    0.06</time>
   <time name="total">    0.11    0.12</time>
   <energy>
    <i name="alphaZ">      3.13486065 </i>
    <i name="ewald">   -223.24833643 </i>
    <i name="hartreedc">    -15.35092175 </i>
    <i name="XCdc">    -18.21156250 </i>
    <i name="pawpsdc">     74.84340252 </i>
    <i name="pawaedc">    -39.90361227 </i>
    <i name="eentropy">     -0.00025131 </i>
    <i name="bandstr">      2.34440518 </i>
    <i name="atom">    206.13125414 </i>
    <i name="e_fr_energy">    -10.26076176 </i>
    <i name="e_wo_entrp">    -10.26051045 </i>
    <i name="e_0_energy">    -10.26063610 </i>
   </energy>
  </scstep>
  <scstep>
   <time name="dav">    0.05    0.05</time>
   <time name="total">    0.11    0.12</time>
   <energy>
    <i name="e_fr_energy">    -10.24361569 </i>
    <i name="e_wo_entrp">    -10.24320697 </i>
    <i name="e_0_energy">    -10.24341133 </i>
   </energy>
  </scstep>
  <scstep>
   <time name="dav">    0.07    0.07</time>
   <time name="total">    0.12    0.13</time>
   <energy>
    <i name="e_fr_energy">    -10.23438062 </i>
    <i name="e_wo_entrp">    -10.23364436 </i>
    <i name="e_0_energy">    -10.23401249 </i>
   </energy>
  </scstep>
  <scstep>
   <time name="dav">    0.04    0.04</time>
   <time name="total">    0.08    0.08</time>
   <energy>
    <i name="alphaZ">      3.13486065 </i>
    <i name="ewald">   -223.24833643 </i>
    <i name="hartreedc">    -16.54858344 </i>
    <i name="XCdc">    -18.18317453 </i>
    <i name="pawpsdc">     72.64499381 </i>
    <i name="pawaedc">    -37.64462959 </i>
    <i name="eentropy">     -0.00070542 </i>
    <i name="bandstr">      3.47991976 </i>
    <i name="atom">    206.13125414 </i>
    <i name="e_fr_energy">    -10.23440104 </i>
    <i name="e_wo_entrp">    -10.23369563 </i>
    <i name="e_0_energy">    -10.23404834 </i>
   </energy>
  </scstep>
  <structure>
   <crystal>
    <varray name="basis" >
     <v>       0.00000000       2.77963984       2.77963984 </v>
     <v>       2.77963984       0.00000000       2.77963984 </v>
     <v>       2.77963984       2.77963984       0.00000000 </v>
    </varray>
    <i name="volume">     42.95320541 </i>
    <varray name="rec_basis" >
     <v>      -0.17987942       0.17987942       0.17987942 </v>
     <v>       0.17987942      -0.17987942       0.17987942 </v>
     <v>       0.17987942       0.17987942      -0.17987942 </v>
    </varray>
   </crystal>
   <varray name="positions" >
    <v>       0.50000000       0.50000000       0.50000000 </v>
    <v>       0.75000000       0.75000000       0.75000000 </v>
   </varray>
  </structure>
  <varray name="forces" >
   <v>      -0.00000000      -0.00000000      -0.00000000 </v>
   <v>       0.00000000       0.00000000       0.00000000 </v>
  </varray>
  <varray name="stress" >
   <v>     -24.53828395      -0.00000000       0.00000000 </v>
   <v>      -0.00000000     -24.53828395       0.00000000 </v>
   <v>       0.00000000      -0.00000000     -24.53828395 </v>
  </varray>
  <energy>
   <i name="e_fr_energy">    -10.23440104 </i>
   <i name="e_wo_entrp">    -10.23404834 </i>
   <i name="e_0_energy">     -0.00070542 </i>
  </energy>
  <time name="totalsc">    0.60    0.70</time>
 </calculation>
 <calculation>
  <scstep>
   <time name="dav">    0.06    0.06</time>
   <time name="total">    0.12    0.12</time>
   <energy>
    <i name="alphaZ">      3.23011182 </i>
    <i name="ewald">   -225.48691069 </i>
    <i name="hartreedc">    -16.72399959 </i>
    <i name="XCdc">    -18.03924067 </i>
    <i name="pawpsdc">     72.57479364 </i>
    <i name="pawaedc">    -37.57130981 </i>
    <i name="eentropy">     -0.00152824 </i>
    <i name="bandstr">      5.63747577 </i>
    <i name="atom">    206.13125414 </i>
    <i name="e_fr_energy">    -10.24935363 </i>
    <i name="e_wo_entrp">    -10.24782539 </i>
    <i name="e_0_energy">    -10.24858951 </i>
   </energy>
  </scstep>
  <scstep>
   <time name="dav">    0.05    0.05</time>
   <time name="total">    0.11    0.12</time>
   <energy>
    <i name="e_fr_energy">    -10.24616435 </i>
    <i name="e_wo_entrp">    -10.24487917 </i>
    <i name="e_0_energy">    -10.24552176 </i>
   </energy>
  </scstep>
  <scstep>
   <time name="dav">    0.06    0.06</time>
   <time name="total">    0.11    0.12</time>
   <energy>
    <i name="e_fr_energy">    -10.24447281 </i>
    <i name="e_wo_entrp">    -10.24345237 </i>
    <i name="e_0_energy">    -10.24396259 </i>
   </energy>
  </scstep>
  <scstep>
   <time name="dav">    0.04    0.04</time>
   <time name="total">    0.08    0.09</time>
   <energy>
    <i name="alphaZ">      3.23011182 </i>
    <i name="ewald">   -225.48691069 </i>
    <i name="hartreedc">    -16.20161494 </i>
    <i name="XCdc">    -18.04898108 </i>
    <i name="pawpsdc">     73.50315431 </i>
    <i name="pawaedc">    -38.52524631 </i>
    <i name="eentropy">     -0.00103771 </i>
    <i name="bandstr">      5.15478788 </i>
    <i name="atom">    206.13125414 </i>
    <i name="e_fr_energy">    -10.24448258 </i>
    <i name="e_wo_entrp">    -10.24344487 </i>
    <i name="e_0_energy">    -10.24396372 </i>
   </energy>
  </scstep>
  <structure>
   <crystal>
    <varray name="basis" >
     <v>       0.00000000       2.75204431       2.75204431 </v>
     <v>       2.75204431       0.00000000       2.75204431 </v>
     <v>       2.75204431       2.75204431       0.00000000 </v>
    </varray>
    <i name="volume">     41.68657967 </i>
    <varray name="rec_basis" >
     <v>      -0.18168312       0.18168312       0.18168312 </v>
     <v>       0.18168312      -0.18168312       0.18168312 </v>
     <v>       0.18168312       0.18168312      -0.18168312 </v>
    </varray>
   </crystal>
   <varray name="positions" >
    <v>       0.50000000       0.50000000       0.50000000 </v>
    <v>       0.75000000       0.75000000       0.75000000 </v>
   </varray>
  </structure>
  <varray name="forces" >
   <v>       0.00000000       0.00000000       0.00000000 </v>
   <v>      -0.00000000      -0.00000000      -0.00000000 </v>
  </varray>
  <varray name="stress" >
   <v>      -0.03596962       0.00000000      -0.00000000 </v>
   <v>       0.00000000      -0.03596962       0.00000000 </v>
   <v>       0.00000000       0.00000000      -0.03596962 </v>
  </varray>
  <energy>
   <i name="e_fr_energy">    -10.24448258 </i>
   <i name="e_wo_entrp">    -10.24396372 </i>
   <i name="e_0_energy">     -0.00103771 </i>
  </energy>
  <time name="totalsc">    0.60    0.76</time>
  <eigenvalues>
   <array>
    <dimension dim="1">band</dimension>
    <dimension dim="2">kpoint</dimension>
    <dimension dim="3">spin</dimension>
    <field>eigene</field>
    <field>occ</field>
    <set>
     <set comment="spin 1">
      <set comment="kpoint 1">
       <r>   -6.1723    1.0000 </r>
       <r>    5.5328    0.9944 </r>
       <r>    5.5328    0.9944 </r>
       <r>    5.5328    0.9944 </r>
       <r>    8.0383    0.0000 </r>
       <r>    8.0383    0.0000 </r>
       <r>    8.0383    0.0000 </r>
       <r>    8.4563    0.0000 </r>
      </set>
      <set comment="kpoint 2">
       <r>   -4.8439    1.0000 </r>
       <r>    0.2998    1.0000 </r>
       <r>    4.5550    1.0000 </r>
       <r>    4.5550    1.0000 </r>
       <r>    7.1419    0.0000 </r>
       <r>    8.9885    0.0000 </r>
       <r>    8.9885    0.0000 </r>
       <r>   13.2176    0.0000 </r>
      </set>
      <set comment="kpoint 3">
       <r>   -4.3308    1.0000 </r>
       <r>    0.5518    1.0000 </r>
       <r>    3.1875    1.0000 </r>
       <r>    3.1875    1.0000 </r>
       <r>    6.2838    0.0028 </r>
       <r>    7.5401    0.0000 </r>
       <r>   12.6050    0.0000 </r>
       <r>   12.6050    0.0000 </r>
      </set>
      <set comment="kpoint 4">
       <r>   -3.0290    1.0000 </r>
       <r>   -1.1443    1.0000 </r>
       <r>    1.2794    1.0000 </r>
       <r>    3.4813    1.0000 </r>
       <r>    7.1010    0.0000 </r>
       <r>   11.2718    0.0000 </r>
       <r>   11.8392    0.0000 </r>
       <r>   12.3965    0.0000 </r>
      </set>
     </set>
    </set>
   </array>
  </eigenvalues>
  <separator name="orbital magnetization" >
   <v name="MAGDIPOLOUT">      0.00000000      0.00000000      0.00000000</v>
  </separator>
  <dos>
   <i name="efermi">      5.89174510 </i>
   <total>
    <array>
     <dimension dim="1">gridpoints</dimension>
     <dimension dim="2">spin</dimension>
     <field>energy</field>
     <field>total</field>
     <field>integrated</field>
     <set>
      <set comment="spin 1">
       <r>    -8.1723     0.0000     0.0000 </r>
       <r>    -8.0943     0.0000     0.0000 </r>
       <r>    -8.0163     0.0000     0.0000 </r>
       <r>    -7.9384     0.0000     0.0000 </r>
       <r>    -7.8604     0.0000     0.0000 </r>
       <r>    -7.7824     0.0000     0.0000 </r>
       <r>    -7.7045     0.0000     0.0000 </r>
       <r>    -7.6265     0.0000     0.0000 </r>
       <r>    -7.5485     0.0000     0.0000 </r>
       <r>    -7.4706     0.0000     0.0000 </r>
       <r>    -7.3926     0.0000     0.0000 </r>
       <r>    -7.3146     0.0000     0.0000 </r>
       <r>    -7.2367     0.0000     0.0000 </r>
       <r>    -7.1587     0.0000     0.0000 </r>
       <r>    -7.0807     0.0000     0.0000 </r>
       <r>    -7.0028     0.0000     0.0000 </r>
       <r>    -6.9248     0.0000     0.0000 </r>
       <r>    -6.8468     0.0000     0.0000 </r>
       <r>    -6.7689     0.0000     0.0000 </r>
       <r>    -6.6909     0.0001     0.0000 </r>
       <r>    -6.6129     0.0008     0.0001 </r>
       <r>    -6.5350     0.0040     0.0004 </r>
       <r>    -6.4570     0.0160     0.0016 </r>
       <r>    -6.3790     0.0473     0.0053 </r>
       <r>    -6.3011     0.1039     0.0134 </r>
       <r>    -6.2231     0.1695     0.0266 </r>
       <r>    -6.1452     0.2056     0.0427 </r>
       <r>    -6.0672     0.1855     0.0571 </r>
       <r>    -5.9892     0.1244     0.0668 </r>
       <r>    -5.9113     0.0620     0.0717 </r>
       <r>    -5.8333     0.0230     0.0735 </r>
       <r>    -5.7553     0.0063     0.0740 </r>
       <r>    -5.6774     0.0013     0.0741 </r>
       <r>    -5.5994     0.0002     0.0741 </r>
       <r>    -5.5214     0.0000     0.0741 </r>
       <r>    -5.4435     0.0001     0.0741 </r>
       <r>    -5.3655     0.0008     0.0741 </r>
       <r>    -5.2875     0.0056     0.0746 </r>
       <r>    -5.2096     0.0305     0.0770 </r>
       <r>    -5.1316     0.1224     0.0865 </r>
       <r>    -5.0536     0.3655     0.1150 </r>
       <r>    -4.9757     0.8112     0.1782 </r>
       <r>    -4.8977     1.3386     0.2826 </r>
       <r>    -4.8197     1.6433     0.4107 </r>
       <r>    -4.7418     1.5066     0.5282 </r>
       <r>    -4.6638     1.0582     0.6107 </r>
       <r>    -4.5858     0.6627     0.6624 </r>
       <r>    -4.5079     0.5888     0.7083 </r>
       <r>    -4.4299     0.8314     0.7731 </r>
       <r>    -4.3519     1.1448     0.8624 </r>
       <r>    -4.2740     1.2302     0.9583 </r>
       <r>    -4.1960     0.9900     1.0354 </r>
       <r>    -4.1180     0.5930     1.0817 </r>
       <r>    -4.0401     0.2641     1.1023 </r>
       <r>    -3.9621     0.0874     1.1091 </r>
       <r>    -3.8841     0.0215     1.1108 </r>
       <r>    -3.8062     0.0039     1.1111 </r>
       <r>    -3.7282     0.0005     1.1111 </r>
       <r>    -3.6502     0.0001     1.1111 </r>
       <r>    -3.5723     0.0006     1.1112 </r>
       <r>    -3.4943     0.0050     1.1116 </r>
       <r>    -3.4163     0.0295     1.1139 </r>
       <r>    -3.3384     0.1286     1.1239 </r>
       <r>    -3.2604     0.4168     1.1564 </r>
       <r>    -3.1824     1.0046     1.2347 </r>
       <r>    -3.1045     1.7997     1.3750 </r>
       <r>    -3.0265     2.3972     1.5619 </r>
       <r>    -2.9485     2.3742     1.7470 </r>
       <r>    -2.8706     1.7484     1.8833 </r>
       <r>    -2.7926     0.9572     1.9580 </r>
       <r>    -2.7146     0.3896     1.9884 </r>
       <r>    -2.6367     0.1179     1.9975 </r>
       <r>    -2.5587     0.0265     1.9996 </r>
       <r>    -2.4807     0.0044     2.0000 </r>
       <r>    -2.4028     0.0005     2.0000 </r>
       <r>    -2.3248     0.0001     2.0000 </r>
       <r>    -2.2468     0.0000     2.0000 </r>
       <r>    -2.1689     0.0000     2.0000 </r>
       <r>    -2.0909     0.0000     2.0000 </r>
       <r>    -2.0129     0.0000     2.0000 </r>
       <r>    -1.9350     0.0000     2.0000 </r>
       <r>    -1.8570     0.0000     2.0000 </r>
       <r>    -1.7790     0.0000     2.0000 </r>
       <r>    -1.7011     0.0004     2.0000 </r>
       <r>    -1.6231     0.0036     2.0003 </r>
       <r>    -1.5451     0.0221     2.0020 </r>
       <r>    -1.4672     0.1017     2.0100 </r>
       <r>    -1.3892     0.3472     2.0370 </r>
       <r>    -1.3112     0.8810     2.1057 </r>
       <r>    -1.2333     1.6616     2.2353 </r>
       <r>    -1.1553     2.3299     2.4169 </r>
       <r>    -1.0773     2.4292     2.6063 </r>
       <r>    -0.9994     1.8832     2.7532 </r>
       <r>    -0.9214     1.0855     2.8378 </r>
       <r>    -0.8434     0.4651     2.8741 </r>
       <r>    -0.7655     0.1481     2.8856 </r>
       <r>    -0.6875     0.0351     2.8883 </r>
       <r>    -0.6095     0.0062     2.8888 </r>
       <r>    -0.5316     0.0008     2.8889 </r>
       <r>    -0.4536     0.0001     2.8889 </r>
       <r>    -0.3756     0.0000     2.8889 </r>
       <r>    -0.2977     0.0001     2.8889 </r>
       <r>    -0.2197     0.0008     2.8890 </r>
       <r>    -0.1417     0.0059     2.8894 </r>
       <r>    -0.0638     0.0318     2.8919 </r>
       <r>     0.0142     0.1268     2.9018 </r>
       <r>     0.0922     0.3775     2.9312 </r>
       <r>     0.1701     0.8416     2.9968 </r>
       <r>     0.2481     1.4214     3.1077 </r>
       <r>     0.3261     1.8686     3.2533 </r>
       <r>     0.4040     2.0174     3.4106 </r>
       <r>     0.4820     1.9295     3.5611 </r>
       <r>     0.5600     1.7109     3.6945 </r>
       <r>     0.6379     1.3591     3.8004 </r>
       <r>     0.7159     0.8971     3.8704 </r>
       <r>     0.7939     0.4665     3.9067 </r>
       <r>     0.8718     0.2012     3.9224 </r>
       <r>     0.9498     0.1438     3.9336 </r>
       <r>     1.0278     0.3278     3.9592 </r>
       <r>     1.1057     0.8245     4.0235 </r>
       <r>     1.1837     1.5918     4.1476 </r>
       <r>     1.2617     2.2896     4.3261 </r>
       <r>     1.3396     2.4489     4.5170 </r>
       <r>     1.4176     1.9477     4.6689 </r>
       <r>     1.4956     1.1517     4.7587 </r>
       <r>     1.5735     0.5063     4.7981 </r>
       <r>     1.6515     0.1654     4.8110 </r>
       <r>     1.7295     0.0402     4.8142 </r>
       <r>     1.8074     0.0072     4.8147 </r>
       <r>     1.8854     0.0010     4.8148 </r>
       <r>     1.9634     0.0001     4.8148 </r>
       <r>     2.0413     0.0000     4.8148 </r>
       <r>     2.1193     0.0000     4.8148 </r>
       <r>     2.1973     0.0000     4.8148 </r>
       <r>     2.2752     0.0000     4.8148 </r>
       <r>     2.3532     0.0000     4.8148 </r>
       <r>     2.4312     0.0000     4.8148 </r>
       <r>     2.5091     0.0000     4.8148 </r>
       <r>     2.5871     0.0001     4.8148 </r>
       <r>     2.6651     0.0011     4.8149 </r>
       <r>     2.7430     0.0083     4.8156 </r>
       <r>     2.8210     0.0449     4.8191 </r>
       <r>     2.8990     0.1812     4.8332 </r>
       <r>     2.9769     0.5442     4.8756 </r>
       <r>     3.0549     1.2203     4.9708 </r>
       <r>     3.1329     2.0633     5.1316 </r>
       <r>     3.2108     2.7012     5.3422 </r>
       <r>     3.2888     2.9236     5.5702 </r>
       <r>     3.3668     2.9274     5.7984 </r>
       <r>     3.4447     2.9304     6.0269 </r>
       <r>     3.5227     2.7675     6.2426 </r>
       <r>     3.6007     2.1966     6.4139 </r>
       <r>     3.6786     1.3605     6.5200 </r>
       <r>     3.7566     0.6371     6.5697 </r>
       <r>     3.8346     0.2230     6.5870 </r>
       <r>     3.9125     0.0582     6.5916 </r>
       <r>     3.9905     0.0117     6.5925 </r>
       <r>     4.0685     0.0055     6.5929 </r>
       <r>     4.1464     0.0251     6.5949 </r>
       <r>     4.2244     0.1180     6.6041 </r>
       <r>     4.3023     0.4151     6.6364 </r>
       <r>     4.3803     1.0847     6.7210 </r>
       <r>     4.4583     2.1073     6.8853 </r>
       <r>     4.5362     3.0437     7.1226 </r>
       <r>     4.6142     3.2688     7.3775 </r>
       <r>     4.6922     2.6102     7.5810 </r>
       <r>     4.7701     1.5497     7.7018 </r>
       <r>     4.8481     0.6840     7.7551 </r>
       <r>     4.9261     0.2244     7.7726 </r>
       <r>     5.0040     0.0549     7.7769 </r>
       <r>     5.0820     0.0117     7.7778 </r>
       <r>     5.1600     0.0112     7.7787 </r>
       <r>     5.2379     0.0410     7.7819 </r>
       <r>     5.3159     0.1255     7.7917 </r>
       <r>     5.3939     0.2863     7.8140 </r>
       <r>     5.4718     0.4854     7.8519 </r>
       <r>     5.5498     0.6118     7.8996 </r>
       <r>     5.6278     0.5734     7.9443 </r>
       <r>     5.7057     0.3997     7.9754 </r>
       <r>     5.7837     0.2081     7.9916 </r>
       <r>     5.8617     0.0867     7.9984 </r>
       <r>     5.9396     0.0574     8.0029 </r>
       <r>     6.0176     0.1327     8.0132 </r>
       <r>     6.0956     0.3525     8.0407 </r>
       <r>     6.1735     0.7195     8.0968 </r>
       <r>     6.2515     1.0939     8.1821 </r>
       <r>     6.3295     1.2367     8.2785 </r>
       <r>     6.4074     1.0396     8.3596 </r>
       <r>     6.4854     0.6498     8.4102 </r>
       <r>     6.5634     0.3028     8.4338 </r>
       <r>     6.6413     0.1114     8.4425 </r>
       <r>     6.7193     0.0690     8.4479 </r>
       <r>     6.7973     0.1920     8.4629 </r>
       <r>     6.8752     0.6184     8.5111 </r>
       <r>     6.9532     1.5246     8.6300 </r>
       <r>     7.0312     2.8121     8.8492 </r>
       <r>     7.1091     3.8811     9.1518 </r>
       <r>     7.1871     4.0241     9.4656 </r>
       <r>     7.2651     3.1918     9.7144 </r>
       <r>     7.3430     2.0944     9.8777 </r>
       <r>     7.4210     1.4395     9.9899 </r>
       <r>     7.4990     1.3062    10.0918 </r>
       <r>     7.5769     1.2989    10.1930 </r>
       <r>     7.6549     1.0947    10.2784 </r>
       <r>     7.7329     0.7311    10.3354 </r>
       <r>     7.8108     0.4439    10.3700 </r>
       <r>     7.8888     0.3797    10.3996 </r>
       <r>     7.9668     0.4915    10.4379 </r>
       <r>     8.0447     0.6109    10.4856 </r>
       <r>     8.1227     0.5966    10.5321 </r>
       <r>     8.2007     0.4522    10.5673 </r>
       <r>     8.2786     0.2962    10.5904 </r>
       <r>     8.3566     0.2216    10.6077 </r>
       <r>     8.4346     0.2168    10.6246 </r>
       <r>     8.5125     0.2161    10.6414 </r>
       <r>     8.5905     0.1978    10.6569 </r>
       <r>     8.6685     0.2419    10.6757 </r>
       <r>     8.7464     0.5256    10.7167 </r>
       <r>     8.8244     1.2227    10.8120 </r>
       <r>     8.9024     2.2578    10.9881 </r>
       <r>     8.9803     3.1280    11.2320 </r>
       <r>     9.0583     3.2260    11.4835 </r>
       <r>     9.1363     2.4743    11.6764 </r>
       <r>     9.2142     1.4110    11.7864 </r>
       <r>     9.2922     0.5982    11.8330 </r>
       <r>     9.3702     0.1885    11.8477 </r>
       <r>     9.4481     0.0441    11.8512 </r>
       <r>     9.5261     0.0077    11.8518 </r>
       <r>     9.6041     0.0010    11.8518 </r>
       <r>     9.6820     0.0001    11.8519 </r>
       <r>     9.7600     0.0000    11.8519 </r>
       <r>     9.8380     0.0000    11.8519 </r>
       <r>     9.9159     0.0000    11.8519 </r>
       <r>     9.9939     0.0000    11.8519 </r>
       <r>    10.0719     0.0000    11.8519 </r>
       <r>    10.1498     0.0000    11.8519 </r>
       <r>    10.2278     0.0000    11.8519 </r>
       <r>    10.3058     0.0000    11.8519 </r>
       <r>    10.3837     0.0000    11.8519 </r>
       <r>    10.4617     0.0000    11.8519 </r>
       <r>    10.5397     0.0000    11.8519 </r>
       <r>    10.6176     0.0000    11.8519 </r>
       <r>    10.6956     0.0002    11.8519 </r>
       <r>    10.7736     0.0022    11.8520 </r>
       <r>    10.8515     0.0145    11.8532 </r>
       <r>    10.9295     0.0715    11.8587 </r>
       <r>    11.0075     0.2629    11.8792 </r>
       <r>    11.0854     0.7182    11.9352 </r>
       <r>    11.1634     1.4585    12.0489 </r>
       <r>    11.2414     2.2020    12.2206 </r>
       <r>    11.3193     2.4729    12.4134 </r>
       <r>    11.3973     2.0718    12.5750 </r>
       <r>    11.4753     1.3275    12.6785 </r>
       <r>    11.5532     0.7794    12.7392 </r>
       <r>    11.6312     0.7623    12.7987 </r>
       <r>    11.7092     1.2859    12.8989 </r>
       <r>    11.7871     2.0331    13.0574 </r>
       <r>    11.8651     2.4681    13.2499 </r>
       <r>    11.9431     2.2414    13.4246 </r>
       <r>    12.0210     1.5434    13.5449 </r>
       <r>    12.0990     0.9126    13.6161 </r>
       <r>    12.1770     0.7784    13.6768 </r>
       <r>    12.2549     1.2579    13.7749 </r>
       <r>    12.3329     2.1655    13.9437 </r>
       <r>    12.4109     3.1002    14.1854 </r>
       <r>    12.4888     3.6871    14.4729 </r>
       <r>    12.5668     3.7677    14.7666 </r>
       <r>    12.6448     3.3277    15.0261 </r>
       <r>    12.7227     2.4620    15.2180 </r>
       <r>    12.8007     1.4674    15.3324 </r>
       <r>    12.8787     0.7183    15.3885 </r>
       <r>    12.9566     0.4158    15.4209 </r>
       <r>    13.0346     0.5567    15.4643 </r>
       <r>    13.1126     1.0070    15.5428 </r>
       <r>    13.1905     1.4856    15.6586 </r>
       <r>    13.2685     1.6453    15.7869 </r>
       <r>    13.3465     1.3561    15.8926 </r>
       <r>    13.4244     0.8311    15.9574 </r>
       <r>    13.5024     0.3787    15.9869 </r>
       <r>    13.5804     0.1282    15.9969 </r>
       <r>    13.6583     0.0323    15.9995 </r>
       <r>    13.7363     0.0060    15.9999 </r>
       <r>    13.8143     0.0008    16.0000 </r>
       <r>    13.8922     0.0001    16.0000 </r>
       <r>    13.9702     0.0000    16.0000 </r>
       <r>    14.0482     0.0000    16.0000 </r>
       <r>    14.1261     0.0000    16.0000 </r>
       <r>    14.2041     0.0000    16.0000 </r>
       <r>    14.2821     0.0000    16.0000 </r>
       <r>    14.3600     0.0000    16.0000 </r>
       <r>    14.4380     0.0000    16.0000 </r>
       <r>    14.5160     0.0000    16.0000 </r>
       <r>    14.5939     0.0000    16.0000 </r>
       <r>    14.6719     0.0000    16.0000 </r>
       <r>    14.7499     0.0000    16.0000 </r>
       <r>    14.8278     0.0000    16.0000 </r>
       <r>    14.9058     0.0000    16.0000 </r>
       <r>    14.9837     0.0000    16.0000 </r>
       <r>    15.0617     0.0000    16.0000 </r>
       <r>    15.1397     0.0000    16.0000 </r>
       <r>    15.2176     0.0000    16.0000 </r>
      </set>
     </set>
    </array>
   </total>
  </dos>
 </calculation>
 <structure name="finalpos" >
  <crystal>
   <varray name="basis" >
    <v>       0.00000000       2.75204431       2.75204431 </v>
    <v>       2.75204431       0.00000000       2.75204431 </v>
    <v>       2.75204431       2.75204431       0.00000000 </v>
   </varray>
   <i name="volume">     41.68657967 </i>
   <varray name="rec_basis" >
    <v>      -0.18168312       0.18168312       0.18168312 </v>
    <v>       0.18168312      -0.18168312       0.18168312 </v>
    <v>       0.18168312       0.18168312      -0.18168312 </v>
   </varray>
  </crystal>
  <varray name="positions" >
   <v>       0.50000000       0.50000000       0.50000000 </v>
   <v>       0.75000000       0.75000000       0.75000000 </v>
  </varray>
 </structure>
</modeling>
