unknown system                          
   1.00000000000000     
     0.000000    2.679613    2.679613
     2.679613    0.000000    2.679613
     2.679613    2.679613    0.000000
   Si
     2
Direct
  0.000000  0.000000  0.000000
  0.250000  0.250000  0.250000
 
   36   36   36
 -7.2736     -5.9672     -2.3859      2.5771      7.7780      12.179      15.115      16.396      16.253      15.182    
  13.744      12.258      10.856      9.6256      8.6128      7.8346      7.2893      6.9677      6.8616      6.9677    
  7.2893      7.8346      8.6128      9.6256      10.856      12.258      13.744      15.182      16.253      16.396    
  15.114      12.178      7.7778      2.5771     -2.3858     -5.9672     -5.9672     -3.3464      1.1994      6.5392    
  11.499      15.203      17.255      17.724      17.019      15.698      14.218      12.755      11.412      10.257    
  9.3262      8.6312      8.1722      7.9446      7.9446      8.1723      8.6312      9.3261      10.257      11.412    
  12.755      14.218      15.698      17.019      17.724      17.255      15.203      11.498      6.5391      1.1994    
 -3.3463     -5.9672     -2.3859      1.1994      6.0896      11.098      15.208      17.830      18.858      18.573    
  17.475      16.075      14.624      13.232      11.981      10.923      10.087      9.4859      9.1242      9.0036    
  9.1243      9.4859      10.087      10.923      11.981      13.232      14.624      16.075      17.475      18.573    
  18.858      17.830      15.208      11.098      6.0896      1.1994     -2.3859     -3.7045      2.5771      6.5392    
  11.098      15.202      18.121      19.577      19.705      18.907      17.673      16.316      14.955      13.676    
  12.540      11.590      10.855      10.355      10.101      10.101      10.355      10.855      11.590      12.540    
  13.676      14.955      16.316      17.673      18.907      19.705      19.577      18.121      15.202      11.098    
  6.5392      2.5772     0.26475     0.26473      7.7780      11.499      15.208      18.121      19.824      20.302    
  19.838      18.852      17.675      16.432      15.206      14.062      13.050      12.210      11.577      11.183    
  11.049      11.183      11.578      12.210      13.050      14.062      15.206      16.432      17.675      18.852    
  19.838      20.302      19.824      18.121      15.208      11.499      7.7779      5.0056      3.9781      5.0056    
  12.179      15.203      17.830      19.577      20.302      20.161      19.480      18.558      17.517      16.432    
  15.363      14.358      13.463      12.726      12.195      11.916      11.916      12.195      12.726      13.463    
  14.358      15.363      16.432      17.517      18.558      19.480      20.162      20.302      19.577      17.830    
  15.203      12.179      9.4946      7.9105      7.9105      9.4947      15.115      17.255      18.858      19.705    
  19.838      19.480      18.864      18.092      17.227      16.316      15.401      14.521      13.728      13.084    
  12.658      12.508      12.658      13.084      13.728      14.521      15.401      16.316      17.227      18.093    
  18.864      19.480      19.838      19.705      18.858      17.255      15.115      12.911      11.244      10.623    
  11.244      12.911      16.396      17.724      18.573      18.907      18.852      18.558      18.092      17.503    
  16.822      16.075      15.291      14.512      13.796      13.229      12.912      12.912      13.229      13.796    
  14.512      15.291      16.075      16.822      17.503      18.093      18.558      18.852      18.907      18.573    
  17.724      16.396      14.826      13.411      12.568      12.568      13.411      14.826      16.253      17.019    
  17.475      17.673      17.675      17.517      17.227      16.822      16.309      15.698      15.011      14.286    
  13.614      13.128      12.950      13.128      13.614      14.286      15.011      15.698      16.309      16.822    
  17.227      17.517      17.675      17.673      17.475      17.019      16.253      15.249      14.214      13.427    
  13.133      13.427      14.214      15.249      15.182      15.698      16.075      16.316      16.432      16.432    
  16.316      16.075      15.698      15.182      14.535      13.828      13.208      12.843      12.843      13.208    
  13.828      14.535      15.182      15.698      16.075      16.316      16.433      16.433      16.316      16.075    
  15.698      15.182      14.535      13.828      13.208      12.843      12.843      13.208      13.828      14.535    
  13.744      14.218      14.624      14.955      15.206      15.363      15.401      15.291      15.011      14.535    
  13.895      13.223      12.707      12.513      12.708      13.224      13.895      14.535      15.011      15.291    
  15.401      15.363      15.207      14.956      14.624      14.218      13.744      13.219      12.683      12.199    
  11.855      11.729      11.854      12.199      12.683      13.219      12.258      12.755      13.232      13.676    
  14.062      14.358      14.521      14.512      14.286      13.828      13.223      12.648      12.297      12.297    
  12.648      13.224      13.828      14.286      14.512      14.521      14.358      14.062      13.676      13.232    
  12.755      12.258      11.756      11.271      10.837      10.504      10.322      10.322      10.504      10.837    
  11.271      11.756      10.856      11.412      11.981      12.540      13.050      13.463      13.728      13.796    
  13.614      13.208      12.707      12.297      12.139      12.297      12.708      13.208      13.614      13.796    
  13.728      13.463      13.050      12.540      11.981      11.412      10.856      10.331      9.8494      9.4294    
  9.0959      8.8788      8.8031      8.8788      9.0959      9.4293      9.8493      10.331      9.6256      10.257    
  10.923      11.590      12.210      12.726      13.084      13.229      13.128      12.843      12.513      12.297    
  12.297      12.514      12.843      13.128      13.229      13.084      12.726      12.210      11.590      10.923    
  10.257      9.6256      9.0489      8.5393      8.1055      7.7587      7.5136      7.3859      7.3860      7.5137    
  7.7588      8.1056      8.5393      9.0490      8.6128      9.3262      10.087      10.855      11.577      12.195    
  12.658      12.912      12.950      12.843      12.708      12.648      12.708      12.843      12.950      12.912    
  12.658      12.195      11.577      10.855      10.087      9.3261      8.6129      7.9722      7.4164      6.9505    
  6.5774      6.3022      6.1324      6.0749      6.1325      6.3023      6.5775      6.9506      7.4165      7.9722    
  7.8346      8.6312      9.4859      10.355      11.183      11.916      12.508      12.912      13.128      13.208    
  13.224      13.224      13.208      13.128      12.912      12.508      11.916      11.183      10.355      9.4858    
  8.6312      7.8346      7.1244      6.5137      6.0053      5.5975      5.2889      5.0805      4.9751      4.9752    
  5.0806      5.2890      5.5975      6.0052      6.5136      7.1243      7.2893      8.1722      9.1242      10.101    
  11.049      11.916      12.658      13.229      13.614      13.828      13.895      13.828      13.614      13.229    
  12.658      11.916      11.049      10.101      9.1243      8.1722      7.2892      6.5051      5.8337      5.2766    
  4.8289      4.4844      4.2391      4.0916      4.0423      4.0916      4.2391      4.4844      4.8288      5.2765    
  5.8336      6.5050      6.9677      7.9446      9.0036      10.101      11.183      12.195      13.084      13.796    
  14.286      14.535      14.535      14.286      13.796      13.084      12.195      11.183      10.101      9.0037    
  7.9446      6.9677      6.1029      5.3643      4.7525      4.2601      3.8771      3.5951      3.4090      3.3162    
  3.3162      3.4089      3.5951      3.8770      4.2600      4.7525      5.3643      6.1030      6.8616      7.9446    
  9.1243      10.355      11.578      12.726      13.728      14.512      15.011      15.182      15.011      14.512    
  13.728      12.726      11.577      10.355      9.1243      7.9446      6.8617      5.9057      5.0905      4.4157    
  3.8718      3.4459      3.1257      2.9022      2.7699      2.7260      2.7699      2.9021      3.1256      3.4458    
  3.8718      4.4157      5.0906      5.9057      6.9677      8.1723      9.4859      10.855      12.210      13.463    
  14.521      15.291      15.698      15.698      15.291      14.521      13.463      12.210      10.855      9.4858    
  8.1722      6.9677      5.9057      5.0007      4.2514      3.6466      3.1706      2.8079      2.5459      2.3755    
  2.2916      2.2916      2.3755      2.5458      2.8079      3.1707      3.6467      4.2515      5.0007      5.9058    
  7.2893      8.6312      10.087      11.590      13.050      14.358      15.401      16.075      16.309      16.075    
  15.401      14.358      13.050      11.590      10.087      8.6312      7.2892      6.1029      5.0905      4.2514    
  3.5729      3.0368      2.6243      2.3195      2.1100      1.9876      1.9473      1.9876      2.1100      2.3195    
  2.6243      3.0368      3.5730      4.2515      5.0906      6.1030      7.8346      9.3261      10.923      12.540    
  14.062      15.363      16.316      16.822      16.822      16.316      15.363      14.062      12.540      10.923    
  9.3261      7.8346      6.5051      5.3643      4.4157      3.6466      3.0368      2.5642      2.2095      1.9570    
  1.7950      1.7160      1.7160      1.7951      1.9570      2.2096      2.5643      3.0368      3.6467      4.4157    
  5.3643      6.5050      8.6128      10.257      11.981      13.676      15.206      16.432      17.227      17.503    
  17.227      16.433      15.207      13.676      11.981      10.257      8.6129      7.1244      5.8337      4.7525    
  3.8718      3.1706      2.6243      2.2095      1.9070      1.7017      1.5829      1.5441      1.5829      1.7018    
  1.9071      2.2096      2.6243      3.1707      3.8718      4.7525      5.8336      7.1243      9.6256      11.412    
  13.232      14.955      16.432      17.517      18.093      18.093      17.517      16.433      14.956      13.232    
  11.412      9.6256      7.9722      6.5137      5.2766      4.2601      3.4459      2.8079      2.3195      1.9570    
  1.7017      1.5395      1.4608      1.4609      1.5396      1.7018      1.9570      2.3195      2.8079      3.4458    
  4.2600      5.2765      6.5136      7.9722      10.856      12.755      14.624      16.316      17.675      18.558    
  18.864      18.558      17.675      16.316      14.624      12.755      10.856      9.0489      7.4164      6.0053    
  4.8289      3.8771      3.1257      2.5459      2.1100      1.7950      1.5829      1.4608      1.4210      1.4609    
  1.5829      1.7950      2.1100      2.5458      3.1256      3.8770      4.8289      6.0052      7.4165      9.0490    
  12.258      14.218      16.075      17.673      18.852      19.480      19.480      18.852      17.673      16.075    
  14.218      12.258      10.331      8.5393      6.9505      5.5975      4.4844      3.5951      2.9022      2.3755    
  1.9876      1.7160      1.5441      1.4609      1.4609      1.5441      1.7160      1.9876      2.3755      2.9022    
  3.5951      4.4844      5.5975      6.9506      8.5394      10.331      13.744      15.698      17.475      18.907    
  19.838      20.162      19.838      18.907      17.475      15.698      13.744      11.756      9.8494      8.1055    
  6.5774      5.2889      4.2391      3.4090      2.7699      2.2916      1.9473      1.7160      1.5829      1.5396    
  1.5829      1.7160      1.9473      2.2916      2.7699      3.4090      4.2391      5.2890      6.5775      8.1056    
  9.8494      11.756      15.182      17.019      18.573      19.705      20.302      20.302      19.705      18.573    
  17.019      15.182      13.219      11.271      9.4294      7.7587      6.3022      5.0805      4.0916      3.3162    
  2.7260      2.2916      1.9876      1.7951      1.7018      1.7018      1.7950      1.9876      2.2916      2.7260    
  3.3162      4.0916      5.0806      6.3023      7.7587      9.4293      11.271      13.219      16.253      17.724    
  18.858      19.577      19.824      19.577      18.858      17.724      16.253      14.535      12.683      10.837    
  9.0959      7.5136      6.1324      4.9751      4.0423      3.3162      2.7699      2.3755      2.1100      1.9570    
  1.9071      1.9570      2.1100      2.3755      2.7699      3.3162      4.0424      4.9752      6.1324      7.5136    
  9.0959      10.837      12.683      14.535      16.396      17.255      17.830      18.121      18.121      17.830    
  17.255      16.396      15.249      13.828      12.199      10.504      8.8788      7.3859      6.0749      4.9752    
  4.0916      3.4089      2.9021      2.5458      2.3195      2.2096      2.2096      2.3195      2.5458      2.9022    
  3.4090      4.0916      4.9752      6.0749      7.3859      8.8788      10.504      12.199      13.828      15.249    
  15.114      15.203      15.208      15.202      15.208      15.203      15.115      14.826      14.214      13.208    
  11.855      10.322      8.8031      7.3860      6.1325      5.0806      4.2391      3.5951      3.1256      2.8079    
  2.6243      2.5643      2.6243      2.8079      3.1256      3.5951      4.2391      5.0806      6.1324      7.3859    
  8.8031      10.322      11.855      13.208      14.214      14.826      12.178      11.498      11.098      11.098    
  11.499      12.179      12.911      13.411      13.427      12.843      11.729      10.322      8.8788      7.5137    
  6.3023      5.2890      4.4844      3.8770      3.4458      3.1707      3.0368      3.0368      3.1707      3.4458    
  3.8770      4.4844      5.2890      6.3023      7.5136      8.8788      10.322      11.729      12.843      13.427    
  13.411      12.911      7.7778      6.5391      6.0896      6.5392      7.7779      9.4946      11.244      12.568    
  13.133      12.843      11.854      10.504      9.0959      7.7588      6.5775      5.5975      4.8288      4.2600    
  3.8718      3.6467      3.5730      3.6467      3.8718      4.2600      4.8289      5.5975      6.5775      7.7587    
  9.0959      10.504      11.855      12.843      13.133      12.568      11.244      9.4945      2.5771      1.1994    
  1.1994      2.5772      5.0056      7.9105      10.623      12.568      13.427      13.208      12.199      10.837    
  9.4293      8.1056      6.9506      6.0052      5.2765      4.7525      4.4157      4.2515      4.2515      4.4157    
  4.7525      5.2765      6.0052      6.9506      8.1056      9.4293      10.837      12.199      13.208      13.427    
  12.568      10.623      7.9104      5.0056     -2.3858     -3.3463     -2.3859     0.26475      3.9781      7.9105    
  11.244      13.411      14.214      13.828      12.683      11.271      9.8493      8.5393      7.4165      6.5136    
  5.8336      5.3643      5.0906      5.0007      5.0906      5.3643      5.8336      6.5136      7.4165      8.5394    
  9.8494      11.271      12.683      13.828      14.214      13.411      11.244      7.9104      3.9781     0.26485    
 -5.9672     -5.9672     -3.7045     0.26473      5.0056      9.4947      12.911      14.826      15.249      14.535    
  13.219      11.756      10.331      9.0490      7.9722      7.1243      6.5050      6.1030      5.9057      5.9058    
  6.1030      6.5050      7.1243      7.9722      9.0490      10.331      11.756      13.219      14.535      15.249    
  14.826      12.911      9.4945      5.0056     0.26485     -3.7043     -5.9672     -3.3464      1.1994      6.5392    
  11.499      15.203      17.255      17.724      17.019      15.698      14.218      12.755      11.412      10.257    
  9.3261      8.6312      8.1722      7.9446      7.9446      8.1723      8.6312      9.3261      10.257      11.412    
  12.755      14.218      15.698      17.019      17.724      17.255      15.203      11.498      6.5391      1.1994    
 -3.3463     -5.9672     -3.3464     0.40673      5.5289      10.783      15.112      17.901      19.037      18.806    
  17.720      16.309      14.841      13.430      12.160      11.085      10.234      9.6217      9.2535      9.1307    
  9.2535      9.6217      10.234      11.085      12.160      13.430      14.841      16.309      17.721      18.806    
  19.036      17.901      15.112      10.783      5.5288     0.40666     -3.3464     -4.7264      1.1994      5.5289    
  10.520      15.036      18.287      19.970      20.223      19.464      18.212      16.822      15.422      14.101    
  12.925      11.940      11.176      10.656      10.391      10.391      10.656      11.176      11.940      12.925    
  14.101      15.422      16.822      18.212      19.464      20.223      19.970      18.287      15.036      10.520    
  5.5288      1.1994     -1.3257     -1.3257      6.5392      10.783      15.036      18.416      20.458      21.136    
  20.749      19.749      18.526      17.227      15.940      14.732      13.659      12.766      12.092      11.672    
  11.528      11.672      12.092      12.766      13.659      14.732      15.940      17.227      18.526      19.750    
  20.750      21.137      20.458      18.416      15.036      10.783      6.5392      3.3832      2.2142      3.3832    
  11.499      15.112      18.287      20.458      21.452      21.433      20.754      19.782      18.677      17.517    
  16.365      15.276      14.300      13.493      12.911      12.604      12.604      12.911      13.493      14.300    
  15.276      16.365      17.517      18.677      19.782      20.754      21.433      21.453      20.458      18.287    
  15.112      11.499      8.3076      6.4280      6.4280      8.3077      15.203      17.901      19.970      21.136    
  21.433      21.103      20.450      19.619      18.677      17.675      16.658      15.672      14.777      14.043    
  13.552      13.378      13.552      14.043      14.778      15.672      16.658      17.675      18.677      19.619    
  20.450      21.104      21.433      21.136      19.970      17.901      15.203      12.455      10.387      9.6162    
  10.387      12.455      17.255      19.037      20.223      20.749      20.754      20.450      19.946      19.293    
  18.526      17.673      16.767      15.849      14.987      14.295      13.905      13.905      14.295      14.987    
  15.849      16.767      17.673      18.526      19.293      19.946      20.450      20.754      20.750      20.223    
  19.037      17.255      15.189      13.343      12.249      12.249      13.343      15.189      17.724      18.806    
  19.464      19.749      19.782      19.619      19.293      18.821      18.212      17.475      16.618      15.685    
  14.807      14.170      13.936      14.170      14.807      15.685      16.618      17.475      18.212      18.821    
  19.293      19.619      19.782      19.749      19.464      18.806      17.724      16.332      14.912      13.841    
  13.441      13.841      14.912      16.332      17.019      17.720      18.212      18.526      18.677      18.677    
  18.526      18.212      17.720      17.019      16.110      15.112      14.237      13.723      13.723      14.237    
  15.112      16.110      17.019      17.720      18.212      18.526      18.677      18.677      18.526      18.212    
  17.720      17.019      16.110      15.112      14.237      13.723      13.723      14.237      15.112      16.110    
  15.698      16.309      16.822      17.227      17.517      17.675      17.673      17.475      17.019      16.253    
  15.249      14.214      13.427      13.133      13.427      14.214      15.249      16.253      17.019      17.475    
  17.673      17.675      17.517      17.227      16.822      16.309      15.698      15.011      14.286      13.614    
  13.128      12.950      13.128      13.614      14.286      15.011      14.218      14.841      15.422      15.940    
  16.365      16.658      16.767      16.618      16.110      15.249      14.193      13.224      12.641      12.641    
  13.224      14.193      15.249      16.110      16.618      16.767      16.658      16.365      15.940      15.422    
  14.841      14.218      13.575      12.943      12.373      11.931      11.687      11.687      11.931      12.373    
  12.942      13.574      12.755      13.430      14.101      14.732      15.276      15.672      15.849      15.685    
  15.112      14.214      13.224      12.451      12.159      12.451      13.224      14.214      15.112      15.685    
  15.849      15.672      15.276      14.732      14.101      13.430      12.755      12.099      11.487      10.946    
  10.513      10.229      10.130      10.229      10.513      10.946      11.487      12.099      11.412      12.160    
  12.925      13.659      14.300      14.777      14.987      14.807      14.237      13.427      12.641      12.159    
  12.159      12.641      13.427      14.237      14.807      14.987      14.777      14.300      13.659      12.925    
  12.160      11.412      10.712      10.081      9.5366      9.0976      8.7857      8.6228      8.6228      8.7857    
  9.0976      9.5365      10.081      10.712      10.257      11.085      11.940      12.766      13.493      14.043    
  14.295      14.170      13.723      13.133      12.641      12.451      12.641      13.133      13.723      14.170    
  14.295      14.043      13.493      12.766      11.940      11.085      10.257      9.4959      8.8234      8.2526    
  7.7922      7.4513      7.2404      7.1688      7.2404      7.4513      7.7923      8.2527      8.8235      9.4959    
  9.3261      10.234      11.176      12.092      12.911      13.552      13.905      13.936      13.723      13.427    
  13.224      13.224      13.427      13.723      13.936      13.905      13.552      12.911      12.092      11.176    
  10.234      9.3261      8.4969      7.7714      7.1604      6.6673      6.2931      6.0402      5.9123      5.9123    
  6.0403      6.2932      6.6674      7.1605      7.7714      8.4969      8.6312      9.6217      10.656      11.672    
  12.604      13.378      13.905      14.170      14.237      14.214      14.193      14.214      14.237      14.170    
  13.905      13.378      12.604      11.672      10.656      9.6217      8.6312      7.7300      6.9450      6.2864    
  5.7539      5.3432      5.0507      4.8749      4.8162      4.8750      5.0508      5.3433      5.7539      6.2863    
  6.9449      7.7299      8.1722      9.2535      10.391      11.528      12.604      13.552      14.295      14.807    
  15.112      15.249      15.249      15.112      14.807      14.295      13.552      12.604      11.528      10.391    
  9.2535      8.1722      7.1926      6.3420      5.6297      5.0530      4.6034      4.2724      4.0539      3.9451    
  3.9451      4.0539      4.2723      4.6034      5.0529      5.6296      6.3419      7.1927      7.9446      9.1307    
  10.391      11.672      12.911      14.043      14.987      15.685      16.110      16.253      16.110      15.685    
  14.987      14.043      12.911      11.672      10.391      9.1308      7.9446      6.8760      5.9507      5.1770    
  4.5501      4.0580      3.6879      3.4295      3.2765      3.2258      3.2765      3.4294      3.6878      4.0579    
  4.5501      5.1771      5.9507      6.8760      7.9446      9.2535      10.656      12.092      13.493      14.778    
  15.849      16.618      17.019      17.019      16.618      15.849      14.777      13.493      12.092      10.656    
  9.2535      7.9446      6.7715      5.7588      4.9131      4.2273      3.6865      3.2741      2.9760      2.7821    
  2.6865      2.6864      2.7820      2.9759      3.2741      3.6865      4.2273      4.9131      5.7588      6.7715    
  8.1723      9.6217      11.176      12.766      14.300      15.672      16.767      17.475      17.720      17.475    
  16.767      15.672      14.300      12.766      11.176      9.6217      8.1722      6.8760      5.7588      4.8265    
  4.0699      3.4711      3.0104      2.6696      2.4351      2.2978      2.2526      2.2978      2.4351      2.6696    
  3.0104      3.4712      4.0699      4.8265      5.7588      6.8760      8.6312      10.234      11.940      13.659    
  15.276      16.658      17.673      18.212      18.212      17.673      16.658      15.276      13.659      11.940    
  10.234      8.6312      7.1926      5.9507      4.9131      4.0699      3.4007      2.8821      2.4927      2.2150    
  2.0365      1.9491      1.9491      2.0364      2.2150      2.4927      2.8822      3.4007      4.0699      4.9131    
  5.9507      7.1927      9.3261      11.085      12.925      14.732      16.365      17.675      18.526      18.821    
  18.526      17.675      16.365      14.732      12.925      11.085      9.3261      7.7300      6.3420      5.1770    
  4.2273      3.4711      2.8821      2.4349      2.1082      1.8860      1.7570      1.7147      1.7570      1.8860    
  2.1082      2.4349      2.8822      3.4712      4.2273      5.1770      6.3419      7.7299      10.257      12.160    
  14.101      15.940      17.517      18.677      19.293      19.293      18.677      17.517      15.940      14.101    
  12.160      10.257      8.4969      6.9450      5.6297      4.5501      3.6865      3.0104      2.4927      2.1082    
  1.8368      1.6640      1.5799      1.5799      1.6640      1.8368      2.1082      2.4927      3.0104      3.6865    
  4.5501      5.6296      6.9449      8.4969      11.412      13.430      15.422      17.227      18.677      19.619    
  19.946      19.619      18.677      17.227      15.422      13.430      11.412      9.4959      7.7714      6.2864    
  5.0530      4.0580      3.2741      2.6696      2.2150      1.8860      1.6640      1.5360      1.4942      1.5360    
  1.6640      1.8860      2.2150      2.6696      3.2741      4.0579      5.0529      6.2863      7.7713      9.4959    
  12.755      14.841      16.822      18.526      19.782      20.450      20.450      19.782      18.526      16.822    
  14.841      12.755      10.712      8.8234      7.1604      5.7539      4.6034      3.6879      2.9760      2.4351    
  2.0365      1.7570      1.5799      1.4942      1.4942      1.5799      1.7570      2.0364      2.4351      2.9759    
  3.6878      4.6034      5.7539      7.1605      8.8235      10.712      14.218      16.309      18.212      19.750    
  20.754      21.104      20.754      19.749      18.212      16.309      14.218      12.099      10.081      8.2526    
  6.6673      5.3432      4.2724      3.4295      2.7821      2.2978      1.9491      1.7147      1.5799      1.5360    
  1.5799      1.7147      1.9491      2.2978      2.7820      3.4295      4.2724      5.3433      6.6674      8.2527    
  10.081      12.099      15.698      17.721      19.464      20.750      21.433      21.433      20.750      19.464    
  17.720      15.698      13.575      11.487      9.5366      7.7922      6.2931      5.0507      4.0539      3.2765    
  2.6865      2.2526      1.9491      1.7570      1.6640      1.6640      1.7570      1.9491      2.2526      2.6864    
  3.2765      4.0539      5.0508      6.2932      7.7923      9.5365      11.487      13.575      17.019      18.806    
  20.223      21.137      21.453      21.136      20.223      18.806      17.019      15.011      12.943      10.946    
  9.0976      7.4513      6.0402      4.8749      3.9451      3.2258      2.6864      2.2978      2.0364      1.8860    
  1.8368      1.8860      2.0364      2.2978      2.6864      3.2258      3.9451      4.8750      6.0403      7.4513    
  9.0975      10.946      12.942      15.011      17.724      19.036      19.970      20.458      20.458      19.970    
  19.037      17.724      16.110      14.286      12.373      10.513      8.7857      7.2404      5.9123      4.8162    
  3.9451      3.2765      2.7820      2.4351      2.2150      2.1082      2.1082      2.2150      2.4351      2.7820    
  3.2765      3.9451      4.8163      5.9123      7.2404      8.7857      10.513      12.373      14.286      16.110    
  17.255      17.901      18.287      18.416      18.287      17.901      17.255      16.332      15.112      13.614    
  11.931      10.229      8.6228      7.1688      5.9123      4.8750      4.0539      3.4294      2.9759      2.6696    
  2.4927      2.4349      2.4927      2.6696      2.9759      3.4295      4.0539      4.8750      5.9123      7.1688    
  8.6227      10.229      11.931      13.614      15.112      16.331      15.203      15.112      15.036      15.036    
  15.112      15.203      15.189      14.912      14.237      13.128      11.687      10.130      8.6228      7.2404    
  6.0403      5.0508      4.2723      3.6878      3.2741      3.0104      2.8822      2.8822      3.0104      3.2741    
  3.6878      4.2724      5.0508      6.0403      7.2404      8.6227      10.130      11.687      13.128      14.237    
  14.912      15.189      11.498      10.783      10.520      10.783      11.499      12.455      13.343      13.841    
  13.723      12.950      11.687      10.229      8.7857      7.4513      6.2932      5.3433      4.6034      4.0579    
  3.6865      3.4712      3.4007      3.4712      3.6865      4.0579      4.6034      5.3433      6.2932      7.4513    
  8.7857      10.229      11.687      12.950      13.723      13.841      13.343      12.455      6.5391      5.5288    