       N       E                     dE             d eps       ncg     rms          rms(c)
DAV:   1     0.303876529112E+01    0.30388E+01   -0.26915E+03   960   0.565E+02
DAV:   2    -0.108380802413E+02   -0.13877E+02   -0.13180E+02  1456   0.715E+01
DAV:   3    -0.110075826150E+02   -0.16950E+00   -0.16950E+00  1192   0.992E+00
DAV:   4    -0.110083083392E+02   -0.72572E-03   -0.72572E-03  1560   0.678E-01
DAV:   5    -0.110083087759E+02   -0.43672E-06   -0.43703E-06  1248   0.139E-02    0.311E+00
DAV:   6    -0.108658697534E+02    0.14244E+00   -0.96771E-02  1128   0.163E+00    0.183E+00
DAV:   7    -0.108026793121E+02    0.63190E-01   -0.17102E-01  1288   0.229E+00    0.162E-01
DAV:   8    -0.108039883092E+02   -0.13090E-02   -0.44279E-03  1112   0.502E-01    0.253E-02
DAV:   9    -0.108040720588E+02   -0.83750E-04   -0.92805E-05   888   0.807E-02
   1 F= -.10804072E+02 E0= -.10804024E+02  d E =-.108041E+02
