<?xml version="1.0" encoding="ISO-8859-1"?>
<modeling>
 <generator>
  <i name="program" type="string">vasp </i>
  <i name="version" type="string">5.4.4.18Apr17-6-g9f103f2a35  </i>
  <i name="subversion" type="string">(build Dec 09 2018 21:25:21) complex            parallel </i>
  <i name="platform" type="string">IFC18.0.1.163_CrayMPICH7.7.0_MKL18.0.1.163 </i>
  <i name="date" type="string">2019 04 01 </i>
  <i name="time" type="string">15:58:56 </i>
 </generator>
 <incar>
  <i type="string" name="PREC">normal</i>
  <i type="int" name="IBRION">     2</i>
  <i name="EDIFF">      0.00040000</i>
  <i name="EDIFFG">     -0.01000000</i>
  <i type="int" name="NSW">    15</i>
  <i type="int" name="ISIF">     2</i>
  <i name="ENCUT">    350.00000000</i>
  <i type="int" name="NBANDS">     8</i>
  <i type="logical" name="LREAL"> F  </i>
  <i type="int" name="ISMEAR">     0</i>
  <i name="SIGMA">      0.20000000</i>
  <v type="int" name="KPOINT_BSE">    -1     0     0     0</v>
 </incar>
 <structure name="primitive_cell" >
  <crystal>
   <varray name="basis" >
    <v>       0.00000000       2.67961300       2.67961300 </v>
    <v>       2.67961300       0.00000000       2.67961300 </v>
    <v>       2.67961300       2.67961300       0.00000000 </v>
   </varray>
   <i name="volume">     38.48098888 </i>
   <varray name="rec_basis" >
    <v>      -0.18659411       0.18659411       0.18659411 </v>
    <v>       0.18659411      -0.18659411       0.18659411 </v>
    <v>       0.18659411       0.18659411      -0.18659411 </v>
   </varray>
  </crystal>
  <varray name="positions" >
   <v>       0.00000000       0.00000000       0.00000000 </v>
   <v>       0.25000000       0.25000000       0.25000000 </v>
  </varray>
 </structure>
 <varray name="primitive_index" >
  <v type="int" >        1 </v>
  <v type="int" >        2 </v>
 </varray>
 <kpoints>
  <generation param="Monkhorst-Pack">
   <v type="int" name="divisions">       8        8        8 </v>
   <v name="usershift">      0.00000000       0.00000000       0.00000000 </v>
   <v name="genvec1">      0.12500000      -0.00000000       0.00000000 </v>
   <v name="genvec2">     -0.00000000       0.12500000      -0.00000000 </v>
   <v name="genvec3">      0.00000000       0.00000000       0.12500000 </v>
   <v name="shift">      0.50000000       0.50000000       0.50000000 </v>
  </generation>
  <varray name="kpointlist" >
   <v>       0.06250000       0.06250000       0.06250000 </v>
   <v>       0.18750000       0.06250000       0.06250000 </v>
   <v>       0.31250000       0.06250000       0.06250000 </v>
   <v>       0.43750000       0.06250000       0.06250000 </v>
   <v>      -0.43750000       0.06250000       0.06250000 </v>
   <v>      -0.31250000       0.06250000       0.06250000 </v>
   <v>      -0.18750000       0.06250000       0.06250000 </v>
   <v>      -0.06250000       0.06250000       0.06250000 </v>
   <v>       0.18750000       0.18750000       0.06250000 </v>
   <v>       0.31250000       0.18750000       0.06250000 </v>
   <v>       0.43750000       0.18750000       0.06250000 </v>
   <v>      -0.43750000       0.18750000       0.06250000 </v>
   <v>      -0.31250000       0.18750000       0.06250000 </v>
   <v>      -0.18750000       0.18750000       0.06250000 </v>
   <v>      -0.06250000       0.18750000       0.06250000 </v>
   <v>       0.31250000       0.31250000       0.06250000 </v>
   <v>       0.43750000       0.31250000       0.06250000 </v>
   <v>      -0.43750000       0.31250000       0.06250000 </v>
   <v>      -0.31250000       0.31250000       0.06250000 </v>
   <v>      -0.18750000       0.31250000       0.06250000 </v>
   <v>      -0.06250000       0.31250000       0.06250000 </v>
   <v>       0.43750000       0.43750000       0.06250000 </v>
   <v>      -0.43750000       0.43750000       0.06250000 </v>
   <v>      -0.31250000       0.43750000       0.06250000 </v>
   <v>      -0.18750000       0.43750000       0.06250000 </v>
   <v>      -0.06250000       0.43750000       0.06250000 </v>
   <v>      -0.43750000      -0.43750000       0.06250000 </v>
   <v>      -0.31250000      -0.43750000       0.06250000 </v>
   <v>      -0.18750000      -0.43750000       0.06250000 </v>
   <v>      -0.31250000      -0.31250000       0.06250000 </v>
   <v>      -0.18750000      -0.31250000       0.06250000 </v>
   <v>      -0.18750000      -0.18750000       0.06250000 </v>
   <v>       0.18750000       0.18750000       0.18750000 </v>
   <v>       0.31250000       0.18750000       0.18750000 </v>
   <v>       0.43750000       0.18750000       0.18750000 </v>
   <v>      -0.43750000       0.18750000       0.18750000 </v>
   <v>      -0.31250000       0.18750000       0.18750000 </v>
   <v>      -0.18750000       0.18750000       0.18750000 </v>
   <v>       0.31250000       0.31250000       0.18750000 </v>
   <v>       0.43750000       0.31250000       0.18750000 </v>
   <v>      -0.43750000       0.31250000       0.18750000 </v>
   <v>      -0.31250000       0.31250000       0.18750000 </v>
   <v>      -0.18750000       0.31250000       0.18750000 </v>
   <v>       0.43750000       0.43750000       0.18750000 </v>
   <v>      -0.43750000       0.43750000       0.18750000 </v>
   <v>      -0.31250000       0.43750000       0.18750000 </v>
   <v>      -0.18750000       0.43750000       0.18750000 </v>
   <v>      -0.43750000      -0.43750000       0.18750000 </v>
   <v>      -0.31250000      -0.43750000       0.18750000 </v>
   <v>      -0.31250000      -0.31250000       0.18750000 </v>
   <v>       0.31250000       0.31250000       0.31250000 </v>
   <v>       0.43750000       0.31250000       0.31250000 </v>
   <v>      -0.43750000       0.31250000       0.31250000 </v>
   <v>      -0.31250000       0.31250000       0.31250000 </v>
   <v>       0.43750000       0.43750000       0.31250000 </v>
   <v>      -0.43750000       0.43750000       0.31250000 </v>
   <v>      -0.31250000       0.43750000       0.31250000 </v>
   <v>      -0.43750000      -0.43750000       0.31250000 </v>
   <v>       0.43750000       0.43750000       0.43750000 </v>
   <v>      -0.43750000       0.43750000       0.43750000 </v>
  </varray>
  <varray name="weights" >
   <v>       0.00390625 </v>
   <v>       0.01171875 </v>
   <v>       0.01171875 </v>
   <v>       0.01171875 </v>
   <v>       0.01171875 </v>
   <v>       0.01171875 </v>
   <v>       0.01171875 </v>
   <v>       0.01171875 </v>
   <v>       0.01171875 </v>
   <v>       0.02343750 </v>
   <v>       0.02343750 </v>
   <v>       0.02343750 </v>
   <v>       0.02343750 </v>
   <v>       0.02343750 </v>
   <v>       0.02343750 </v>
   <v>       0.01171875 </v>
   <v>       0.02343750 </v>
   <v>       0.02343750 </v>
   <v>       0.02343750 </v>
   <v>       0.02343750 </v>
   <v>       0.02343750 </v>
   <v>       0.01171875 </v>
   <v>       0.02343750 </v>
   <v>       0.02343750 </v>
   <v>       0.02343750 </v>
   <v>       0.02343750 </v>
   <v>       0.01171875 </v>
   <v>       0.02343750 </v>
   <v>       0.02343750 </v>
   <v>       0.01171875 </v>
   <v>       0.02343750 </v>
   <v>       0.01171875 </v>
   <v>       0.00390625 </v>
   <v>       0.01171875 </v>
   <v>       0.01171875 </v>
   <v>       0.01171875 </v>
   <v>       0.01171875 </v>
   <v>       0.01171875 </v>
   <v>       0.01171875 </v>
   <v>       0.02343750 </v>
   <v>       0.02343750 </v>
   <v>       0.02343750 </v>
   <v>       0.02343750 </v>
   <v>       0.01171875 </v>
   <v>       0.02343750 </v>
   <v>       0.02343750 </v>
   <v>       0.02343750 </v>
   <v>       0.01171875 </v>
   <v>       0.02343750 </v>
   <v>       0.01171875 </v>
   <v>       0.00390625 </v>
   <v>       0.01171875 </v>
   <v>       0.01171875 </v>
   <v>       0.01171875 </v>
   <v>       0.01171875 </v>
   <v>       0.02343750 </v>
   <v>       0.02343750 </v>
   <v>       0.01171875 </v>
   <v>       0.00390625 </v>
   <v>       0.01171875 </v>
  </varray>
 </kpoints>
 <parameters>
  <separator name="general" >
   <i type="string" name="SYSTEM">unknown system</i>
   <i type="logical" name="LCOMPAT"> F  </i>
  </separator>
  <separator name="electronic" >
   <i type="string" name="PREC">normal</i>
   <i name="ENMAX">    350.00000000</i>
   <i name="ENAUG">    322.06900000</i>
   <i name="EDIFF">      0.00040000</i>
   <i type="int" name="IALGO">    38</i>
   <i type="int" name="IWAVPR">    11</i>
   <i type="int" name="NBANDS">     8</i>
   <i name="NELECT">      8.00000000</i>
   <i type="int" name="TURBO">     0</i>
   <i type="int" name="IRESTART">     0</i>
   <i type="int" name="NREBOOT">     0</i>
   <i type="int" name="NMIN">     0</i>
   <i name="EREF">      0.00000000</i>
   <separator name="electronic smearing" >
    <i type="int" name="ISMEAR">     0</i>
    <i name="SIGMA">      0.20000000</i>
    <i name="KSPACING">      0.50000000</i>
    <i type="logical" name="KGAMMA"> T  </i>
   </separator>
   <separator name="electronic projectors" >
    <i type="logical" name="LREAL"> F  </i>
    <v name="ROPT">      0.00000000</v>
    <i type="int" name="LMAXPAW">  -100</i>
    <i type="int" name="LMAXMIX">     2</i>
    <i type="logical" name="NLSPLINE"> F  </i>
   </separator>
   <separator name="electronic startup" >
    <i type="int" name="ISTART">     0</i>
    <i type="int" name="ICHARG">     2</i>
    <i type="int" name="INIWAV">     1</i>
   </separator>
   <separator name="electronic spin" >
    <i type="int" name="ISPIN">     1</i>
    <i type="logical" name="LNONCOLLINEAR"> F  </i>
    <v name="MAGMOM">      1.00000000      1.00000000</v>
    <i name="NUPDOWN">     -1.00000000</i>
    <i type="logical" name="LSORBIT"> F  </i>
    <v name="SAXIS">      0.00000000      0.00000000      1.00000000</v>
    <i type="logical" name="LSPIRAL"> F  </i>
    <v name="QSPIRAL">      0.00000000      0.00000000      0.00000000</v>
    <i type="logical" name="LZEROZ"> F  </i>
   </separator>
   <separator name="electronic exchange-correlation" >
    <i type="logical" name="LASPH"> F  </i>
    <i type="logical" name="LMETAGGA"> F  </i>
   </separator>
   <separator name="electronic convergence" >
    <i type="int" name="NELM">    60</i>
    <i type="int" name="NELMDL">    -5</i>
    <i type="int" name="NELMIN">     2</i>
    <i name="ENINI">    350.00000000</i>
    <separator name="electronic convergence detail" >
     <i type="logical" name="LDIAG"> T  </i>
     <i type="logical" name="LSUBROT"> F  </i>
     <i name="WEIMIN">      0.00100000</i>
     <i name="EBREAK">      0.00001250</i>
     <i name="DEPER">      0.30000000</i>
     <i type="int" name="NRMM">     4</i>
     <i name="TIME">      0.40000000</i>
    </separator>
   </separator>
   <separator name="electronic mixer" >
    <i name="AMIX">      0.40000000</i>
    <i name="BMIX">      1.00000000</i>
    <i name="AMIN">      0.10000000</i>
    <i name="AMIX_MAG">      1.60000000</i>
    <i name="BMIX_MAG">      1.00000000</i>
    <separator name="electronic mixer details" >
     <i type="int" name="IMIX">     4</i>
     <i type="logical" name="MIXFIRST"> F  </i>
     <i type="int" name="MAXMIX">   -45</i>
     <i name="WC">    100.00000000</i>
     <i type="int" name="INIMIX">     1</i>
     <i type="int" name="MIXPRE">     1</i>
     <i type="int" name="MREMOVE">     5</i>
    </separator>
   </separator>
   <separator name="electronic dipolcorrection" >
    <i type="logical" name="LDIPOL"> F  </i>
    <i type="logical" name="LMONO"> F  </i>
    <i type="int" name="IDIPOL">     0</i>
    <i name="EPSILON">      1.00000000</i>
    <v name="DIPOL">   -100.00000000   -100.00000000   -100.00000000</v>
    <i name="EFIELD">      0.00000000</i>
   </separator>
  </separator>
  <separator name="grids" >
   <i type="int" name="NGX">    18</i>
   <i type="int" name="NGY">    18</i>
   <i type="int" name="NGZ">    18</i>
   <i type="int" name="NGXF">    36</i>
   <i type="int" name="NGYF">    36</i>
   <i type="int" name="NGZF">    36</i>
   <i type="logical" name="ADDGRID"> F  </i>
  </separator>
  <separator name="ionic" >
   <i type="int" name="NSW">    15</i>
   <i type="int" name="IBRION">     2</i>
   <i type="int" name="MDALGO">     0</i>
   <i type="int" name="ISIF">     2</i>
   <i name="PSTRESS">      0.00000000</i>
   <i name="EDIFFG">     -0.01000000</i>
   <i type="int" name="NFREE">     1</i>
   <i name="POTIM">      0.50000000</i>
   <i name="SMASS">     -3.00000000</i>
   <i name="SCALEE">      1.00000000</i>
  </separator>
  <separator name="ionic md" >
   <i name="TEBEG">      0.00010000</i>
   <i name="TEEND">      0.00010000</i>
   <i type="int" name="NBLOCK">     1</i>
   <i type="int" name="KBLOCK">    15</i>
   <i type="int" name="NPACO">   256</i>
   <i name="APACO">     16.00000000</i>
  </separator>
  <separator name="symmetry" >
   <i type="int" name="ISYM">     2</i>
   <i name="SYMPREC">      0.00001000</i>
  </separator>
  <separator name="dos" >
   <i type="int" name="LORBIT">     0</i>
   <v name="RWIGS">     -1.00000000</v>
   <i type="int" name="NEDOS">   301</i>
   <i name="EMIN">     10.00000000</i>
   <i name="EMAX">    -10.00000000</i>
   <i name="EFERMI">      0.00000000</i>
  </separator>
  <separator name="writing" >
   <i type="int" name="NWRITE">     2</i>
   <i type="logical" name="LWAVE"> T  </i>
   <i type="logical" name="LDOWNSAMPLE"> F  </i>
   <i type="logical" name="LCHARG"> T  </i>
   <i type="logical" name="LPARD"> F  </i>
   <i type="logical" name="LVTOT"> F  </i>
   <i type="logical" name="LVHAR"> F  </i>
   <i type="logical" name="LELF"> F  </i>
   <i type="logical" name="LOPTICS"> F  </i>
   <v name="STM">      0.00000000      0.00000000      0.00000000      0.00000000      0.00000000      0.00000000      0.00000000</v>
  </separator>
  <separator name="performance" >
   <i type="int" name="NPAR">     8</i>
   <i type="int" name="NSIM">     4</i>
   <i type="int" name="NBLK">    -1</i>
   <i type="logical" name="LPLANE"> T  </i>
   <i type="logical" name="LSCALAPACK"> T  </i>
   <i type="logical" name="LSCAAWARE"> F  </i>
   <i type="logical" name="LSCALU"> F  </i>
   <i type="logical" name="LASYNC"> F  </i>
   <i type="logical" name="LORBITALREAL"> F  </i>
  </separator>
  <separator name="miscellaneous" >
   <i type="int" name="IDIOT">     3</i>
   <i type="int" name="ISPECIAL">     0</i>
   <i type="logical" name="LMUSIC"> F  </i>
   <v name="POMASS">     28.08500000</v>
   <v name="DARWINR">      0.00000000</v>
   <v name="DARWINV">      1.00000000</v>
   <i type="logical" name="LCORR"> T  </i>
  </separator>
  <i type="logical" name="GGA_COMPAT"> T  </i>
  <i type="logical" name="LBERRY"> F  </i>
  <i type="int" name="ICORELEVEL">     0</i>
  <i type="logical" name="LDAU"> F  </i>
  <i type="int" name="I_CONSTRAINED_M">     0</i>
  <separator name="electronic exchange-correlation" >
   <i type="string" name="GGA">--</i>
   <i type="int" name="VOSKOWN">     0</i>
   <i type="logical" name="LHFCALC"> F  </i>
   <i type="string" name="PRECFOCK"></i>
   <i type="logical" name="LSYMGRAD"> F  </i>
   <i type="logical" name="LHFONE"> F  </i>
   <i type="logical" name="LRHFCALC"> F  </i>
   <i type="logical" name="LTHOMAS"> F  </i>
   <i type="logical" name="LMODELHF"> F  </i>
   <i name="ENCUT4O">     -1.00000000</i>
   <i type="int" name="EXXOEP">     0</i>
   <i type="int" name="FOURORBIT">     0</i>
   <i name="AEXX">      0.00000000</i>
   <i name="HFALPHA">      0.00000000</i>
   <i name="MCALPHA">      0.00000000</i>
   <i name="ALDAX">      1.00000000</i>
   <i name="AGGAX">      1.00000000</i>
   <i name="ALDAC">      1.00000000</i>
   <i name="AGGAC">      1.00000000</i>
   <i type="int" name="NKREDX">     1</i>
   <i type="int" name="NKREDY">     1</i>
   <i type="int" name="NKREDZ">     1</i>
   <i type="logical" name="SHIFTRED"> F  </i>
   <i type="logical" name="ODDONLY"> F  </i>
   <i type="logical" name="EVENONLY"> F  </i>
   <i type="int" name="LMAXFOCK">     0</i>
   <i type="int" name="NMAXFOCKAE">     0</i>
   <i type="logical" name="LFOCKAEDFT"> F  </i>
   <i name="HFSCREEN">      0.00000000</i>
   <i name="HFSCREENC">      0.00000000</i>
   <i type="int" name="NBANDSGWLOW">     0</i>
  </separator>
  <separator name="vdW DFT" >
   <i type="logical" name="LUSE_VDW"> F  </i>
   <i name="Zab_VDW">     -0.84910000</i>
   <i name="PARAM1">      0.12340000</i>
   <i name="PARAM2">      1.00000000</i>
   <i name="PARAM3">      0.00000000</i>
  </separator>
  <separator name="model GW" >
   <i type="int" name="MODEL_GW">     0</i>
   <i name="MODEL_EPS0">     11.54429666</i>
   <i name="MODEL_ALPHA">      1.00000000</i>
  </separator>
  <separator name="linear response parameters" >
   <i type="logical" name="LEPSILON"> F  </i>
   <i type="logical" name="LRPA"> F  </i>
   <i type="logical" name="LNABLA"> F  </i>
   <i type="logical" name="LVEL"> F  </i>
   <i type="int" name="KINTER">     0</i>
   <i name="CSHIFT">      0.10000000</i>
   <i name="OMEGAMAX">     -1.00000000</i>
   <i name="DEG_THRESHOLD">      0.00200000</i>
   <i name="RTIME">     -0.10000000</i>
   <i name="WPLASMAI">      0.00000000</i>
   <v name="DFIELD">      0.00000000      0.00000000      0.00000000</v>
   <v name="WPLASMA">      0.00000000      0.00000000      0.00000000      0.00000000      0.00000000      0.00000000      0.00000000      0.00000000      0.00000000</v>
  </separator>
  <separator name="orbital magnetization" >
   <i type="logical" name="NUCIND"> F  </i>
   <v name="MAGPOS">      0.00000000      0.00000000      0.00000000</v>
   <i type="logical" name="LNICSALL"> T  </i>
   <i type="logical" name="ORBITALMAG"> F  </i>
   <i type="logical" name="LMAGBLOCH"> F  </i>
   <i type="logical" name="LCHIMAG"> F  </i>
   <i type="logical" name="LGAUGE"> T  </i>
   <i type="int" name="MAGATOM">     0</i>
   <v name="MAGDIPOL">      0.00000000      0.00000000      0.00000000</v>
   <v name="AVECCONST">      0.00000000      0.00000000      0.00000000</v>
  </separator>
  <separator name="response functions" >
   <i type="logical" name="LADDER"> F  </i>
   <i type="logical" name="LRPAFORCE"> F  </i>
   <i type="logical" name="LFXC"> F  </i>
   <i type="logical" name="LHARTREE"> T  </i>
   <i type="int" name="IBSE">     0</i>
   <v type="int" name="KPOINT">    -1     0     0     0</v>
   <i type="logical" name="LTCTE"> F  </i>
   <i type="logical" name="LTETE"> F  </i>
   <i type="logical" name="LTRIPLET"> F  </i>
   <i type="logical" name="LFXCEPS"> F  </i>
   <i type="logical" name="LFXHEG"> F  </i>
   <i type="int" name="NATURALO">     2</i>
   <i type="logical" name="L2ORDER"> F  </i>
   <i type="logical" name="LMP2LT"> F  </i>
   <i type="logical" name="LUSEW"> F  </i>
   <i name="ENCUTGW">     -2.00000000</i>
   <i name="ENCUTGWSOFT">     -2.00000000</i>
   <i name="ENCUTLF">     -1.00000000</i>
   <i type="int" name="LMAXMP2">    -1</i>
   <i name="SCISSOR">      0.00000000</i>
   <i type="int" name="NOMEGA">     0</i>
   <i type="int" name="NOMEGAR">     0</i>
   <i type="int" name="NBANDSGW">    -1</i>
   <i type="int" name="NBANDSO">    -1</i>
   <i type="int" name="NBANDSV">    -1</i>
   <i type="int" name="NELM">     1</i>
   <i type="int" name="NELMHF">     1</i>
   <i type="int" name="DIM">     3</i>
   <i type="int" name="ANTIRES">     0</i>
   <i name="OMEGAMAX">    -30.00000000</i>
   <i name="OMEGAMIN">    -30.00000000</i>
   <i name="OMEGATL">   -200.00000000</i>
   <i type="int" name="OMEGAGRID">   140</i>
   <i name="CSHIFT">     -0.10000000</i>
   <i type="logical" name="SELFENERGY"> F  </i>
   <i type="logical" name="LSPECTRAL"> F  </i>
   <i type="logical" name="LSPECTRALGW"> F  </i>
   <i type="logical" name="LSINGLES"> F  </i>
   <i type="logical" name="LFERMIGW"> F  </i>
   <i type="logical" name="ODDONLYGW"> F  </i>
   <i type="logical" name="EVENONLYGW"> F  </i>
   <i type="int" name="NKREDLFX">     1</i>
   <i type="int" name="NKREDLFY">     1</i>
   <i type="int" name="NKREDLFZ">     1</i>
   <i type="int" name="MAXMEM">  2800</i>
   <i type="int" name="TELESCOPE">     0</i>
   <i type="int" name="TAUPAR">     1</i>
   <i type="int" name="OMEGAPAR">    -1</i>
   <i name="LAMBDA">      1.00000000</i>
  </separator>
  <separator name="External order field" >
   <i name="OFIELD_KAPPA">      0.00000000</i>
   <v name="OFIELD_K">      0.00000000      0.00000000      0.00000000</v>
   <i name="OFIELD_Q6_NEAR">      0.00000000</i>
   <i name="OFIELD_Q6_FAR">      0.00000000</i>
   <i name="OFIELD_A">      0.00000000</i>
  </separator>
 </parameters>
 <atominfo>
  <atoms>       2 </atoms>
  <types>       1 </types>
  <array name="atoms" >
   <dimension dim="1">ion</dimension>
   <field type="string">element</field>
   <field type="int">atomtype</field>
   <set>
    <rc><c>Si</c><c>   1</c></rc>
    <rc><c>Si</c><c>   1</c></rc>
   </set>
  </array>
  <array name="atomtypes" >
   <dimension dim="1">type</dimension>
   <field type="int">atomspertype</field>
   <field type="string">element</field>
   <field>mass</field>
   <field>valence</field>
   <field type="string">pseudopotential</field>
   <set>
    <rc><c>   2</c><c>Si</c><c>     28.08500000</c><c>      4.00000000</c><c> PAW_PBE Si 05Jan2001                   </c></rc>
   </set>
  </array>
 </atominfo>
 <structure name="initialpos" >
  <crystal>
   <varray name="basis" >
    <v>       0.00000000       2.67961300       2.67961300 </v>
    <v>       2.67961300       0.00000000       2.67961300 </v>
    <v>       2.67961300       2.67961300       0.00000000 </v>
   </varray>
   <i name="volume">     38.48098888 </i>
   <varray name="rec_basis" >
    <v>      -0.18659411       0.18659411       0.18659411 </v>
    <v>       0.18659411      -0.18659411       0.18659411 </v>
    <v>       0.18659411       0.18659411      -0.18659411 </v>
   </varray>
  </crystal>
  <varray name="positions" >
   <v>       0.00000000       0.00000000       0.00000000 </v>
   <v>       0.25000000       0.25000000       0.25000000 </v>
  </varray>
 </structure>
 <calculation>
  <scstep>
   <time name="dav">    0.73    0.73</time>
   <time name="total">    0.78    0.79</time>
   <energy>
    <i name="alphaZ">      3.49919058 </i>
    <i name="ewald">   -231.58193746 </i>
    <i name="hartreedc">    -10.41841383 </i>
    <i name="XCdc">    -18.44519182 </i>
    <i name="pawpsdc">     65.95520812 </i>
    <i name="pawaedc">    -30.76852678 </i>
    <i name="eentropy">     -0.01764582 </i>
    <i name="bandstr">     18.68482816 </i>
    <i name="atom">    206.13125414 </i>
    <i name="e_fr_energy">      3.03876529 </i>
    <i name="e_wo_entrp">      3.05641111 </i>
    <i name="e_0_energy">      3.04758820 </i>
   </energy>
  </scstep>
  <scstep>
   <time name="dav">    1.09    1.10</time>
   <time name="total">    1.10    1.10</time>
   <energy>
    <i name="e_fr_energy">    -10.83808024 </i>
    <i name="e_wo_entrp">    -10.83807586 </i>
    <i name="e_0_energy">    -10.83807805 </i>
   </energy>
  </scstep>
  <scstep>
   <time name="dav">    0.90    0.91</time>
   <time name="total">    0.90    0.91</time>
   <energy>
    <i name="e_fr_energy">    -11.00758261 </i>
    <i name="e_wo_entrp">    -11.00758050 </i>
    <i name="e_0_energy">    -11.00758156 </i>
   </energy>
  </scstep>
  <scstep>
   <time name="dav">    1.18    1.18</time>
   <time name="total">    1.18    1.19</time>
   <energy>
    <i name="e_fr_energy">    -11.00830834 </i>
    <i name="e_wo_entrp">    -11.00830623 </i>
    <i name="e_0_energy">    -11.00830728 </i>
   </energy>
  </scstep>
  <scstep>
   <time name="dav">    0.94    0.95</time>
   <time name="total">    1.01    1.01</time>
   <energy>
    <i name="e_fr_energy">    -11.00830878 </i>
    <i name="e_wo_entrp">    -11.00830667 </i>
    <i name="e_0_energy">    -11.00830772 </i>
   </energy>
  </scstep>
  <scstep>
   <time name="dav">    0.85    0.85</time>
   <time name="total">    0.95    0.96</time>
   <energy>
    <i name="e_fr_energy">    -10.86586975 </i>
    <i name="e_wo_entrp">    -10.86585446 </i>
    <i name="e_0_energy">    -10.86586211 </i>
   </energy>
  </scstep>
  <scstep>
   <time name="dav">    0.97    0.97</time>
   <time name="total">    1.06    1.07</time>
   <energy>
    <i name="e_fr_energy">    -10.80267931 </i>
    <i name="e_wo_entrp">    -10.80255863 </i>
    <i name="e_0_energy">    -10.80261897 </i>
   </energy>
  </scstep>
  <scstep>
   <time name="dav">    0.84    0.84</time>
   <time name="total">    0.94    0.94</time>
   <energy>
    <i name="e_fr_energy">    -10.80398831 </i>
    <i name="e_wo_entrp">    -10.80389256 </i>
    <i name="e_0_energy">    -10.80394043 </i>
   </energy>
  </scstep>
  <scstep>
   <time name="dav">    0.72    0.72</time>
   <time name="total">    0.76    0.77</time>
   <energy>
    <i name="alphaZ">      3.49919058 </i>
    <i name="ewald">   -231.58193746 </i>
    <i name="hartreedc">    -14.44322540 </i>
    <i name="XCdc">    -17.77859588 </i>
    <i name="pawpsdc">     75.71941616 </i>
    <i name="pawaedc">    -40.79393356 </i>
    <i name="eentropy">     -0.00009546 </i>
    <i name="bandstr">      8.44385482 </i>
    <i name="atom">    206.13125414 </i>
    <i name="e_fr_energy">    -10.80407206 </i>
    <i name="e_wo_entrp">    -10.80397660 </i>
    <i name="e_0_energy">    -10.80402433 </i>
   </energy>
  </scstep>
  <structure>
   <crystal>
    <varray name="basis" >
     <v>       0.00000000       2.67961300       2.67961300 </v>
     <v>       2.67961300       0.00000000       2.67961300 </v>
     <v>       2.67961300       2.67961300       0.00000000 </v>
    </varray>
    <i name="volume">     38.48098888 </i>
    <varray name="rec_basis" >
     <v>      -0.18659411       0.18659411       0.18659411 </v>
     <v>       0.18659411      -0.18659411       0.18659411 </v>
     <v>       0.18659411       0.18659411      -0.18659411 </v>
    </varray>
   </crystal>
   <varray name="positions" >
    <v>       0.00000000       0.00000000       0.00000000 </v>
    <v>       0.25000000       0.25000000       0.25000000 </v>
   </varray>
  </structure>
  <varray name="forces" >
   <v>       0.00000000       0.00000000       0.00000000 </v>
   <v>      -0.00000000      -0.00000000      -0.00000000 </v>
  </varray>
  <varray name="stress" >
   <v>      61.05665441      -0.00000000       0.00000000 </v>
   <v>      -0.00000000      61.05665441       0.00000000 </v>
   <v>       0.00000000      -0.00000000      61.05665441 </v>
  </varray>
  <energy>
   <i name="e_fr_energy">    -10.80407206 </i>
   <i name="e_wo_entrp">    -10.80402433 </i>
   <i name="e_0_energy">     -0.00009546 </i>
  </energy>
  <time name="totalsc">   10.32   10.93</time>
  <eigenvalues>
   <array>
    <dimension dim="1">band</dimension>
    <dimension dim="2">kpoint</dimension>
    <dimension dim="3">spin</dimension>
    <field>eigene</field>
    <field>occ</field>
    <set>
     <set comment="spin 1">
      <set comment="kpoint 1">
       <r>   -5.9487    1.0000 </r>
       <r>    5.7053    1.0000 </r>
       <r>    6.1467    0.9935 </r>
       <r>    6.1467    0.9935 </r>
       <r>    8.9141    0.0000 </r>
       <r>    8.9477    0.0000 </r>
       <r>    8.9477    0.0000 </r>
       <r>   10.4133    0.0000 </r>
      </set>
      <set comment="kpoint 2">
       <r>   -5.6680    1.0000 </r>
       <r>    4.1796    1.0000 </r>
       <r>    5.2939    1.0000 </r>
       <r>    6.0300    0.9995 </r>
       <r>    9.0575    0.0000 </r>
       <r>    9.1992    0.0000 </r>
       <r>    9.5411    0.0000 </r>
       <r>   11.7399    0.0000 </r>
      </set>
      <set comment="kpoint 3">
       <r>   -4.9888    1.0000 </r>
       <r>    1.8656    1.0000 </r>
       <r>    4.7961    1.0000 </r>
       <r>    5.5490    1.0000 </r>
       <r>    8.6456    0.0000 </r>
       <r>    9.6816    0.0000 </r>
       <r>    9.9814    0.0000 </r>
       <r>   13.0481    0.0000 </r>
      </set>
      <set comment="kpoint 4">
       <r>   -4.0326    1.0000 </r>
       <r>   -0.1124    1.0000 </r>
       <r>    4.5806    1.0000 </r>
       <r>    5.1247    1.0000 </r>
       <r>    8.3334    0.0000 </r>
       <r>    9.6976    0.0000 </r>
       <r>    9.7110    0.0000 </r>
       <r>   14.1864    0.0000 </r>
      </set>
      <set comment="kpoint 5">
       <r>   -3.5470    1.0000 </r>
       <r>   -0.8599    1.0000 </r>
       <r>    4.6397    1.0000 </r>
       <r>    4.8936    1.0000 </r>
       <r>    8.2494    0.0000 </r>
       <r>    9.4855    0.0000 </r>
       <r>    9.7686    0.0000 </r>
       <r>   14.2050    0.0000 </r>
      </set>
      <set comment="kpoint 6">
       <r>   -4.3620    1.0000 </r>
       <r>    0.4755    1.0000 </r>
       <r>    4.9086    1.0000 </r>
       <r>    4.9404    1.0000 </r>
       <r>    8.4081    0.0000 </r>
       <r>    9.5212    0.0000 </r>
       <r>   10.0634    0.0000 </r>
       <r>   13.2789    0.0000 </r>
      </set>
      <set comment="kpoint 7">
       <r>   -5.2555    1.0000 </r>
       <r>    2.6258    1.0000 </r>
       <r>    5.1903    1.0000 </r>
       <r>    5.4217    1.0000 </r>
       <r>    8.7294    0.0000 </r>
       <r>    9.4654    0.0000 </r>
       <r>   10.1793    0.0000 </r>
       <r>   12.1052    0.0000 </r>
      </set>
      <set comment="kpoint 8">
       <r>   -5.8077    1.0000 </r>
       <r>    4.9556    1.0000 </r>
       <r>    5.6918    1.0000 </r>
       <r>    5.8789    1.0000 </r>
       <r>    8.6503    0.0000 </r>
       <r>    9.3448    0.0000 </r>
       <r>    9.5615    0.0000 </r>
       <r>   11.0637    0.0000 </r>
      </set>
      <set comment="kpoint 9">
       <r>   -5.5269    1.0000 </r>
       <r>    4.0681    1.0000 </r>
       <r>    5.1039    1.0000 </r>
       <r>    5.2158    1.0000 </r>
       <r>    8.2032    0.0000 </r>
       <r>   10.1695    0.0000 </r>
       <r>   10.4617    0.0000 </r>
       <r>   11.0464    0.0000 </r>
      </set>
      <set comment="kpoint 10">
       <r>   -4.9769    1.0000 </r>
       <r>    2.5199    1.0000 </r>
       <r>    4.0894    1.0000 </r>
       <r>    4.9412    1.0000 </r>
       <r>    8.3801    0.0000 </r>
       <r>   10.3039    0.0000 </r>
       <r>   10.6662    0.0000 </r>
       <r>   11.2824    0.0000 </r>
      </set>
      <set comment="kpoint 11">
       <r>   -4.0858    1.0000 </r>
       <r>    0.5602    1.0000 </r>
       <r>    3.5986    1.0000 </r>
       <r>    4.5007    1.0000 </r>
       <r>    8.5907    0.0000 </r>
       <r>   10.1150    0.0000 </r>
       <r>   11.3151    0.0000 </r>
       <r>   11.4917    0.0000 </r>
      </set>
      <set comment="kpoint 12">
       <r>   -3.2670    1.0000 </r>
       <r>   -0.7293    1.0000 </r>
       <r>    3.3045    1.0000 </r>
       <r>    4.3996    1.0000 </r>
       <r>    8.6896    0.0000 </r>
       <r>    9.7405    0.0000 </r>
       <r>   11.1187    0.0000 </r>
       <r>   13.6430    0.0000 </r>
      </set>
      <set comment="kpoint 13">
       <r>   -3.7618    1.0000 </r>
       <r>    0.0094    1.0000 </r>
       <r>    3.2156    1.0000 </r>
       <r>    4.7043    1.0000 </r>
       <r>    9.0373    0.0000 </r>
       <r>    9.6030    0.0000 </r>
       <r>   11.0753    0.0000 </r>
       <r>   12.8414    0.0000 </r>
      </set>
      <set comment="kpoint 14">
       <r>   -4.7158    1.0000 </r>
       <r>    1.8366    1.0000 </r>
       <r>    3.5037    1.0000 </r>
       <r>    5.2442    1.0000 </r>
       <r>    9.3366    0.0000 </r>
       <r>    9.6414    0.0000 </r>
       <r>   10.9657    0.0000 </r>
       <r>   11.3681    0.0000 </r>
      </set>
      <set comment="kpoint 15">
       <r>   -5.3901    1.0000 </r>
       <r>    3.3513    1.0000 </r>
       <r>    4.6877    1.0000 </r>
       <r>    5.6398    1.0000 </r>
       <r>    8.8127    0.0000 </r>
       <r>    9.6426    0.0000 </r>
       <r>   10.2604    0.0000 </r>
       <r>   11.5334    0.0000 </r>
      </set>
      <set comment="kpoint 16">
       <r>   -4.5579    1.0000 </r>
       <r>    2.0426    1.0000 </r>
       <r>    3.9400    1.0000 </r>
       <r>    4.0683    1.0000 </r>
       <r>    7.3426    0.0000 </r>
       <r>    9.0105    0.0000 </r>
       <r>   12.4315    0.0000 </r>
       <r>   12.5454    0.0000 </r>
      </set>
      <set comment="kpoint 17">
       <r>   -3.7680    1.0000 </r>
       <r>    0.7557    1.0000 </r>
       <r>    3.1052    1.0000 </r>
       <r>    3.6994    1.0000 </r>
       <r>    7.6616    0.0000 </r>
       <r>    8.8510    0.0000 </r>
       <r>   12.3801    0.0000 </r>
       <r>   13.5836    0.0000 </r>
      </set>
      <set comment="kpoint 18">
       <r>   -2.8125    1.0000 </r>
       <r>   -0.5154    1.0000 </r>
       <r>    2.2185    1.0000 </r>
       <r>    3.6676    1.0000 </r>
       <r>    7.8920    0.0000 </r>
       <r>   10.5842    0.0000 </r>
       <r>   11.9359    0.0000 </r>
       <r>   13.5032    0.0000 </r>
      </set>
      <set comment="kpoint 19">
       <r>   -2.8836    1.0000 </r>
       <r>   -0.4196    1.0000 </r>
       <r>    1.8375    1.0000 </r>
       <r>    4.0332    1.0000 </r>
       <r>    8.3254    0.0000 </r>
       <r>   11.3897    0.0000 </r>
       <r>   12.7732    0.0000 </r>
       <r>   12.9778    0.0000 </r>
      </set>
      <set comment="kpoint 20">
       <r>   -3.8353    1.0000 </r>
       <r>    0.5591    1.0000 </r>
       <r>    2.4880    1.0000 </r>
       <r>    4.6553    1.0000 </r>
       <r>    9.0307    0.0000 </r>
       <r>   10.2541    0.0000 </r>
       <r>   11.7833    0.0000 </r>
       <r>   11.9834    0.0000 </r>
      </set>
      <set comment="kpoint 21">
       <r>   -4.5955    1.0000 </r>
       <r>    1.1726    1.0000 </r>
       <r>    4.2333    1.0000 </r>
       <r>    5.1424    1.0000 </r>
       <r>    8.8510    0.0000 </r>
       <r>    9.5997    0.0000 </r>
       <r>   10.4692    0.0000 </r>
       <r>   12.1731    0.0000 </r>
      </set>
      <set comment="kpoint 22">
       <r>   -3.0846    1.0000 </r>
       <r>   -0.1383    1.0000 </r>
       <r>    3.2128    1.0000 </r>
       <r>    3.4499    1.0000 </r>
       <r>    6.9083    0.0019 </r>
       <r>    7.6146    0.0000 </r>
       <r>   14.7852    0.0000 </r>
       <r>   14.8232    0.0000 </r>
      </set>
      <set comment="kpoint 23">
       <r>   -2.1254    1.0000 </r>
       <r>   -1.1711    1.0000 </r>
       <r>    2.6106    1.0000 </r>
       <r>    3.1853    1.0000 </r>
       <r>    7.3484    0.0000 </r>
       <r>    8.1129    0.0000 </r>
       <r>   14.5241    0.0000 </r>
       <r>   15.6624    0.0000 </r>
      </set>
      <set comment="kpoint 24">
       <r>   -2.2092    1.0000 </r>
       <r>   -1.0098    1.0000 </r>
       <r>    1.8271    1.0000 </r>
       <r>    3.5174    1.0000 </r>
       <r>    7.7345    0.0000 </r>
       <r>   10.4342    0.0000 </r>
       <r>   12.9357    0.0000 </r>
       <r>   14.1503    0.0000 </r>
      </set>
      <set comment="kpoint 25">
       <r>   -2.9998    1.0000 </r>
       <r>   -0.6512    1.0000 </r>
       <r>    2.4614    1.0000 </r>
       <r>    4.1532    1.0000 </r>
       <r>    8.4617    0.0000 </r>
       <r>   10.5222    0.0000 </r>
       <r>   12.1301    0.0000 </r>
       <r>   13.3965    0.0000 </r>
      </set>
      <set comment="kpoint 26">
       <r>   -3.6438    1.0000 </r>
       <r>   -0.5341    1.0000 </r>
       <r>    4.0658    1.0000 </r>
       <r>    4.7844    1.0000 </r>
       <r>    8.6798    0.0000 </r>
       <r>    9.4141    0.0000 </r>
       <r>   10.2585    0.0000 </r>
       <r>   13.9475    0.0000 </r>
      </set>
      <set comment="kpoint 27">
       <r>   -2.1839    1.0000 </r>
       <r>   -1.1930    1.0000 </r>
       <r>    3.0683    1.0000 </r>
       <r>    3.3237    1.0000 </r>
       <r>    6.8883    0.0029 </r>
       <r>    7.2613    0.0000 </r>
       <r>   15.9359    0.0000 </r>
       <r>   16.0500    0.0000 </r>
      </set>
      <set comment="kpoint 28">
       <r>   -2.9918    1.0000 </r>
       <r>   -0.2032    1.0000 </r>
       <r>    2.7800    1.0000 </r>
       <r>    3.3516    1.0000 </r>
       <r>    7.4506    0.0000 </r>
       <r>    8.3623    0.0000 </r>
       <r>   13.4178    0.0000 </r>
       <r>   14.8039    0.0000 </r>
      </set>
      <set comment="kpoint 29">
       <r>   -3.4785    1.0000 </r>
       <r>    0.0112    1.0000 </r>
       <r>    2.8787    1.0000 </r>
       <r>    3.9845    1.0000 </r>
       <r>    8.1936    0.0000 </r>
       <r>   10.7569    0.0000 </r>
       <r>   11.1596    0.0000 </r>
       <r>   12.3634    0.0000 </r>
      </set>
      <set comment="kpoint 30">
       <r>   -3.8802    1.0000 </r>
       <r>    0.9524    1.0000 </r>
       <r>    3.5028    1.0000 </r>
       <r>    3.6999    1.0000 </r>
       <r>    7.0580    0.0000 </r>
       <r>    8.2062    0.0000 </r>
       <r>   13.6104    0.0000 </r>
       <r>   13.6474    0.0000 </r>
      </set>
      <set comment="kpoint 31">
       <r>   -4.4336    1.0000 </r>
       <r>    1.6646    1.0000 </r>
       <r>    3.5533    1.0000 </r>
       <r>    4.2435    1.0000 </r>
       <r>    7.9784    0.0000 </r>
       <r>    9.5643    0.0000 </r>
       <r>   11.4074    0.0000 </r>
       <r>   12.4015    0.0000 </r>
      </set>
      <set comment="kpoint 32">
       <r>   -5.1089    1.0000 </r>
       <r>    3.0923    1.0000 </r>
       <r>    4.5220    1.0000 </r>
       <r>    4.5439    1.0000 </r>
       <r>    7.7391    0.0000 </r>
       <r>    9.9752    0.0000 </r>
       <r>   11.3142    0.0000 </r>
       <r>   11.4767    0.0000 </r>
      </set>
      <set comment="kpoint 33">
       <r>   -5.5299    1.0000 </r>
       <r>    3.4188    1.0000 </r>
       <r>    5.6846    1.0000 </r>
       <r>    5.6846    1.0000 </r>
       <r>    8.6348    0.0000 </r>
       <r>    9.5877    0.0000 </r>
       <r>    9.5877    0.0000 </r>
       <r>   12.4232    0.0000 </r>
      </set>
      <set comment="kpoint 34">
       <r>   -5.1183    1.0000 </r>
       <r>    2.5798    1.0000 </r>
       <r>    4.0851    1.0000 </r>
       <r>    5.7154    1.0000 </r>
       <r>    9.2911    0.0000 </r>
       <r>    9.7084    0.0000 </r>
       <r>   10.0271    0.0000 </r>
       <r>   12.2043    0.0000 </r>
      </set>
      <set comment="kpoint 35">
       <r>   -4.3316    1.0000 </r>
       <r>    1.1733    1.0000 </r>
       <r>    2.9467    1.0000 </r>
       <r>    5.1821    1.0000 </r>
       <r>    9.0324    0.0000 </r>
       <r>   10.4874    0.0000 </r>
       <r>   10.7293    0.0000 </r>
       <r>   12.4994    0.0000 </r>
      </set>
      <set comment="kpoint 36">
       <r>   -3.3778    1.0000 </r>
       <r>   -0.4126    1.0000 </r>
       <r>    2.8139    1.0000 </r>
       <r>    4.6199    1.0000 </r>
       <r>    8.4571    0.0000 </r>
       <r>   10.7398    0.0000 </r>
       <r>   10.8416    0.0000 </r>
       <r>   14.3152    0.0000 </r>
      </set>
      <set comment="kpoint 37">
       <r>   -3.3624    1.0000 </r>
       <r>   -0.4412    1.0000 </r>
       <r>    3.1375    1.0000 </r>
       <r>    4.2815    1.0000 </r>
       <r>    8.1387    0.0000 </r>
       <r>   10.8306    0.0000 </r>
       <r>   11.1974    0.0000 </r>
       <r>   12.2808    0.0000 </r>
      </set>
      <set comment="kpoint 38">
       <r>   -4.3154    1.0000 </r>
       <r>    1.1682    1.0000 </r>
       <r>    3.7765    1.0000 </r>
       <r>    4.2510    1.0000 </r>
       <r>    8.0659    0.0000 </r>
       <r>   10.3321    0.0000 </r>
       <r>   11.1327    0.0000 </r>
       <r>   11.6243    0.0000 </r>
      </set>
      <set comment="kpoint 39">
       <r>   -4.8485    1.0000 </r>
       <r>    1.8782    1.0000 </r>
       <r>    4.6580    1.0000 </r>
       <r>    4.6901    1.0000 </r>
       <r>    8.5198    0.0000 </r>
       <r>   10.0713    0.0000 </r>
       <r>   10.8648    0.0000 </r>
       <r>   11.1496    0.0000 </r>
      </set>
      <set comment="kpoint 40">
       <r>   -4.1895    1.0000 </r>
       <r>    1.1220    1.0000 </r>
       <r>    3.0059    1.0000 </r>
       <r>    4.4882    1.0000 </r>
       <r>    9.0027    0.0000 </r>
       <r>   10.1386    0.0000 </r>
       <r>   10.5559    0.0000 </r>
       <r>   12.2033    0.0000 </r>
      </set>
      <set comment="kpoint 41">
       <r>   -3.2458    1.0000 </r>
       <r>   -0.0136    1.0000 </r>
       <r>    2.1645    1.0000 </r>
       <r>    3.8768    1.0000 </r>
       <r>    9.4562    0.0000 </r>
       <r>    9.9786    0.0000 </r>
       <r>   11.3107    0.0000 </r>
       <r>   13.3253    0.0000 </r>
      </set>
      <set comment="kpoint 42">
       <r>   -2.7220    1.0000 </r>
       <r>   -0.6739    1.0000 </r>
       <r>    2.1827    1.0000 </r>
       <r>    3.5404    1.0000 </r>
       <r>    8.9566    0.0000 </r>
       <r>   10.3171    0.0000 </r>
       <r>   12.1101    0.0000 </r>
       <r>   13.5384    0.0000 </r>
      </set>
      <set comment="kpoint 43">
       <r>   -3.5509    1.0000 </r>
       <r>    0.4053    1.0000 </r>
       <r>    2.6171    1.0000 </r>
       <r>    3.7334    1.0000 </r>
       <r>    8.6861    0.0000 </r>
       <r>    9.8936    0.0000 </r>
       <r>   10.9470    0.0000 </r>
       <r>   13.4846    0.0000 </r>
      </set>
      <set comment="kpoint 44">
       <r>   -3.6671    1.0000 </r>
       <r>    0.4518    1.0000 </r>
       <r>    2.9809    1.0000 </r>
       <r>    3.9048    1.0000 </r>
       <r>    7.6463    0.0000 </r>
       <r>    9.7425    0.0000 </r>
       <r>   12.2909    0.0000 </r>
       <r>   12.4701    0.0000 </r>
      </set>
      <set comment="kpoint 45">
       <r>   -2.8190    1.0000 </r>
       <r>   -0.3513    1.0000 </r>
       <r>    2.3496    1.0000 </r>
       <r>    3.1591    1.0000 </r>
       <r>    8.4600    0.0000 </r>
       <r>    9.4933    0.0000 </r>
       <r>   11.8473    0.0000 </r>
       <r>   14.7917    0.0000 </r>
      </set>
      <set comment="kpoint 46">
       <r>   -1.9593    1.0000 </r>
       <r>   -1.1340    1.0000 </r>
       <r>    1.9981    1.0000 </r>
       <r>    2.6203    1.0000 </r>
       <r>    9.6132    0.0000 </r>
       <r>   10.5395    0.0000 </r>
       <r>   11.4075    0.0000 </r>
       <r>   12.4098    0.0000 </r>
      </set>
      <set comment="kpoint 47">
       <r>   -2.5955    1.0000 </r>
       <r>   -0.5747    1.0000 </r>
       <r>    2.0020    1.0000 </r>
       <r>    3.1279    1.0000 </r>
       <r>    9.7051    0.0000 </r>
       <r>   10.1788    0.0000 </r>
       <r>   11.0407    0.0000 </r>
       <r>   13.5918    0.0000 </r>
      </set>
      <set comment="kpoint 48">
       <r>   -2.1383    1.0000 </r>
       <r>   -1.1236    1.0000 </r>
       <r>    2.1122    1.0000 </r>
       <r>    3.5469    1.0000 </r>
       <r>    7.1770    0.0000 </r>
       <r>    9.1751    0.0000 </r>
       <r>   14.4048    0.0000 </r>
       <r>   14.7203    0.0000 </r>
      </set>
      <set comment="kpoint 49">
       <r>   -2.0333    1.0000 </r>
       <r>   -1.1456    1.0000 </r>
       <r>    2.2120    1.0000 </r>
       <r>    2.8584    1.0000 </r>
       <r>    8.3430    0.0000 </r>
       <r>    9.2935    0.0000 </r>
       <r>   12.8744    0.0000 </r>
       <r>   14.0256    0.0000 </r>
      </set>
      <set comment="kpoint 50">
       <r>   -2.9228    1.0000 </r>
       <r>   -0.3205    1.0000 </r>
       <r>    2.4042    1.0000 </r>
       <r>    3.6674    1.0000 </r>
       <r>    7.3383    0.0000 </r>
       <r>    9.3611    0.0000 </r>
       <r>   13.4110    0.0000 </r>
       <r>   13.4942    0.0000 </r>
      </set>
      <set comment="kpoint 51">
       <r>   -4.7336    1.0000 </r>
       <r>    1.1250    1.0000 </r>
       <r>    5.2576    1.0000 </r>
       <r>    5.2576    1.0000 </r>
       <r>    8.1970    0.0000 </r>
       <r>    9.7765    0.0000 </r>
       <r>    9.7765    0.0000 </r>
       <r>   14.0170    0.0000 </r>
      </set>
      <set comment="kpoint 52">
       <r>   -4.2272    1.0000 </r>
       <r>    0.5376    1.0000 </r>
       <r>    3.7269    1.0000 </r>
       <r>    5.1689    1.0000 </r>
       <r>    8.8662    0.0000 </r>
       <r>   10.0272    0.0000 </r>
       <r>   10.0523    0.0000 </r>
       <r>   13.4067    0.0000 </r>
      </set>
      <set comment="kpoint 53">
       <r>   -3.3894    1.0000 </r>
       <r>    0.0384    1.0000 </r>
       <r>    2.0814    1.0000 </r>
       <r>    4.5508    1.0000 </r>
       <r>    8.3541    0.0000 </r>
       <r>   11.5444    0.0000 </r>
       <r>   11.7601    0.0000 </r>
       <r>   13.2713    0.0000 </r>
      </set>
      <set comment="kpoint 54">
       <r>   -2.5152    1.0000 </r>
       <r>   -0.7611    1.0000 </r>
       <r>    1.7061    1.0000 </r>
       <r>    3.9728    1.0000 </r>
       <r>    7.6778    0.0000 </r>
       <r>   11.6868    0.0000 </r>
       <r>   12.8679    0.0000 </r>
       <r>   13.3012    0.0000 </r>
      </set>
      <set comment="kpoint 55">
       <r>   -3.8923    1.0000 </r>
       <r>   -0.0523    1.0000 </r>
       <r>    4.0993    1.0000 </r>
       <r>    4.5678    1.0000 </r>
       <r>    8.4766    0.0000 </r>
       <r>    9.8719    0.0000 </r>
       <r>   10.5432    0.0000 </r>
       <r>   12.6813    0.0000 </r>
      </set>
      <set comment="kpoint 56">
       <r>   -3.2351    1.0000 </r>
       <r>   -0.3969    1.0000 </r>
       <r>    2.7019    1.0000 </r>
       <r>    4.0528    1.0000 </r>
       <r>    9.2213    0.0000 </r>
       <r>    9.5705    0.0000 </r>
       <r>   12.2780    0.0000 </r>
       <r>   12.3989    0.0000 </r>
      </set>
      <set comment="kpoint 57">
       <r>   -2.3716    1.0000 </r>
       <r>   -0.8166    1.0000 </r>
       <r>    1.8025    1.0000 </r>
       <r>    3.2914    1.0000 </r>
       <r>    8.8185    0.0000 </r>
       <r>   11.1344    0.0000 </r>
       <r>   12.0203    0.0000 </r>
       <r>   12.6024    0.0000 </r>
      </set>
      <set comment="kpoint 58">
       <r>   -2.8524    1.0000 </r>
       <r>   -0.6762    1.0000 </r>
       <r>    2.2678    1.0000 </r>
       <r>    4.0780    1.0000 </r>
       <r>    7.8392    0.0000 </r>
       <r>   11.6452    0.0000 </r>
       <r>   12.0018    0.0000 </r>
       <r>   12.3205    0.0000 </r>
      </set>
      <set comment="kpoint 59">
       <r>   -3.7829    1.0000 </r>
       <r>   -0.6094    1.0000 </r>
       <r>    5.0313    1.0000 </r>
       <r>    5.0313    1.0000 </r>
       <r>    7.9476    0.0000 </r>
       <r>    9.5920    0.0000 </r>
       <r>    9.5920    0.0000 </r>
       <r>   14.0635    0.0000 </r>
      </set>
      <set comment="kpoint 60">
       <r>   -3.4078    1.0000 </r>
       <r>   -0.7856    1.0000 </r>
       <r>    3.7615    1.0000 </r>
       <r>    4.7437    1.0000 </r>
       <r>    8.5513    0.0000 </r>
       <r>    9.8169    0.0000 </r>
       <r>   10.2031    0.0000 </r>
       <r>   14.5907    0.0000 </r>
      </set>
     </set>
    </set>
   </array>
  </eigenvalues>
  <separator name="orbital magnetization" >
   <v name="MAGDIPOLOUT">      0.00000000      0.00000000      0.00000000</v>
  </separator>
  <dos>
   <i name="efermi">      6.49806371 </i>
   <total>
    <array>
     <dimension dim="1">gridpoints</dimension>
     <dimension dim="2">spin</dimension>
     <field>energy</field>
     <field>total</field>
     <field>integrated</field>
     <set>
      <set comment="spin 1">
       <r>    -7.9487     0.0000     0.0000 </r>
       <r>    -7.8621     0.0000     0.0000 </r>
       <r>    -7.7754     0.0000     0.0000 </r>
       <r>    -7.6887     0.0000     0.0000 </r>
       <r>    -7.6021     0.0000     0.0000 </r>
       <r>    -7.5154     0.0000     0.0000 </r>
       <r>    -7.4287     0.0000     0.0000 </r>
       <r>    -7.3421     0.0000     0.0000 </r>
       <r>    -7.2554     0.0000     0.0000 </r>
       <r>    -7.1688     0.0000     0.0000 </r>
       <r>    -7.0821     0.0000     0.0000 </r>
       <r>    -6.9954     0.0000     0.0000 </r>
       <r>    -6.9088     0.0000     0.0000 </r>
       <r>    -6.8221     0.0000     0.0000 </r>
       <r>    -6.7354     0.0000     0.0000 </r>
       <r>    -6.6488     0.0000     0.0000 </r>
       <r>    -6.5621     0.0000     0.0000 </r>
       <r>    -6.4755     0.0000     0.0000 </r>
       <r>    -6.3888     0.0001     0.0000 </r>
       <r>    -6.3021     0.0005     0.0001 </r>
       <r>    -6.2155     0.0026     0.0003 </r>
       <r>    -6.1288     0.0092     0.0011 </r>
       <r>    -6.0421     0.0248     0.0032 </r>
       <r>    -5.9555     0.0523     0.0078 </r>
       <r>    -5.8688     0.0889     0.0155 </r>
       <r>    -5.7822     0.1268     0.0264 </r>
       <r>    -5.6955     0.1596     0.0403 </r>
       <r>    -5.6088     0.1893     0.0567 </r>
       <r>    -5.5222     0.2197     0.0757 </r>
       <r>    -5.4355     0.2467     0.0971 </r>
       <r>    -5.3488     0.2617     0.1198 </r>
       <r>    -5.2622     0.2689     0.1431 </r>
       <r>    -5.1755     0.2879     0.1680 </r>
       <r>    -5.0889     0.3260     0.1963 </r>
       <r>    -5.0022     0.3607     0.2276 </r>
       <r>    -4.9155     0.3676     0.2594 </r>
       <r>    -4.8289     0.3580     0.2904 </r>
       <r>    -4.7422     0.3636     0.3219 </r>
       <r>    -4.6555     0.3922     0.3559 </r>
       <r>    -4.5689     0.4253     0.3928 </r>
       <r>    -4.4822     0.4534     0.4321 </r>
       <r>    -4.3956     0.4815     0.4738 </r>
       <r>    -4.3089     0.5065     0.5177 </r>
       <r>    -4.2222     0.5152     0.5623 </r>
       <r>    -4.1356     0.5027     0.6059 </r>
       <r>    -4.0489     0.4868     0.6481 </r>
       <r>    -3.9622     0.5065     0.6920 </r>
       <r>    -3.8756     0.5862     0.7428 </r>
       <r>    -3.7889     0.6903     0.8026 </r>
       <r>    -3.7023     0.7547     0.8680 </r>
       <r>    -3.6156     0.7651     0.9343 </r>
       <r>    -3.5289     0.7589     1.0001 </r>
       <r>    -3.4423     0.7647     1.0664 </r>
       <r>    -3.3556     0.7746     1.1335 </r>
       <r>    -3.2689     0.7586     1.1992 </r>
       <r>    -3.1823     0.7054     1.2604 </r>
       <r>    -3.0956     0.6618     1.3177 </r>
       <r>    -3.0090     0.6889     1.3774 </r>
       <r>    -2.9223     0.7690     1.4441 </r>
       <r>    -2.8356     0.8111     1.5144 </r>
       <r>    -2.7490     0.7507     1.5794 </r>
       <r>    -2.6623     0.6127     1.6325 </r>
       <r>    -2.5756     0.4711     1.6733 </r>
       <r>    -2.4890     0.3771     1.7060 </r>
       <r>    -2.4023     0.3460     1.7360 </r>
       <r>    -2.3157     0.3806     1.7690 </r>
       <r>    -2.2290     0.4657     1.8094 </r>
       <r>    -2.1423     0.5496     1.8570 </r>
       <r>    -2.0557     0.5636     1.9058 </r>
       <r>    -1.9690     0.4790     1.9473 </r>
       <r>    -1.8823     0.3289     1.9758 </r>
       <r>    -1.7957     0.1776     1.9912 </r>
       <r>    -1.7090     0.0732     1.9976 </r>
       <r>    -1.6224     0.0233     1.9996 </r>
       <r>    -1.5357     0.0119     2.0006 </r>
       <r>    -1.4490     0.0346     2.0036 </r>
       <r>    -1.3624     0.1156     2.0136 </r>
       <r>    -1.2757     0.2799     2.0379 </r>
       <r>    -1.1891     0.4866     2.0801 </r>
       <r>    -1.1024     0.6237     2.1341 </r>
       <r>    -1.0157     0.6344     2.1891 </r>
       <r>    -0.9291     0.6061     2.2416 </r>
       <r>    -0.8424     0.6629     2.2991 </r>
       <r>    -0.7557     0.8164     2.3698 </r>
       <r>    -0.6691     0.9782     2.4546 </r>
       <r>    -0.5824     1.0752     2.5478 </r>
       <r>    -0.4958     1.0949     2.6426 </r>
       <r>    -0.4091     1.0408     2.7328 </r>
       <r>    -0.3224     0.9193     2.8125 </r>
       <r>    -0.2358     0.7847     2.8805 </r>
       <r>    -0.1491     0.7182     2.9428 </r>
       <r>    -0.0624     0.7218     3.0053 </r>
       <r>     0.0242     0.6928     3.0654 </r>
       <r>     0.1109     0.5535     3.1133 </r>
       <r>     0.1975     0.3679     3.1452 </r>
       <r>     0.2842     0.2744     3.1690 </r>
       <r>     0.3709     0.3320     3.1978 </r>
       <r>     0.4575     0.4701     3.2385 </r>
       <r>     0.5442     0.5611     3.2871 </r>
       <r>     0.6309     0.5332     3.3333 </r>
       <r>     0.7175     0.4207     3.3698 </r>
       <r>     0.8042     0.3063     3.3963 </r>
       <r>     0.8908     0.2469     3.4177 </r>
       <r>     0.9775     0.2664     3.4408 </r>
       <r>     1.0642     0.3519     3.4713 </r>
       <r>     1.1508     0.4298     3.5086 </r>
       <r>     1.2375     0.4091     3.5440 </r>
       <r>     1.3242     0.2876     3.5690 </r>
       <r>     1.4108     0.1623     3.5830 </r>
       <r>     1.4975     0.1278     3.5941 </r>
       <r>     1.5841     0.2198     3.6131 </r>
       <r>     1.6708     0.4269     3.6501 </r>
       <r>     1.7575     0.6898     3.7099 </r>
       <r>     1.8441     0.9057     3.7884 </r>
       <r>     1.9308     1.0023     3.8753 </r>
       <r>     2.0175     1.0127     3.9630 </r>
       <r>     2.1041     1.0135     4.0509 </r>
       <r>     2.1908     1.0136     4.1387 </r>
       <r>     2.2774     0.9789     4.2235 </r>
       <r>     2.3641     0.9376     4.3048 </r>
       <r>     2.4508     0.9619     4.3882 </r>
       <r>     2.5374     1.0500     4.4792 </r>
       <r>     2.6241     1.1106     4.5754 </r>
       <r>     2.7108     1.0811     4.6691 </r>
       <r>     2.7974     1.0018     4.7559 </r>
       <r>     2.8841     0.9570     4.8389 </r>
       <r>     2.9707     0.9994     4.9255 </r>
       <r>     3.0574     1.1318     5.0235 </r>
       <r>     3.1441     1.2956     5.1358 </r>
       <r>     3.2307     1.3979     5.2570 </r>
       <r>     3.3174     1.4045     5.3787 </r>
       <r>     3.4041     1.3769     5.4980 </r>
       <r>     3.4907     1.3878     5.6183 </r>
       <r>     3.5774     1.4238     5.7417 </r>
       <r>     3.6640     1.4065     5.8636 </r>
       <r>     3.7507     1.3068     5.9768 </r>
       <r>     3.8374     1.2074     6.0814 </r>
       <r>     3.9240     1.2332     6.1883 </r>
       <r>     4.0107     1.3915     6.3089 </r>
       <r>     4.0974     1.5179     6.4405 </r>
       <r>     4.1840     1.4526     6.5663 </r>
       <r>     4.2707     1.2270     6.6727 </r>
       <r>     4.3573     1.0219     6.7612 </r>
       <r>     4.4440     0.9870     6.8468 </r>
       <r>     4.5307     1.1165     6.9435 </r>
       <r>     4.6173     1.2711     7.0537 </r>
       <r>     4.7040     1.3075     7.1670 </r>
       <r>     4.7907     1.1960     7.2706 </r>
       <r>     4.8773     1.0230     7.3593 </r>
       <r>     4.9640     0.8934     7.4367 </r>
       <r>     5.0506     0.8515     7.5105 </r>
       <r>     5.1373     0.8655     7.5855 </r>
       <r>     5.2240     0.8427     7.6585 </r>
       <r>     5.3106     0.7134     7.7204 </r>
       <r>     5.3973     0.5254     7.7659 </r>
       <r>     5.4840     0.3954     7.8002 </r>
       <r>     5.5706     0.3748     7.8327 </r>
       <r>     5.6573     0.4060     7.8678 </r>
       <r>     5.7439     0.3989     7.9024 </r>
       <r>     5.8306     0.3285     7.9309 </r>
       <r>     5.9173     0.2419     7.9518 </r>
       <r>     6.0039     0.1817     7.9676 </r>
       <r>     6.0906     0.1446     7.9801 </r>
       <r>     6.1773     0.1092     7.9896 </r>
       <r>     6.2639     0.0692     7.9956 </r>
       <r>     6.3506     0.0342     7.9986 </r>
       <r>     6.4372     0.0129     7.9997 </r>
       <r>     6.5239     0.0053     8.0001 </r>
       <r>     6.6106     0.0101     8.0010 </r>
       <r>     6.6972     0.0322     8.0038 </r>
       <r>     6.7839     0.0777     8.0105 </r>
       <r>     6.8706     0.1373     8.0224 </r>
       <r>     6.9572     0.1871     8.0386 </r>
       <r>     7.0439     0.2200     8.0577 </r>
       <r>     7.1305     0.2614     8.0804 </r>
       <r>     7.2172     0.3376     8.1096 </r>
       <r>     7.3039     0.4327     8.1471 </r>
       <r>     7.3905     0.4977     8.1903 </r>
       <r>     7.4772     0.5181     8.2351 </r>
       <r>     7.5639     0.5431     8.2822 </r>
       <r>     7.6505     0.6050     8.3346 </r>
       <r>     7.7372     0.6590     8.3918 </r>
       <r>     7.8238     0.6596     8.4489 </r>
       <r>     7.9105     0.6361     8.5040 </r>
       <r>     7.9972     0.6524     8.5606 </r>
       <r>     8.0838     0.7462     8.6252 </r>
       <r>     8.1705     0.9179     8.7048 </r>
       <r>     8.2572     1.1363     8.8033 </r>
       <r>     8.3438     1.3371     8.9191 </r>
       <r>     8.4305     1.4421     9.0441 </r>
       <r>     8.5171     1.4316     9.1682 </r>
       <r>     8.6038     1.3791     9.2877 </r>
       <r>     8.6905     1.3589     9.4055 </r>
       <r>     8.7771     1.3709     9.5243 </r>
       <r>     8.8638     1.3793     9.6438 </r>
       <r>     8.9505     1.3532     9.7611 </r>
       <r>     9.0371     1.2679     9.8710 </r>
       <r>     9.1238     1.1422     9.9699 </r>
       <r>     9.2104     1.0648    10.0622 </r>
       <r>     9.2971     1.1222    10.1595 </r>
       <r>     9.3838     1.3287    10.2746 </r>
       <r>     9.4704     1.6422    10.4169 </r>
       <r>     9.5571     1.9572    10.5865 </r>
       <r>     9.6438     2.0985    10.7684 </r>
       <r>     9.7304     1.9541    10.9377 </r>
       <r>     9.8171     1.6233    11.0784 </r>
       <r>     9.9037     1.3430    11.1948 </r>
       <r>     9.9904     1.2653    11.3045 </r>
       <r>    10.0771     1.3584    11.4222 </r>
       <r>    10.1637     1.4921    11.5515 </r>
       <r>    10.2504     1.5554    11.6863 </r>
       <r>    10.3371     1.5228    11.8183 </r>
       <r>    10.4237     1.4521    11.9441 </r>
       <r>    10.5104     1.3850    12.0641 </r>
       <r>    10.5970     1.2841    12.1754 </r>
       <r>    10.6837     1.1274    12.2731 </r>
       <r>    10.7704     0.9806    12.3581 </r>
       <r>    10.8570     0.9283    12.4386 </r>
       <r>    10.9437     1.0047    12.5256 </r>
       <r>    11.0303     1.1733    12.6273 </r>
       <r>    11.1170     1.3397    12.7434 </r>
       <r>    11.2037     1.4322    12.8675 </r>
       <r>    11.2903     1.4617    12.9942 </r>
       <r>    11.3770     1.4435    13.1193 </r>
       <r>    11.4637     1.3384    13.2353 </r>
       <r>    11.5503     1.1420    13.3343 </r>
       <r>    11.6370     0.9381    13.4156 </r>
       <r>    11.7236     0.8144    13.4861 </r>
       <r>    11.8103     0.7884    13.5544 </r>
       <r>    11.8970     0.8359    13.6269 </r>
       <r>    11.9836     0.9369    13.7081 </r>
       <r>    12.0703     1.0720    13.8010 </r>
       <r>    12.1570     1.2152    13.9063 </r>
       <r>    12.2436     1.3457    14.0229 </r>
       <r>    12.3303     1.4300    14.1469 </r>
       <r>    12.4169     1.3967    14.2679 </r>
       <r>    12.5036     1.2024    14.3721 </r>
       <r>    12.5903     0.9286    14.4526 </r>
       <r>    12.6769     0.7296    14.5158 </r>
       <r>    12.7636     0.6824    14.5749 </r>
       <r>    12.8503     0.7258    14.6378 </r>
       <r>    12.9369     0.7309    14.7012 </r>
       <r>    13.0236     0.6339    14.7561 </r>
       <r>    13.1102     0.5096    14.8003 </r>
       <r>    13.1969     0.4999    14.8436 </r>
       <r>    13.2836     0.6726    14.9019 </r>
       <r>    13.3702     0.9568    14.9848 </r>
       <r>    13.4569     1.2030    15.0891 </r>
       <r>    13.5436     1.2771    15.1997 </r>
       <r>    13.6302     1.1245    15.2972 </r>
       <r>    13.7169     0.8137    15.3677 </r>
       <r>    13.8035     0.5159    15.4124 </r>
       <r>    13.8902     0.3741    15.4449 </r>
       <r>    13.9769     0.3888    15.4785 </r>
       <r>    14.0635     0.4564    15.5181 </r>
       <r>    14.1502     0.4858    15.5602 </r>
       <r>    14.2369     0.4532    15.5995 </r>
       <r>    14.3235     0.3890    15.6332 </r>
       <r>    14.4102     0.3410    15.6628 </r>
       <r>    14.4968     0.3350    15.6918 </r>
       <r>    14.5835     0.3689    15.7238 </r>
       <r>    14.6702     0.4338    15.7613 </r>
       <r>    14.7568     0.4980    15.8045 </r>
       <r>    14.8435     0.4896    15.8469 </r>
       <r>    14.9302     0.3711    15.8791 </r>
       <r>    15.0168     0.2052    15.8969 </r>
       <r>    15.1035     0.0808    15.9039 </r>
       <r>    15.1901     0.0226    15.9058 </r>
       <r>    15.2768     0.0058    15.9063 </r>
       <r>    15.3635     0.0082    15.9071 </r>
       <r>    15.4501     0.0269    15.9094 </r>
       <r>    15.5368     0.0658    15.9151 </r>
       <r>    15.6235     0.1139    15.9250 </r>
       <r>    15.7101     0.1432    15.9374 </r>
       <r>    15.7968     0.1433    15.9498 </r>
       <r>    15.8834     0.1351    15.9615 </r>
       <r>    15.9701     0.1339    15.9731 </r>
       <r>    16.0568     0.1259    15.9840 </r>
       <r>    16.1434     0.0964    15.9924 </r>
       <r>    16.2301     0.0557    15.9972 </r>
       <r>    16.3168     0.0235    15.9992 </r>
       <r>    16.4034     0.0072    15.9998 </r>
       <r>    16.4901     0.0015    16.0000 </r>
       <r>    16.5767     0.0002    16.0000 </r>
       <r>    16.6634     0.0000    16.0000 </r>
       <r>    16.7501     0.0000    16.0000 </r>
       <r>    16.8367     0.0000    16.0000 </r>
       <r>    16.9234     0.0000    16.0000 </r>
       <r>    17.0101     0.0000    16.0000 </r>
       <r>    17.0967     0.0000    16.0000 </r>
       <r>    17.1834     0.0000    16.0000 </r>
       <r>    17.2700     0.0000    16.0000 </r>
       <r>    17.3567     0.0000    16.0000 </r>
       <r>    17.4434     0.0000    16.0000 </r>
       <r>    17.5300     0.0000    16.0000 </r>
       <r>    17.6167     0.0000    16.0000 </r>
       <r>    17.7034     0.0000    16.0000 </r>
       <r>    17.7900     0.0000    16.0000 </r>
       <r>    17.8767     0.0000    16.0000 </r>
       <r>    17.9633     0.0000    16.0000 </r>
       <r>    18.0500     0.0000    16.0000 </r>
      </set>
     </set>
    </array>
   </total>
  </dos>
 </calculation>
 <structure name="finalpos" >
  <crystal>
   <varray name="basis" >
    <v>       0.00000000       2.67961300       2.67961300 </v>
    <v>       2.67961300       0.00000000       2.67961300 </v>
    <v>       2.67961300       2.67961300       0.00000000 </v>
   </varray>
   <i name="volume">     38.48098888 </i>
   <varray name="rec_basis" >
    <v>      -0.18659411       0.18659411       0.18659411 </v>
    <v>       0.18659411      -0.18659411       0.18659411 </v>
    <v>       0.18659411       0.18659411      -0.18659411 </v>
   </varray>
  </crystal>
  <varray name="positions" >
   <v>       0.00000000       0.00000000       0.00000000 </v>
   <v>       0.25000000       0.25000000       0.25000000 </v>
  </varray>
 </structure>
</modeling>
