unknown system                          
   1.00000000000000     
    -2.450000    2.450000    1.274000
     2.450000   -2.450000    1.274000
     2.450000    2.450000   -1.274000
   Si
     2
Direct
  0.250000  0.750000  0.500000
  0.000000  0.000000  0.000000
 
   28   28   28
 -5.4694     -3.9322     0.62313E-01  4.9842      9.1443      11.436      11.681      10.491      8.7992      7.1874    
  5.8297      4.7921      4.0774      3.6627      3.5270      3.6627      4.0775      4.7924      5.8298      7.1873    
  8.7992      10.491      11.681      11.436      9.1443      4.9842     0.62115E-01 -3.9325     -3.9325     -4.7290    
 -2.5774      1.6555      6.3658      9.9905      11.662      11.429      10.019      8.3268      6.7772      5.5062    
  4.5596      3.9295      3.5915      3.5271      3.7326      4.2192      5.0094      6.1224      7.5445      9.1916    
  10.845      11.812      11.194      8.5324      4.2116     -.50587     0.62115E-01 -2.5776     -2.6446     -.11906    
  3.9690      8.0717      10.861      11.760      11.026      9.4541      7.7991      6.3363      5.1693      4.3234    
  3.7825      3.5220      3.5271      3.7976      4.3474      5.1993      6.3681      7.8294      9.4847      11.076    
  11.865      11.042      8.3096      4.2116      4.9842      1.6554     -.11914     0.40669      3.0002      6.5782    
  9.7669      11.549      11.643      10.477      8.8324      7.2451      5.8893      4.8369      4.0955      3.6434    
  3.4578      3.5272      3.8545      4.4553      5.3518      6.5537      8.0275      9.6655      11.189      11.878    
  11.042      8.5324      9.1443      6.3658      3.9690      3.0002      3.8964      6.2513      9.0396      11.149    
  11.901      11.281      9.8209      8.1898      6.6960      5.4602      4.5260      3.8870      3.5190      3.4019    
  3.5273      3.9002      4.5370      5.4584      6.6691      8.1290      9.7266      11.189      11.865      11.194    
  11.436      9.9905      8.0717      6.5782      6.2514      7.2672      9.1393      10.991      12.017      11.861    
  10.714      9.1311      7.5629      6.1816      5.0710      4.2515      3.7077      3.4154      3.3573      3.5275    
  3.9322      4.5880      5.5133      6.7083      8.1290      9.6655      11.076      11.812      11.681      11.662    
  10.861      9.7669      9.0397      9.1395      10.054      11.307      12.225      12.310      11.473      10.036    
  8.4621      6.9867      5.7283      4.7400      4.0258      3.5658      3.3375      3.3262      3.5277      3.9487    
  4.6053      5.5133      6.6691      8.0275      9.4847      10.845      10.491      11.429      11.760      11.549    
  11.149      10.991      11.307      11.975      12.593      12.713      12.103      10.868      9.3615      7.8549    
  6.4916      5.3568      4.4809      3.8581      3.4676      3.2893      3.3103      3.5277      3.9487      4.5880    
  5.4584      6.5537      7.8294      9.1916      8.7992      10.019      11.027      11.643      11.901      12.017    
  12.225      12.593      12.964      13.044      12.592      11.579      10.217      8.7538      7.3452      6.1016    
  5.0822      4.3034      3.7550      3.4175      3.2729      3.3103      3.5277      3.9322      4.5370      5.3518    
  6.3681      7.5445      7.1873      8.3267      9.4542      10.477      11.282      11.861      12.310      12.713    
  13.044      13.155      12.867      12.104      10.965      9.6332      8.2568      6.9616      5.8331      4.9141    
  4.2133      3.7203      3.4175      3.2893      3.3262      3.5275      3.9002      4.4553      5.1993      6.1224    
  5.8298      6.7771      7.7989      8.8325      9.8210      10.714      11.473      12.103      12.592      12.867    
  12.815      12.358      11.526      10.423      9.1734      7.9055      6.7237      5.6966      4.8575      4.2133    
  3.7550      3.4676      3.3375      3.3573      3.5273      3.8545      4.3474      5.0094      4.7924      5.5063    
  6.3363      7.2450      8.1898      9.1312      10.036      10.868      11.579      12.104      12.358      12.270    
  11.817      11.039      10.022      8.8797      7.7239      6.6432      5.6966      4.9141      4.3034      3.8581    
  3.5658      3.4154      3.4019      3.5272      3.7976      4.2192      4.0775      4.5597      5.1694      5.8892    
  6.6959      7.5628      8.4621      9.3615      10.217      10.965      11.526      11.817      11.780      11.400    
  10.716      9.8089      8.7788      7.7239      6.7237      5.8331      5.0822      4.4809      4.0258      3.7077    
  3.5190      3.4578      3.5271      3.7326      3.6627      3.9294      4.3234      4.8369      5.4602      6.1816    
  6.9866      7.8549      8.7538      9.6332      10.423      11.039      11.400      11.450      11.174      10.603    
  9.8089      8.8797      7.9055      6.9616      6.1016      5.3568      4.7400      4.2515      3.8870      3.6434    
  3.5220      3.5271      3.5270      3.5913      3.7822      4.0954      4.5260      5.0711      5.7283      6.4916    
  7.3452      8.2568      9.1734      10.022      10.716      11.174      11.333      11.174      10.716      10.022    
  9.1734      8.2568      7.3452      6.4916      5.7283      5.0710      4.5260      4.0955      3.7825      3.5915    
  3.6627      3.5270      3.5217      3.6431      3.8868      4.2515      4.7401      5.3569      6.1016      6.9616    
  7.9055      8.8797      9.8089      10.603      11.174      11.450      11.400      11.039      10.423      9.6332    
  8.7538      7.8549      6.9867      6.1816      5.4602      4.8369      4.3234      3.9295      4.0774      3.7325    
  3.5269      3.4574      3.5187      3.7075      4.0258      4.4810      5.0823      5.8332      6.7237      7.7238    
  8.7788      9.8089      10.716      11.400      11.780      11.817      11.526      10.965      10.217      9.3615    
  8.4621      7.5629      6.6960      5.8893      5.1693      4.5596      4.7921      4.2190      3.7974      3.5269    
  3.4016      3.4152      3.5657      3.8582      4.3036      4.9142      5.6966      6.6432      7.7238      8.8797    
  10.022      11.039      11.817      12.270      12.358      12.104      11.579      10.868      10.036      9.1311    
  8.1898      7.2451      6.3363      5.5062      5.8297      5.0092      4.3471      3.8542      3.5271      3.3571    
  3.3375      3.4676      3.7551      4.2135      4.8576      5.6966      6.7237      7.9055      9.1734      10.423    
  11.526      12.358      12.815      12.867      12.592      12.103      11.473      10.714      9.8209      8.8324    
  7.7991      6.7772      7.1874      6.1224      5.1991      4.4550      3.8999      3.5273      3.3262      3.2893    
  3.4176      3.7204      4.2135      4.9142      5.8332      6.9616      8.2568      9.6332      10.965      12.104    
  12.867      13.155      13.044      12.713      12.310      11.861      11.281      10.477      9.4541      8.3268    
  8.7992      7.5446      6.3682      5.3517      4.5368      3.9320      3.5276      3.3104      3.2730      3.4176    
  3.7551      4.3036      5.0823      6.1016      7.3452      8.7538      10.217      11.579      12.592      13.044    
  12.964      12.593      12.225      12.017      11.901      11.643      11.026      10.019      10.491      9.1916    
  7.8295      6.5538      5.4585      4.5879      3.9485      3.5277      3.3104      3.2893      3.4676      3.8582    
  4.4810      5.3569      6.4916      7.8549      9.3615      10.868      12.103      12.713      12.593      11.975    
  11.307      10.991      11.149      11.549      11.760      11.429      11.681      10.845      9.4847      8.0276    
  6.6693      5.5134      4.6053      3.9485      3.5276      3.3262      3.3375      3.5657      4.0258      4.7401    
  5.7283      6.9866      8.4621      10.036      11.473      12.310      12.225      11.307      10.054      9.1393    
  9.0396      9.7669      10.861      11.662      11.436      11.812      11.076      9.6655      8.1290      6.7084    
  5.5134      4.5879      3.9320      3.5273      3.3571      3.4152      3.7075      4.2515      5.0711      6.1816    
  7.5628      9.1312      10.714      11.861      12.017      10.991      9.1395      7.2672      6.2513      6.5782    
  8.0717      9.9905      9.1443      11.194      11.865      11.189      9.7265      8.1290      6.6693      5.4585    
  4.5368      3.8999      3.5271      3.4016      3.5187      3.8868      4.5260      5.4602      6.6959      8.1898    
  9.8210      11.282      11.901      11.149      9.0397      6.2514      3.8964      3.0002      3.9690      6.3658    
  4.9842      8.5324      11.042      11.878      11.189      9.6655      8.0276      6.5538      5.3517      4.4550    
  3.8542      3.5269      3.4574      3.6431      4.0954      4.8369      5.8892      7.2450      8.8325      10.477    
  11.643      11.549      9.7669      6.5782      3.0002     0.40669     -.11906      1.6555     0.62313E-01  4.2116    
  8.3096      11.042      11.865      11.076      9.4847      7.8295      6.3682      5.1991      4.3471      3.7974    
  3.5269      3.5217      3.7822      4.3234      5.1694      6.3363      7.7989      9.4542      11.027      11.760    
  10.861      8.0717      3.9690     -.11914     -2.6446     -2.5774     -3.9322     -.50564      4.2116      8.5324    
  11.194      11.812      10.845      9.1916      7.5446      6.1224      5.0092      4.2190      3.7325      3.5270    
  3.5913      3.9294      4.5597      5.5063      6.7771      8.3267      10.019      11.429      11.662      9.9905    
  6.3658      1.6554     -2.5776     -4.7290     -3.9319     -2.8177     0.66222      5.1522      9.0606      11.275    
  11.545      10.396      8.7160      7.0966      5.7210      4.6608      3.9216      3.4795      3.3102      3.4028    
  3.7637      4.4144      5.3812      6.6693      8.2264      9.9061      11.246      11.367      9.6169      6.0457    
  1.5838     -2.2338     -2.8180     -3.9320     -2.2337      1.5838      6.0456      9.6169      11.367      11.246    
  9.9061      8.2265      6.6695      5.3812      4.4143      3.7637      3.4029      3.3102      3.4795      3.9217    
  4.6609      5.7209      7.0964      8.7159      10.396      11.545      11.275      9.0606      5.1522     0.66210    
 0.78141     -2.1030     -2.5771     -.46379      3.3587      7.4099      10.324      11.416      10.842      9.3395    
  7.6951      6.2238      5.0404      4.1775      3.6206      3.3427      3.3262      3.5696      4.0874      4.9051    
  6.0423      7.4830      9.1396      10.792      11.768      11.238      8.8198      4.9329      5.4465      1.9239    
 -.22182     -.11887      2.1599      5.6399      8.9504      10.982      11.327      10.322      8.7286      7.1477    
  5.7818      4.7150      3.9609      3.4981      3.3014      3.3574      3.6688      4.2528      5.1345      6.3286    
  7.8090      9.4768      11.085      11.944      11.322      8.9787      9.5159      6.5928      3.8711      2.4792    
  3.0003      5.1663      8.0067      10.357      11.415      11.044      9.7071      8.1044      6.6115      5.3653    
  4.4201      3.7736      3.4011      3.2803      3.4020      3.7722      4.4092      5.3367      6.5639      8.0566    
  9.7097      11.269      12.085      11.539      11.841      10.310      8.1378      6.2581      5.5233      6.2514    
  8.0563      10.064      11.380      11.517      10.565      9.0506      7.4977      6.1131      4.9937      4.1682    
  3.6233      3.3335      3.2803      3.4580      3.8744      4.5481      5.5001      6.7345      8.2114      9.8242    
  11.335      12.173      12.173      12.134      11.173      9.7740      8.6615      8.4143      9.1394      10.415    
  11.533      11.889      11.279      9.9551      8.4096      6.9394      5.6761      4.6832      3.9696      3.5158    
  3.2981      3.3013      3.5223      3.9697      4.6613      5.6150      6.8300      8.2632      9.8105      11.268    
  11.056      12.035      12.305      11.901      11.196      10.697      10.746      11.307      11.992      12.297    
  11.888      10.784      9.3169      7.8214      6.4576      5.3202      4.4463      3.8320      3.4558      3.2967    
  3.3426      3.5918      4.0529      4.7423      5.6742      6.8437      8.2065      9.6649      9.3912      10.693    
  11.723      12.261      12.326      12.171      12.104      12.280      12.593      12.739      12.413      11.506    
  10.181      8.7278      7.3203      6.0759      5.0601      4.2918      3.7607      3.4462      3.3302      3.4028    
  3.6631      4.1195      4.7862      5.6737      6.7735      8.0421      7.7775      9.0018      10.194      11.229    
  11.955      12.365      12.591      12.784      12.977      13.044      12.786      12.070      10.945      9.6111    
  8.2319      6.9356      5.8119      4.9055      4.2252      3.7588      3.4882      3.3979      3.4794      3.7328    
  4.1659      4.7905      5.6130      6.6225      6.3986      7.4269      8.5181      9.5951      10.584      11.407    
  12.027      12.483      12.811      12.974      12.867      12.386      11.528      10.403      9.1401      7.8669    
  6.6894      5.6771      4.8622      4.2493      3.8276      3.5814      3.4976      3.5692      3.7975      4.1897    
  4.7547      5.4954      5.3273      6.1145      7.0109      7.9693      8.9346      9.8563      10.696      11.415    
  11.988      12.381      12.529      12.358      11.841      11.017      9.9715      8.8156      7.6610      6.5962    
  5.6779      4.9324      4.3645      3.9657      3.7229      3.6254      3.6683      3.8541      4.1896      4.6810    
  4.5732      5.1183      5.7868      6.5547      7.3892      8.2544      9.1156      9.9401      10.691      11.319    
  11.760      11.943      11.817      11.370      10.639      9.7063      8.6714      7.6316      6.6631      5.8159    
  5.1153      4.5681      4.1688      3.9073      3.7756      3.7717      3.8997      4.1657      4.1192      4.4374    
  4.8800      5.4348      6.0855      6.8128      7.5960      8.4108      9.2269      10.001      10.676      11.177    
  11.435      11.400      11.060      10.450      9.6428      8.7257      7.7849      6.8899      6.0882      5.4066    
  4.8544      4.4299      4.1267      3.9408      3.8739      3.9316      3.9480      4.0525      4.2808      4.6260    
  5.0787      5.6303      6.2730      6.9966      7.7838      8.6054      9.4152      10.150      10.733      11.092    
  11.173      10.961      10.481      9.7942      8.9791      8.1153      7.2687      6.4866      5.7973      5.2135    
  4.7380      4.3704      4.1124      3.9693      4.0526      3.9480      3.9691      4.1121      4.3702      4.7378    
  5.2133      5.7972      6.4866      7.2686      8.1152      8.9791      9.7942      10.481      10.961      11.173    
  11.092      10.733      10.150      9.4153      8.6055      7.7839      6.9967      6.2731      5.6304      5.0788    
  4.6261      4.2810      4.4374      4.1192      3.9315      3.8737      3.9406      4.1265      4.4297      4.8543    
  5.4065      6.0882      6.8898      7.7849      8.7257      9.6428      10.450      11.060      11.400      11.435    
  11.177      10.676      10.002      9.2270      8.4109      7.5961      6.8130      6.0856      5.4349      4.8800    
  5.1181      4.5732      4.1657      3.8996      3.7715      3.7754      3.9072      4.1687      4.5681      5.1154    
  5.8159      6.6631      7.6316      8.6714      9.7063      10.639      11.370      11.817      11.943      11.760    
  11.319      10.691      9.9402      9.1157      8.2545      7.3893      6.5548      5.7868      6.1144      5.3272    
  4.6809      4.1895      3.8540      3.6682      3.6253      3.7229      3.9656      4.3645      4.9325      5.6779    
  6.5962      7.6610      8.8156      9.9715      11.017      11.841      12.358      12.529      12.381      11.988    
  11.415      10.696      9.8563      8.9347      7.9695      7.0110      7.4269      6.3985      5.4952      4.7546    
  4.1896      3.7974      3.5692      3.4976      3.5814      3.8276      4.2494      4.8623      5.6771      6.6894    
  7.8669      9.1402      10.403      11.528      12.386      12.867      12.974      12.810      12.483      12.027    
  11.407      10.584      9.5951      8.5182      9.0018      7.7774      6.6224      5.6129      4.7903      4.1658    
  3.7327      3.4794      3.3979      3.4883      3.7589      4.2253      4.9056      5.8119      6.9356      8.2320    
  9.6113      10.945      12.070      12.785      13.044      12.976      12.784      12.591      12.365      11.955    
  11.229      10.194      10.693      9.3911      8.0420      6.7735      5.6736      4.7861      4.1194      3.6630    
  3.4028      3.3303      3.4462      3.7608      4.2919      5.0602      6.0760      7.3204      8.7279      10.181    
  11.506      12.412      12.739      12.593      12.280      12.103      12.171      12.326      12.261      11.723    
  12.035      11.056      9.6648      8.2063      6.8437      5.6742      4.7422      4.0528      3.5917      3.3426    
  3.2967      3.4558      3.8321      4.4465      5.3203      6.4577      7.8215      9.3171      10.784      11.888    
  12.297      11.992      11.306      10.745      10.697      11.196      11.900      12.305      12.134      12.173    
  11.268      9.8104      8.2630      6.8301      5.6151      4.6612      3.9695      3.5222      3.3013      3.2980    
  3.5158      3.9698      4.6834      5.6762      6.9394      8.4098      9.9552      11.279      11.889      11.533    
  10.414      9.1390      8.4139      8.6613      9.7739      11.173      10.310      11.841      12.174      11.335    
  9.8241      8.2114      6.7346      5.5002      4.5480      3.8742      3.4579      3.2802      3.3334      3.6232    
  4.1683      4.9939      6.1131      7.4978      9.0508      10.565      11.517      11.380      10.064      8.0561    
  6.2512      5.5231      6.2581      8.1378      6.5928      9.5158      11.539      12.085      11.269      9.7097    
  8.0566      6.5640      5.3368      4.4091      3.7720      3.4019      3.2801      3.4010      3.7736      4.4202    
  5.3654      6.6115      8.1045      9.7072      11.044      11.415      10.357      8.0067      5.1662      3.0003    
  2.4793      3.8713      1.9241      5.4465      8.9786      11.322      11.945      11.085      9.4768      7.8091    
  6.3288      5.1345      4.2526      3.6686      3.3573      3.3012      3.4980      3.9609      4.7151      5.7818    
  7.1476      8.7286      10.323      11.327      10.982      8.9504      5.6400      2.1599     -.11878     -.22159    
 -2.1027     0.78162      4.9328      8.8198      11.238      11.768      10.792      9.1397      7.4832      6.0425    
  4.9050      4.0872      3.5695      3.3261      3.3426      3.6205      4.1776      5.0404      6.2237      7.6950    
  9.3396      10.842      11.416      10.323      7.4099      3.3587     -.46378     -2.5770     0.63263E-01 0.78220    
  3.4574      7.0009      10.074      11.714      11.686      10.447      8.7728      7.1673      5.7955      4.7271    
  3.9689      3.4980      3.2895      3.3305      3.6244      4.1899      5.0537      6.2285      7.6791      9.2909    
  10.772      11.404      10.537      8.0738      4.6774      1.5844     0.66280     -.50464     0.66285      3.6716    
  7.2997      10.211      11.557      11.264      9.8970      8.2405      6.7011      5.4186      4.4467      3.7819    
  3.3983      3.2731      3.3982      3.7819      4.4468      5.4186      6.7009      8.2405      9.8972      11.264    
  11.558      10.211      7.2999      3.6717      3.4573     0.78210     0.63245E-01  1.5844      4.6773      8.0736    
  10.537      11.404      10.771      9.2907      7.6791      6.2286      5.0537      4.1898      3.6244      3.3306    
  3.2894      3.4979      3.9689      4.7271      5.7954      7.1672      8.7728      10.447      11.686      11.714    
  10.074      7.0010      7.2733      4.0930      1.9245      1.6562      3.3591      6.2526      9.1189      10.907    
  11.182      10.202      8.6576      7.1148      5.7721      4.7170      3.9668      3.5020      3.2970      3.3376    
  3.6257      4.1774      5.0179      6.1655      7.6036      9.2496      10.916      12.049      11.927      10.219    
  10.650      8.0789      5.4597      3.8715      3.9695      5.6402      8.0694      10.180      11.168      10.835    
  9.5698      8.0251      6.5726      5.3519      4.4224      3.7858      3.4185      3.2981      3.4153      3.7758    
  4.3974      5.3042      6.5091      7.9863      9.6445      11.284      12.352      12.214      12.541      11.289    
  9.2557      7.2913      6.2583      6.5784      8.0067      9.7760      11.018      11.203      10.346      8.9136    
  7.4196      6.0762      4.9852      4.1807      3.6525      3.3762      3.3333      3.5189      3.9408      4.6175    
  5.5703      6.8061      8.2923      9.9327      11.530      12.578      12.690      12.830      11.988      10.560    
  9.2410      8.6614      9.0395      10.064      11.083      11.474      10.969      9.7503      8.2802      6.8672    
  5.6462      4.6860      4.0000      3.5710      3.3760      3.4008      3.6432      4.1123      4.8253      5.8001    
  7.0382      8.5014      10.093      11.632      11.568      12.642      12.988      12.575      11.728      10.965    
  10.697      10.991      11.532      11.829      11.504      10.509      9.1275      7.7007      6.3924      5.3000    
  4.4649      3.8863      3.5441      3.4181      3.4977      3.7823      4.2809      5.0086      5.9796      7.1899    
  8.5979      10.109      9.9755      11.327      12.399      12.931      12.900      12.541      12.199      12.103    
  12.224      12.297      12.001      11.177      9.9328      8.5487      7.2048      6.0164      5.0509      4.3296    
  3.8436      3.5732      3.5015      3.6202      3.9295      4.4373      5.1567      6.0971      7.2501      8.5725    
  8.4239      9.6951      10.917      11.949      12.611      12.874      12.877      12.814      12.784      12.713    
  12.412      11.724      10.651      9.3720      8.0542      6.8196      5.7560      4.9081      4.2848      3.8741    
  3.6585      3.6238      3.7633      4.0774      4.5732      5.2606      6.1449      7.2138      7.0819      8.1596    
  9.2838      10.366      11.318      12.041      12.492      12.728      12.830      12.810      12.592      12.069    
  11.211      10.111      8.8946      7.6796      6.5670      5.6230      4.8775      4.3331      3.9785      3.7986    
  3.7814      3.9212      4.2190      4.6809      5.3142      6.1197      6.0227      6.8622      7.7958      8.7679    
  9.7126      10.568      11.286      11.832      12.200      12.393      12.381      12.104      11.528      10.687    
  9.6597      8.5469      7.4537      6.4626      5.6247      4.9616      4.4749      4.1552      3.9897      3.9684    
  4.0869      4.3471      4.7547      5.3143      5.2609      5.8595      6.5681      7.3559      8.1819      9.0008    
  9.7703      10.457      11.033      11.470      11.728      11.760      11.526      11.017      10.268      9.3524    
  8.3652      7.3967      6.5156      5.7637      5.1602      4.7078      4.3997      4.2255      4.1770      4.2523    
  4.4549      4.7905      4.7863      5.1571      5.6401      6.2182      6.8685      7.5643      8.2777      8.9810    
  9.6469      10.244      10.733      11.062      11.177      11.039      10.639      10.014      9.2303      8.3728    
  7.5190      6.7284      6.0388      5.4696      5.0260      4.7041      4.4961      4.3973      4.4088      4.5367    
  4.5878      4.7424      5.0091      5.3778      5.8343      6.3641      6.9534      7.5872      8.2478      8.9109    
  9.5425      10.096      10.512      10.733      10.716      10.450      9.9640      9.3158      8.5784      7.8207    
  7.0969      6.4437      5.8818      5.4194      5.0561      4.7888      4.6176      4.5479      4.6613      4.6052    
  4.6613      4.8257      5.0884      5.4394      5.8724      6.3832      6.9664      7.6100      8.2916      8.9754    
  9.6105      10.134      10.481      10.603      10.481      10.134      9.6105      8.9754      8.2916      7.6100    
  6.9664      6.3833      5.8724      5.4395      5.0883      4.8256      5.0091      4.7425      4.5879      4.5480    
  4.6177      4.7888      5.0560      5.4193      5.8818      6.4437      7.0969      7.8207      8.5784      9.3158    
  9.9640      10.450      10.716      10.733      10.512      10.096      9.5426      8.9110      8.2478      7.5872    
  6.9534      6.3642      5.8343      5.3778      5.6401      5.1572      4.7865      4.5368      4.4089      4.3974    
  4.4961      4.7039      5.0259      5.4696      6.0388      6.7284      7.5190      8.3728      9.2304      10.014    
  10.639      11.039      11.177      11.062      10.733      10.245      9.6470      8.9811      8.2777      7.5644    
  6.8685      6.2182      6.5681      5.8596      5.2611      4.7907      4.4550      4.2524      4.1771      4.2254    
  4.3995      4.7077      5.1601      5.7637      6.5156      7.3967      8.3652      9.3524      10.268      11.017    
  11.526      11.760      11.728      11.470      11.033      10.457      9.7703      9.0008      8.1820      7.3559    
  7.7958      6.8621      6.0227      5.3145      4.7548      4.3471      4.0869      3.9684      3.9897      4.1550    
  4.4748      4.9616      5.6247      6.4626      7.4537      8.5470      9.6597      10.687      11.528      12.104    
  12.381      12.393      12.200      11.832      11.286      10.568      9.7126      8.7680      9.2839      8.1596    
  7.0819      6.1198      5.3143      4.6810      4.2190      3.9212      3.7814      3.7985      3.9784      4.3331    
  4.8775      5.6230      6.5669      7.6796      8.8947      10.111      11.211      12.069      12.592      12.810    
  12.830      12.728      12.492      12.041      11.318      10.366      10.917      9.6952      8.4239      7.2137    
  6.1450      5.2607      4.5731      4.0774      3.7633      3.6239      3.6585      3.8741      4.2848      4.9082    
  5.7559      6.8196      8.0543      9.3721      10.651      11.724      12.412      12.713      12.784      12.814    
  12.876      12.874      12.611      11.949      12.399      11.328      9.9755      8.5724      7.2501      6.0972    
  5.1567      4.4373      3.9294      3.6202      3.5016      3.5732      3.8437      4.3297      5.0509      6.0163    
  7.2048      8.5488      9.9329      11.176      12.000      12.296      12.224      12.103      12.199      12.541    
  12.900      12.931      12.988      12.642      11.568      10.109      8.5978      7.1898      5.9796      5.0086    
  4.2808      3.7824      3.4979      3.4182      3.5442      3.8865      4.4651      5.3000      6.3923      7.7007    
  9.1275      10.509      11.503      11.828      11.532      10.990      10.697      10.964      11.728      12.575    
  11.988      12.830      12.690      11.632      10.093      8.5013      7.0382      5.8002      4.8253      4.1123    
  3.6434      3.4010      3.3761      3.5711      4.0002      4.6861      5.6462      6.8672      8.2803      9.7504    
  10.969      11.474      11.083      10.064      9.0391      8.6611      9.2410      10.560      9.2558      11.289    
  12.541      12.578      11.530      9.9326      8.2922      6.8062      5.5703      4.6175      3.9410      3.5191    
  3.3335      3.3762      3.6526      4.1808      4.9853      6.0761      7.4196      8.9137      10.346      11.202    
  11.018      9.7759      8.0066      6.5781      6.2582      7.2914      5.4599      8.0790      10.650      12.214    
  12.352      11.284      9.6444      7.9863      6.5091      5.3043      4.3974      3.7759      3.4156      3.2982    
  3.4185      3.7859      4.4225      5.3519      6.5726      8.0252      9.5699      10.835      11.168      10.180    
  8.0694      5.6402      3.9694      3.8715      1.9246      4.0931      7.2733      10.219      11.927      12.049    
  10.915      9.2495      7.6037      6.1656      5.0179      4.1774      3.6258      3.3378      3.2970      3.5020    
  3.9669      4.7171      5.7721      7.1147      8.6577      10.202      11.182      10.907      9.1190      6.2528    
  3.3591      1.6562      4.9850      5.4469      7.2731      9.6720      11.640      12.456      11.977      10.603    
  8.9610      7.4003      6.0582      4.9973      4.2255      3.7231      3.4677      3.4462      3.6587      4.1188    
  4.8498      5.8688      7.1582      8.6366      10.136      11.211      11.273      10.105      8.0740      6.0462    
  5.1528      4.2126      4.9333      7.0007      9.5022      11.406      12.058      11.421      9.9820      8.3706    
  6.8775      5.6254      4.6634      3.9899      3.5817      3.4176      3.4884      3.7988      4.3668      5.2167    
  6.3588      7.7599      9.3160      10.803      11.652      11.308      9.6799      7.2999      7.0009      4.9334    
  4.2126      5.1527      7.2996      9.6796      11.308      11.652      10.803      9.3157      7.7599      6.3589    
  5.2166      4.3667      3.7988      3.4885      3.4175      3.5815      3.9899      4.6636      5.6254      6.8774    
  8.3707      9.9823      11.421      12.058      11.406      9.5024      9.6722      7.2731      5.4470      4.9850    
  6.0461      8.0737      10.105      11.273      11.211      10.136      8.6364      7.1582      5.8689      4.8497    