unknown system                          
   1.00000000000000     
    -2.450000    2.450000    1.274000
     2.450000   -2.450000    1.274000
     2.450000    2.450000   -1.274000
   Si
     2
Direct
  0.250000  0.750000  0.500000
  0.000000  0.000000  0.000000
 
   28   28   28
 -.54697098722E+01 -.39320958109E+01 0.63869731383E-01 0.49875168810E+01 0.91491912057E+01
 0.11441300348E+02 0.11686013297E+02 0.10494764493E+02 0.88013754361E+01 0.71875500541E+01
 0.58279921265E+01 0.47889053680E+01 0.40731477222E+01 0.36578773634E+01 0.35219716482E+01
 0.36577989939E+01 0.40731949622E+01 0.47890701476E+01 0.58280498773E+01 0.71874753348E+01
 0.88013610575E+01 0.10494832590E+02 0.11686008256E+02 0.11441249277E+02 0.91492584641E+01
 0.49876243206E+01 0.63790414434E-01 -.39322852981E+01 -.39322852981E+01 -.47300140513E+01
 -.25785599457E+01 0.16550376688E+01 0.63666676134E+01 0.99926423774E+01 0.11665015807E+02
 0.11431769259E+02 0.10021908643E+02 0.83281815380E+01 0.67770702413E+01 0.55045216762E+01
 0.45564433646E+01 0.39253325584E+01 0.35866199985E+01 0.35219894474E+01 0.37276041651E+01
 0.42147263353E+01 0.50059457695E+01 0.61206151681E+01 0.75449771697E+01 0.91946437581E+01
 0.10850270673E+02 0.11818941228E+02 0.11201675371E+02 0.85392581156E+01 0.42164213780E+01
 -.50351439956E+00 0.63790414434E-01 -.25786968138E+01 -.26476291978E+01 -.12297392910E+00
 0.39652872281E+01 0.80689420138E+01 0.10859992568E+02 0.11759681119E+02 0.11027481403E+02
 0.94554553061E+01 0.77999288213E+01 0.63361378543E+01 0.51677102281E+01 0.43204195171E+01
 0.37784197270E+01 0.35172495502E+01 0.35220370465E+01 0.37925121004E+01 0.43426952771E+01
 0.51956877948E+01 0.63663837079E+01 0.78303550736E+01 0.94886759382E+01 0.11082676185E+02
 0.11873740504E+02 0.11050775436E+02 0.83170208014E+01 0.42164213780E+01 0.49876243206E+01
 0.16549991655E+01 -.12302671079E+00 0.40016939415E+00 0.29922517039E+01 0.65702022043E+01
 0.97601215045E+01 0.11543764749E+02 0.11640049945E+02 0.10475929259E+02 0.88329662503E+01
 0.72457318272E+01 0.58890959700E+01 0.48354246568E+01 0.40926860844E+01 0.36395154762E+01
 0.34531179664E+01 0.35221300217E+01 0.38492429730E+01 0.44503735490E+01 0.53480183226E+01
 0.65520236729E+01 0.80288578034E+01 0.96701647812E+01 0.11196343582E+02 0.11887232917E+02
 0.11050775436E+02 0.85392581156E+01 0.91492584641E+01 0.63667164316E+01 0.39652963553E+01
 0.29922833185E+01 0.38852538158E+01 0.62385724936E+01 0.90269751130E+01 0.11138463577E+02
 0.11893214783E+02 0.11276953088E+02 0.98192613876E+01 0.81899652361E+01 0.66965157437E+01
 0.54600626705E+01 0.45246222956E+01 0.38843430779E+01 0.35153319900E+01 0.33974061000E+01
 0.35222700509E+01 0.38947986543E+01 0.45319071442E+01 0.54545501467E+01 0.66675348631E+01
 0.81305822563E+01 0.97314833552E+01 0.11196343582E+02 0.11873740504E+02 0.11201675371E+02
 0.11441249277E+02 0.99926257335E+01 0.80689290497E+01 0.65702474942E+01 0.62386626376E+01
 0.72509632451E+01 0.91217137715E+01 0.10974444344E+02 0.12003588922E+02 0.11851071238E+02
 0.10708303677E+02 0.91290945473E+01 0.75629073699E+01 0.61821437092E+01 0.50709456697E+01
 0.42502792742E+01 0.37052348745E+01 0.34118983593E+01 0.33529390343E+01 0.35224298281E+01
 0.39266773892E+01 0.45827506028E+01 0.55093514976E+01 0.67067353057E+01 0.81305822563E+01
 0.96701647812E+01 0.11082676185E+02 0.11818941228E+02 0.11686008256E+02 0.11664984159E+02
 0.10859912239E+02 0.97600619222E+01 0.90270351870E+01 0.91218252897E+01 0.10033657081E+02
 0.11285009795E+02 0.12205140919E+02 0.12294266826E+02 0.11462820090E+02 0.10030099873E+02
 0.84601050150E+01 0.69867401135E+01 0.57288148933E+01 0.47399665102E+01 0.40246907883E+01
 0.35635565036E+01 0.33342425278E+01 0.33219864949E+01 0.35225590131E+01 0.39430843080E+01
 0.46000264708E+01 0.55093514976E+01 0.66675348631E+01 0.80288578034E+01 0.94886759382E+01
 0.10850270673E+02 0.10494832590E+02 0.11431844414E+02 0.11759679156E+02 0.11543659245E+02
 0.11138382580E+02 0.10974498671E+02 0.11285109761E+02 0.11951350192E+02 0.12569575220E+02
 0.12692568757E+02 0.12087633701E+02 0.10858009051E+02 0.93560841144E+01 0.78530560307E+01
 0.64917599187E+01 0.53573729935E+01 0.44809771079E+01 0.38571934585E+01 0.34655865554E+01
 0.32861153686E+01 0.33061144167E+01 0.35226087977E+01 0.39430843080E+01 0.45827506028E+01
 0.54545501467E+01 0.65520236729E+01 0.78303550736E+01 0.91946437581E+01 0.88013610575E+01
 0.10021985903E+02 0.11027603096E+02 0.11640079303E+02 0.11893121494E+02 0.12003511240E+02
 0.12205176876E+02 0.12569644138E+02 0.12939257366E+02 0.13020344415E+02 0.12571870872E+02
 0.11564412131E+02 0.10207348679E+02 0.87489052699E+01 0.73436544884E+01 0.61017068099E+01
 0.50827883647E+01 0.43035374690E+01 0.37542160389E+01 0.34155451747E+01 0.32698156995E+01
 0.33061144167E+01 0.35225590131E+01 0.39266773892E+01 0.45319071442E+01 0.53480183226E+01
 0.63663837079E+01 0.75449771697E+01 0.71874753348E+01 0.83281200177E+01 0.94555110474E+01
 0.10476055980E+02 0.11277004828E+02 0.11851012695E+02 0.12294208828E+02 0.12692583087E+02
 0.13020377684E+02 0.13130010458E+02 0.12844156097E+02 0.12085454121E+02 0.10951631814E+02
 0.96246066542E+01 0.82524155799E+01 0.69601330217E+01 0.58332716680E+01 0.49146324508E+01
 0.42134640400E+01 0.37194846521E+01 0.34155451747E+01 0.32861153686E+01 0.33219864949E+01
 0.35224298281E+01 0.38947986543E+01 0.44503735490E+01 0.51956877948E+01 0.61206151681E+01
 0.58280498773E+01 0.67769989854E+01 0.77998390535E+01 0.88329829518E+01 0.98193597288E+01
 0.10708362756E+02 0.11462800563E+02 0.12087600753E+02 0.12571867422E+02 0.12844160277E+02
 0.12792269357E+02 0.12337990264E+02 0.11509358273E+02 0.10410587606E+02 0.91655705283E+01
 0.79014527199E+01 0.67223257706E+01 0.56966778424E+01 0.48580479490E+01 0.42134640400E+01
 0.37542160389E+01 0.34655865554E+01 0.33342425278E+01 0.33529390343E+01 0.35222700509E+01
 0.38492429730E+01 0.43426952771E+01 0.50059457695E+01 0.47890701476E+01 0.55046113833E+01
 0.63360929007E+01 0.72456395084E+01 0.81899436794E+01 0.91291488468E+01 0.10030152039E+02
 0.10858019222E+02 0.11564400803E+02 0.12085440487E+02 0.12337977355E+02 0.12249374916E+02
 0.11798918473E+02 0.11023613966E+02 0.10010491738E+02 0.88723732147E+01 0.77199194000E+01
 0.66417979785E+01 0.56966778424E+01 0.49146324508E+01 0.43035374690E+01 0.38571934585E+01
 0.35635565036E+01 0.34118983593E+01 0.33974061000E+01 0.35221300217E+01 0.37925121004E+01
 0.42147263353E+01 0.40731949622E+01 0.45565646434E+01 0.51678048489E+01 0.58890865344E+01
 0.66964429947E+01 0.75628620435E+01 0.84601175887E+01 0.93561203456E+01 0.10207373298E+02
 0.10951634504E+02 0.11509342596E+02 0.11798900256E+02 0.11761491187E+02 0.11383112250E+02
 0.10701984174E+02 0.97981300942E+01 0.87716102426E+01 0.77199194000E+01 0.67223257706E+01
 0.58332716680E+01 0.50827883647E+01 0.44809771079E+01 0.40246907883E+01 0.37052348745E+01
 0.35153319900E+01 0.34531179664E+01 0.35220370465E+01 0.37276041651E+01 0.36577989939E+01
 0.39252837815E+01 0.43204612174E+01 0.48354981699E+01 0.54600830272E+01 0.61821018070E+01
 0.69866900111E+01 0.78530400965E+01 0.87489222260E+01 0.96246314436E+01 0.10410596884E+02
 0.11023602046E+02 0.11383096005E+02 0.11432706939E+02 0.11157593490E+02 0.10589562906E+02
 0.97981300942E+01 0.88723732147E+01 0.79014527199E+01 0.69601330217E+01 0.61017068099E+01
 0.53573729935E+01 0.47399665102E+01 0.42502792742E+01 0.38843430779E+01 0.36395154762E+01
 0.35172495502E+01 0.35219894474E+01 0.35219716482E+01 0.35864954980E+01 0.37782884955E+01
 0.40926469458E+01 0.45246603384E+01 0.50709812636E+01 0.57288037205E+01 0.64917204402E+01
 0.73436250956E+01 0.82524140624E+01 0.91655868563E+01 0.10010502816E+02 0.10701977460E+02
 0.11157580386E+02 0.11316874170E+02 0.11157593490E+02 0.10701984174E+02 0.10010491738E+02
 0.91655705283E+01 0.82524155799E+01 0.73436544884E+01 0.64917599187E+01 0.57288148933E+01
 0.50709456697E+01 0.45246222956E+01 0.40926860844E+01 0.37784197270E+01 0.35866199985E+01
 0.36578773634E+01 0.35219768065E+01 0.35171130425E+01 0.36393488600E+01 0.38842541551E+01
 0.42502832998E+01 0.47400027941E+01 0.53573856241E+01 0.61016855791E+01 0.69601007503E+01
 0.79014365439E+01 0.88723800613E+01 0.97981411586E+01 0.10589558532E+02 0.11157580386E+02
 0.11432706939E+02 0.11383112250E+02 0.11023613966E+02 0.10410587606E+02 0.96246066542E+01
 0.87489052699E+01 0.78530560307E+01 0.69867401135E+01 0.61821437092E+01 0.54600626705E+01
 0.48354246568E+01 0.43204195171E+01 0.39253325584E+01 0.40731477222E+01 0.37276209582E+01
 0.35220177492E+01 0.34530107271E+01 0.35151909943E+01 0.37051424302E+01 0.40246737051E+01
 0.44810056642E+01 0.50828163447E+01 0.58332680512E+01 0.67222949254E+01 0.77198950028E+01
 0.87716130769E+01 0.97981411586E+01 0.10701977460E+02 0.11383096005E+02 0.11761491187E+02
 0.11798918473E+02 0.11509358273E+02 0.10951631814E+02 0.10207348679E+02 0.93560841144E+01
 0.84601050150E+01 0.75629073699E+01 0.66965157437E+01 0.58890959700E+01 0.51677102281E+01
 0.45564433646E+01 0.47889053680E+01 0.42146086473E+01 0.37924759104E+01 0.35221157513E+01
 0.33973634258E+01 0.34118332628E+01 0.35634992388E+01 0.38571701081E+01 0.43035570575E+01
 0.49146686181E+01 0.56966847666E+01 0.66417681642E+01 0.77198950028E+01 0.88723800613E+01
 0.10010502816E+02 0.11023602046E+02 0.11798900256E+02 0.12249374916E+02 0.12337990264E+02
 0.12085454121E+02 0.11564412131E+02 0.10858009051E+02 0.10030099873E+02 0.91290945473E+01
 0.81899652361E+01 0.72457318272E+01 0.63361378543E+01 0.55045216762E+01 0.58279921265E+01
 0.50057946770E+01 0.43425601917E+01 0.38491815218E+01 0.35222749806E+01 0.33529787866E+01
 0.33342732232E+01 0.34655783426E+01 0.37541948370E+01 0.42134781846E+01 0.48580866555E+01
 0.56966847666E+01 0.67222949254E+01 0.79014365439E+01 0.91655868563E+01 0.10410596884E+02
 0.11509342596E+02 0.12337977355E+02 0.12792269357E+02 0.12844156097E+02 0.12571870872E+02
 0.12087633701E+02 0.11462820090E+02 0.10708303677E+02 0.98192613876E+01 0.88329662503E+01
 0.77999288213E+01 0.67770702413E+01 0.71875500541E+01 0.61206065598E+01 0.51956054661E+01
 0.44502772053E+01 0.38947439428E+01 0.35224634610E+01 0.33221021543E+01 0.32862240661E+01
 0.34155709433E+01 0.37194654454E+01 0.42134781846E+01 0.49146686181E+01 0.58332680512E+01
 0.69601007503E+01 0.82524140624E+01 0.96246314436E+01 0.10951634504E+02 0.12085440487E+02
 0.12844160277E+02 0.13130010458E+02 0.13020344415E+02 0.12692568757E+02 0.12294266826E+02
 0.11851071238E+02 0.11276953088E+02 0.10475929259E+02 0.94554553061E+01 0.83281815380E+01
 0.88013754361E+01 0.75450280177E+01 0.63664265354E+01 0.53480358416E+01 0.45318826537E+01
 0.39266481044E+01 0.35226188983E+01 0.33062755118E+01 0.32699542513E+01 0.34155709433E+01
 0.37541948370E+01 0.43035570575E+01 0.50828163447E+01 0.61016855791E+01 0.73436250956E+01
 0.87489222260E+01 0.10207373298E+02 0.11564400803E+02 0.12571867422E+02 0.13020377684E+02
 0.12939257366E+02 0.12569575220E+02 0.12205140919E+02 0.12003588922E+02 0.11893214783E+02
 0.11640049945E+02 0.11027481403E+02 0.10021908643E+02 0.10494764493E+02 0.91946059226E+01
 0.78303626655E+01 0.65521077924E+01 0.54546630730E+01 0.45827928424E+01 0.39430763680E+01
 0.35226793442E+01 0.33062755118E+01 0.32862240661E+01 0.34655783426E+01 0.38571701081E+01
 0.44810056642E+01 0.53573856241E+01 0.64917204402E+01 0.78530400965E+01 0.93561203456E+01
 0.10858019222E+02 0.12087600753E+02 0.12692583087E+02 0.12569644138E+02 0.11951350192E+02
 0.11285009795E+02 0.10974444344E+02 0.11138463577E+02 0.11543764749E+02 0.11759681119E+02
 0.11431769259E+02 0.11686013297E+02 0.10850240914E+02 0.94885943424E+01 0.80288200112E+01
 0.66676441648E+01 0.55095220175E+01 0.46000955906E+01 0.39430763680E+01 0.35226188983E+01
 0.33221021543E+01 0.33342732232E+01 0.35634992388E+01 0.40246737051E+01 0.47400027941E+01
 0.57288037205E+01 0.69866900111E+01 0.84601175887E+01 0.10030152039E+02 0.11462800563E+02
 0.12294208828E+02 0.12205176876E+02 0.11285109761E+02 0.10033657081E+02 0.91217137715E+01
 0.90269751130E+01 0.97601215045E+01 0.10859992568E+02 0.11665015807E+02 0.11441300348E+02
 0.11819037101E+02 0.11082695719E+02 0.96700556731E+01 0.81305157682E+01 0.67068528671E+01
 0.55095220175E+01 0.45827928424E+01 0.39266481044E+01 0.35224634610E+01 0.33529787866E+01
 0.34118332628E+01 0.37051424302E+01 0.42502832998E+01 0.50709812636E+01 0.61821018070E+01
 0.75628620435E+01 0.91291488468E+01 0.10708362756E+02 0.11851012695E+02 0.12003511240E+02
 0.10974498671E+02 0.91218252897E+01 0.72509632451E+01 0.62385724936E+01 0.65702022043E+01
 0.80689420138E+01 0.99926423774E+01 0.91491912057E+01 0.11201734180E+02 0.11873907833E+02
 0.11196397218E+02 0.97313650772E+01 0.81305157682E+01 0.66676441648E+01 0.54546630730E+01
 0.45318826537E+01 0.38947439428E+01 0.35222749806E+01 0.33973634258E+01 0.35151909943E+01
 0.38842541551E+01 0.45246603384E+01 0.54600830272E+01 0.66964429947E+01 0.81899436794E+01
 0.98193597288E+01 0.11277004828E+02 0.11893121494E+02 0.11138382580E+02 0.90270351870E+01
 0.62386626376E+01 0.38852538158E+01 0.29922517039E+01 0.39652872281E+01 0.63666676134E+01
 0.49875168810E+01 0.85391192307E+01 0.11050835384E+02 0.11887427296E+02 0.11196397218E+02
 0.96700556731E+01 0.80288200112E+01 0.65521077924E+01 0.53480358416E+01 0.44502772053E+01
 0.38491815218E+01 0.35221157513E+01 0.34530107271E+01 0.36393488600E+01 0.40926469458E+01
 0.48354981699E+01 0.58890865344E+01 0.72456395084E+01 0.88329829518E+01 0.10476055980E+02
 0.11640079303E+02 0.11543659245E+02 0.97600619222E+01 0.65702474942E+01 0.29922833185E+01
 0.40016939415E+00 -.12297392910E+00 0.16550376688E+01 0.63869731383E-01 0.42162782467E+01
 0.83168537569E+01 0.11050835384E+02 0.11873907833E+02 0.11082695719E+02 0.94885943424E+01
 0.78303626655E+01 0.63664265354E+01 0.51956054661E+01 0.43425601917E+01 0.37924759104E+01
 0.35220177492E+01 0.35171130425E+01 0.37782884955E+01 0.43204612174E+01 0.51678048489E+01
 0.63360929007E+01 0.77998390535E+01 0.94555110474E+01 0.11027603096E+02 0.11759679156E+02
 0.10859912239E+02 0.80689290497E+01 0.39652963553E+01 -.12302671079E+00 -.26476291978E+01
 -.25785599457E+01 -.39320958109E+01 -.50341899433E+00 0.42162782467E+01 0.85391192307E+01
 0.11201734180E+02 0.11819037101E+02 0.10850240914E+02 0.91946059226E+01 0.75450280177E+01
 0.61206065598E+01 0.50057946770E+01 0.42146086473E+01 0.37276209582E+01 0.35219768065E+01
 0.35864954980E+01 0.39252837815E+01 0.45565646434E+01 0.55046113833E+01 0.67769989854E+01
 0.83281200177E+01 0.10021985903E+02 0.11431844414E+02 0.11664984159E+02 0.99926257335E+01
 0.63667164316E+01 0.16549991655E+01 -.25786968138E+01 -.47300140513E+01 -.39317669275E+01
 -.28167122615E+01 0.66514246441E+00 0.51573526156E+01 0.90675248099E+01 0.11282888210E+02
 0.11551762351E+02 0.10401483323E+02 0.87187931243E+01 0.70970968749E+01 0.57196146374E+01
 0.46580524796E+01 0.39179498978E+01 0.34753731020E+01 0.33058710023E+01 0.33986847222E+01
 0.37601694224E+01 0.44118470926E+01 0.53798903805E+01 0.66696087127E+01 0.82283991168E+01
 0.99096662915E+01 0.11250716714E+02 0.11372344204E+02 0.96216266544E+01 0.60491252922E+01
 0.15855868051E+01 -.22332834313E+01 -.28168858194E+01 -.39318057768E+01 -.22331985126E+01
 0.15856005631E+01 0.60490871666E+01 0.96217131789E+01 0.11372516726E+02 0.11250788773E+02
 0.99096674908E+01 0.82285002830E+01 0.66697613580E+01 0.53799070597E+01 0.44117641419E+01
 0.37601714552E+01 0.33987493663E+01 0.33058408316E+01 0.34752904773E+01 0.39179664010E+01
 0.46580993350E+01 0.57195165439E+01 0.70969159474E+01 0.87187103581E+01 0.10401448926E+02
 0.11551620734E+02 0.11282729628E+02 0.90675375761E+01 0.51574401013E+01 0.66507157677E+00
 0.78416422310E+00 -.21027435655E+01 -.25783308895E+01 -.46521473458E+00 0.33579744780E+01
 0.74104421425E+01 0.10325273473E+02 0.11418514562E+02 0.10844869905E+02 0.93417293291E+01
 0.76964174792E+01 0.62239290668E+01 0.50391889117E+01 0.41750524004E+01 0.36171290859E+01
 0.33386154028E+01 0.33217952092E+01 0.35651897157E+01 0.40834524111E+01 0.49020858532E+01
 0.60409523037E+01 0.74839002428E+01 0.91433673265E+01 0.10798418531E+02 0.11776560768E+02
 0.11246825466E+02 0.88277780461E+01 0.49384688719E+01 0.54512072331E+01 0.19250915837E+01
 -.22371079757E+00 -.12282112142E+00 0.21551476224E+01 0.56355125880E+01 0.89471226173E+01
 0.10979783072E+02 0.11326970589E+02 0.10323133151E+02 0.87297354146E+01 0.71486572610E+01
 0.57819854098E+01 0.47139422066E+01 0.39585514606E+01 0.34947560855E+01 0.32972972331E+01
 0.33529099581E+01 0.36642363470E+01 0.42485973060E+01 0.51313084261E+01 0.63272229659E+01
 0.78102783009E+01 0.94813191458E+01 0.11092175179E+02 0.11953752365E+02 0.11331130553E+02
 0.89864022699E+01 0.95221393964E+01 0.65952932525E+01 0.38694849526E+01 0.24738442738E+01
 0.29923112467E+01 0.51570413825E+01 0.79977283505E+01 0.10349461954E+02 0.11409513880E+02
 0.11040733211E+02 0.97063755473E+01 0.81049562648E+01 0.66123441024E+01 0.53655110808E+01
 0.44190785474E+01 0.37714100493E+01 0.33978999300E+01 0.32762923356E+01 0.33975585406E+01
 0.37674715225E+01 0.44047721466E+01 0.53333177511E+01 0.65625259489E+01 0.80582254614E+01
 0.97146655368E+01 0.11276624529E+02 0.12093865429E+02 0.11547617943E+02 0.11848078625E+02
 0.10313804388E+02 0.81371039934E+01 0.62525651107E+01 0.55133831222E+01 0.62385290125E+01
 0.80421044947E+01 0.10050914082E+02 0.11369154359E+02 0.11509239072E+02 0.10560947487E+02
 0.90491755039E+01 0.74980339136E+01 0.61138506481E+01 0.49939341120E+01 0.41673087354E+01
 0.36211937221E+01 0.33303986200E+01 0.32763293348E+01 0.34534156461E+01 0.38694277854E+01
 0.45433480197E+01 0.54965783452E+01 0.67331985648E+01 0.82131923661E+01 0.98291309523E+01
 0.11342107220E+02 0.12181647609E+02 0.12179119338E+02 0.12138157040E+02 0.11173487543E+02
 0.97693003851E+01 0.86514052005E+01 0.83994822735E+01 0.91215806955E+01 0.10396059675E+02
 0.11515579254E+02 0.11875000685E+02 0.11269691409E+02 0.99499601119E+01 0.84079173363E+01
 0.69396517817E+01 0.56768893203E+01 0.46834659174E+01 0.39688254438E+01 0.35139012081E+01
 0.32951099107E+01 0.32973912176E+01 0.35176251190E+01 0.39645525593E+01 0.46563853445E+01
 0.56113538283E+01 0.68286617368E+01 0.82647939216E+01 0.98150213541E+01 0.11274608465E+02
 0.11060727404E+02 0.12039279686E+02 0.12306458576E+02 0.11897505801E+02 0.11186928504E+02
 0.10683011515E+02 0.10726785046E+02 0.11284827420E+02 0.11970562327E+02 0.12277647372E+02
 0.11873404168E+02 0.10774549475E+02 0.93118309331E+01 0.78197963452E+01 0.64579183928E+01
 0.53210014725E+01 0.44465802390E+01 0.38312985927E+01 0.34540069490E+01 0.32938632190E+01
 0.33387157673E+01 0.35869973385E+01 0.40476389754E+01 0.47372717453E+01 0.56704919402E+01
 0.68422760789E+01 0.82077836797E+01 0.96686689350E+01 0.93940205405E+01 0.10696538008E+02
 0.11725513722E+02 0.12259534105E+02 0.12320294479E+02 0.12159039626E+02 0.12085880126E+02
 0.12258051603E+02 0.12569395264E+02 0.12716091477E+02 0.12393154126E+02 0.11491433050E+02
 0.10172029612E+02 0.87230704461E+01 0.73188998926E+01 0.60762365150E+01 0.50608316866E+01
 0.42920732404E+01 0.37600600754E+01 0.34444509583E+01 0.33273440187E+01 0.33987812610E+01
 0.36581832404E+01 0.41141757433E+01 0.47812159398E+01 0.56700142223E+01 0.67720170011E+01
 0.80429871836E+01 0.77779627786E+01 0.90037858814E+01 0.10196632447E+02 0.11229845724E+02
 0.11951919065E+02 0.12356038076E+02 0.12576891280E+02 0.12764775922E+02 0.12953735957E+02
 0.13020206494E+02 0.12763366320E+02 0.12051225058E+02 0.10931519284E+02 0.96026323943E+01
 0.82276714437E+01 0.69343192951E+01 0.58121734479E+01 0.49062340767E+01 0.42254987629E+01
 0.37582855422E+01 0.34865205149E+01 0.33949234412E+01 0.34752671964E+01 0.37277930161E+01
 0.41605914798E+01 0.47855671957E+01 0.56094546965E+01 0.66208746045E+01 0.63968995725E+01
 0.74271096370E+01 0.85195312811E+01 0.95963335409E+01 0.10583482766E+02 0.11402169000E+02
 0.12017056531E+02 0.12467683547E+02 0.12790809672E+02 0.12951528250E+02 0.12844073440E+02
 0.12365816655E+02 0.11510930383E+02 0.10390617870E+02 0.91324140802E+01 0.78629886695E+01
 0.66882068446E+01 0.56773810163E+01 0.48629170797E+01 0.42496451056E+01 0.38270098846E+01
 0.35796093872E+01 0.34944472784E+01 0.35649920944E+01 0.37924745969E+01 0.41844160280E+01
 0.47499635827E+01 0.54919293434E+01 0.53239472561E+01 0.61128310908E+01 0.70109748232E+01
 0.79703301508E+01 0.89352699706E+01 0.98548608755E+01 0.10690379426E+02 0.11405373901E+02
 0.11973610208E+02 0.12362485912E+02 0.12508472807E+02 0.12337952365E+02 0.11822652630E+02
 0.11002325082E+02 0.99604347839E+01 0.88084415819E+01 0.76572805214E+01 0.65950976239E+01
 0.56781823920E+01 0.49331472226E+01 0.43647551916E+01 0.39649134270E+01 0.37208976532E+01
 0.36220343362E+01 0.36638794829E+01 0.38490021016E+01 0.41843843707E+01 0.46763201973E+01
 0.45686777953E+01 0.51149910830E+01 0.57852644470E+01 0.65546600844E+01 0.73900226404E+01
 0.82548037329E+01 0.91140245222E+01 0.99350296541E+01 0.10681689227E+02 0.11305574676E+02
 0.11742904115E+02 0.11924711396E+02 0.11798904178E+02 0.11353186109E+02 0.10625502943E+02
 0.96958945526E+01 0.86646242025E+01 0.76280331147E+01 0.66620141713E+01 0.58162101880E+01
 0.51160548998E+01 0.45683349527E+01 0.41679270000E+01 0.39050563999E+01 0.37719881692E+01
 0.37670396568E+01 0.38944174345E+01 0.41604901450E+01 0.41139878193E+01 0.44329459159E+01
 0.48768977413E+01 0.54333767687E+01 0.60854897506E+01 0.68136294952E+01 0.75963001673E+01
 0.84092950356E+01 0.92222620407E+01 0.99930563354E+01 0.10663506794E+02 0.11162381143E+02
 0.11418863283E+02 0.11383102645E+02 0.11044368164E+02 0.10437250762E+02 0.96327090916E+01
 0.87189313803E+01 0.77812788960E+01 0.68887000995E+01 0.60885287757E+01 0.54072852281E+01
 0.48545684915E+01 0.44287852578E+01 0.41241160951E+01 0.39369376763E+01 0.38690285086E+01
 0.39262278765E+01 0.39426204172E+01 0.40473474455E+01 0.42765723085E+01 0.46230693155E+01
 0.50773386027E+01 0.56303762353E+01 0.62737793400E+01 0.69969412648E+01 0.77825071330E+01
 0.86012509655E+01 0.94076377632E+01 0.10138642224E+02 0.10719307672E+02 0.11076510640E+02
 0.11157578681E+02 0.10946208437E+02 0.10468149875E+02 0.97838931039E+01 0.89720982922E+01
 0.81114314710E+01 0.72674724231E+01 0.64869881854E+01 0.57980390139E+01 0.52135198991E+01
 0.47367022821E+01 0.43676188374E+01 0.41082542495E+01 0.39642600293E+01 0.40474677066E+01
 0.39426384347E+01 0.39641622871E+01 0.41081406099E+01 0.43675530414E+01 0.47366547463E+01
 0.52134602179E+01 0.57979843492E+01 0.64869458567E+01 0.72674224604E+01 0.81113823545E+01
 0.89720852824E+01 0.97839115541E+01 0.10468157933E+02 0.10946197143E+02 0.11157573577E+02
 0.11076510855E+02 0.10719292813E+02 0.10138630653E+02 0.94076681252E+01 0.86013161937E+01
 0.77825723767E+01 0.69970070845E+01 0.62738582838E+01 0.56304375773E+01 0.50773581399E+01
 0.46231015822E+01 0.42766769759E+01 0.44329967728E+01 0.41140969064E+01 0.39262789431E+01
 0.38689870492E+01 0.39368685975E+01 0.41240601879E+01 0.44287268730E+01 0.48545103763E+01
 0.54072538457E+01 0.60885122344E+01 0.68886665781E+01 0.77812445487E+01 0.87189326035E+01
 0.96327277616E+01 0.10437242841E+02 0.11044341615E+02 0.11383093311E+02 0.11418864431E+02
 0.11162371365E+02 0.10663512429E+02 0.99931105171E+01 0.92223398632E+01 0.84093624771E+01
 0.75963785842E+01 0.68137322905E+01 0.60855538269E+01 0.54333539556E+01 0.48768611554E+01
 0.51148828665E+01 0.45686634102E+01 0.41605683130E+01 0.38944915706E+01 0.37670699223E+01
 0.37719946540E+01 0.39050345376E+01 0.41678684333E+01 0.45682837206E+01 0.51160493199E+01
 0.58162158147E+01 0.66619918176E+01 0.76280142860E+01 0.86646432988E+01 0.96959128367E+01
 0.10625478407E+02 0.11353152090E+02 0.11798903292E+02 0.11924722142E+02 0.11742905586E+02
 0.11305605961E+02 0.10681770153E+02 0.99351062305E+01 0.91140687113E+01 0.82548737436E+01
 0.73901389999E+01 0.65547225470E+01 0.57851973567E+01 0.61127329324E+01 0.53238017865E+01
 0.46762645669E+01 0.41844271687E+01 0.38490812596E+01 0.36639683264E+01 0.36221075478E+01
 0.37209027653E+01 0.39648572000E+01 0.43647222346E+01 0.49331716964E+01 0.56782018464E+01
 0.65950808219E+01 0.76572836240E+01 0.88084866515E+01 0.99604558968E+01 0.11002291582E+02
 0.11822625810E+02 0.12337967519E+02 0.12508487687E+02 0.12362493136E+02 0.11973667979E+02
 0.11405475347E+02 0.10690432223E+02 0.98548523472E+01 0.89353044897E+01 0.79704354042E+01
 0.70110218246E+01 0.74271202723E+01 0.63967928709E+01 0.54918000884E+01 0.47499058414E+01
 0.41844255189E+01 0.37925352932E+01 0.35651033928E+01 0.34945456314E+01 0.35796132013E+01
 0.38269568302E+01 0.42496447181E+01 0.48629717913E+01 0.56774025978E+01 0.66881943359E+01
 0.78630240514E+01 0.91324905928E+01 0.10390643342E+02 0.11510898496E+02 0.12365808794E+02
 0.12844097717E+02 0.12951525556E+02 0.12790806644E+02 0.12467758747E+02 0.12017162367E+02
 0.11402176051E+02 0.10583403429E+02 0.95963107332E+01 0.85195920698E+01 0.90037747759E+01
 0.77779188161E+01 0.66207822659E+01 0.56093864333E+01 0.47855347052E+01 0.41605673439E+01
 0.37278148530E+01 0.34753606933E+01 0.33949976282E+01 0.34864962264E+01 0.37582430464E+01
 0.42255427969E+01 0.49063108980E+01 0.58121857038E+01 0.69343164163E+01 0.82277475713E+01
 0.96027353421E+01 0.10931543857E+02 0.12051202104E+02 0.12763379607E+02 0.13020220223E+02
 0.12953688933E+02 0.12764745475E+02 0.12576967221E+02 0.12356126095E+02 0.11951870598E+02
 0.11229703352E+02 0.10196549333E+02 0.10696416829E+02 0.93939312364E+01 0.80428858271E+01
 0.67719568352E+01 0.56700234563E+01 0.47812096983E+01 0.41141153287E+01 0.36581603396E+01
 0.33988327886E+01 0.33273628643E+01 0.34443924027E+01 0.37600445784E+01 0.42921652258E+01
 0.50609145442E+01 0.60762335505E+01 0.73189175677E+01 0.87231866661E+01 0.10172139079E+02
 0.11491443752E+02 0.12393142301E+02 0.12716120824E+02 0.12569380322E+02 0.12257948625E+02
 0.12085817096E+02 0.12159097566E+02 0.12320342241E+02 0.12259438762E+02 0.11725345186E+02
 0.12039138744E+02 0.11060608431E+02 0.96685220397E+01 0.82076454755E+01 0.68422607225E+01
 0.56705654420E+01 0.47372720141E+01 0.40475460145E+01 0.35869453279E+01 0.33387265895E+01
 0.32938254444E+01 0.34539325858E+01 0.38313290774E+01 0.44467109123E+01 0.53210710240E+01
 0.64579035144E+01 0.78198457484E+01 0.93119717286E+01 0.10774633096E+02 0.11873385739E+02
 0.12277647271E+02 0.11970603895E+02 0.11284784725E+02 0.10726646602E+02 0.10682931653E+02
 0.11186953367E+02 0.11897495797E+02 0.12306340293E+02 0.12138045885E+02 0.12179054509E+02
 0.11274531556E+02 0.98148567937E+01 0.82646597124E+01 0.68287000780E+01 0.56114613142E+01
 0.46563700485E+01 0.39644457190E+01 0.35175768650E+01 0.32973812462E+01 0.32950377000E+01
 0.35138427927E+01 0.39689118579E+01 0.46836122745E+01 0.56769287623E+01 0.69396359667E+01
 0.84080017305E+01 0.99500947844E+01 0.11269714727E+02 0.11874944978E+02 0.11515594122E+02
 0.10396116507E+02 0.91215365738E+01 0.83993606836E+01 0.86513417202E+01 0.97692839344E+01
 0.11173411802E+02 0.10313669414E+02 0.11848001998E+02 0.12181682134E+02 0.11342092910E+02
 0.98289917170E+01 0.82131089534E+01 0.67332936752E+01 0.54966878497E+01 0.45433089509E+01
 0.38693388812E+01 0.34534048430E+01 0.32763196270E+01 0.33303209264E+01 0.36211787485E+01
 0.41674424197E+01 0.49940630879E+01 0.61138500093E+01 0.74980294685E+01 0.90492836774E+01
 0.10561037662E+02 0.11509180833E+02 0.11369068340E+02 0.10050948955E+02 0.80421812686E+01
 0.62385214544E+01 0.55133397585E+01 0.62525521531E+01 0.81370455263E+01 0.65951993696E+01
 0.95219701190E+01 0.11547596154E+02 0.12093989506E+02 0.11276665781E+02 0.97145821202E+01
 0.80582265973E+01 0.65626693127E+01 0.53334044961E+01 0.44047181432E+01 0.37674314562E+01
 0.33975995905E+01 0.32762892340E+01 0.33978374099E+01 0.37714482718E+01 0.44192306548E+01
 0.53655879392E+01 0.66123020283E+01 0.81049689820E+01 0.97064814385E+01 0.11040747140E+02
 0.11409379792E+02 0.10349368604E+02 0.79977824209E+01 0.51571303717E+01 0.29923627512E+01
 0.24739150849E+01 0.38695367389E+01 0.19251911161E+01 0.54510922135E+01 0.89862407353E+01
 0.11331174986E+02 0.11953929469E+02 0.11092243877E+02 0.94813021805E+01 0.78103703622E+01
 0.63273899246E+01 0.51313562653E+01 0.42485453754E+01 0.36642575957E+01 0.33529869436E+01
 0.32972888431E+01 0.34947158305E+01 0.39586316491E+01 0.47140716489E+01 0.57819845092E+01
 0.71485805046E+01 0.87297598749E+01 0.10323203360E+02 0.11326897878E+02 0.10979609498E+02
 0.89470528023E+01 0.56355712512E+01 0.21552190153E+01 -.12272463633E+00 -.22353991837E+00
 -.21025333417E+01 0.78427066688E+00 0.49383545700E+01 0.88276727032E+01 0.11246935517E+02
 0.11776742485E+02 0.10798481450E+02 0.91434094184E+01 0.74840592978E+01 0.60411048439E+01
 0.49020863120E+01 0.40834159747E+01 0.35652580782E+01 0.33218688680E+01 0.33385828841E+01
 0.36171092751E+01 0.41751486645E+01 0.50392565403E+01 0.62238436536E+01 0.76963194001E+01
 0.93417501454E+01 0.10844875615E+02 0.11418372562E+02 0.10325116544E+02 0.74104215288E+01
 0.33580103256E+01 -.46520509417E+00 -.25782369859E+01 0.64768619001E-01 0.78485007424E+00
 0.34622598833E+01 0.70083090767E+01 0.10083676789E+02 0.11723399007E+02 0.11694977699E+02
 0.10452918504E+02 0.87765374257E+01 0.71686134186E+01 0.57949251155E+01 0.47251991650E+01
 0.39661650998E+01 0.34948301338E+01 0.32861904934E+01 0.33274588153E+01 0.36219450063E+01
 0.41883966056E+01 0.50533387323E+01 0.62293743296E+01 0.76812806622E+01 0.92944073781E+01
 0.10776229303E+02 0.11409311380E+02 0.10542024505E+02 0.80781216451E+01 0.46802918820E+01
 0.15860811624E+01 0.66567537889E+00 -.50241640109E+00 0.66577793509E+00 0.36762818921E+01
 0.73063144127E+01 0.10218518489E+02 0.11565514244E+02 0.11270967082E+02 0.99020416292E+01
 0.82434017910E+01 0.67021118885E+01 0.54181851583E+01 0.44450936871E+01 0.37794028592E+01
 0.33952043315E+01 0.32698253449E+01 0.33950987661E+01 0.37793685284E+01 0.44451345697E+01
 0.54181340916E+01 0.67019825472E+01 0.82433850271E+01 0.99021423515E+01 0.11270993080E+02
 0.11565435937E+02 0.10218496196E+02 0.73063620078E+01 0.36762490250E+01 0.34622031240E+01
 0.78477162883E+00 0.64817112073E-01 0.15861730761E+01 0.46802773725E+01 0.80780801353E+01