unknown system                          
   1.00000000000000     
    -2.450000    2.450000    1.274000
     2.450000   -2.450000    1.274000
     2.450000    2.450000   -1.274000
   Si
     2
Direct
  0.250000  0.750000  0.500000
  0.000000  0.000000  0.000000
 
   28   28   28
 -.54693592829E+01 -.39322476435E+01 0.62313037520E-01 0.49841638259E+01 0.91443028050E+01
 0.11435687523E+02 0.11680736650E+02 0.10490772395E+02 0.87992442077E+01 0.71874430854E+01
 0.58297456656E+01 0.47921427062E+01 0.40774125729E+01 0.36627353620E+01 0.35270402021E+01
 0.36627088225E+01 0.40775321197E+01 0.47923596475E+01 0.58298123189E+01 0.71873402995E+01
 0.87991904592E+01 0.10490811531E+02 0.11680711845E+02 0.11435602378E+02 0.91442970772E+01
 0.49841590834E+01 0.62114745601E-01 -.39325142732E+01 -.39325142732E+01 -.47289909526E+01
 -.25773676505E+01 0.16554725655E+01 0.63658362382E+01 0.99905453743E+01 0.11662088408E+02
 0.11428694268E+02 0.10019397822E+02 0.83268043999E+01 0.67771818428E+01 0.55062168846E+01
 0.45595557655E+01 0.39295138520E+01 0.35914606247E+01 0.35271032058E+01 0.37326250320E+01
 0.42192354658E+01 0.50094055979E+01 0.61223922142E+01 0.75444830029E+01 0.91915502586E+01
 0.10844713667E+02 0.11811663285E+02 0.11193932252E+02 0.85324488939E+01 0.42116277431E+01
 -.50586804449E+00 0.62114745601E-01 -.25775631351E+01 -.26445518423E+01 -.11905787125E+00
 0.39689931611E+01 0.80716556140E+01 0.10861315647E+02 0.11759635788E+02 0.11026469362E+02
 0.94541381819E+01 0.77990507034E+01 0.63363324048E+01 0.51693153840E+01 0.43234082257E+01
 0.37824929759E+01 0.35220162002E+01 0.35271423932E+01 0.37976252579E+01 0.43473844161E+01
 0.51993098210E+01 0.63681196951E+01 0.78294310364E+01 0.94846842263E+01 0.11075852068E+02
 0.11865097945E+02 0.11041899645E+02 0.83095751082E+01 0.42116277431E+01 0.49841590834E+01
 0.16553595699E+01 -.11914013636E+00 0.40669000185E+00 0.30001677013E+01 0.65781726583E+01
 0.97669405502E+01 0.11548592595E+02 0.11642598630E+02 0.10476526300E+02 0.88324342680E+01
 0.72451065783E+01 0.58892826437E+01 0.48369239006E+01 0.40955305509E+01 0.36434291020E+01
 0.34577548901E+01 0.35272048455E+01 0.38544651134E+01 0.44552641065E+01 0.53517926756E+01
 0.65536912900E+01 0.80275457456E+01 0.96655164130E+01 0.11188802442E+02 0.11878104164E+02
 0.11041899645E+02 0.85324488939E+01 0.91442970772E+01 0.63658348437E+01 0.39689810117E+01
 0.30001986154E+01 0.38963608360E+01 0.62513228865E+01 0.90395821174E+01 0.11149256474E+02
 0.11901025113E+02 0.11281409758E+02 0.98208558520E+01 0.81898247721E+01 0.66959710602E+01
 0.54602002247E+01 0.45260027434E+01 0.38870076343E+01 0.35190393205E+01 0.34018924662E+01
 0.35273327540E+01 0.39001601894E+01 0.45370018026E+01 0.54584494602E+01 0.66691416766E+01
 0.81290394059E+01 0.97265938391E+01 0.11188802442E+02 0.11865097945E+02 0.11193932252E+02
 0.11435602378E+02 0.99905168757E+01 0.80716524357E+01 0.65782404643E+01 0.62514324169E+01
 0.72671529210E+01 0.91393188746E+01 0.10991200395E+02 0.12017486587E+02 0.11860859470E+02
 0.10713789765E+02 0.91310991301E+01 0.75628738320E+01 0.61815968030E+01 0.50710254118E+01
 0.42515260343E+01 0.37076892650E+01 0.34153843739E+01 0.33572935924E+01 0.35275118377E+01
 0.39321794729E+01 0.45880020043E+01 0.55133221639E+01 0.67083179345E+01 0.81290394059E+01
 0.96655164130E+01 0.11075852068E+02 0.11811663285E+02 0.11680711845E+02 0.11662067416E+02
 0.10861271993E+02 0.97669311673E+01 0.90396890383E+01 0.91394582395E+01 0.10054464935E+02
 0.11306515540E+02 0.12224743686E+02 0.12309882108E+02 0.11473395196E+02 0.10035802469E+02
 0.84621014629E+01 0.69866745060E+01 0.57282533169E+01 0.47399918093E+01 0.40257905804E+01
 0.35657933875E+01 0.33375296600E+01 0.33262482590E+01 0.35276714029E+01 0.39486755067E+01
 0.46053368792E+01 0.55133221639E+01 0.66691416766E+01 0.80275457456E+01 0.94846842263E+01
 0.10844713667E+02 0.10490811531E+02 0.11428774596E+02 0.11759673528E+02 0.11548548964E+02
 0.11149240903E+02 0.10991306208E+02 0.11306642231E+02 0.11975357204E+02 0.12593261060E+02
 0.12713271377E+02 0.12103487486E+02 0.10868352829E+02 0.93614667888E+01 0.78548545523E+01
 0.64916440881E+01 0.53568133688E+01 0.44809466145E+01 0.38581437096E+01 0.34676340381E+01
 0.32892610880E+01 0.33103282470E+01 0.35277350915E+01 0.39486755067E+01 0.45880020043E+01
 0.54584494602E+01 0.65536912900E+01 0.78294310364E+01 0.91915502586E+01 0.87991904592E+01
 0.10019458759E+02 0.11026610591E+02 0.11642678192E+02 0.11900996248E+02 0.12017469214E+02
 0.12224822754E+02 0.12593350700E+02 0.12964486146E+02 0.13044255951E+02 0.12592037186E+02
 0.11579382755E+02 0.10216876112E+02 0.87537702081E+01 0.73452491382E+01 0.61015736995E+01
 0.50822373838E+01 0.43034470606E+01 0.37550448280E+01 0.34174784278E+01 0.32729094302E+01
 0.33103282470E+01 0.35276714029E+01 0.39321794729E+01 0.45370018026E+01 0.53517926756E+01
 0.63681196951E+01 0.75444830029E+01 0.71873402995E+01 0.83267118204E+01 0.94541870311E+01
 0.10476677441E+02 0.11281507894E+02 0.11860853354E+02 0.12309869083E+02 0.12713316156E+02
 0.13044303605E+02 0.13154559874E+02 0.12866724278E+02 0.12104034375E+02 0.10965208693E+02
 0.96331930973E+01 0.82568147751E+01 0.69615952812E+01 0.58331439529E+01 0.49140819752E+01
 0.42133295751E+01 0.37202652279E+01 0.34174784278E+01 0.32892610880E+01 0.33262482590E+01
 0.35275118377E+01 0.39001601894E+01 0.44552641065E+01 0.51993098210E+01 0.61223922142E+01
 0.58298123189E+01 0.67770844745E+01 0.77989376714E+01 0.88324509812E+01 0.98209777957E+01
 0.10713884620E+02 0.11473411411E+02 0.12103483355E+02 0.12592053601E+02 0.12866738753E+02
 0.12814882137E+02 0.12358431822E+02 0.11526057393E+02 0.10422815416E+02 0.91733921975E+01
 0.79055410306E+01 0.67237231201E+01 0.56965561131E+01 0.48574949868E+01 0.42133295751E+01
 0.37550448280E+01 0.34676340381E+01 0.33375296600E+01 0.33572935924E+01 0.35273327540E+01
 0.38544651134E+01 0.43473844161E+01 0.50094055979E+01 0.47923596475E+01 0.55062971573E+01
 0.63362589362E+01 0.72449982749E+01 0.81898096516E+01 0.91311749755E+01 0.10035879274E+02
 0.10868383860E+02 0.11579388181E+02 0.12104034604E+02 0.12358427970E+02 0.12269667413E+02
 0.11817252090E+02 0.11038717350E+02 0.10021733200E+02 0.88797253415E+01 0.77238589053E+01
 0.66431763195E+01 0.56965561131E+01 0.49140819752E+01 0.43034470606E+01 0.38581437096E+01
 0.35657933875E+01 0.34153843739E+01 0.34018924662E+01 0.35272048455E+01 0.37976252579E+01
 0.42192354658E+01 0.40775321197E+01 0.45596732227E+01 0.51693723663E+01 0.58892419049E+01
 0.66958921820E+01 0.75628431726E+01 0.84621343989E+01 0.93615182047E+01 0.10216910428E+02
 0.10965221203E+02 0.11526054181E+02 0.11817244097E+02 0.11779794941E+02 0.11399870281E+02
 0.10716066985E+02 0.98088663338E+01 0.87788066798E+01 0.77238589053E+01 0.67237231201E+01
 0.58331439529E+01 0.50822373838E+01 0.44809466145E+01 0.40257905804E+01 0.37076892650E+01
 0.35190393205E+01 0.34577548901E+01 0.35271423932E+01 0.37326250320E+01 0.36627088225E+01
 0.39294363582E+01 0.43233810044E+01 0.48369356760E+01 0.54601945984E+01 0.61815642212E+01
 0.69866489192E+01 0.78548578341E+01 0.87537943729E+01 0.96332203075E+01 0.10422832404E+02
 0.11038720018E+02 0.11399866702E+02 0.11449728132E+02 0.11173530681E+02 0.10603299331E+02
 0.98088663338E+01 0.88797253415E+01 0.79055410306E+01 0.69615952812E+01 0.61015736995E+01
 0.53568133688E+01 0.47399918093E+01 0.42515260343E+01 0.38870076343E+01 0.36434291020E+01
 0.35220162002E+01 0.35271032058E+01 0.35270402021E+01 0.35912534798E+01 0.37822346870E+01
 0.40953744288E+01 0.45259747300E+01 0.50710539888E+01 0.57282719860E+01 0.64916387498E+01
 0.73452373717E+01 0.82568147207E+01 0.91734079006E+01 0.10021753492E+02 0.10716078233E+02
 0.11173532213E+02 0.11333457938E+02 0.11173530681E+02 0.10716066985E+02 0.10021733200E+02
 0.91733921975E+01 0.82568147751E+01 0.73452491382E+01 0.64916440881E+01 0.57282533169E+01
 0.50710254118E+01 0.45260027434E+01 0.40955305509E+01 0.37824929759E+01 0.35914606247E+01
 0.36627353620E+01 0.35269506188E+01 0.35216853414E+01 0.36430734322E+01 0.38867902244E+01
 0.42514858239E+01 0.47400524513E+01 0.53568788679E+01 0.61015956255E+01 0.69615801815E+01
 0.79055240222E+01 0.88797317954E+01 0.98088888455E+01 0.10603314540E+02 0.11173532213E+02
 0.11449728132E+02 0.11399870281E+02 0.11038717350E+02 0.10422815416E+02 0.96331930973E+01
 0.87537702081E+01 0.78548545523E+01 0.69866745060E+01 0.61815968030E+01 0.54602002247E+01
 0.48369239006E+01 0.43234082257E+01 0.39295138520E+01 0.40774125729E+01 0.37324752571E+01
 0.35268848634E+01 0.34573956389E+01 0.35186996412E+01 0.37074957397E+01 0.40257721204E+01
 0.44810375591E+01 0.50823411494E+01 0.58331921965E+01 0.67237107886E+01 0.77238337413E+01
 0.87788097711E+01 0.98088888455E+01 0.10716078233E+02 0.11399866702E+02 0.11779794941E+02
 0.11817252090E+02 0.11526057393E+02 0.10965208693E+02 0.10216876112E+02 0.93614667888E+01
 0.84621014629E+01 0.75628738320E+01 0.66959710602E+01 0.58892826437E+01 0.51693153840E+01
 0.45595557655E+01 0.47921427062E+01 0.42189736971E+01 0.37973570666E+01 0.35269150986E+01
 0.34015996148E+01 0.34151566761E+01 0.35656884652E+01 0.38581701778E+01 0.43035650428E+01
 0.49142122908E+01 0.56966210057E+01 0.66431660149E+01 0.77238337413E+01 0.88797317954E+01
 0.10021753492E+02 0.11038720018E+02 0.11817244097E+02 0.12269667413E+02 0.12358431822E+02
 0.12104034375E+02 0.11579382755E+02 0.10868352829E+02 0.10035802469E+02 0.91310991301E+01
 0.81898247721E+01 0.72451065783E+01 0.63363324048E+01 0.55062168846E+01 0.58297456656E+01
 0.50091716889E+01 0.43470756031E+01 0.38541596354E+01 0.35270787041E+01 0.33571272729E+01
 0.33374571795E+01 0.34676357761E+01 0.37551157530E+01 0.42134647322E+01 0.48576351061E+01
 0.56966210057E+01 0.67237107886E+01 0.79055240222E+01 0.91734079006E+01 0.10422832404E+02
 0.11526054181E+02 0.12358427970E+02 0.12814882137E+02 0.12866724278E+02 0.12592037186E+02
 0.12103487486E+02 0.11473395196E+02 0.10713789765E+02 0.98208558520E+01 0.88324342680E+01
 0.77990507034E+01 0.67771818428E+01 0.71874430854E+01 0.61223697038E+01 0.51991394014E+01
 0.44549997417E+01 0.38998870650E+01 0.35273324741E+01 0.33262149076E+01 0.32893201257E+01
 0.34175515297E+01 0.37203547077E+01 0.42134647322E+01 0.49142122908E+01 0.58331921965E+01
 0.69615801815E+01 0.82568147207E+01 0.96332203075E+01 0.10965221203E+02 0.12104034604E+02
 0.12866738753E+02 0.13154559874E+02 0.13044255951E+02 0.12713271377E+02 0.12309882108E+02
 0.11860859470E+02 0.11281409758E+02 0.10476526300E+02 0.94541381819E+01 0.83268043999E+01
 0.87992442077E+01 0.75445664842E+01 0.63681526119E+01 0.53517330649E+01 0.45368339884E+01
 0.39319706571E+01 0.35275635718E+01 0.33103792815E+01 0.32730197662E+01 0.34175515297E+01
 0.37551157530E+01 0.43035650428E+01 0.50823411494E+01 0.61015956255E+01 0.73452373717E+01
 0.87537943729E+01 0.10216910428E+02 0.11579388181E+02 0.12592053601E+02 0.13044303605E+02
 0.12964486146E+02 0.12593261060E+02 0.12224743686E+02 0.12017486587E+02 0.11901025113E+02
 0.11642598630E+02 0.11026469362E+02 0.10019397822E+02 0.10490772395E+02 0.91915596535E+01
 0.78294762523E+01 0.65537734587E+01 0.54585017343E+01 0.45879263141E+01 0.39485156093E+01
 0.35276565301E+01 0.33103792815E+01 0.32893201257E+01 0.34676357761E+01 0.38581701778E+01
 0.44810375591E+01 0.53568788679E+01 0.64916387498E+01 0.78548578341E+01 0.93615182047E+01
 0.10868383860E+02 0.12103483355E+02 0.12713316156E+02 0.12593350700E+02 0.11975357204E+02
 0.11306515540E+02 0.10991200395E+02 0.11149256474E+02 0.11548592595E+02 0.11759635788E+02
 0.11428694268E+02 0.11680736650E+02 0.10844728799E+02 0.94846576378E+01 0.80275505687E+01
 0.66692568470E+01 0.55134438665E+01 0.46052986657E+01 0.39485156093E+01 0.35275635718E+01
 0.33262149076E+01 0.33374571795E+01 0.35656884652E+01 0.40257721204E+01 0.47400524513E+01
 0.57282719860E+01 0.69866489192E+01 0.84621343989E+01 0.10035879274E+02 0.11473411411E+02
 0.12309869083E+02 0.12224822754E+02 0.11306642231E+02 0.10054464935E+02 0.91393188746E+01
 0.90395821174E+01 0.97669405502E+01 0.10861315647E+02 0.11662088408E+02 0.11435687523E+02
 0.11811810734E+02 0.11075933543E+02 0.96654693682E+01 0.81290192005E+01 0.67084447094E+01
 0.55134438665E+01 0.45879263141E+01 0.39319706571E+01 0.35273324741E+01 0.33571272729E+01
 0.34151566761E+01 0.37074957397E+01 0.42514858239E+01 0.50710539888E+01 0.61815642212E+01
 0.75628431726E+01 0.91311749755E+01 0.10713884620E+02 0.11860853354E+02 0.12017469214E+02
 0.10991306208E+02 0.91394582395E+01 0.72671529210E+01 0.62513228865E+01 0.65781726583E+01
 0.80716556140E+01 0.99905453743E+01 0.91443028050E+01 0.11194073021E+02 0.11865345151E+02
 0.11188929828E+02 0.97265406874E+01 0.81290192005E+01 0.66692568470E+01 0.54585017343E+01
 0.45368339884E+01 0.38998870650E+01 0.35270787041E+01 0.34015996148E+01 0.35186996412E+01
 0.38867902244E+01 0.45259747300E+01 0.54601945984E+01 0.66958921820E+01 0.81898096516E+01
 0.98209777957E+01 0.11281507894E+02 0.11900996248E+02 0.11149240903E+02 0.90396890383E+01
 0.62514324169E+01 0.38963608360E+01 0.30001677013E+01 0.39689931611E+01 0.63658362382E+01
 0.49841638259E+01 0.85324353435E+01 0.11042073189E+02 0.11878389954E+02 0.11188929828E+02
 0.96654693682E+01 0.80275505687E+01 0.65537734587E+01 0.53517330649E+01 0.44549997417E+01
 0.38541596354E+01 0.35269150986E+01 0.34573956389E+01 0.36430734322E+01 0.40953744288E+01
 0.48369356760E+01 0.58892419049E+01 0.72449982749E+01 0.88324509812E+01 0.10476677441E+02
 0.11642678192E+02 0.11548548964E+02 0.97669311673E+01 0.65782404643E+01 0.30001986154E+01
 0.40669000185E+00 -.11905787125E+00 0.16554725655E+01 0.62313037520E-01 0.42116366721E+01
 0.83095541728E+01 0.11042073189E+02 0.11865345151E+02 0.11075933543E+02 0.94846576378E+01
 0.78294762523E+01 0.63681526119E+01 0.51991394014E+01 0.43470756031E+01 0.37973570666E+01
 0.35268848634E+01 0.35216853414E+01 0.37822346870E+01 0.43233810044E+01 0.51693723663E+01
 0.63362589362E+01 0.77989376714E+01 0.94541870311E+01 0.11026610591E+02 0.11759673528E+02
 0.10861271993E+02 0.80716524357E+01 0.39689810117E+01 -.11914013636E+00 -.26445518423E+01
 -.25773676505E+01 -.39322476435E+01 -.50563623437E+00 0.42116366721E+01 0.85324353435E+01
 0.11194073021E+02 0.11811810734E+02 0.10844728799E+02 0.91915596535E+01 0.75445664842E+01
 0.61223697038E+01 0.50091716889E+01 0.42189736971E+01 0.37324752571E+01 0.35269506188E+01
 0.35912534798E+01 0.39294363582E+01 0.45596732227E+01 0.55062971573E+01 0.67770844745E+01
 0.83267118204E+01 0.10019458759E+02 0.11428774596E+02 0.11662067416E+02 0.99905168757E+01
 0.63658348437E+01 0.16553595699E+01 -.25775631351E+01 -.47289909526E+01 -.39319213208E+01
 -.28177388342E+01 0.66222361610E+00 0.51521740967E+01 0.90605566841E+01 0.11275270899E+02
 0.11544860961E+02 0.10396385471E+02 0.87160020242E+01 0.70965629503E+01 0.57209579230E+01
 0.46607750058E+01 0.39215824067E+01 0.34795227575E+01 0.33101909107E+01 0.34028199764E+01
 0.37637324161E+01 0.44144417458E+01 0.53811669769E+01 0.66693186913E+01 0.82264395582E+01
 0.99061309103E+01 0.11245985731E+02 0.11367143465E+02 0.96168867734E+01 0.60456665824E+01
 0.15837635566E+01 -.22337977053E+01 -.28179604213E+01 -.39319783620E+01 -.22337067217E+01
 0.15837776882E+01 0.60455921792E+01 0.96168935601E+01 0.11367217501E+02 0.11245979456E+02
 0.99060983706E+01 0.82265445568E+01 0.66694816671E+01 0.53811705783E+01 0.44143177556E+01
 0.37636919139E+01 0.34028799703E+01 0.33102162107E+01 0.34795415374E+01 0.39217032220E+01
 0.46608863955E+01 0.57208706316E+01 0.70963610495E+01 0.87159066069E+01 0.10396375423E+02
 0.11544777172E+02 0.11275170999E+02 0.90605924278E+01 0.51522361261E+01 0.66209837437E+00
 0.78141175179E+00 -.21030195359E+01 -.25771497577E+01 -.46379403930E+00 0.33586516201E+01
 0.74098926521E+01 0.10323549458E+02 0.11416051435E+02 0.10842259976E+02 0.93395345768E+01
 0.76950815015E+01 0.62237681496E+01 0.50403519070E+01 0.41774799476E+01 0.36205735940E+01
 0.33427261789E+01 0.33262098408E+01 0.35695611879E+01 0.40873924706E+01 0.49050784089E+01
 0.60423322702E+01 0.74829706397E+01 0.91396483183E+01 0.10791937981E+02 0.11768084401E+02
 0.11237779149E+02 0.88198061488E+01 0.49328572850E+01 0.54465173567E+01 0.19239004742E+01
 -.22181978546E+00 -.11887239945E+00 0.21599051238E+01 0.56399493765E+01 0.89504475168E+01
 0.10981626128E+02 0.11327366457E+02 0.10322448657E+02 0.87285636317E+01 0.71476873301E+01
 0.57818423706E+01 0.47150086167E+01 0.39608768145E+01 0.34981173019E+01 0.33013583562E+01
 0.33573516478E+01 0.36687543300E+01 0.42527799884E+01 0.51345119499E+01 0.63285877595E+01
 0.78089522775E+01 0.94768176881E+01 0.11084716554E+02 0.11944430187E+02 0.11321688377E+02
 0.89786732793E+01 0.95158757297E+01 0.65927772515E+01 0.38711391765E+01 0.24792232927E+01
 0.30003272734E+01 0.51662698403E+01 0.80067108770E+01 0.10356972127E+02 0.11414768708E+02
 0.11043524117E+02 0.97070792694E+01 0.81043971343E+01 0.66115329814E+01 0.53653363110E+01
 0.44200572418E+01 0.37736261256E+01 0.34011448160E+01 0.32802806156E+01 0.34020443024E+01
 0.37721816004E+01 0.44092279479E+01 0.53367211874E+01 0.65638618108E+01 0.80565955716E+01
 0.97097112445E+01 0.11268834696E+02 0.12084639848E+02 0.11538916937E+02 0.11841133165E+02
 0.10310056125E+02 0.81378319025E+01 0.62581449087E+01 0.55232772747E+01 0.62514471560E+01
 0.80562747374E+01 0.10064433974E+02 0.11380382047E+02 0.11517147131E+02 0.10565334127E+02
 0.90506459420E+01 0.74977367117E+01 0.61130740248E+01 0.49937153113E+01 0.41681988514E+01
 0.36232762124E+01 0.33335028558E+01 0.32802535165E+01 0.34579857916E+01 0.38743630292E+01
 0.45480666771E+01 0.55001437334E+01 0.67345231418E+01 0.82114485115E+01 0.98241735289E+01
 0.11334704677E+02 0.12173433768E+02 0.12172632242E+02 0.12133706450E+02 0.11172985320E+02
 0.97739694983E+01 0.86615091271E+01 0.84142639944E+01 0.91393957588E+01 0.10414695474E+02
 0.11532728481E+02 0.11888791163E+02 0.11279116551E+02 0.99550580821E+01 0.84096258718E+01
 0.69393958637E+01 0.56761038440E+01 0.46832088313E+01 0.39696185179E+01 0.35158334911E+01
 0.32980801032E+01 0.33012877820E+01 0.35223128532E+01 0.39696995384E+01 0.46613008882E+01
 0.56150192580E+01 0.68300157080E+01 0.82631663847E+01 0.98105084206E+01 0.11268215551E+02
 0.11055734356E+02 0.12034907030E+02 0.12304842413E+02 0.11900504224E+02 0.11195643624E+02
 0.10697483132E+02 0.10745910460E+02 0.11306541187E+02 0.11992273039E+02 0.12296845990E+02
 0.11888267962E+02 0.10784337064E+02 0.93169313891E+01 0.78214229369E+01 0.64576242770E+01
 0.53202152804E+01 0.44462911441E+01 0.38319882435E+01 0.34557993312E+01 0.32967413845E+01
 0.33426324128E+01 0.35918074480E+01 0.40529331184E+01 0.47422785153E+01 0.56741864399E+01
 0.68437033835E+01 0.82064686788E+01 0.96649256335E+01 0.93911760616E+01 0.10693038327E+02
 0.11723263032E+02 0.12260629995E+02 0.12326479073E+02 0.12171199414E+02 0.12103730455E+02
 0.12280102249E+02 0.12593240455E+02 0.12738976042E+02 0.12412654532E+02 0.11506024910E+02
 0.10181348500E+02 0.87277920342E+01 0.73203438106E+01 0.60759149510E+01 0.50600604200E+01
 0.42917512942E+01 0.37606593853E+01 0.34461557614E+01 0.33302056279E+01 0.34027668647E+01
 0.36630947681E+01 0.41195271574E+01 0.47862048287E+01 0.56736762579E+01 0.67735437744E+01
 0.80420880520E+01 0.77774683399E+01 0.90017697265E+01 0.10194446794E+02 0.11229385094E+02
 0.11955185014E+02 0.12364577238E+02 0.12591295664E+02 0.12784413640E+02 0.12976818668E+02
 0.13044201024E+02 0.12785633035E+02 0.12069666618E+02 0.10945015053E+02 0.96111261237E+01
 0.82319389633E+01 0.69356116513E+01 0.58118511225E+01 0.49054770950E+01 0.42251514972E+01
 0.37588477002E+01 0.34882341296E+01 0.33978643795E+01 0.34793658815E+01 0.37327782027E+01
 0.41659248488E+01 0.47904635516E+01 0.56130455791E+01 0.66224953223E+01 0.63985730452E+01
 0.74269162525E+01 0.85181369127E+01 0.95951107413E+01 0.10584266585E+02 0.11406799162E+02
 0.12026822815E+02 0.12482872356E+02 0.12810527779E+02 0.12973882232E+02 0.12866653756E+02
 0.12386314751E+02 0.11527666018E+02 0.10402801889E+02 0.91401080072E+01 0.78668964384E+01
 0.66894067588E+01 0.56770640890E+01 0.48621698661E+01 0.42493069493E+01 0.38276225501E+01
 0.35814438027E+01 0.34975571637E+01 0.35692413954E+01 0.37975234661E+01 0.41897020578E+01
 0.47547434795E+01 0.54954301326E+01 0.53273414222E+01 0.61144922310E+01 0.70109427346E+01
 0.79693132766E+01 0.89346190388E+01 0.98562979051E+01 0.10695535163E+02 0.11415275752E+02
 0.11988311359E+02 0.12380990063E+02 0.12528986706E+02 0.12358365846E+02 0.11841058044E+02
 0.11017384471E+02 0.99715115751E+01 0.88155537829E+01 0.76609654774E+01 0.65962477824E+01
 0.56778651305E+01 0.49324142271E+01 0.43644725799E+01 0.39656579066E+01 0.37229388358E+01
 0.36253771681E+01 0.36683151313E+01 0.38541331700E+01 0.41896364869E+01 0.46809906327E+01
 0.45732395876E+01 0.51182527533E+01 0.57868495318E+01 0.65546714271E+01 0.73891828524E+01
 0.82544017824E+01 0.91156343899E+01 0.99400703286E+01 0.10690978500E+02 0.11319048934E+02
 0.11759616019E+02 0.11943098146E+02 0.11817201140E+02 0.11369814660E+02 0.10639314780E+02
 0.97062602906E+01 0.86714275702E+01 0.76316275748E+01 0.66631467319E+01 0.58158854299E+01
 0.51153361218E+01 0.45681317455E+01 0.41688438186E+01 0.39073470257E+01 0.37756002254E+01
 0.37716912678E+01 0.38996554114E+01 0.41657253128E+01 0.41191882208E+01 0.44373726471E+01
 0.48799934628E+01 0.54348416545E+01 0.60854750113E+01 0.68128465880E+01 0.75959516378E+01
 0.84108031998E+01 0.92268707948E+01 0.10001453161E+02 0.10675613536E+02 0.11177387868E+02
 0.11435467467E+02 0.11399831251E+02 0.11059854485E+02 0.10450407049E+02 0.96428181357E+01
 0.87257081542E+01 0.77849150343E+01 0.68898500671E+01 0.60881885279E+01 0.54065662182E+01
 0.48544389411E+01 0.44298778483E+01 0.41266635704E+01 0.39408249794E+01 0.38738965829E+01
 0.39315647230E+01 0.39479997580E+01 0.40524546182E+01 0.42808136157E+01 0.46259628966E+01
 0.50786583082E+01 0.56303092196E+01 0.62730105630E+01 0.69965811858E+01 0.77838439480E+01
 0.86054005884E+01 0.94152258352E+01 0.10149641851E+02 0.10733078184E+02 0.11091985204E+02
 0.11173495382E+02 0.10961301974E+02 0.10481291241E+02 0.97942162399E+01 0.89791404843E+01
 0.81152550119E+01 0.72686903975E+01 0.64866358812E+01 0.57973081198E+01 0.52134512893E+01
 0.47379575424E+01 0.43704039591E+01 0.41123854803E+01 0.39692989401E+01 0.40525995789E+01
 0.39479761080E+01 0.39690997476E+01 0.41121393717E+01 0.43702116032E+01 0.47378171900E+01
 0.52133408025E+01 0.57972345828E+01 0.64865886216E+01 0.72686356702E+01 0.81151979695E+01
 0.89791210395E+01 0.97942348899E+01 0.10481306094E+02 0.10961299203E+02 0.11173495794E+02
 0.11091987868E+02 0.10733067358E+02 0.10149640864E+02 0.94152738104E+01 0.86054860316E+01
 0.77839277718E+01 0.69966663004E+01 0.62731198354E+01 0.56304237943E+01 0.50787566946E+01
 0.46260856358E+01 0.42809915895E+01 0.44374313447E+01 0.41192464314E+01 0.39315006399E+01
 0.38736941693E+01 0.39405856445E+01 0.41264664733E+01 0.44297306963E+01 0.48543448896E+01
 0.54065337300E+01 0.60881823130E+01 0.68898225972E+01 0.77848800408E+01 0.87257088933E+01
 0.96428436061E+01 0.10450414016E+02 0.11059845616E+02 0.11399836406E+02 0.11435478558E+02
 0.11177387608E+02 0.10675633945E+02 0.10001529603E+02 0.92269757445E+01 0.84108988288E+01
 0.75960594396E+01 0.68129850524E+01 0.60855857321E+01 0.54348725503E+01 0.48800006512E+01
 0.51181431210E+01 0.45731768675E+01 0.41656952185E+01 0.38995667287E+01 0.37715314480E+01
 0.37754297962E+01 0.39071975639E+01 0.41687228372E+01 0.45680738036E+01 0.51153529494E+01
 0.58159148791E+01 0.66631348328E+01 0.76316080426E+01 0.86714468314E+01 0.97062893270E+01
 0.10639311025E+02 0.11369801784E+02 0.11817211057E+02 0.11943105865E+02 0.11759606858E+02
 0.11319073369E+02 0.10691065222E+02 0.99401669673E+01 0.91157086922E+01 0.82545068732E+01
 0.73893361850E+01 0.65547694155E+01 0.57868077958E+01 0.61143946393E+01 0.53271606082E+01
 0.46808505144E+01 0.41895412660E+01 0.38540346322E+01 0.36682198532E+01 0.36253011262E+01
 0.37228600430E+01 0.39655880290E+01 0.43644745138E+01 0.49324872325E+01 0.56779182295E+01
 0.65962412604E+01 0.76609666733E+01 0.88156023040E+01 0.99715493082E+01 0.11017371606E+02
 0.11841036000E+02 0.12358353808E+02 0.12528942318E+02 0.12380923600E+02 0.11988306790E+02
 0.11415345822E+02 0.10695591865E+02 0.98563188037E+01 0.89346931327E+01 0.79694549456E+01
 0.70110131913E+01 0.74269398688E+01 0.63984503433E+01 0.54952475676E+01 0.47545878147E+01
 0.41895715871E+01 0.37974228753E+01 0.35692071046E+01 0.34975641176E+01 0.35814304311E+01
 0.38276166350E+01 0.42493838970E+01 0.48622934657E+01 0.56771241375E+01 0.66894058983E+01
 0.78669367190E+01 0.91401987798E+01 0.10402846475E+02 0.11527632623E+02 0.12386254764E+02
 0.12866562499E+02 0.12973717123E+02 0.12810355687E+02 0.12482815865E+02 0.12026860556E+02
 0.11406800234E+02 0.10584220668E+02 0.95951324917E+01 0.85182322567E+01 0.90017909791E+01
 0.77774308997E+01 0.66223803045E+01 0.56129210670E+01 0.47903387598E+01 0.41657810430E+01
 0.37326788622E+01 0.34793735833E+01 0.33979182354E+01 0.34882601266E+01 0.37589017539E+01
 0.42252981437E+01 0.49056297986E+01 0.58119042369E+01 0.69356298548E+01 0.82320366048E+01
 0.96112533341E+01 0.10945041488E+02 0.12069582829E+02 0.12785494133E+02 0.13043977297E+02
 0.12976493451E+02 0.12784128549E+02 0.12591194543E+02 0.12364586106E+02 0.11955138324E+02
 0.11229287088E+02 0.10194413331E+02 0.10692972294E+02 0.93911184941E+01 0.80419920098E+01
 0.67734630121E+01 0.56736376642E+01 0.47861248450E+01 0.41193797301E+01 0.36629982551E+01
 0.34027893061E+01 0.33302578893E+01 0.34461852216E+01 0.37607558847E+01 0.42919441031E+01
 0.50602137500E+01 0.60759568183E+01 0.73203983342E+01 0.87279452187E+01 0.10181476372E+02
 0.11505992964E+02 0.12412496818E+02 0.12738744540E+02 0.12592884111E+02 0.12279647790E+02
 0.12103381909E+02 0.12171086050E+02 0.12326472723E+02 0.12260562479E+02 0.11723155204E+02
 0.12034845348E+02 0.11055676178E+02 0.96648119258E+01 0.82063394474E+01 0.68436763325E+01
 0.56742273982E+01 0.47422271672E+01 0.40527811826E+01 0.35917116543E+01 0.33426380461E+01
 0.32967465578E+01 0.34558043220E+01 0.38321086211E+01 0.44464992053E+01 0.53203431526E+01
 0.64576579778E+01 0.78215210500E+01 0.93171122359E+01 0.10784417252E+02 0.11888155498E+02
 0.12296630812E+02 0.11991990189E+02 0.11306122452E+02 0.10745426276E+02 0.10697158546E+02
 0.11195555091E+02 0.11900494621E+02 0.12304789637E+02 0.12133698337E+02 0.12172660825E+02
 0.11268202009E+02 0.98103790416E+01 0.82630483832E+01 0.68300549837E+01 0.56151087325E+01
 0.46612455763E+01 0.39695376025E+01 0.35222128680E+01 0.33012502505E+01 0.32980145862E+01
 0.35158095939E+01 0.39697510643E+01 0.46834002283E+01 0.56761862558E+01 0.69394275009E+01
 0.84097620665E+01 0.99552287469E+01 0.11279120118E+02 0.11888618834E+02 0.11532515031E+02
 0.10414441443E+02 0.91390254405E+01 0.84138783937E+01 0.86612976578E+01 0.97739297502E+01
 0.11172976616E+02 0.10310043507E+02 0.11841181014E+02 0.12173561886E+02 0.11334748350E+02
 0.98240695890E+01 0.82113893251E+01 0.67346297483E+01 0.55002393840E+01 0.45479776345E+01
 0.38741917063E+01 0.34578803474E+01 0.32801630385E+01 0.33333752070E+01 0.36232428076E+01
 0.41683357298E+01 0.49938603325E+01 0.61131014749E+01 0.74977755123E+01 0.90508075745E+01
 0.10565465148E+02 0.11517079733E+02 0.11380204048E+02 0.10064289929E+02 0.80561215558E+01
 0.62512228110E+01 0.55230937253E+01 0.62581014006E+01 0.81378417065E+01 0.65928127204E+01
 0.95158498802E+01 0.11539010639E+02 0.12084836461E+02 0.11268917667E+02 0.97096594470E+01
 0.80566262603E+01 0.65640199173E+01 0.53367838406E+01 0.44090949250E+01 0.37720143605E+01
 0.34019391195E+01 0.32801476211E+01 0.34009913190E+01 0.37736143094E+01 0.44201892422E+01
 0.53654129016E+01 0.66115093937E+01 0.81044512118E+01 0.97072464539E+01 0.11043599324E+02
 0.11414662569E+02 0.10356845659E+02 0.80066704848E+01 0.51662375300E+01 0.30002851592E+01
 0.24792743501E+01 0.38712584428E+01 0.19241154838E+01 0.54465410461E+01 0.89786300366E+01
 0.11321804873E+02 0.11944638646E+02 0.11084802378E+02 0.94768258206E+01 0.78090753053E+01
 0.63287647771E+01 0.51345161796E+01 0.42526165172E+01 0.36686135926E+01 0.33572574854E+01
 0.33012108842E+01 0.34979893499E+01 0.39609139944E+01 0.47151209826E+01 0.57818380980E+01
 0.71476238713E+01 0.87286294613E+01 0.10322591863E+02 0.11327381948E+02 0.10981523947E+02
 0.89504052464E+01 0.56399911134E+01 0.21599453540E+01 -.11877746179E+00 -.22159063317E+00
 -.21027324085E+01 0.78162327483E+00 0.49328392799E+01 0.88197549077E+01 0.11237895089E+02
 0.11768248261E+02 0.10791993498E+02 0.91397091991E+01 0.74831581783E+01 0.60424847465E+01
 0.49050171960E+01 0.40872297540E+01 0.35694710949E+01 0.33261417837E+01 0.33426039746E+01
 0.36205190406E+01 0.41775727012E+01 0.50404202606E+01 0.62236790822E+01 0.76949897453E+01
 0.93395945565E+01 0.10842346765E+02 0.11416015103E+02 0.10323487741E+02 0.74099287734E+01
 0.33587058182E+01 -.46377607004E+00 -.25770217651E+01 0.63262570155E-01 0.78219851699E+00
 0.34573645271E+01 0.70008531047E+01 0.10074333921E+02 0.11713589747E+02 0.11686290648E+02
 0.10446503296E+02 0.87727881134E+01 0.71672872143E+01 0.57954745191E+01 0.47270542558E+01
 0.39688690131E+01 0.34980212200E+01 0.32895187999E+01 0.33305393265E+01 0.36243905688E+01
 0.41898935724E+01 0.50536918510E+01 0.62284828704E+01 0.76790849750E+01 0.92908928932E+01
 0.10771544045E+02 0.11403938276E+02 0.10536767671E+02 0.80738273823E+01 0.46774221527E+01
 0.15843829229E+01 0.66280462983E+00 -.50464029167E+00 0.66284868213E+00 0.36716166810E+01
 0.72996830267E+01 0.10210579310E+02 0.11557484185E+02 0.11264070501E+02 0.98970477186E+01
 0.82404843140E+01 0.67010513760E+01 0.54186337315E+01 0.44467247104E+01 0.37819262829E+01
 0.33983102271E+01 0.32731452620E+01 0.33982285496E+01 0.37819267590E+01 0.44467953661E+01
 0.54186003650E+01 0.67009351420E+01 0.82404947660E+01 0.98972097494E+01 0.11264201632E+02
 0.11557547677E+02 0.10210713846E+02 0.72998754933E+01 0.36716933162E+01 0.34573415042E+01
 0.78210204405E+00 0.63245473752E-01 0.15843704868E+01 0.46772758723E+01 0.80736405619E+01