   2   2   0   0
  0.1529437E+02  0.3691622E-09  0.3691622E-09  0.3691622E-09  0.5000000E-15
  1.000000000000000E-004
  CAR 
 unknown system                          
     23.26913874     -6.61112399  301      8.97418814      1.00000000
     -6.611  0.0000E+00  0.0000E+00
     -6.512  0.0000E+00  0.0000E+00
     -6.412  0.0000E+00  0.0000E+00
     -6.312  0.0000E+00  0.0000E+00
     -6.213  0.0000E+00  0.0000E+00
     -6.113  0.0000E+00  0.0000E+00
     -6.014  0.0000E+00  0.0000E+00
     -5.914  0.0000E+00  0.0000E+00
     -5.814  0.0000E+00  0.0000E+00
     -5.715  0.1170E-16  0.1165E-17
     -5.615  0.2435E-14  0.2437E-15
     -5.516  0.3108E-12  0.3120E-13
     -5.416  0.2437E-10  0.2459E-11
     -5.316  0.1176E-08  0.1195E-09
     -5.217  0.3493E-07  0.3599E-08
     -5.117  0.6405E-06  0.6739E-07
     -5.018  0.7269E-05  0.7914E-06
     -4.918  0.5133E-04  0.5904E-05
     -4.818  0.2288E-03  0.2869E-04
     -4.719  0.6705E-03  0.9547E-04
     -4.619  0.1427E-02  0.2376E-03
     -4.520  0.2568E-02  0.4934E-03
     -4.420  0.4226E-02  0.9143E-03
     -4.320  0.6284E-02  0.1540E-02
     -4.221  0.8987E-02  0.2435E-02
     -4.121  0.1228E-01  0.3659E-02
     -4.022  0.1339E-01  0.4992E-02
     -3.922  0.1036E-01  0.6024E-02
     -3.822  0.7213E-02  0.6742E-02
     -3.723  0.9695E-02  0.7708E-02
     -3.623  0.1771E-01  0.9472E-02
     -3.523  0.2417E-01  0.1188E-01
     -3.424  0.2343E-01  0.1421E-01
     -3.324  0.1795E-01  0.1600E-01
     -3.225  0.1305E-01  0.1730E-01
     -3.125  0.1133E-01  0.1843E-01
     -3.025  0.1149E-01  0.1957E-01
     -2.926  0.1104E-01  0.2067E-01
     -2.826  0.1179E-01  0.2185E-01
     -2.727  0.1800E-01  0.2364E-01
     -2.627  0.2829E-01  0.2646E-01
     -2.527  0.3470E-01  0.2991E-01
     -2.428  0.3228E-01  0.3313E-01
     -2.328  0.2535E-01  0.3565E-01
     -2.229  0.2262E-01  0.3791E-01
     -2.129  0.2735E-01  0.4063E-01
     -2.029  0.3238E-01  0.4386E-01
     -1.930  0.3029E-01  0.4687E-01
     -1.830  0.2465E-01  0.4933E-01
     -1.731  0.2198E-01  0.5152E-01
     -1.631  0.2061E-01  0.5357E-01
     -1.531  0.1706E-01  0.5527E-01
     -1.432  0.1377E-01  0.5664E-01
     -1.332  0.1365E-01  0.5800E-01
     -1.233  0.1778E-01  0.5977E-01
     -1.133  0.2631E-01  0.6239E-01
     -1.033  0.3332E-01  0.6571E-01
     -0.934  0.3281E-01  0.6898E-01
     -0.834  0.3037E-01  0.7200E-01
     -0.735  0.3477E-01  0.7546E-01
     -0.635  0.4385E-01  0.7983E-01
     -0.535  0.4953E-01  0.8477E-01
     -0.436  0.4928E-01  0.8967E-01
     -0.336  0.4505E-01  0.9416E-01
     -0.237  0.3735E-01  0.9788E-01
     -0.137  0.2592E-01  0.1005E+00
     -0.037  0.1556E-01  0.1020E+00
      0.062  0.1555E-01  0.1036E+00
      0.162  0.2975E-01  0.1065E+00
      0.261  0.4705E-01  0.1112E+00
      0.361  0.4876E-01  0.1161E+00
      0.461  0.3381E-01  0.1194E+00
      0.560  0.2077E-01  0.1215E+00
      0.660  0.2152E-01  0.1236E+00
      0.759  0.3073E-01  0.1267E+00
      0.859  0.3823E-01  0.1305E+00
      0.959  0.4083E-01  0.1346E+00
      1.058  0.4419E-01  0.1390E+00
      1.158  0.5326E-01  0.1443E+00
      1.257  0.6060E-01  0.1503E+00
      1.357  0.5506E-01  0.1558E+00
      1.457  0.3982E-01  0.1598E+00
      1.556  0.2830E-01  0.1626E+00
      1.656  0.2766E-01  0.1653E+00
      1.755  0.3542E-01  0.1689E+00
      1.855  0.4504E-01  0.1734E+00
      1.955  0.4973E-01  0.1783E+00
      2.054  0.4727E-01  0.1830E+00
      2.154  0.4075E-01  0.1871E+00
      2.253  0.3281E-01  0.1904E+00
      2.353  0.2575E-01  0.1929E+00
      2.453  0.2251E-01  0.1952E+00
      2.552  0.2308E-01  0.1975E+00
      2.652  0.2492E-01  0.1999E+00
      2.751  0.2463E-01  0.2024E+00
      2.851  0.2037E-01  0.2044E+00
      2.951  0.1837E-01  0.2062E+00
      3.050  0.2987E-01  0.2092E+00
      3.150  0.5496E-01  0.2147E+00
      3.249  0.7595E-01  0.2223E+00
      3.349  0.7745E-01  0.2300E+00
      3.449  0.6423E-01  0.2364E+00
      3.548  0.4833E-01  0.2412E+00
      3.648  0.3677E-01  0.2448E+00
      3.747  0.3586E-01  0.2484E+00
      3.847  0.4731E-01  0.2531E+00
      3.947  0.6083E-01  0.2592E+00
      4.046  0.6291E-01  0.2655E+00
      4.146  0.4996E-01  0.2704E+00
      4.245  0.3187E-01  0.2736E+00
      4.345  0.2183E-01  0.2758E+00
      4.445  0.2332E-01  0.2781E+00
      4.544  0.3262E-01  0.2814E+00
      4.644  0.4353E-01  0.2857E+00
      4.743  0.4865E-01  0.2905E+00
      4.843  0.4954E-01  0.2955E+00
      4.943  0.5550E-01  0.3010E+00
      5.042  0.6279E-01  0.3073E+00
      5.142  0.5780E-01  0.3130E+00
      5.241  0.4391E-01  0.3174E+00
      5.341  0.3804E-01  0.3212E+00
      5.441  0.4380E-01  0.3255E+00
      5.540  0.4965E-01  0.3305E+00
      5.640  0.4703E-01  0.3352E+00
      5.739  0.3899E-01  0.3390E+00
      5.839  0.3407E-01  0.3424E+00
      5.939  0.3597E-01  0.3460E+00
      6.038  0.4443E-01  0.3504E+00
      6.138  0.5968E-01  0.3564E+00
      6.237  0.7891E-01  0.3642E+00
      6.337  0.9359E-01  0.3736E+00
      6.437  0.9479E-01  0.3830E+00
      6.536  0.8508E-01  0.3915E+00
      6.636  0.7637E-01  0.3991E+00
      6.735  0.7204E-01  0.4063E+00
      6.835  0.6465E-01  0.4127E+00
      6.935  0.5341E-01  0.4180E+00
      7.034  0.4824E-01  0.4228E+00
      7.134  0.5300E-01  0.4281E+00
      7.233  0.6148E-01  0.4342E+00
      7.333  0.6808E-01  0.4410E+00
      7.433  0.6949E-01  0.4479E+00
      7.532  0.6287E-01  0.4542E+00
      7.632  0.5184E-01  0.4594E+00
      7.731  0.4674E-01  0.4640E+00
      7.831  0.5054E-01  0.4691E+00
      7.931  0.5618E-01  0.4746E+00
      8.030  0.6061E-01  0.4807E+00
      8.130  0.6562E-01  0.4872E+00
      8.229  0.6827E-01  0.4940E+00
      8.329  0.6426E-01  0.5004E+00
      8.429  0.5649E-01  0.5060E+00
      8.528  0.5046E-01  0.5111E+00
      8.628  0.4854E-01  0.5159E+00
      8.727  0.5174E-01  0.5211E+00
      8.827  0.5529E-01  0.5266E+00
      8.927  0.4924E-01  0.5315E+00
      9.026  0.3593E-01  0.5351E+00
      9.126  0.3100E-01  0.5381E+00
      9.225  0.4034E-01  0.5422E+00
      9.325  0.5200E-01  0.5473E+00
      9.425  0.5151E-01  0.5525E+00
      9.524  0.3719E-01  0.5562E+00
      9.624  0.1925E-01  0.5581E+00
      9.723  0.7195E-02  0.5588E+00
      9.823  0.3229E-02  0.5591E+00
      9.923  0.7057E-02  0.5598E+00
     10.022  0.1987E-01  0.5618E+00
     10.122  0.3872E-01  0.5657E+00
     10.221  0.5462E-01  0.5711E+00
     10.321  0.6508E-01  0.5776E+00
     10.421  0.7672E-01  0.5852E+00
     10.520  0.9035E-01  0.5942E+00
     10.620  0.9593E-01  0.6038E+00
     10.719  0.8599E-01  0.6123E+00
     10.819  0.6835E-01  0.6192E+00
     10.919  0.5842E-01  0.6250E+00
     11.018  0.6381E-01  0.6313E+00
     11.118  0.7695E-01  0.6390E+00
     11.217  0.8203E-01  0.6472E+00
     11.317  0.7691E-01  0.6548E+00
     11.417  0.7358E-01  0.6621E+00
     11.516  0.7248E-01  0.6694E+00
     11.616  0.6476E-01  0.6758E+00
     11.715  0.5305E-01  0.6811E+00
     11.815  0.4403E-01  0.6855E+00
     11.915  0.3783E-01  0.6893E+00
     12.014  0.3527E-01  0.6928E+00
     12.114  0.3888E-01  0.6966E+00
     12.213  0.4647E-01  0.7013E+00
     12.313  0.5376E-01  0.7066E+00
     12.413  0.6235E-01  0.7128E+00
     12.512  0.7472E-01  0.7203E+00
     12.612  0.8273E-01  0.7285E+00
     12.711  0.7810E-01  0.7363E+00
     12.811  0.6596E-01  0.7429E+00
     12.911  0.5596E-01  0.7484E+00
     13.010  0.5601E-01  0.7540E+00
     13.110  0.6608E-01  0.7606E+00
     13.209  0.7022E-01  0.7676E+00
     13.309  0.5971E-01  0.7735E+00
     13.409  0.5118E-01  0.7786E+00
     13.508  0.5671E-01  0.7843E+00
     13.608  0.6387E-01  0.7906E+00
     13.707  0.6253E-01  0.7969E+00
     13.807  0.6186E-01  0.8030E+00
     13.907  0.6876E-01  0.8099E+00
     14.006  0.7572E-01  0.8174E+00
     14.106  0.7719E-01  0.8251E+00
     14.205  0.7825E-01  0.8329E+00
     14.305  0.8357E-01  0.8412E+00
     14.405  0.9176E-01  0.8504E+00
     14.504  0.9793E-01  0.8601E+00
     14.604  0.9487E-01  0.8696E+00
     14.703  0.8364E-01  0.8779E+00
     14.803  0.7766E-01  0.8856E+00
     14.903  0.8276E-01  0.8939E+00
     15.002  0.8563E-01  0.9024E+00
     15.102  0.7399E-01  0.9098E+00
     15.201  0.5486E-01  0.9152E+00
     15.301  0.4360E-01  0.9196E+00
     15.401  0.4626E-01  0.9242E+00
     15.500  0.5319E-01  0.9295E+00
     15.600  0.4988E-01  0.9345E+00
     15.699  0.3685E-01  0.9381E+00
     15.799  0.2740E-01  0.9409E+00
     15.899  0.2883E-01  0.9437E+00
     15.998  0.4068E-01  0.9478E+00
     16.098  0.6145E-01  0.9539E+00
     16.197  0.8356E-01  0.9622E+00
     16.297  0.9294E-01  0.9715E+00
     16.397  0.8337E-01  0.9798E+00
     16.496  0.6382E-01  0.9861E+00
     16.596  0.4654E-01  0.9908E+00
     16.695  0.3498E-01  0.9943E+00
     16.795  0.2701E-01  0.9970E+00
     16.895  0.2167E-01  0.9991E+00
     16.994  0.1936E-01  0.1001E+01
     17.094  0.1905E-01  0.1003E+01
     17.193  0.1845E-01  0.1005E+01
     17.293  0.1783E-01  0.1007E+01
     17.393  0.1996E-01  0.1009E+01
     17.492  0.2543E-01  0.1011E+01
     17.592  0.3457E-01  0.1015E+01
     17.691  0.4928E-01  0.1019E+01
     17.791  0.6579E-01  0.1026E+01
     17.891  0.7240E-01  0.1033E+01
     17.990  0.6218E-01  0.1039E+01
     18.090  0.4256E-01  0.1044E+01
     18.189  0.2540E-01  0.1046E+01
     18.289  0.1455E-01  0.1048E+01
     18.389  0.7683E-02  0.1048E+01
     18.488  0.3387E-02  0.1049E+01
     18.588  0.2277E-02  0.1049E+01
     18.687  0.5278E-02  0.1049E+01
     18.787  0.1184E-01  0.1051E+01
     18.887  0.1731E-01  0.1052E+01
     18.986  0.1694E-01  0.1054E+01
     19.086  0.1351E-01  0.1055E+01
     19.186  0.1197E-01  0.1057E+01
     19.285  0.1094E-01  0.1058E+01
     19.385  0.7578E-02  0.1058E+01
     19.484  0.3477E-02  0.1059E+01
     19.584  0.1178E-02  0.1059E+01
     19.684  0.1144E-02  0.1059E+01
     19.783  0.3238E-02  0.1059E+01
     19.883  0.6692E-02  0.1060E+01
     19.982  0.8752E-02  0.1061E+01
     20.082  0.7623E-02  0.1062E+01
     20.182  0.5612E-02  0.1062E+01
     20.281  0.5238E-02  0.1063E+01
     20.381  0.5801E-02  0.1063E+01
     20.480  0.6013E-02  0.1064E+01
     20.580  0.5512E-02  0.1064E+01
     20.680  0.4000E-02  0.1065E+01
     20.779  0.2019E-02  0.1065E+01
     20.879  0.6971E-03  0.1065E+01
     20.978  0.3995E-03  0.1065E+01
     21.078  0.1083E-02  0.1065E+01
     21.178  0.2661E-02  0.1066E+01
     21.277  0.4121E-02  0.1066E+01
     21.377  0.3967E-02  0.1066E+01
     21.476  0.2372E-02  0.1067E+01
     21.576  0.8809E-03  0.1067E+01
     21.676  0.2030E-03  0.1067E+01
     21.775  0.2898E-04  0.1067E+01
     21.875  0.2559E-05  0.1067E+01
     21.974  0.1397E-06  0.1067E+01
     22.074  0.4702E-08  0.1067E+01
     22.174  0.9749E-10  0.1067E+01
     22.273  0.1243E-11  0.1067E+01
     22.373  0.9742E-14  0.1067E+01
     22.472  0.4680E-16  0.1067E+01
     22.572  0.0000E+00  0.1067E+01
     22.672  0.0000E+00  0.1067E+01
     22.771  0.0000E+00  0.1067E+01
     22.871  0.0000E+00  0.1067E+01
     22.970  0.0000E+00  0.1067E+01
     23.070  0.0000E+00  0.1067E+01
     23.170  0.0000E+00  0.1067E+01
     23.269  0.0000E+00  0.1067E+01
