   2   2   0   0
  0.1529437E+02  0.3691622E-09  0.3691622E-09  0.3691622E-09  0.5000000E-15
  1.000000000000000E-004
  CAR 
 unknown system                          
     22.70190968     -6.61421168  301      8.99662414      1.00000000
     -6.614  0.0000E+00  0.0000E+00
     -6.516  0.0000E+00  0.0000E+00
     -6.419  0.0000E+00  0.0000E+00
     -6.321  0.0000E+00  0.0000E+00
     -6.223  0.0000E+00  0.0000E+00
     -6.126  0.0000E+00  0.0000E+00
     -6.028  0.0000E+00  0.0000E+00
     -5.930  0.0000E+00  0.0000E+00
     -5.832  0.0000E+00  0.0000E+00
     -5.735  0.4637E-17  0.4532E-18
     -5.637  0.9403E-15  0.9234E-16
     -5.539  0.1204E-12  0.1186E-13
     -5.442  0.9640E-11  0.9538E-12
     -5.344  0.4833E-09  0.4818E-10
     -5.246  0.1519E-07  0.1533E-08
     -5.148  0.2999E-06  0.3084E-07
     -5.051  0.3727E-05  0.3951E-06
     -4.953  0.2930E-04  0.3258E-05
     -4.855  0.1473E-03  0.1765E-04
     -4.758  0.4882E-03  0.6536E-04
     -4.660  0.1149E-02  0.1776E-03
     -4.562  0.2178E-02  0.3905E-03
     -4.464  0.3657E-02  0.7478E-03
     -4.367  0.5402E-02  0.1276E-02
     -4.269  0.7290E-02  0.1988E-02
     -4.171  0.9928E-02  0.2958E-02
     -4.073  0.1256E-01  0.4185E-02
     -3.976  0.1233E-01  0.5390E-02
     -3.878  0.9284E-02  0.6297E-02
     -3.780  0.8318E-02  0.7110E-02
     -3.683  0.1335E-01  0.8414E-02
     -3.585  0.2171E-01  0.1054E-01
     -3.487  0.2606E-01  0.1308E-01
     -3.389  0.2271E-01  0.1530E-01
     -3.292  0.1554E-01  0.1682E-01
     -3.194  0.1069E-01  0.1786E-01
     -3.096  0.9802E-02  0.1882E-01
     -2.999  0.9754E-02  0.1978E-01
     -2.901  0.9172E-02  0.2067E-01
     -2.803  0.1158E-01  0.2180E-01
     -2.705  0.1987E-01  0.2374E-01
     -2.608  0.3021E-01  0.2670E-01
     -2.510  0.3469E-01  0.3009E-01
     -2.412  0.3206E-01  0.3322E-01
     -2.315  0.2948E-01  0.3610E-01
     -2.217  0.3075E-01  0.3911E-01
     -2.119  0.3119E-01  0.4215E-01
     -2.021  0.2634E-01  0.4473E-01
     -1.924  0.1948E-01  0.4663E-01
     -1.826  0.1655E-01  0.4825E-01
     -1.728  0.1904E-01  0.5011E-01
     -1.630  0.2436E-01  0.5249E-01
     -1.533  0.2685E-01  0.5511E-01
     -1.435  0.2330E-01  0.5739E-01
     -1.337  0.1971E-01  0.5932E-01
     -1.240  0.2269E-01  0.6153E-01
     -1.142  0.2764E-01  0.6423E-01
     -1.044  0.2686E-01  0.6686E-01
     -0.946  0.2363E-01  0.6917E-01
     -0.849  0.2606E-01  0.7171E-01
     -0.751  0.3453E-01  0.7509E-01
     -0.653  0.4297E-01  0.7929E-01
     -0.556  0.4723E-01  0.8390E-01
     -0.458  0.4667E-01  0.8846E-01
     -0.360  0.3918E-01  0.9229E-01
     -0.262  0.2602E-01  0.9483E-01
     -0.165  0.1735E-01  0.9653E-01
     -0.067  0.2189E-01  0.9867E-01
      0.031  0.3608E-01  0.1022E+00
      0.128  0.4758E-01  0.1068E+00
      0.226  0.4782E-01  0.1115E+00
      0.324  0.3874E-01  0.1153E+00
      0.422  0.2865E-01  0.1181E+00
      0.519  0.2409E-01  0.1205E+00
      0.617  0.2523E-01  0.1229E+00
      0.715  0.2856E-01  0.1257E+00
      0.813  0.3281E-01  0.1289E+00
      0.910  0.3997E-01  0.1328E+00
      1.008  0.4892E-01  0.1376E+00
      1.106  0.5472E-01  0.1430E+00
      1.203  0.5695E-01  0.1485E+00
      1.301  0.5914E-01  0.1543E+00
      1.399  0.5963E-01  0.1601E+00
      1.497  0.5180E-01  0.1652E+00
      1.594  0.3640E-01  0.1687E+00
      1.692  0.2396E-01  0.1711E+00
      1.790  0.2005E-01  0.1730E+00
      1.887  0.1857E-01  0.1749E+00
      1.985  0.1420E-01  0.1762E+00
      2.083  0.1172E-01  0.1774E+00
      2.181  0.1807E-01  0.1792E+00
      2.278  0.3132E-01  0.1822E+00
      2.376  0.4063E-01  0.1862E+00
      2.474  0.3961E-01  0.1901E+00
      2.572  0.3507E-01  0.1935E+00
      2.669  0.3502E-01  0.1969E+00
      2.767  0.3878E-01  0.2007E+00
      2.865  0.4356E-01  0.2050E+00
      2.962  0.4891E-01  0.2097E+00
      3.060  0.5406E-01  0.2150E+00
      3.158  0.5691E-01  0.2206E+00
      3.256  0.5454E-01  0.2259E+00
      3.353  0.4579E-01  0.2304E+00
      3.451  0.3658E-01  0.2340E+00
      3.549  0.3659E-01  0.2375E+00
      3.646  0.4630E-01  0.2421E+00
      3.744  0.5543E-01  0.2475E+00
      3.842  0.5694E-01  0.2530E+00
      3.940  0.5281E-01  0.2582E+00
      4.037  0.4704E-01  0.2628E+00
      4.135  0.4054E-01  0.2668E+00
      4.233  0.3303E-01  0.2700E+00
      4.330  0.2790E-01  0.2727E+00
      4.428  0.2841E-01  0.2755E+00
      4.526  0.3346E-01  0.2788E+00
      4.624  0.4153E-01  0.2828E+00
      4.721  0.5101E-01  0.2878E+00
      4.819  0.6015E-01  0.2937E+00
      4.917  0.6705E-01  0.3002E+00
      5.015  0.6789E-01  0.3069E+00
      5.112  0.6136E-01  0.3129E+00
      5.210  0.5187E-01  0.3179E+00
      5.308  0.4757E-01  0.3226E+00
      5.405  0.5199E-01  0.3277E+00
      5.503  0.5501E-01  0.3330E+00
      5.601  0.4575E-01  0.3375E+00
      5.699  0.2901E-01  0.3403E+00
      5.796  0.1588E-01  0.3419E+00
      5.894  0.1261E-01  0.3431E+00
      5.992  0.2236E-01  0.3453E+00
      6.089  0.4441E-01  0.3496E+00
      6.187  0.7120E-01  0.3566E+00
      6.285  0.9219E-01  0.3656E+00
      6.383  0.9916E-01  0.3753E+00
      6.480  0.9045E-01  0.3841E+00
      6.578  0.7452E-01  0.3914E+00
      6.676  0.6316E-01  0.3976E+00
      6.773  0.5896E-01  0.4034E+00
      6.871  0.5456E-01  0.4087E+00
      6.969  0.4589E-01  0.4132E+00
      7.067  0.4127E-01  0.4172E+00
      7.164  0.5014E-01  0.4221E+00
      7.262  0.6691E-01  0.4286E+00
      7.360  0.7750E-01  0.4362E+00
      7.458  0.7817E-01  0.4439E+00
      7.555  0.7357E-01  0.4510E+00
      7.653  0.6613E-01  0.4575E+00
      7.751  0.5972E-01  0.4633E+00
      7.848  0.5914E-01  0.4691E+00
      7.946  0.6034E-01  0.4750E+00
      8.044  0.5621E-01  0.4805E+00
      8.142  0.5178E-01  0.4856E+00
      8.239  0.5664E-01  0.4911E+00
      8.337  0.6492E-01  0.4975E+00
      8.435  0.6427E-01  0.5037E+00
      8.532  0.5684E-01  0.5093E+00
      8.630  0.5101E-01  0.5143E+00
      8.728  0.4870E-01  0.5190E+00
      8.826  0.5042E-01  0.5240E+00
      8.923  0.5450E-01  0.5293E+00
      9.021  0.5479E-01  0.5346E+00
      9.119  0.5066E-01  0.5396E+00
      9.216  0.4864E-01  0.5443E+00
      9.314  0.4946E-01  0.5492E+00
      9.412  0.4644E-01  0.5537E+00
      9.510  0.3824E-01  0.5575E+00
      9.607  0.3175E-01  0.5606E+00
      9.705  0.3079E-01  0.5636E+00
      9.803  0.3089E-01  0.5666E+00
      9.901  0.2764E-01  0.5693E+00
      9.998  0.2297E-01  0.5715E+00
     10.096  0.2212E-01  0.5737E+00
     10.194  0.2736E-01  0.5764E+00
     10.291  0.3542E-01  0.5798E+00
     10.389  0.4163E-01  0.5839E+00
     10.487  0.4840E-01  0.5886E+00
     10.585  0.6207E-01  0.5947E+00
     10.682  0.7640E-01  0.6022E+00
     10.780  0.7535E-01  0.6095E+00
     10.878  0.5864E-01  0.6152E+00
     10.975  0.4583E-01  0.6197E+00
     11.073  0.5089E-01  0.6247E+00
     11.171  0.6540E-01  0.6311E+00
     11.269  0.7136E-01  0.6381E+00
     11.366  0.6721E-01  0.6446E+00
     11.464  0.6783E-01  0.6513E+00
     11.562  0.7931E-01  0.6590E+00
     11.660  0.9248E-01  0.6680E+00
     11.757  0.9700E-01  0.6775E+00
     11.855  0.8819E-01  0.6861E+00
     11.953  0.6821E-01  0.6928E+00
     12.050  0.4755E-01  0.6975E+00
     12.148  0.3922E-01  0.7013E+00
     12.246  0.4821E-01  0.7060E+00
     12.344  0.6835E-01  0.7127E+00
     12.441  0.8773E-01  0.7213E+00
     12.539  0.9467E-01  0.7305E+00
     12.637  0.8287E-01  0.7386E+00
     12.734  0.5718E-01  0.7442E+00
     12.832  0.3198E-01  0.7473E+00
     12.930  0.1948E-01  0.7492E+00
     13.028  0.2320E-01  0.7515E+00
     13.125  0.3854E-01  0.7553E+00
     13.223  0.5324E-01  0.7605E+00
     13.321  0.5823E-01  0.7661E+00
     13.418  0.6084E-01  0.7721E+00
     13.516  0.7306E-01  0.7792E+00
     13.614  0.9079E-01  0.7881E+00
     13.712  0.9901E-01  0.7978E+00
     13.809  0.9152E-01  0.8067E+00
     13.907  0.7479E-01  0.8140E+00
     14.005  0.5993E-01  0.8199E+00
     14.103  0.5695E-01  0.8255E+00
     14.200  0.6836E-01  0.8321E+00
     14.298  0.8671E-01  0.8406E+00
     14.396  0.1008E+00  0.8505E+00
     14.493  0.1014E+00  0.8604E+00
     14.591  0.8770E-01  0.8689E+00
     14.689  0.7093E-01  0.8759E+00
     14.787  0.6083E-01  0.8818E+00
     14.884  0.5506E-01  0.8872E+00
     14.982  0.5016E-01  0.8921E+00
     15.080  0.5020E-01  0.8970E+00
     15.177  0.5915E-01  0.9028E+00
     15.275  0.7114E-01  0.9097E+00
     15.373  0.7439E-01  0.9170E+00
     15.471  0.6448E-01  0.9233E+00
     15.568  0.4691E-01  0.9279E+00
     15.666  0.3097E-01  0.9309E+00
     15.764  0.2567E-01  0.9334E+00
     15.861  0.3580E-01  0.9369E+00
     15.959  0.5526E-01  0.9423E+00
     16.057  0.6819E-01  0.9490E+00
     16.155  0.6525E-01  0.9554E+00
     16.252  0.5329E-01  0.9606E+00
     16.350  0.4415E-01  0.9649E+00
     16.448  0.4259E-01  0.9690E+00
     16.546  0.4679E-01  0.9736E+00
     16.643  0.5285E-01  0.9788E+00
     16.741  0.5649E-01  0.9843E+00
     16.839  0.5330E-01  0.9895E+00
     16.936  0.4256E-01  0.9937E+00
     17.034  0.3047E-01  0.9966E+00
     17.132  0.2380E-01  0.9990E+00
     17.230  0.2362E-01  0.1001E+01
     17.327  0.2755E-01  0.1004E+01
     17.425  0.3263E-01  0.1007E+01
     17.523  0.3473E-01  0.1011E+01
     17.620  0.3081E-01  0.1014E+01
     17.718  0.2328E-01  0.1016E+01
     17.816  0.1912E-01  0.1018E+01
     17.914  0.2319E-01  0.1020E+01
     18.011  0.3256E-01  0.1023E+01
     18.109  0.3813E-01  0.1027E+01
     18.207  0.3438E-01  0.1030E+01
     18.304  0.2643E-01  0.1033E+01
     18.402  0.2412E-01  0.1035E+01
     18.500  0.2975E-01  0.1038E+01
     18.598  0.3603E-01  0.1042E+01
     18.695  0.3621E-01  0.1045E+01
     18.793  0.3079E-01  0.1048E+01
     18.891  0.2361E-01  0.1050E+01
     18.989  0.1798E-01  0.1052E+01
     19.086  0.1556E-01  0.1054E+01
     19.184  0.1490E-01  0.1055E+01
     19.282  0.1450E-01  0.1057E+01
     19.379  0.1502E-01  0.1058E+01
     19.477  0.1535E-01  0.1060E+01
     19.575  0.1345E-01  0.1061E+01
     19.673  0.1057E-01  0.1062E+01
     19.770  0.8063E-02  0.1063E+01
     19.868  0.5247E-02  0.1063E+01
     19.966  0.2451E-02  0.1063E+01
     20.063  0.7571E-03  0.1064E+01
     20.161  0.1581E-03  0.1064E+01
     20.259  0.9338E-04  0.1064E+01
     20.357  0.4573E-03  0.1064E+01
     20.454  0.1798E-02  0.1064E+01
     20.552  0.4584E-02  0.1064E+01
     20.650  0.7579E-02  0.1065E+01
     20.748  0.8143E-02  0.1066E+01
     20.845  0.5686E-02  0.1066E+01
     20.943  0.2577E-02  0.1067E+01
     21.041  0.7559E-03  0.1067E+01
     21.138  0.1428E-03  0.1067E+01
     21.236  0.1731E-04  0.1067E+01
     21.334  0.1339E-05  0.1067E+01
     21.432  0.6581E-07  0.1067E+01
     21.529  0.2047E-08  0.1067E+01
     21.627  0.4017E-10  0.1067E+01
     21.725  0.4957E-12  0.1067E+01
     21.822  0.3841E-14  0.1067E+01
     21.920  0.1767E-16  0.1067E+01
     22.018  0.0000E+00  0.1067E+01
     22.116  0.0000E+00  0.1067E+01
     22.213  0.0000E+00  0.1067E+01
     22.311  0.0000E+00  0.1067E+01
     22.409  0.0000E+00  0.1067E+01
     22.506  0.0000E+00  0.1067E+01
     22.604  0.0000E+00  0.1067E+01
     22.702  0.0000E+00  0.1067E+01
