    2    2   15    1
  0.1529437E+02  0.3691622E-09  0.3691622E-09  0.3691622E-09  0.5000000E-15
  1.000000000000000E-004
  CAR 
 unknown system                          
      8     40      8
 
  0.0000000E+00  0.0000000E+00  0.0000000E+00  0.2915452E-02
    1       -4.614212   1.000000
    2        6.193252   1.000000
    3        6.298824   1.000000
    4        6.298848   1.000000
    5       10.537762   0.000000
    6       16.869976   0.000000
    7       17.370156   0.000000
    8       17.370181   0.000000
 
  0.1428571E+00 -0.1404355E-16  0.1404355E-16  0.2332362E-01
    1       -4.038501   1.000000
    2        5.162982   1.000000
    3        6.234293   1.000000
    4        8.322084   0.999999
    5       11.675754   0.000000
    6       14.538555   0.000000
    7       14.922198   0.000000
    8       16.628176   0.000000
 
  0.2857143E+00 -0.2600542E-16  0.2600542E-16  0.2332362E-01
    1       -2.322905   1.000000
    2        5.144325   1.000000
    3        6.534597   1.000000
    4        8.966283   0.584938
    5       11.215901   0.000000
    6       12.158868   0.000000
    7       13.520038   0.000000
    8       14.406881   0.000000
 
  0.4285714E+00 -0.1733103E-16  0.1733103E-16  0.2332362E-01
    1        0.487432   1.000000
    2        4.359104   1.000000
    3        6.229635   1.000000
    4        7.461432   1.000000
    5        8.454520   0.999937
    6       10.952603   0.000000
    7       13.581134   0.000000
    8       14.492803   0.000000
 
  0.1428571E+00  0.1428571E+00  0.2808709E-16  0.2332362E-01
    1       -2.562845   1.000000
    2        5.433560   1.000000
    3        7.938617   1.000000
    4        9.076620   0.285813
    5       10.681053   0.000000
    6       11.150436   0.000000
    7       13.614240   0.000000
    8       14.415328   0.000000
 
  0.2857143E+00  0.1428571E+00  0.4508661E-16  0.4664723E-01
    1        0.020116   1.000000
    2        5.451510   1.000000
    3        6.324551   1.000000
    4        6.889576   1.000000
    5        9.425271   0.001219
    6       11.549701   0.000000
    7       12.366897   0.000000
    8       13.668177   0.000000
 
  0.4285714E+00  0.1428571E+00  0.7177282E-16  0.4664723E-01
    1        1.409502   1.000000
    2        3.653028   1.000000
    3        4.649001   1.000000
    4        7.532806   1.000000
    5        8.843893   0.859923
    6       11.530068   0.000000
    7       12.647006   0.000000
    8       16.124306   0.000000
 
 -0.4285714E+00  0.1428571E+00 -0.1801182E-16  0.4664723E-01
    1       -1.605601   1.000000
    2        3.221198   1.000000
    3        6.718341   1.000000
    4        8.284576   1.000000
    5       10.676129   0.000000
    6       12.549474   0.000000
    7       13.280835   0.000000
    8       15.290679   0.000000
 
 -0.2857143E+00  0.1428571E+00 -0.1576439E-16  0.4664723E-01
    1       -3.554533   1.000000
    2        2.962277   1.000000
    3        6.391229   1.000000
    4        9.672701   0.000001
    5       12.446635   0.000000
    6       13.758115   0.000000
    7       14.312738   0.000000
    8       16.018153   0.000000
 
 -0.1428571E+00  0.1428571E+00 -0.3929902E-17  0.1166181E-01
    1       -4.371468   1.000000
    2        3.753794   1.000000
    3        6.524151   1.000000
    4        7.929030   1.000000
    5       11.984724   0.000000
    6       14.301741   0.000000
    7       15.874208   0.000000
    8       19.439184   0.000000
 
  0.2857143E+00  0.2857143E+00  0.5201085E-16  0.2332362E-01
    1        2.646651   1.000000
    2        2.816650   1.000000
    3        3.645556   1.000000
    4        7.674473   1.000000
    5        9.328435   0.009482
    6       10.477817   0.000000
    7       14.617798   0.000000
    8       15.298942   0.000000
 
  0.4285714E+00  0.2857143E+00  0.7869706E-16  0.4664723E-01
    1       -0.421057   1.000000
    2        1.209230   1.000000
    3        7.589315   1.000000
    4        8.009707   1.000000
    5        9.275254   0.024407
    6       11.797154   0.000000
    7       14.387165   0.000000
    8       15.937220   0.000000
 
 -0.4285714E+00  0.2857143E+00 -0.2288370E-16  0.4664723E-01
    1       -2.591737   1.000000
    2        0.710681   1.000000
    3        7.269620   1.000000
    4       10.334036   0.000000
    5       10.765442   0.000000
    6       13.167725   0.000000
    7       14.763630   0.000000
    8       15.186500   0.000000
 
 -0.2857143E+00  0.2857143E+00 -0.7859804E-17  0.1166181E-01
    1       -3.644683   1.000000
    2        1.312893   1.000000
    3        7.199595   1.000000
    4        8.988297   0.523478
    5       11.891633   0.000000
    6       13.754925   0.000000
    7       15.228575   0.000000
    8       19.038786   0.000000
 
  0.4285714E+00  0.4285714E+00  0.1053833E-15  0.2332362E-01
    1       -1.162349   1.000000
    2       -1.160656   1.000000
    3        8.583565   0.998254
    4        8.626743   0.995545
    5       11.715477   0.000000
    6       12.293029   0.000000
    7       14.154211   0.000000
    8       15.038933   0.000000
 
 -0.4285714E+00  0.4285714E+00  0.4248060E-17  0.1166181E-01
    1       -2.442042   1.000000
    2       -0.778539   1.000000
    3        8.323784   0.999999
    4        9.891946   0.000000
    5       10.230341   0.000000
    6       11.825715   0.000000
    7       18.803908   0.000000
    8       18.861687   0.000000
 
  0.1428571E+00  0.1428571E+00  0.1428571E+00  0.2332362E-01
    1       -1.843060   1.000000
    2        3.052176   1.000000
    3        8.359100   0.999997
    4        9.197796   0.077441
    5       10.276641   0.000000
    6       11.177189   0.000000
    7       14.082226   0.000000
    8       14.812853   0.000000
 
  0.2857143E+00  0.1428571E+00  0.1428571E+00  0.4664723E-01
    1        0.957987   1.000000
    2        4.110578   1.000000
    3        4.911381   1.000000
    4        6.347629   1.000000
    5       10.610723   0.000000
    6       13.173089   0.000000
    7       13.887345   0.000000
    8       14.237922   0.000000
 
 -0.1428571E+00  0.1428571E+00  0.1428571E+00  0.1166181E-01
    1       -4.129085   1.000000
    2        3.451686   1.000000
    3        4.926022   1.000000
    4        9.831846   0.000000
    5       12.218957   0.000000
    6       12.843849   0.000000
    7       17.769556   0.000000
    8       17.983702   0.000000
 
  0.2857143E+00  0.2857143E+00  0.1428571E+00  0.2332362E-01
    1        2.327685   1.000000
    2        2.358156   1.000000
    3        4.658882   1.000000
    4        6.150891   1.000000
    5       11.681731   0.000000
    6       12.493259   0.000000
    7       14.463229   0.000000
    8       15.457196   0.000000
 
  0.4285714E+00  0.2857143E+00  0.1428571E+00  0.2332362E-01
    1       -0.652675   1.000000
    2        0.990959   1.000000
    3        8.694835   0.983577
    4        8.913492   0.721677
    5       10.667494   0.000000
    6       11.689236   0.000000
    7       12.554559   0.000000
    8       13.602209   0.000000
 
 -0.2857143E+00  0.2857143E+00  0.1428571E+00  0.2332362E-01
    1       -3.404867   1.000000
    2        1.483910   1.000000
    3        5.122065   1.000000
    4        9.823128   0.000000
    5       11.335307   0.000000
    6       15.629355   0.000000
    7       15.975749   0.000000
    8       18.615343   0.000000
 
 -0.1428571E+00  0.2857143E+00  0.1428571E+00  0.2332362E-01
    1       -3.073861   1.000000
    2        2.819872   1.000000
    3        4.446557   1.000000
    4       10.086232   0.000000
    5       11.700882   0.000000
    6       13.742442   0.000000
    7       15.247687   0.000000
    8       16.940881   0.000000
 
 -0.4285714E+00  0.4285714E+00  0.1428571E+00  0.2332362E-01
    1       -2.207964   1.000000
    2       -0.558374   1.000000
    3        6.215996   1.000000
    4        7.800620   1.000000
    5       12.627835   0.000000
    6       14.165014   0.000000
    7       18.043415   0.000000
    8       18.191893   0.000000
 
 -0.2857143E+00  0.4285714E+00  0.1428571E+00  0.4664723E-01
    1       -2.119309   1.000000
    2        1.098744   1.000000
    3        4.798570   1.000000
    4        7.897450   1.000000
    5       11.913338   0.000000
    6       14.513653   0.000000
    7       16.794399   0.000000
    8       17.422987   0.000000
 
 -0.1428571E+00  0.4285714E+00  0.1428571E+00  0.2332362E-01
    1       -0.897523   1.000000
    2        3.286445   1.000000
    3        4.960279   1.000000
    4        7.442332   1.000000
    5        8.974657   0.561719
    6       13.398312   0.000000
    7       14.966838   0.000000
    8       16.051968   0.000000
 
 -0.4285714E+00 -0.4285714E+00  0.1428571E+00  0.2332362E-01
    1       -0.711210   1.000000
    2       -0.706022   1.000000
    3        6.101245   1.000000
    4        6.106311   1.000000
    5       11.815259   0.000000
    6       15.473880   0.000000
    7       16.251561   0.000000
    8       16.760528   0.000000
 
 -0.2857143E+00 -0.4285714E+00  0.1428571E+00  0.4664723E-01
    1        0.264379   1.000000
    2        1.822730   1.000000
    3        5.492349   1.000000
    4        6.817539   1.000000
    5        7.253414   1.000000
    6       13.536305   0.000000
    7       16.587740   0.000000
    8       17.572564   0.000000
 
 -0.1428571E+00 -0.4285714E+00  0.1428571E+00  0.2332362E-01
    1        2.247191   1.000000
    2        3.065697   1.000000
    3        4.936892   1.000000
    4        6.442025   1.000000
    5        8.567871   0.998784
    6       11.140209   0.000000
    7       12.316117   0.000000
    8       16.479042   0.000000
 
 -0.2857143E+00 -0.2857143E+00  0.1428571E+00  0.2332362E-01
    1        2.609483   1.000000
    2        3.663334   1.000000
    3        3.831700   1.000000
    4        7.099812   1.000000
    5        7.249528   1.000000
    6       11.179761   0.000000
    7       13.892488   0.000000
    8       14.763074   0.000000
 
 -0.1428571E+00 -0.2857143E+00  0.1428571E+00  0.2332362E-01
    1       -0.452343   1.000000
    2        6.504383   1.000000
    3        7.355908   1.000000
    4        8.221262   1.000000
    5        8.306137   0.999999
    6       10.752173   0.000000
    7       11.174185   0.000000
    8       12.481813   0.000000
 
 -0.1428571E+00 -0.1428571E+00  0.1428571E+00  0.5830904E-02
    1       -2.803540   1.000000
    2        7.766150   1.000000
    3        7.766172   1.000000
    4        7.774196   1.000000
    5       11.083147   0.000000
    6       11.514441   0.000000
    7       12.357941   0.000000
    8       13.741667   0.000000
 
 -0.2857143E+00  0.2857143E+00  0.2857143E+00  0.1166181E-01
    1       -2.689998   1.000000
    2        1.544186   1.000000
    3        3.279333   1.000000
    4        7.398749   1.000000
    5       13.937120   0.000000
    6       17.045821   0.000000
    7       17.260306   0.000000
    8       18.101172   0.000000
 
 -0.4285714E+00  0.4285714E+00  0.2857143E+00  0.2332362E-01
    1       -1.515581   1.000000
    2        0.060837   1.000000
    3        3.827964   1.000000
    4        5.365099   1.000000
    5       15.445659   0.000000
    6       16.386142   0.000000
    7       17.970537   0.000000
    8       18.533621   0.000000
 
 -0.2857143E+00  0.4285714E+00  0.2857143E+00  0.2332362E-01
    1       -1.187957   1.000000
    2        1.384991   1.000000
    3        3.157363   1.000000
    4        5.672739   1.000000
    5       11.492619   0.000000
    6       17.189507   0.000000
    7       18.443479   0.000000
    8       19.153992   0.000000
 
 -0.4285714E+00 -0.4285714E+00  0.2857143E+00  0.2332362E-01
    1        0.141683   1.000000
    2        0.151150   1.000000
    3        3.917778   1.000000
    4        3.920027   1.000000
    5       11.309405   0.000000
    6       18.588282   0.000000
    7       18.758251   0.000000
    8       19.425414   0.000000
 
 -0.2857143E+00 -0.4285714E+00  0.2857143E+00  0.2332362E-01
    1        1.349205   1.000000
    2        2.338664   1.000000
    3        4.098933   1.000000
    4        5.059699   1.000000
    5        6.634690   1.000000
    6       15.383340   0.000000
    7       16.773275   0.000000
    8       18.113473   0.000000
 
 -0.2857143E+00 -0.2857143E+00  0.2857143E+00  0.5830904E-02
    1        2.436136   1.000000
    2        4.416064   1.000000
    3        4.551765   1.000000
    4        6.048133   1.000000
    5        6.048144   1.000000
    6       13.019529   0.000000
    7       13.650991   0.000000
    8       13.651067   0.000000
 
 -0.4285714E+00  0.4285714E+00  0.4285714E+00  0.1166181E-01
    1       -0.419424   1.000000
    2        0.577193   1.000000
    3        2.395917   1.000000
    4        3.379994   1.000000
    5       16.244176   0.000000
    6       16.385086   0.000000
    7       19.699272   0.000000
    8       20.630211   0.000000
 
 -0.4285714E+00 -0.4285714E+00  0.4285714E+00  0.5830904E-02
    1        0.894984   1.000000
    2        0.909509   1.000000
    3        2.713121   1.000000
    4        2.713122   1.000000
    5       11.119917   0.000000
    6       19.741726   0.000000
    7       20.701899   0.000000
    8       20.701910   0.000000
