 vasp.5.4.4.18Apr17-6-g9f103f2a35 (build Dec 09 2018 21:25:21) complex          
  
 executed on IFC18.0.1.163_CrayMP date 2019.03.18  04:37:07
 running on    8 total cores
 distrk:  each k-point on    8 cores,    1 groups
 distr:  one band on NCORES_PER_BAND=   1 cores,    8 groups


--------------------------------------------------------------------------------------------------------


 INCAR:
 POTCAR:   PAW_PBE Si 05Jan2001                   

 ----------------------------------------------------------------------------- 
|                                                                             |
|           W    W    AA    RRRRR   N    N  II  N    N   GGGG   !!!           |
|           W    W   A  A   R    R  NN   N  II  NN   N  G    G  !!!           |
|           W    W  A    A  R    R  N N  N  II  N N  N  G       !!!           |
|           W WW W  AAAAAA  RRRRR   N  N N  II  N  N N  G  GGG   !            |
|           WW  WW  A    A  R   R   N   NN  II  N   NN  G    G                |
|           W    W  A    A  R    R  N    N  II  N    N   GGGG   !!!           |
|                                                                             |
|      For optimal performance we recommend to set                            |
|        NCORE= 4 - approx SQRT( number of cores)                             |
|      NCORE specifies how many cores store one orbital (NPAR=cpu/NCORE).     |
|      This setting can  greatly improve the performance of VASP for DFT.     |
|      The default,   NCORE=1            might be grossly inefficient         |
|      on modern multi-core architectures or massively parallel machines.     |
|      Do your own testing !!!!                                               |
|      Unfortunately you need to use the default for GW and RPA calculations. |
|      (for HF NCORE is supported but not extensively tested yet)             |
|                                                                             |
 ----------------------------------------------------------------------------- 

 POTCAR:   PAW_PBE Si 05Jan2001                   
   VRHFIN =Si: s2p2                                                             
   LEXCH  = PE                                                                  
   EATOM  =   103.0669 eV,    7.5752 Ry                                         
                                                                                
   TITEL  = PAW_PBE Si 05Jan2001                                                
   LULTRA =        F    use ultrasoft PP ?                                      
   IUNSCR =        1    unscreen: 0-lin 1-nonlin 2-no                           
   RPACOR =    1.500    partial core radius                                     
   POMASS =   28.085; ZVAL   =    4.000    mass and valenz                      
   RCORE  =    1.900    outmost cutoff radius                                   
   RWIGS  =    2.480; RWIGS  =    1.312    wigner-seitz radius (au A)           
   ENMAX  =  245.345; ENMIN  =  184.009 eV                                      
   ICORE  =        2    local potential                                         
   LCOR   =        T    correct aug charges                                     
   LPAW   =        T    paw PP                                                  
   EAUG   =  322.069                                                            
   DEXC   =    -.007                                                            
   RMAX   =    2.944    core radius for proj-oper                               
   RAUG   =    1.300    factor for augmentation sphere                          
   RDEP   =    1.993    radius for radial grids                                 
   QCUT   =   -4.246; QGAM   =    8.493    optimization parameters              
                                                                                
   Description                                                                  
     l     E      TYP  RCUT    TYP  RCUT                                        
     0   .000     23  1.900                                                     
     0   .000     23  1.900                                                     
     1   .000     23  1.900                                                     
     1   .000     23  1.900                                                     
     2   .000      7  1.900                                                     
  local pseudopotential read in
  partial core-charges read in
  atomic valenz-charges read in
  non local Contribution for L=           0  read in
    real space projection operators read in
  non local Contribution for L=           0  read in
    real space projection operators read in
  non local Contribution for L=           1  read in
    real space projection operators read in
  non local Contribution for L=           1  read in
    real space projection operators read in
    PAW grid and wavefunctions read in
 
   number of l-projection  operators is LMAX  =           4
   number of lm-projection operators is LMMAX =           8
 
 PAW_PBE Si 05Jan2001                   :
 energy of atom  1       EATOM= -103.0669
 kinetic energy error for atom=    0.0052 (will be added to EATOM!!)
 
 
 POSCAR: Si2                                     
  positions in direct lattice
  No initial velocities read in
 exchange correlation table for  LEXCH =        8
   RHO(1)=    0.500       N(1)  =     2000
   RHO(2)=  100.500       N(2)  =     4000
 


--------------------------------------------------------------------------------------------------------


 ion  position               nearest neighbor table
   1  0.250  0.750  0.500-   2 2.53   2 2.53   2 2.53   2 2.53   2 3.11   2 3.11   2 3.11   2 3.11

   2  0.000  0.000  0.000-   1 2.53   1 2.53   1 2.53   1 2.53   1 3.11   1 3.11   1 3.11   1 3.11

 
  LATTYP: Found a body centered tetragonal cell.
 ALAT       =     4.9000000000
 C/A-ratio  =     0.5200000000
  
  Lattice vectors:
  
 A1 = (  -2.4500000000,   2.4500000000,   1.2740000000)
 A2 = (   2.4500000000,  -2.4500000000,   1.2740000000)
 A3 = (   2.4500000000,   2.4500000000,  -1.2740000000)


Analysis of symmetry for initial positions (statically):
=====================================================================
 Subroutine PRICEL returns:
 Original cell was already a primitive cell.
 

 Routine SETGRP: Setting up the symmetry group for a 
 body centered tetragonal supercell.


 Subroutine GETGRP returns: Found 16 space group operations
 (whereof  8 operations were pure point group operations)
 out of a pool of 16 trial point group operations.


The static configuration has the point symmetry D_2d.
 The point group associated with its full space group is D_4h.


Analysis of symmetry for dynamics (positions and initial velocities):
=====================================================================
 Subroutine PRICEL returns:
 Original cell was already a primitive cell.
 

 Routine SETGRP: Setting up the symmetry group for a 
 body centered tetragonal supercell.


 Subroutine GETGRP returns: Found 16 space group operations
 (whereof  8 operations were pure point group operations)
 out of a pool of 16 trial point group operations.


The dynamic configuration has the point symmetry D_2d.
 The point group associated with its full space group is D_4h.


 Subroutine INISYM returns: Found 16 space group operations
 (whereof  8 operations are pure point group operations),
 and found     1 'primitive' translations

 
 
 KPOINTS: Automatic kpoint scheme                 

Automatic generation of k-mesh.
Space group operators:
 irot       det(A)        alpha          n_x          n_y          n_z        tau_x        tau_y        tau_z
    1     1.000000     0.000000     1.000000     0.000000     0.000000     0.000000     0.000000     0.000000
    2    -1.000000    90.000000    -0.000000    -0.000000    -1.000000     0.000000     0.000000     0.000000
    3     1.000000   180.000000    -0.000000    -0.000000    -1.000000     0.000000     0.000000     0.000000
    4    -1.000000    90.000000    -0.000000     0.000000     1.000000     0.000000     0.000000     0.000000
    5    -1.000000   180.000000     0.000000    -1.000000     0.000000     0.000000     0.000000     0.000000
    6     1.000000   180.000000     0.707107     0.707107    -0.000000     0.000000     0.000000     0.000000
    7    -1.000000   180.000000     1.000000     0.000000     0.000000     0.000000     0.000000     0.000000
    8     1.000000   180.000000     0.707107    -0.707107     0.000000     0.000000     0.000000     0.000000
    9    -1.000000     0.000000     1.000000     0.000000     0.000000     0.250000     0.750000     0.500000
   10     1.000000    90.000000    -0.000000    -0.000000    -1.000000     0.250000     0.750000     0.500000
   11    -1.000000   180.000000    -0.000000    -0.000000    -1.000000     0.250000     0.750000     0.500000
   12     1.000000    90.000000    -0.000000     0.000000     1.000000     0.250000     0.750000     0.500000
   13     1.000000   180.000000     0.000000    -1.000000     0.000000     0.250000     0.750000     0.500000
   14    -1.000000   180.000000     0.707107     0.707107    -0.000000     0.250000     0.750000     0.500000
   15     1.000000   180.000000     1.000000     0.000000     0.000000     0.250000     0.750000     0.500000
   16    -1.000000   180.000000     0.707107    -0.707107     0.000000     0.250000     0.750000     0.500000
 
 Subroutine IBZKPT returns following result:
 ===========================================
 
 Found     40 irreducible k-points:
 
 Following reciprocal coordinates:
            Coordinates               Weight
  0.000000  0.000000  0.000000      1.000000
  0.142857 -0.000000  0.000000      8.000000
  0.285714 -0.000000  0.000000      8.000000
  0.428571 -0.000000  0.000000      8.000000
  0.142857  0.142857  0.000000      8.000000
  0.285714  0.142857  0.000000     16.000000
  0.428571  0.142857  0.000000     16.000000
 -0.428571  0.142857 -0.000000     16.000000
 -0.285714  0.142857 -0.000000     16.000000
 -0.142857  0.142857 -0.000000      4.000000
  0.285714  0.285714  0.000000      8.000000
  0.428571  0.285714  0.000000     16.000000
 -0.428571  0.285714 -0.000000     16.000000
 -0.285714  0.285714 -0.000000      4.000000
  0.428571  0.428571  0.000000      8.000000
 -0.428571  0.428571  0.000000      4.000000
  0.142857  0.142857  0.142857      8.000000
  0.285714  0.142857  0.142857     16.000000
 -0.142857  0.142857  0.142857      4.000000
  0.285714  0.285714  0.142857      8.000000
  0.428571  0.285714  0.142857      8.000000
 -0.285714  0.285714  0.142857      8.000000
 -0.142857  0.285714  0.142857      8.000000
 -0.428571  0.428571  0.142857      8.000000
 -0.285714  0.428571  0.142857     16.000000
 -0.142857  0.428571  0.142857      8.000000
 -0.428571 -0.428571  0.142857      8.000000
 -0.285714 -0.428571  0.142857     16.000000
 -0.142857 -0.428571  0.142857      8.000000
 -0.285714 -0.285714  0.142857      8.000000
 -0.142857 -0.285714  0.142857      8.000000
 -0.142857 -0.142857  0.142857      2.000000
 -0.285714  0.285714  0.285714      4.000000
 -0.428571  0.428571  0.285714      8.000000
 -0.285714  0.428571  0.285714      8.000000
 -0.428571 -0.428571  0.285714      8.000000
 -0.285714 -0.428571  0.285714      8.000000
 -0.285714 -0.285714  0.285714      2.000000
 -0.428571  0.428571  0.428571      4.000000
 -0.428571 -0.428571  0.428571      2.000000
 
 Following cartesian coordinates:
            Coordinates               Weight
  0.000000  0.000000  0.000000      1.000000
  0.000000  0.029155  0.056066      8.000000
  0.000000  0.058309  0.112133      8.000000
  0.000000  0.087464  0.168199      8.000000
  0.029155  0.029155  0.112133      8.000000
  0.029155  0.058309  0.168199     16.000000
  0.029155  0.087464  0.224266     16.000000
  0.029155 -0.087464 -0.112133     16.000000
  0.029155 -0.058309 -0.056066     16.000000
  0.029155 -0.029155  0.000000      4.000000
  0.058309  0.058309  0.224266      8.000000
  0.058309  0.087464  0.280332     16.000000
  0.058309 -0.087464 -0.056066     16.000000
  0.058309 -0.058309  0.000000      4.000000
  0.087464  0.087464  0.336398      8.000000
  0.087464 -0.087464  0.000000      4.000000
  0.058309  0.058309  0.112133      8.000000
  0.058309  0.087464  0.168199     16.000000
  0.058309 -0.000000 -0.000000      4.000000
  0.087464  0.087464  0.224266      8.000000
  0.087464  0.116618  0.280332      8.000000
  0.087464 -0.029155 -0.000000      8.000000
  0.087464  0.000000  0.056066      8.000000
  0.116618 -0.058309  0.000000      8.000000
  0.116618 -0.029155  0.056066     16.000000
  0.116618  0.000000  0.112133      8.000000
 -0.058309 -0.058309 -0.336398      8.000000
 -0.058309 -0.029155 -0.280332     16.000000
 -0.058309  0.000000 -0.224266      8.000000
 -0.029155 -0.029155 -0.224266      8.000000
 -0.029155 -0.000000 -0.168199      8.000000
  0.000000  0.000000 -0.112133      2.000000
  0.116618  0.000000 -0.000000      4.000000
  0.145773 -0.029155  0.000000      8.000000
  0.145773  0.000000  0.056066      8.000000
 -0.029155 -0.029155 -0.336398      8.000000
 -0.029155  0.000000 -0.280332      8.000000
  0.000000  0.000000 -0.224266      2.000000
  0.174927 -0.000000  0.000000      4.000000
 -0.000000  0.000000 -0.336398      2.000000
 


--------------------------------------------------------------------------------------------------------




 Dimension of arrays:
   k-points           NKPTS =     40   k-points in BZ     NKDIM =     40   number of bands    NBANDS=      8
   number of dos      NEDOS =    301   number of ions     NIONS =      2
   non local maximal  LDIM  =      4   non local SUM 2l+1 LMDIM =      8
   total plane-waves  NPLWV =   2744
   max r-space proj   IRMAX =      1   max aug-charges    IRDMAX=   3198
   dimension x,y,z NGX =    14 NGY =   14 NGZ =   14
   dimension x,y,z NGXF=    28 NGYF=   28 NGZF=   28
   support grid    NGXF=    28 NGYF=   28 NGZF=   28
   ions per type =               2
   NGX,Y,Z   is equivalent  to a cutoff of   6.30,  6.30,  6.30 a.u.
   NGXF,Y,Z  is equivalent  to a cutoff of  12.61, 12.61, 12.61 a.u.

 SYSTEM =  unknown system                          
 POSCAR =  Si2                                     

 Startparameter for this run:
   NWRITE =      2    write-flag & timer
   PREC   = normal    normal or accurate (medium, high low for compatibility)
   ISTART =      1    job   : 0-new  1-cont  2-samecut
   ICHARG =      0    charge: 1-file 2-atom 10-const
   ISPIN  =      1    spin polarized calculation?
   LNONCOLLINEAR =      F non collinear calculations
   LSORBIT =      F    spin-orbit coupling
   INIWAV =      1    electr: 0-lowe 1-rand  2-diag
   LASPH  =      F    aspherical Exc in radial PAW
   METAGGA=      F    non-selfconsistent MetaGGA calc.

 Electronic Relaxation 1
   ENCUT  =  250.0 eV  18.37 Ry    4.29 a.u.   4.76  4.76  4.76*2*pi/ulx,y,z
   ENINI  =  250.0     initial cutoff
   ENAUG  =  322.1 eV  augmentation charge cutoff
   NELM   =     60;   NELMIN=  2; NELMDL=  0     # of ELM steps 
   EDIFF  = 0.4E-03   stopping-criterion for ELM
   LREAL  =      F    real-space projection
   NLSPLINE    = F    spline interpolate recip. space projectors
   LCOMPAT=      F    compatible to vasp.4.4
   GGA_COMPAT  = T    GGA compatible to vasp.4.4-vasp.4.6
   LMAXPAW     = -100 max onsite density
   LMAXMIX     =    2 max onsite mixed and CHGCAR
   VOSKOWN=      0    Vosko Wilk Nusair interpolation
   ROPT   =    0.00000
 Ionic relaxation
   EDIFFG = -.1E-01   stopping-criterion for IOM
   NSW    =     15    number of steps for IOM
   NBLOCK =      1;   KBLOCK =     15    inner block; outer block 
   IBRION =      2    ionic relax: 0-MD 1-quasi-New 2-CG
   NFREE  =      1    steps in history (QN), initial steepest desc. (CG)
   ISIF   =      2    stress and relaxation
   IWAVPR =     11    prediction:  0-non 1-charg 2-wave 3-comb
   ISYM   =      2    0-nonsym 1-usesym 2-fastsym
   LCORR  =      T    Harris-Foulkes like correction to forces

   POTIM  = 0.5000    time-step for ionic-motion
   TEIN   =    0.0    initial temperature
   TEBEG  =    0.0;   TEEND  =   0.0 temperature during run
   SMASS  =  -3.00    Nose mass-parameter (am)
   estimated Nose-frequenzy (Omega)   =  0.10E-29 period in steps =****** mass=  -0.311E-27a.u.
   SCALEE = 1.0000    scale energy and forces
   NPACO  =    256;   APACO  = 16.0  distance and # of slots for P.C.
   PSTRESS=    0.0 pullay stress

  Mass of Ions in am
   POMASS =  28.09
  Ionic Valenz
   ZVAL   =   4.00
  Atomic Wigner-Seitz radii
   RWIGS  =  -1.00
  virtual crystal weights 
   VCA    =   1.00
   NELECT =       8.0000    total number of electrons
   NUPDOWN=      -1.0000    fix difference up-down

 DOS related values:
   EMIN   =  10.00;   EMAX   =-10.00  energy-range for DOS
   EFERMI =   0.00
   ISMEAR =     0;   SIGMA  =   0.20  broadening in eV -4-tet -1-fermi 0-gaus

 Electronic relaxation 2 (details)
   IALGO  =     38    algorithm
   LDIAG  =      T    sub-space diagonalisation (order eigenvalues)
   LSUBROT=      F    optimize rotation matrix (better conditioning)
   TURBO    =      0    0=normal 1=particle mesh
   IRESTART =      0    0=no restart 2=restart with 2 vectors
   NREBOOT  =      0    no. of reboots
   NMIN     =      0    reboot dimension
   EREF     =   0.00    reference energy to select bands
   IMIX   =      4    mixing-type and parameters
     AMIX     =   0.40;   BMIX     =  1.00
     AMIX_MAG =   1.60;   BMIX_MAG =  1.00
     AMIN     =   0.10
     WC   =   100.;   INIMIX=   1;  MIXPRE=   1;  MAXMIX= -45

 Intra band minimization:
   WEIMIN = 0.0010     energy-eigenvalue tresh-hold
   EBREAK =  0.13E-04  absolut break condition
   DEPER  =   0.30     relativ break condition  

   TIME   =   0.40     timestep for ELM

  volume/ion in A,a.u.               =      15.29       103.21
  Fermi-wavevector in a.u.,A,eV,Ry     =   1.046930  1.978411 14.912834  1.096062
  Thomas-Fermi vector in A             =   2.181789
 
 Write flags
   LWAVE        =      T    write WAVECAR
   LDOWNSAMPLE  =      F    k-point downsampling of WAVECAR
   LCHARG       =      T    write CHGCAR
   LVTOT        =      F    write LOCPOT, total local potential
   LVHAR        =      F    write LOCPOT, Hartree potential only
   LELF         =      F    write electronic localiz. function (ELF)
   LORBIT       =      0    0 simple, 1 ext, 2 COOP (PROOUT), +10 PAW based schemes


 Dipole corrections
   LMONO  =      F    monopole corrections only (constant potential shift)
   LDIPOL =      F    correct potential (dipole corrections)
   IDIPOL =      0    1-x, 2-y, 3-z, 4-all directions 
   EPSILON=  1.0000000 bulk dielectric constant

 Exchange correlation treatment:
   GGA     =    --    GGA type
   LEXCH   =     8    internal setting for exchange type
   VOSKOWN=      0    Vosko Wilk Nusair interpolation
   LHFCALC =     F    Hartree Fock is set to
   LHFONE  =     F    Hartree Fock one center treatment
   AEXX    =    0.0000 exact exchange contribution

 Linear response parameters
   LEPSILON=     F    determine dielectric tensor
   LRPA    =     F    only Hartree local field effects (RPA)
   LNABLA  =     F    use nabla operator in PAW spheres
   LVEL    =     F    velocity operator in full k-point grid
   LINTERFAST=   F  fast interpolation
   KINTER  =     0    interpolate to denser k-point grid
   CSHIFT  =0.1000    complex shift for real part using Kramers Kronig
   OMEGAMAX=  -1.0    maximum frequency
   DEG_THRESHOLD= 0.2000000E-02 threshold for treating states as degnerate
   RTIME   =   -0.100 relaxation time in fs
  (WPLASMAI=    0.000 imaginary part of plasma frequency in eV, 0.658/RTIME)
   DFIELD  = 0.0000000 0.0000000 0.0000000 field for delta impulse in time
 
 Orbital magnetization related:
   ORBITALMAG=     F  switch on orbital magnetization
   LCHIMAG   =     F  perturbation theory with respect to B field
   DQ        =  0.001000  dq finite difference perturbation B field
   LLRAUG    =     F  two centre corrections for induced B field



--------------------------------------------------------------------------------------------------------


 conjugate gradient relaxation of ions
 charge density and potential will be updated during run
 non-spin polarized calculation
 Variant of blocked Davidson
 Davidson routine will perform the subspace rotation
 perform sub-space diagonalisation
    after iterative eigenvector-optimisation
 modified Broyden-mixing scheme, WC =      100.0
 initial mixing is a Kerker type mixing with AMIX =  0.4000 and BMIX =      1.0000
 Hartree-type preconditioning will be used
 using additional bands            4
 reciprocal scheme for non local part
 use partial core corrections
 calculate Harris-corrections to forces 
   (improved forces if not selfconsistent)
 use gradient corrections 
 use of overlap-Matrix (Vanderbilt PP)
 Gauss-broadening in eV      SIGMA  =   0.20


--------------------------------------------------------------------------------------------------------


  energy-cutoff  :      250.00
  volume of cell :       30.59
      direct lattice vectors                 reciprocal lattice vectors
    -2.450000000  2.450000000  1.274000000     0.000000000  0.204081633  0.392464678
     2.450000000 -2.450000000  1.274000000     0.204081633  0.000000000  0.392464678
     2.450000000  2.450000000 -1.274000000     0.204081633  0.204081633 -0.000000000

  length of vectors
     3.691622408  3.691622408  3.691622408     0.442354876  0.442354876  0.288615013


 
 old parameters found on file WAVECAR:
  energy-cutoff  :      250.00
  volume of cell :       30.59
      direct lattice vectors                 reciprocal lattice vectors
    -2.450000000  2.450000000  1.274000000     0.000000000  0.204081633  0.392464678
     2.450000000 -2.450000000  1.274000000     0.204081633  0.000000000  0.392464678
     2.450000000  2.450000000 -1.274000000     0.204081633  0.204081633 -0.000000000

  length of vectors

 
 k-points in units of 2pi/SCALE and weight: Automatic kpoint scheme                 
   0.00000000  0.00000000  0.00000000       0.003
   0.00000000  0.02915452  0.05606638       0.023
   0.00000000  0.05830904  0.11213277       0.023
   0.00000000  0.08746356  0.16819915       0.023
   0.02915452  0.02915452  0.11213277       0.023
   0.02915452  0.05830904  0.16819915       0.047
   0.02915452  0.08746356  0.22426553       0.047
   0.02915452 -0.08746356 -0.11213277       0.047
   0.02915452 -0.05830904 -0.05606638       0.047
   0.02915452 -0.02915452  0.00000000       0.012
   0.05830904  0.05830904  0.22426553       0.023
   0.05830904  0.08746356  0.28033191       0.047
   0.05830904 -0.08746356 -0.05606638       0.047
   0.05830904 -0.05830904  0.00000000       0.012
   0.08746356  0.08746356  0.33639830       0.023
   0.08746356 -0.08746356  0.00000000       0.012
   0.05830904  0.05830904  0.11213277       0.023
   0.05830904  0.08746356  0.16819915       0.047
   0.05830904 -0.00000000  0.00000000       0.012
   0.08746356  0.08746356  0.22426553       0.023
   0.08746356  0.11661808  0.28033191       0.023
   0.08746356 -0.02915452  0.00000000       0.023
   0.08746356  0.00000000  0.05606638       0.023
   0.11661808 -0.05830904  0.00000000       0.023
   0.11661808 -0.02915452  0.05606638       0.047
   0.11661808  0.00000000  0.11213277       0.023
  -0.05830904 -0.05830904 -0.33639830       0.023
  -0.05830904 -0.02915452 -0.28033191       0.047
  -0.05830904 -0.00000000 -0.22426553       0.023
  -0.02915452 -0.02915452 -0.22426553       0.023
  -0.02915452 -0.00000000 -0.16819915       0.023
  -0.00000000 -0.00000000 -0.11213277       0.006
   0.11661808  0.00000000  0.00000000       0.012
   0.14577259 -0.02915452  0.00000000       0.023
   0.14577259 -0.00000000  0.05606638       0.023
  -0.02915452 -0.02915452 -0.33639830       0.023
  -0.02915452 -0.00000000 -0.28033191       0.023
   0.00000000  0.00000000 -0.22426553       0.006
   0.17492711 -0.00000000 -0.00000000       0.012
   0.00000000 -0.00000000 -0.33639830       0.006
 
 k-points in reciprocal lattice and weights: Automatic kpoint scheme                 
   0.00000000  0.00000000  0.00000000       0.003
   0.14285714 -0.00000000  0.00000000       0.023
   0.28571429 -0.00000000  0.00000000       0.023
   0.42857143 -0.00000000  0.00000000       0.023
   0.14285714  0.14285714  0.00000000       0.023
   0.28571429  0.14285714  0.00000000       0.047
   0.42857143  0.14285714  0.00000000       0.047
  -0.42857143  0.14285714 -0.00000000       0.047
  -0.28571429  0.14285714 -0.00000000       0.047
  -0.14285714  0.14285714 -0.00000000       0.012
   0.28571429  0.28571429  0.00000000       0.023
   0.42857143  0.28571429  0.00000000       0.047
  -0.42857143  0.28571429 -0.00000000       0.047
  -0.28571429  0.28571429 -0.00000000       0.012
   0.42857143  0.42857143  0.00000000       0.023
  -0.42857143  0.42857143  0.00000000       0.012
   0.14285714  0.14285714  0.14285714       0.023
   0.28571429  0.14285714  0.14285714       0.047
  -0.14285714  0.14285714  0.14285714       0.012
   0.28571429  0.28571429  0.14285714       0.023
   0.42857143  0.28571429  0.14285714       0.023
  -0.28571429  0.28571429  0.14285714       0.023
  -0.14285714  0.28571429  0.14285714       0.023
  -0.42857143  0.42857143  0.14285714       0.023
  -0.28571429  0.42857143  0.14285714       0.047
  -0.14285714  0.42857143  0.14285714       0.023
  -0.42857143 -0.42857143  0.14285714       0.023
  -0.28571429 -0.42857143  0.14285714       0.047
  -0.14285714 -0.42857143  0.14285714       0.023
  -0.28571429 -0.28571429  0.14285714       0.023
  -0.14285714 -0.28571429  0.14285714       0.023
  -0.14285714 -0.14285714  0.14285714       0.006
  -0.28571429  0.28571429  0.28571429       0.012
  -0.42857143  0.42857143  0.28571429       0.023
  -0.28571429  0.42857143  0.28571429       0.023
  -0.42857143 -0.42857143  0.28571429       0.023
  -0.28571429 -0.42857143  0.28571429       0.023
  -0.28571429 -0.28571429  0.28571429       0.006
  -0.42857143  0.42857143  0.42857143       0.012
  -0.42857143 -0.42857143  0.42857143       0.006
 
 position of ions in fractional coordinates (direct lattice) 
   0.25000000  0.75000000  0.50000000
   0.00000000  0.00000000  0.00000000
 
 position of ions in cartesian coordinates  (Angst):
   2.45000000  0.00000000  0.63700000
   0.00000000  0.00000000  0.00000000
 


--------------------------------------------------------------------------------------------------------


 k-point  1 :   0.0000 0.0000 0.0000  plane waves:     263
 k-point  2 :   0.1429-0.0000 0.0000  plane waves:     272
 k-point  3 :   0.2857-0.0000 0.0000  plane waves:     275
 k-point  4 :   0.4286-0.0000 0.0000  plane waves:     279
 k-point  5 :   0.1429 0.1429 0.0000  plane waves:     269
 k-point  6 :   0.2857 0.1429 0.0000  plane waves:     275
 k-point  7 :   0.4286 0.1429 0.0000  plane waves:     277
 k-point  8 :  -0.4286 0.1429-0.0000  plane waves:     270
 k-point  9 :  -0.2857 0.1429-0.0000  plane waves:     273
 k-point 10 :  -0.1429 0.1429-0.0000  plane waves:     283
 k-point 11 :   0.2857 0.2857 0.0000  plane waves:     269
 k-point 12 :   0.4286 0.2857 0.0000  plane waves:     271
 k-point 13 :  -0.4286 0.2857-0.0000  plane waves:     280
 k-point 14 :  -0.2857 0.2857-0.0000  plane waves:     283
 k-point 15 :   0.4286 0.4286 0.0000  plane waves:     278
 k-point 16 :  -0.4286 0.4286 0.0000  plane waves:     275
 k-point 17 :   0.1429 0.1429 0.1429  plane waves:     273
 k-point 18 :   0.2857 0.1429 0.1429  plane waves:     270
 k-point 19 :  -0.1429 0.1429 0.1429  plane waves:     275
 k-point 20 :   0.2857 0.2857 0.1429  plane waves:     270
 k-point 21 :   0.4286 0.2857 0.1429  plane waves:     273
 k-point 22 :  -0.2857 0.2857 0.1429  plane waves:     273
 k-point 23 :  -0.1429 0.2857 0.1429  plane waves:     275
 k-point 24 :  -0.4286 0.4286 0.1429  plane waves:     276
 k-point 25 :  -0.2857 0.4286 0.1429  plane waves:     277
 k-point 26 :  -0.1429 0.4286 0.1429  plane waves:     270
 k-point 27 :  -0.4286-0.4286 0.1429  plane waves:     272
 k-point 28 :  -0.2857-0.4286 0.1429  plane waves:     277
 k-point 29 :  -0.1429-0.4286 0.1429  plane waves:     275
 k-point 30 :  -0.2857-0.2857 0.1429  plane waves:     278
 k-point 31 :  -0.1429-0.2857 0.1429  plane waves:     269
 k-point 32 :  -0.1429-0.1429 0.1429  plane waves:     271
 k-point 33 :  -0.2857 0.2857 0.2857  plane waves:     278
 k-point 34 :  -0.4286 0.4286 0.2857  plane waves:     273
 k-point 35 :  -0.2857 0.4286 0.2857  plane waves:     279
 k-point 36 :  -0.4286-0.4286 0.2857  plane waves:     278
 k-point 37 :  -0.2857-0.4286 0.2857  plane waves:     277
 k-point 38 :  -0.2857-0.2857 0.2857  plane waves:     275
 k-point 39 :  -0.4286 0.4286 0.4286  plane waves:     280
 k-point 40 :  -0.4286-0.4286 0.4286  plane waves:     272

 maximum and minimum number of plane-waves per node :       283      263

 maximum number of plane-waves:       283
 maximum index in each direction: 
   IXMAX=    5   IYMAX=    5   IZMAX=    4
   IXMIN=   -5   IYMIN=   -5   IZMIN=   -5


 serial   3D FFT for wavefunctions
 parallel 3D FFT for charge:
    minimum data exchange during FFTs selected (reduces bandwidth)


 total amount of memory used by VASP MPI-rank0    31335. kBytes
=======================================================================

   base      :      30000. kBytes
   nonl-proj :        746. kBytes
   fftplans  :        119. kBytes
   grid      :        270. kBytes
   one-center:          6. kBytes
   wavefun   :        194. kBytes
 
     INWAV:  cpu time    0.0840: real time    0.1550
 Broyden mixing: mesh for mixing (old mesh)
   NGX =  9   NGY =  9   NGZ =  9
  (NGX  = 28   NGY  = 28   NGZ  = 28)
  gives a total of    729 points

 charge density for first step will be calculated from the start-wavefunctions


--------------------------------------------------------------------------------------------------------


 Maximum index for augmentation-charges          442 (set IRDMAX)


--------------------------------------------------------------------------------------------------------


 initial charge from wavefunction
 First call to EWALD:  gamma=   0.567
 Maximum number of real-space cells 4x 4x 3
 Maximum number of reciprocal cells 3x 3x 3

    FEWALD:  cpu time    0.0080: real time    0.0158


--------------------------------------- Iteration      1(   1)  ---------------------------------------


    POTLOK:  cpu time    0.0280: real time    0.0511
    SETDIJ:  cpu time    0.0080: real time    0.0109
     EDDAV:  cpu time    0.4600: real time    0.4649
       DOS:  cpu time    0.0000: real time    0.0055
    CHARGE:  cpu time    0.0160: real time    0.0153
    MIXING:  cpu time    0.0000: real time    0.0070
    --------------------------------------------
      LOOP:  cpu time    0.5120: real time    0.5607

 eigenvalue-minimisations  :   888
 total energy-change (2. order) :-0.1027871E+02  (-0.1972994E+00)
 number of electron       7.9999993 magnetization 
 augmentation part       -0.4744159 magnetization 

 Broyden mixing:
  rms(total) = 0.86780E-01    rms(broyden)= 0.86779E-01
  rms(prec ) = 0.26278E+00
  weight for this iteration     100.00

 Free energy of the ion-electron system (eV)
  ---------------------------------------------------
  alpha Z        PSCENC =         4.40202223
  Ewald energy   TEWEN  =      -265.18101312
  -Hartree energ DENC   =        -2.47663944
  -exchange      EXHF   =         0.00000000
  -V(xc)+E(xc)   XCENC  =       -17.57583526
  PAW double counting   =        70.77389190      -35.69438145
  entropy T*S    EENTRO =        -0.01750372
  eigenvalues    EBANDS =        29.36725149
  atomic energy  EATOM  =       206.12349923
  Solvation  Ediel_sol  =         0.00000000
  ---------------------------------------------------
  free energy    TOTEN  =       -10.27870813 eV

  energy without entropy =      -10.26120441  energy(sigma->0) =      -10.26995627


--------------------------------------------------------------------------------------------------------




--------------------------------------- Iteration      1(   2)  ---------------------------------------


    POTLOK:  cpu time    0.0200: real time    0.1224
    SETDIJ:  cpu time    0.0080: real time    0.0104
     EDDAV:  cpu time    0.3960: real time    0.4070
       DOS:  cpu time    0.0040: real time    0.0169
    CHARGE:  cpu time    0.0120: real time    0.0155
    MIXING:  cpu time    0.0000: real time    0.0040
    --------------------------------------------
      LOOP:  cpu time    0.4400: real time    0.5755

 eigenvalue-minimisations  :   800
 total energy-change (2. order) : 0.2151879E-01  (-0.4184948E-02)
 number of electron       7.9999993 magnetization 
 augmentation part       -0.4744401 magnetization 

 Broyden mixing:
  rms(total) = 0.48613E-01    rms(broyden)= 0.48613E-01
  rms(prec ) = 0.14699E+00
  weight for this iteration     100.00

 eigenvalues of (default mixing * dielectric matrix)
  average eigenvalue GAMMA=   2.2685
  2.2685

 Free energy of the ion-electron system (eV)
  ---------------------------------------------------
  alpha Z        PSCENC =         4.40202223
  Ewald energy   TEWEN  =      -265.18101312
  -Hartree energ DENC   =        -2.47335197
  -exchange      EXHF   =         0.00000000
  -V(xc)+E(xc)   XCENC  =       -17.57771998
  PAW double counting   =        70.75904993      -35.67820937
  entropy T*S    EENTRO =        -0.01694364
  eigenvalues    EBANDS =        29.38547735
  atomic energy  EATOM  =       206.12349923
  Solvation  Ediel_sol  =         0.00000000
  ---------------------------------------------------
  free energy    TOTEN  =       -10.25718934 eV

  energy without entropy =      -10.24024571  energy(sigma->0) =      -10.24871752


--------------------------------------------------------------------------------------------------------




--------------------------------------- Iteration      1(   3)  ---------------------------------------


    POTLOK:  cpu time    0.0200: real time    0.0385
    SETDIJ:  cpu time    0.0080: real time    0.0084
     EDDAV:  cpu time    0.4000: real time    0.3986
       DOS:  cpu time    0.0000: real time    0.0099
    CHARGE:  cpu time    0.0120: real time    0.0148
    MIXING:  cpu time    0.0040: real time    0.0035
    --------------------------------------------
      LOOP:  cpu time    0.4440: real time    0.4736

 eigenvalue-minimisations  :   808
 total energy-change (2. order) : 0.1056179E-01  (-0.2912601E-02)
 number of electron       7.9999993 magnetization 
 augmentation part       -0.4741349 magnetization 

 Broyden mixing:
  rms(total) = 0.41731E-02    rms(broyden)= 0.41722E-02
  rms(prec ) = 0.10436E-01
  weight for this iteration     100.00

 eigenvalues of (default mixing * dielectric matrix)
  average eigenvalue GAMMA=   1.3961
  2.2066  0.5855

 Free energy of the ion-electron system (eV)
  ---------------------------------------------------
  alpha Z        PSCENC =         4.40202223
  Ewald energy   TEWEN  =      -265.18101312
  -Hartree energ DENC   =        -2.50246789
  -exchange      EXHF   =         0.00000000
  -V(xc)+E(xc)   XCENC  =       -17.57589523
  PAW double counting   =        70.75069951      -35.66871958
  entropy T*S    EENTRO =        -0.01621247
  eigenvalues    EBANDS =        29.42145977
  atomic energy  EATOM  =       206.12349923
  Solvation  Ediel_sol  =         0.00000000
  ---------------------------------------------------
  free energy    TOTEN  =       -10.24662755 eV

  energy without entropy =      -10.23041508  energy(sigma->0) =      -10.23852131


--------------------------------------------------------------------------------------------------------




--------------------------------------- Iteration      1(   4)  ---------------------------------------


    POTLOK:  cpu time    0.0200: real time    0.0897
    SETDIJ:  cpu time    0.0080: real time    0.0083
     EDDAV:  cpu time    0.3240: real time    0.3253
       DOS:  cpu time    0.0000: real time    0.0059
    --------------------------------------------
      LOOP:  cpu time    0.3560: real time    0.4301

 eigenvalue-minimisations  :   664
 total energy-change (2. order) :-0.8027348E-04  (-0.1127567E-03)
 number of electron       7.9999993 magnetization 
 augmentation part       -0.4741349 magnetization 

 Free energy of the ion-electron system (eV)
  ---------------------------------------------------
  alpha Z        PSCENC =         4.40202223
  Ewald energy   TEWEN  =      -265.18101312
  -Hartree energ DENC   =        -2.50147585
  -exchange      EXHF   =         0.00000000
  -V(xc)+E(xc)   XCENC  =       -17.57586376
  PAW double counting   =        70.74755608      -35.66548412
  entropy T*S    EENTRO =        -0.01623563
  eigenvalues    EBANDS =        29.42028712
  atomic energy  EATOM  =       206.12349923
  Solvation  Ediel_sol  =         0.00000000
  ---------------------------------------------------
  free energy    TOTEN  =       -10.24670782 eV

  energy without entropy =      -10.23047219  energy(sigma->0) =      -10.23859000


--------------------------------------------------------------------------------------------------------




 average (electrostatic) potential at core
  the test charge radii are     0.9892
  (the norm of the test charge is              1.0000)
       1 -80.5447       2 -80.5447
 
 
 
 E-fermi :   8.9966     XC(G=0): -10.8919     alpha+bet :-15.6819


 k-point     1 :       0.0000    0.0000    0.0000
  band No.  band energies     occupation 
      1      -4.6142      2.00000
      2       6.1933      2.00000
      3       6.2988      2.00000
      4       6.2988      2.00000
      5      10.5378      0.00000
      6      16.8700      0.00000
      7      17.3702      0.00000
      8      17.3702      0.00000

 k-point     2 :       0.1429   -0.0000    0.0000
  band No.  band energies     occupation 
      1      -4.0385      2.00000
      2       5.1630      2.00000
      3       6.2343      2.00000
      4       8.3221      2.00000
      5      11.6758      0.00000
      6      14.5386      0.00000
      7      14.9222      0.00000
      8      16.6282      0.00000

 k-point     3 :       0.2857   -0.0000    0.0000
  band No.  band energies     occupation 
      1      -2.3229      2.00000
      2       5.1443      2.00000
      3       6.5346      2.00000
      4       8.9663      1.16988
      5      11.2159      0.00000
      6      12.1589      0.00000
      7      13.5200      0.00000
      8      14.4069      0.00000

 k-point     4 :       0.4286   -0.0000    0.0000
  band No.  band energies     occupation 
      1       0.4874      2.00000
      2       4.3591      2.00000
      3       6.2296      2.00000
      4       7.4614      2.00000
      5       8.4545      1.99987
      6      10.9526      0.00000
      7      13.5811      0.00000
      8      14.4928      0.00000

 k-point     5 :       0.1429    0.1429    0.0000
  band No.  band energies     occupation 
      1      -2.5628      2.00000
      2       5.4336      2.00000
      3       7.9386      2.00000
      4       9.0766      0.57163
      5      10.6811      0.00000
      6      11.1504      0.00000
      7      13.6142      0.00000
      8      14.4153      0.00000

 k-point     6 :       0.2857    0.1429    0.0000
  band No.  band energies     occupation 
      1       0.0201      2.00000
      2       5.4515      2.00000
      3       6.3246      2.00000
      4       6.8896      2.00000
      5       9.4253      0.00244
      6      11.5497      0.00000
      7      12.3669      0.00000
      8      13.6682      0.00000

 k-point     7 :       0.4286    0.1429    0.0000
  band No.  band energies     occupation 
      1       1.4095      2.00000
      2       3.6530      2.00000
      3       4.6490      2.00000
      4       7.5328      2.00000
      5       8.8439      1.71985
      6      11.5301      0.00000
      7      12.6470      0.00000
      8      16.1243      0.00000

 k-point     8 :      -0.4286    0.1429   -0.0000
  band No.  band energies     occupation 
      1      -1.6056      2.00000
      2       3.2212      2.00000
      3       6.7183      2.00000
      4       8.2846      2.00000
      5      10.6761      0.00000
      6      12.5495      0.00000
      7      13.2808      0.00000
      8      15.2907      0.00000

 k-point     9 :      -0.2857    0.1429   -0.0000
  band No.  band energies     occupation 
      1      -3.5545      2.00000
      2       2.9623      2.00000
      3       6.3912      2.00000
      4       9.6727      0.00000
      5      12.4466      0.00000
      6      13.7581      0.00000
      7      14.3127      0.00000
      8      16.0182      0.00000

 k-point    10 :      -0.1429    0.1429   -0.0000
  band No.  band energies     occupation 
      1      -4.3715      2.00000
      2       3.7538      2.00000
      3       6.5242      2.00000
      4       7.9290      2.00000
      5      11.9847      0.00000
      6      14.3017      0.00000
      7      15.8742      0.00000
      8      19.4392      0.00000

 k-point    11 :       0.2857    0.2857    0.0000
  band No.  band energies     occupation 
      1       2.6467      2.00000
      2       2.8166      2.00000
      3       3.6456      2.00000
      4       7.6745      2.00000
      5       9.3284      0.01896
      6      10.4778      0.00000
      7      14.6178      0.00000
      8      15.2989      0.00000

 k-point    12 :       0.4286    0.2857    0.0000
  band No.  band energies     occupation 
      1      -0.4211      2.00000
      2       1.2092      2.00000
      3       7.5893      2.00000
      4       8.0097      2.00000
      5       9.2753      0.04881
      6      11.7972      0.00000
      7      14.3872      0.00000
      8      15.9372      0.00000

 k-point    13 :      -0.4286    0.2857   -0.0000
  band No.  band energies     occupation 
      1      -2.5917      2.00000
      2       0.7107      2.00000
      3       7.2696      2.00000
      4      10.3340      0.00000
      5      10.7654      0.00000
      6      13.1677      0.00000
      7      14.7636      0.00000
      8      15.1865      0.00000

 k-point    14 :      -0.2857    0.2857   -0.0000
  band No.  band energies     occupation 
      1      -3.6447      2.00000
      2       1.3129      2.00000
      3       7.1996      2.00000
      4       8.9883      1.04696
      5      11.8916      0.00000
      6      13.7549      0.00000
      7      15.2286      0.00000
      8      19.0388      0.00000

 k-point    15 :       0.4286    0.4286    0.0000
  band No.  band energies     occupation 
      1      -1.1623      2.00000
      2      -1.1607      2.00000
      3       8.5836      1.99651
      4       8.6267      1.99109
      5      11.7155      0.00000
      6      12.2930      0.00000
      7      14.1542      0.00000
      8      15.0389      0.00000

 k-point    16 :      -0.4286    0.4286    0.0000
  band No.  band energies     occupation 
      1      -2.4420      2.00000
      2      -0.7785      2.00000
      3       8.3238      2.00000
      4       9.8919      0.00000
      5      10.2303      0.00000
      6      11.8257      0.00000
      7      18.8039      0.00000
      8      18.8617      0.00000

 k-point    17 :       0.1429    0.1429    0.1429
  band No.  band energies     occupation 
      1      -1.8431      2.00000
      2       3.0522      2.00000
      3       8.3591      1.99999
      4       9.1978      0.15488
      5      10.2766      0.00000
      6      11.1772      0.00000
      7      14.0822      0.00000
      8      14.8129      0.00000

 k-point    18 :       0.2857    0.1429    0.1429
  band No.  band energies     occupation 
      1       0.9580      2.00000
      2       4.1106      2.00000
      3       4.9114      2.00000
      4       6.3476      2.00000
      5      10.6107      0.00000
      6      13.1731      0.00000
      7      13.8873      0.00000
      8      14.2379      0.00000

 k-point    19 :      -0.1429    0.1429    0.1429
  band No.  band energies     occupation 
      1      -4.1291      2.00000
      2       3.4517      2.00000
      3       4.9260      2.00000
      4       9.8318      0.00000
      5      12.2190      0.00000
      6      12.8438      0.00000
      7      17.7696      0.00000
      8      17.9837      0.00000

 k-point    20 :       0.2857    0.2857    0.1429
  band No.  band energies     occupation 
      1       2.3277      2.00000
      2       2.3582      2.00000
      3       4.6589      2.00000
      4       6.1509      2.00000
      5      11.6817      0.00000
      6      12.4933      0.00000
      7      14.4632      0.00000
      8      15.4572      0.00000

 k-point    21 :       0.4286    0.2857    0.1429
  band No.  band energies     occupation 
      1      -0.6527      2.00000
      2       0.9910      2.00000
      3       8.6948      1.96715
      4       8.9135      1.44335
      5      10.6675      0.00000
      6      11.6892      0.00000
      7      12.5546      0.00000
      8      13.6022      0.00000

 k-point    22 :      -0.2857    0.2857    0.1429
  band No.  band energies     occupation 
      1      -3.4049      2.00000
      2       1.4839      2.00000
      3       5.1221      2.00000
      4       9.8231      0.00000
      5      11.3353      0.00000
      6      15.6294      0.00000
      7      15.9757      0.00000
      8      18.6153      0.00000

 k-point    23 :      -0.1429    0.2857    0.1429
  band No.  band energies     occupation 
      1      -3.0739      2.00000
      2       2.8199      2.00000
      3       4.4466      2.00000
      4      10.0862      0.00000
      5      11.7009      0.00000
      6      13.7424      0.00000
      7      15.2477      0.00000
      8      16.9409      0.00000

 k-point    24 :      -0.4286    0.4286    0.1429
  band No.  band energies     occupation 
      1      -2.2080      2.00000
      2      -0.5584      2.00000
      3       6.2160      2.00000
      4       7.8006      2.00000
      5      12.6278      0.00000
      6      14.1650      0.00000
      7      18.0434      0.00000
      8      18.1919      0.00000

 k-point    25 :      -0.2857    0.4286    0.1429
  band No.  band energies     occupation 
      1      -2.1193      2.00000
      2       1.0987      2.00000
      3       4.7986      2.00000
      4       7.8975      2.00000
      5      11.9133      0.00000
      6      14.5137      0.00000
      7      16.7944      0.00000
      8      17.4230      0.00000

 k-point    26 :      -0.1429    0.4286    0.1429
  band No.  band energies     occupation 
      1      -0.8975      2.00000
      2       3.2864      2.00000
      3       4.9603      2.00000
      4       7.4423      2.00000
      5       8.9747      1.12344
      6      13.3983      0.00000
      7      14.9668      0.00000
      8      16.0520      0.00000

 k-point    27 :      -0.4286   -0.4286    0.1429
  band No.  band energies     occupation 
      1      -0.7112      2.00000
      2      -0.7060      2.00000
      3       6.1012      2.00000
      4       6.1063      2.00000
      5      11.8153      0.00000
      6      15.4739      0.00000
      7      16.2516      0.00000
      8      16.7605      0.00000

 k-point    28 :      -0.2857   -0.4286    0.1429
  band No.  band energies     occupation 
      1       0.2644      2.00000
      2       1.8227      2.00000
      3       5.4923      2.00000
      4       6.8175      2.00000
      5       7.2534      2.00000
      6      13.5363      0.00000
      7      16.5877      0.00000
      8      17.5726      0.00000

 k-point    29 :      -0.1429   -0.4286    0.1429
  band No.  band energies     occupation 
      1       2.2472      2.00000
      2       3.0657      2.00000
      3       4.9369      2.00000
      4       6.4420      2.00000
      5       8.5679      1.99757
      6      11.1402      0.00000
      7      12.3161      0.00000
      8      16.4790      0.00000

 k-point    30 :      -0.2857   -0.2857    0.1429
  band No.  band energies     occupation 
      1       2.6095      2.00000
      2       3.6633      2.00000
      3       3.8317      2.00000
      4       7.0998      2.00000
      5       7.2495      2.00000
      6      11.1798      0.00000
      7      13.8925      0.00000
      8      14.7631      0.00000

 k-point    31 :      -0.1429   -0.2857    0.1429
  band No.  band energies     occupation 
      1      -0.4523      2.00000
      2       6.5044      2.00000
      3       7.3559      2.00000
      4       8.2213      2.00000
      5       8.3061      2.00000
      6      10.7522      0.00000
      7      11.1742      0.00000
      8      12.4818      0.00000

 k-point    32 :      -0.1429   -0.1429    0.1429
  band No.  band energies     occupation 
      1      -2.8035      2.00000
      2       7.7662      2.00000
      3       7.7662      2.00000
      4       7.7742      2.00000
      5      11.0831      0.00000
      6      11.5144      0.00000
      7      12.3579      0.00000
      8      13.7417      0.00000

 k-point    33 :      -0.2857    0.2857    0.2857
  band No.  band energies     occupation 
      1      -2.6900      2.00000
      2       1.5442      2.00000
      3       3.2793      2.00000
      4       7.3987      2.00000
      5      13.9371      0.00000
      6      17.0458      0.00000
      7      17.2603      0.00000
      8      18.1012      0.00000

 k-point    34 :      -0.4286    0.4286    0.2857
  band No.  band energies     occupation 
      1      -1.5156      2.00000
      2       0.0608      2.00000
      3       3.8280      2.00000
      4       5.3651      2.00000
      5      15.4457      0.00000
      6      16.3861      0.00000
      7      17.9705      0.00000
      8      18.5336      0.00000

 k-point    35 :      -0.2857    0.4286    0.2857
  band No.  band energies     occupation 
      1      -1.1880      2.00000
      2       1.3850      2.00000
      3       3.1574      2.00000
      4       5.6727      2.00000
      5      11.4926      0.00000
      6      17.1895      0.00000
      7      18.4435      0.00000
      8      19.1540      0.00000

 k-point    36 :      -0.4286   -0.4286    0.2857
  band No.  band energies     occupation 
      1       0.1417      2.00000
      2       0.1511      2.00000
      3       3.9178      2.00000
      4       3.9200      2.00000
      5      11.3094      0.00000
      6      18.5883      0.00000
      7      18.7583      0.00000
      8      19.4254      0.00000

 k-point    37 :      -0.2857   -0.4286    0.2857
  band No.  band energies     occupation 
      1       1.3492      2.00000
      2       2.3387      2.00000
      3       4.0989      2.00000
      4       5.0597      2.00000
      5       6.6347      2.00000
      6      15.3833      0.00000
      7      16.7733      0.00000
      8      18.1135      0.00000

 k-point    38 :      -0.2857   -0.2857    0.2857
  band No.  band energies     occupation 
      1       2.4361      2.00000
      2       4.4161      2.00000
      3       4.5518      2.00000
      4       6.0481      2.00000
      5       6.0481      2.00000
      6      13.0195      0.00000
      7      13.6510      0.00000
      8      13.6511      0.00000

 k-point    39 :      -0.4286    0.4286    0.4286
  band No.  band energies     occupation 
      1      -0.4194      2.00000
      2       0.5772      2.00000
      3       2.3959      2.00000
      4       3.3800      2.00000
      5      16.2442      0.00000
      6      16.3851      0.00000
      7      19.6993      0.00000
      8      20.6302      0.00000

 k-point    40 :      -0.4286   -0.4286    0.4286
  band No.  band energies     occupation 
      1       0.8950      2.00000
      2       0.9095      2.00000
      3       2.7131      2.00000
      4       2.7131      2.00000
      5      11.1199      0.00000
      6      19.7417      0.00000
      7      20.7019      0.00000
      8      20.7019      0.00000


--------------------------------------------------------------------------------------------------------


 soft charge-density along one line, spin component           1
         0         1         2         3         4         5         6         7         8         9
 total charge-density along one line
 
 pseudopotential strength for first ion, spin component:           1
 18.065  -0.003   0.000  -0.000  -0.000  -0.000   0.000   0.000
 -0.003   0.005  -0.000   0.000   0.000   0.000  -0.000  -0.000
  0.000  -0.000   4.117   0.000   0.000  -0.006  -0.000  -0.000
 -0.000   0.000   0.000   4.118   0.000  -0.000  -0.006  -0.000
 -0.000   0.000   0.000   0.000   4.117  -0.000  -0.000  -0.006
 -0.000   0.000  -0.006  -0.000  -0.000   0.005   0.000   0.000
  0.000  -0.000  -0.000  -0.006  -0.000   0.000   0.005   0.000
  0.000  -0.000  -0.000  -0.000  -0.006   0.000   0.000   0.005
 total augmentation occupancy for first ion, spin component:           1
  1.621  -0.543   0.000   0.000   0.000   0.000   0.000   0.000
 -0.543   0.958   0.000   0.000   0.000   0.000   0.000  -0.000
  0.000   0.000   0.882   0.000  -0.000  -0.543   0.000   0.000
  0.000   0.000   0.000   0.880   0.000   0.000  -0.538   0.000
  0.000   0.000  -0.000   0.000   0.882   0.000   0.000  -0.543
 -0.000   0.000  -0.543   0.000   0.000   0.421  -0.000  -0.000
  0.000   0.000   0.000  -0.538   0.000   0.000   0.425  -0.000
  0.000  -0.000   0.000   0.000  -0.543  -0.000  -0.000   0.421


------------------------ aborting loop because EDIFF is reached ----------------------------------------


    CHARGE:  cpu time    0.0120: real time    0.0126
    FORLOC:  cpu time    0.0000: real time    0.0005
    FORNL :  cpu time    0.0120: real time    0.0131
    STRESS:  cpu time    0.0960: real time    0.0982
    FORCOR:  cpu time    0.0120: real time    0.0231
    FORHAR:  cpu time    0.0040: real time    0.0055
    MIXING:  cpu time    0.0000: real time    0.0010
    OFIELD:  cpu time    0.0000: real time    0.0022

  FORCE on cell =-STRESS in cart. coord.  units (eV):
  Direction    XX          YY          ZZ          XY          YZ          ZX
  --------------------------------------------------------------------------------------
  Alpha Z     4.40202     4.40202     4.40202
  Ewald     -90.96023   -90.96023   -83.26083    -0.00000     0.00000     0.00000
  Hartree     0.54982     0.54982     1.40223     0.00000     0.00000     0.00000
  E(xc)     -25.43778   -25.43778   -25.38112     0.00005     0.00001     0.00001
  Local     -11.23119   -11.23119   -17.60740    -0.00002    -0.00005    -0.00005
  n-local    77.13921    77.18480    76.61137     0.90447    -0.23838    -0.45143
  augment   -12.07528   -12.07528   -12.05077     0.00004     0.00005     0.00005
  Kinetic    60.70361    52.96124    57.56830     3.80762    -1.25472    -3.57171
  Fock        0.00000     0.00000     0.00000     0.00000     0.00000     0.00000
  -------------------------------------------------------------------------------------
  Total      -0.75820    -0.75820     1.68380    -0.00000     0.00000    -0.00000
  in kB     -39.71297   -39.71297    88.19433    -0.00000     0.00000    -0.00000
  external pressure =        2.92 kB  Pullay stress =        0.00 kB


 VOLUME and BASIS-vectors are now :
 -----------------------------------------------------------------------------
  energy-cutoff  :      250.00
  volume of cell :       30.59
      direct lattice vectors                 reciprocal lattice vectors
    -2.450000000  2.450000000  1.274000000     0.000000000  0.204081633  0.392464678
     2.450000000 -2.450000000  1.274000000     0.204081633  0.000000000  0.392464678
     2.450000000  2.450000000 -1.274000000     0.204081633  0.204081633 -0.000000000

  length of vectors
     3.691622408  3.691622408  3.691622408     0.442354876  0.442354876  0.288615013


 FORCES acting on ions
    electron-ion (+dipol)            ewald-force                    non-local-force                 convergence-correction
 -----------------------------------------------------------------------------------------------
   0.937E-05 -.937E-05 0.101E-13   0.198E-14 0.156E-15 0.342E-17   -.313E-16 0.380E-16 0.587E-18   -.157E-06 0.157E-06 -.109E-15
   -.937E-05 0.937E-05 0.279E-14   -.185E-14 0.943E-16 0.891E-15   0.287E-16 -.493E-16 -.499E-17   0.157E-06 -.157E-06 -.157E-15
 -----------------------------------------------------------------------------------------------
   -.181E-13 0.113E-13 0.129E-13   0.139E-15 0.250E-15 0.894E-15   -.260E-17 -.113E-16 -.441E-17   -.379E-16 0.469E-17 -.266E-15
 
 
 POSITION                                       TOTAL-FORCE (eV/Angst)
 -----------------------------------------------------------------------------------
      2.45000      0.00000      0.63700         0.000000     -0.000000      0.000000
      0.00000      0.00000      0.00000        -0.000000      0.000000     -0.000000
 -----------------------------------------------------------------------------------
    total drift:                               -0.000000      0.000000      0.000000


--------------------------------------------------------------------------------------------------------



  FREE ENERGIE OF THE ION-ELECTRON SYSTEM (eV)
  ---------------------------------------------------
  free  energy   TOTEN  =       -10.24670782 eV

  energy  without entropy=      -10.23047219  energy(sigma->0) =      -10.23859000
 


--------------------------------------------------------------------------------------------------------


    POTLOK:  cpu time    0.0320: real time    0.0590


--------------------------------------------------------------------------------------------------------




--------------------------------------------------------------------------------------------------------


  
 reached required accuracy - stopping structural energy minimisation
 writing wavefunctions
     LOOP+:  cpu time    2.5440: real time    3.3869
    4ORBIT:  cpu time    0.0000: real time    0.0000

 total amount of memory used by VASP MPI-rank0    31335. kBytes
=======================================================================

   base      :      30000. kBytes
   nonl-proj :        746. kBytes
   fftplans  :        119. kBytes
   grid      :        270. kBytes
   one-center:          6. kBytes
   wavefun   :        194. kBytes
 
  
  
 General timing and accounting informations for this job:
 ========================================================
  
                  Total CPU time used (sec):        6.112
                            User time (sec):        4.556
                          System time (sec):        1.556
                         Elapsed time (sec):       12.191
  
                   Maximum memory used (kb):        9096.
                   Average memory used (kb):           0.
  
                          Minor page faults:        37981
                          Major page faults:           14
                 Voluntary context switches:        24043
