<?xml version="1.0" encoding="ISO-8859-1"?>
<modeling>
 <generator>
  <i name="program" type="string">vasp </i>
  <i name="version" type="string">5.4.4.18Apr17-6-g9f103f2a35  </i>
  <i name="subversion" type="string">(build Dec 09 2018 21:25:21) complex            parallel </i>
  <i name="platform" type="string">IFC18.0.1.163_CrayMPICH7.7.0_MKL18.0.1.163 </i>
  <i name="date" type="string">2019 03 18 </i>
  <i name="time" type="string">04:37:07 </i>
 </generator>
 <incar>
  <i type="string" name="PREC">normal</i>
  <i type="int" name="IBRION">     2</i>
  <i name="EDIFF">      0.00040000</i>
  <i name="EDIFFG">     -0.01000000</i>
  <i type="int" name="NSW">    15</i>
  <i type="int" name="ISIF">     2</i>
  <i name="ENCUT">    250.00000000</i>
  <i type="int" name="NBANDS">     8</i>
  <i type="logical" name="LREAL"> F  </i>
  <i type="int" name="ISMEAR">     0</i>
  <i name="SIGMA">      0.20000000</i>
  <v type="int" name="KPOINT_BSE">    -1     0     0     0</v>
 </incar>
 <structure name="primitive_cell" >
  <crystal>
   <varray name="basis" >
    <v>      -2.45000000       2.45000000       1.27400000 </v>
    <v>       2.45000000      -2.45000000       1.27400000 </v>
    <v>       2.45000000       2.45000000      -1.27400000 </v>
   </varray>
   <i name="volume">     30.58874000 </i>
   <varray name="rec_basis" >
    <v>       0.00000000       0.20408163       0.39246468 </v>
    <v>       0.20408163       0.00000000       0.39246468 </v>
    <v>       0.20408163       0.20408163      -0.00000000 </v>
   </varray>
  </crystal>
  <varray name="positions" >
   <v>       0.25000000      -0.25000000      -0.50000000 </v>
   <v>       0.00000000       0.00000000       0.00000000 </v>
  </varray>
 </structure>
 <varray name="primitive_index" >
  <v type="int" >        1 </v>
  <v type="int" >        2 </v>
 </varray>
 <kpoints>
  <generation param="Monkhorst-Pack">
   <v type="int" name="divisions">       7        7        7 </v>
   <v name="usershift">      0.00000000       0.00000000       0.00000000 </v>
   <v name="genvec1">      0.14285714       0.00000000      -0.00000000 </v>
   <v name="genvec2">      0.00000000       0.14285714      -0.00000000 </v>
   <v name="genvec3">      0.00000000      -0.00000000       0.14285714 </v>
   <v name="shift">      0.00000000       0.00000000       0.00000000 </v>
  </generation>
  <varray name="kpointlist" >
   <v>       0.00000000       0.00000000       0.00000000 </v>
   <v>       0.14285714      -0.00000000       0.00000000 </v>
   <v>       0.28571429      -0.00000000       0.00000000 </v>
   <v>       0.42857143      -0.00000000       0.00000000 </v>
   <v>       0.14285714       0.14285714       0.00000000 </v>
   <v>       0.28571429       0.14285714       0.00000000 </v>
   <v>       0.42857143       0.14285714       0.00000000 </v>
   <v>      -0.42857143       0.14285714      -0.00000000 </v>
   <v>      -0.28571429       0.14285714      -0.00000000 </v>
   <v>      -0.14285714       0.14285714      -0.00000000 </v>
   <v>       0.28571429       0.28571429       0.00000000 </v>
   <v>       0.42857143       0.28571429       0.00000000 </v>
   <v>      -0.42857143       0.28571429      -0.00000000 </v>
   <v>      -0.28571429       0.28571429      -0.00000000 </v>
   <v>       0.42857143       0.42857143       0.00000000 </v>
   <v>      -0.42857143       0.42857143       0.00000000 </v>
   <v>       0.14285714       0.14285714       0.14285714 </v>
   <v>       0.28571429       0.14285714       0.14285714 </v>
   <v>      -0.14285714       0.14285714       0.14285714 </v>
   <v>       0.28571429       0.28571429       0.14285714 </v>
   <v>       0.42857143       0.28571429       0.14285714 </v>
   <v>      -0.28571429       0.28571429       0.14285714 </v>
   <v>      -0.14285714       0.28571429       0.14285714 </v>
   <v>      -0.42857143       0.42857143       0.14285714 </v>
   <v>      -0.28571429       0.42857143       0.14285714 </v>
   <v>      -0.14285714       0.42857143       0.14285714 </v>
   <v>      -0.42857143      -0.42857143       0.14285714 </v>
   <v>      -0.28571429      -0.42857143       0.14285714 </v>
   <v>      -0.14285714      -0.42857143       0.14285714 </v>
   <v>      -0.28571429      -0.28571429       0.14285714 </v>
   <v>      -0.14285714      -0.28571429       0.14285714 </v>
   <v>      -0.14285714      -0.14285714       0.14285714 </v>
   <v>      -0.28571429       0.28571429       0.28571429 </v>
   <v>      -0.42857143       0.42857143       0.28571429 </v>
   <v>      -0.28571429       0.42857143       0.28571429 </v>
   <v>      -0.42857143      -0.42857143       0.28571429 </v>
   <v>      -0.28571429      -0.42857143       0.28571429 </v>
   <v>      -0.28571429      -0.28571429       0.28571429 </v>
   <v>      -0.42857143       0.42857143       0.42857143 </v>
   <v>      -0.42857143      -0.42857143       0.42857143 </v>
  </varray>
  <varray name="weights" >
   <v>       0.00291545 </v>
   <v>       0.02332362 </v>
   <v>       0.02332362 </v>
   <v>       0.02332362 </v>
   <v>       0.02332362 </v>
   <v>       0.04664723 </v>
   <v>       0.04664723 </v>
   <v>       0.04664723 </v>
   <v>       0.04664723 </v>
   <v>       0.01166181 </v>
   <v>       0.02332362 </v>
   <v>       0.04664723 </v>
   <v>       0.04664723 </v>
   <v>       0.01166181 </v>
   <v>       0.02332362 </v>
   <v>       0.01166181 </v>
   <v>       0.02332362 </v>
   <v>       0.04664723 </v>
   <v>       0.01166181 </v>
   <v>       0.02332362 </v>
   <v>       0.02332362 </v>
   <v>       0.02332362 </v>
   <v>       0.02332362 </v>
   <v>       0.02332362 </v>
   <v>       0.04664723 </v>
   <v>       0.02332362 </v>
   <v>       0.02332362 </v>
   <v>       0.04664723 </v>
   <v>       0.02332362 </v>
   <v>       0.02332362 </v>
   <v>       0.02332362 </v>
   <v>       0.00583090 </v>
   <v>       0.01166181 </v>
   <v>       0.02332362 </v>
   <v>       0.02332362 </v>
   <v>       0.02332362 </v>
   <v>       0.02332362 </v>
   <v>       0.00583090 </v>
   <v>       0.01166181 </v>
   <v>       0.00583090 </v>
  </varray>
 </kpoints>
 <parameters>
  <separator name="general" >
   <i type="string" name="SYSTEM">unknown system</i>
   <i type="logical" name="LCOMPAT"> F  </i>
  </separator>
  <separator name="electronic" >
   <i type="string" name="PREC">normal</i>
   <i name="ENMAX">    250.00000000</i>
   <i name="ENAUG">    322.06900000</i>
   <i name="EDIFF">      0.00040000</i>
   <i type="int" name="IALGO">    38</i>
   <i type="int" name="IWAVPR">    11</i>
   <i type="int" name="NBANDS">     8</i>
   <i name="NELECT">      8.00000000</i>
   <i type="int" name="TURBO">     0</i>
   <i type="int" name="IRESTART">     0</i>
   <i type="int" name="NREBOOT">     0</i>
   <i type="int" name="NMIN">     0</i>
   <i name="EREF">      0.00000000</i>
   <separator name="electronic smearing" >
    <i type="int" name="ISMEAR">     0</i>
    <i name="SIGMA">      0.20000000</i>
    <i name="KSPACING">      0.50000000</i>
    <i type="logical" name="KGAMMA"> T  </i>
   </separator>
   <separator name="electronic projectors" >
    <i type="logical" name="LREAL"> F  </i>
    <v name="ROPT">      0.00000000</v>
    <i type="int" name="LMAXPAW">  -100</i>
    <i type="int" name="LMAXMIX">     2</i>
    <i type="logical" name="NLSPLINE"> F  </i>
   </separator>
   <separator name="electronic startup" >
    <i type="int" name="ISTART">     1</i>
    <i type="int" name="ICHARG">     0</i>
    <i type="int" name="INIWAV">     1</i>
   </separator>
   <separator name="electronic spin" >
    <i type="int" name="ISPIN">     1</i>
    <i type="logical" name="LNONCOLLINEAR"> F  </i>
    <v name="MAGMOM">      1.00000000      1.00000000</v>
    <i name="NUPDOWN">     -1.00000000</i>
    <i type="logical" name="LSORBIT"> F  </i>
    <v name="SAXIS">      0.00000000      0.00000000      1.00000000</v>
    <i type="logical" name="LSPIRAL"> F  </i>
    <v name="QSPIRAL">      0.00000000      0.00000000      0.00000000</v>
    <i type="logical" name="LZEROZ"> F  </i>
   </separator>
   <separator name="electronic exchange-correlation" >
    <i type="logical" name="LASPH"> F  </i>
    <i type="logical" name="LMETAGGA"> F  </i>
   </separator>
   <separator name="electronic convergence" >
    <i type="int" name="NELM">    60</i>
    <i type="int" name="NELMDL">     0</i>
    <i type="int" name="NELMIN">     2</i>
    <i name="ENINI">    250.00000000</i>
    <separator name="electronic convergence detail" >
     <i type="logical" name="LDIAG"> T  </i>
     <i type="logical" name="LSUBROT"> F  </i>
     <i name="WEIMIN">      0.00100000</i>
     <i name="EBREAK">      0.00001250</i>
     <i name="DEPER">      0.30000000</i>
     <i type="int" name="NRMM">     4</i>
     <i name="TIME">      0.40000000</i>
    </separator>
   </separator>
   <separator name="electronic mixer" >
    <i name="AMIX">      0.40000000</i>
    <i name="BMIX">      1.00000000</i>
    <i name="AMIN">      0.10000000</i>
    <i name="AMIX_MAG">      1.60000000</i>
    <i name="BMIX_MAG">      1.00000000</i>
    <separator name="electronic mixer details" >
     <i type="int" name="IMIX">     4</i>
     <i type="logical" name="MIXFIRST"> F  </i>
     <i type="int" name="MAXMIX">   -45</i>
     <i name="WC">    100.00000000</i>
     <i type="int" name="INIMIX">     1</i>
     <i type="int" name="MIXPRE">     1</i>
     <i type="int" name="MREMOVE">     5</i>
    </separator>
   </separator>
   <separator name="electronic dipolcorrection" >
    <i type="logical" name="LDIPOL"> F  </i>
    <i type="logical" name="LMONO"> F  </i>
    <i type="int" name="IDIPOL">     0</i>
    <i name="EPSILON">      1.00000000</i>
    <v name="DIPOL">   -100.00000000   -100.00000000   -100.00000000</v>
    <i name="EFIELD">      0.00000000</i>
   </separator>
  </separator>
  <separator name="grids" >
   <i type="int" name="NGX">    14</i>
   <i type="int" name="NGY">    14</i>
   <i type="int" name="NGZ">    14</i>
   <i type="int" name="NGXF">    28</i>
   <i type="int" name="NGYF">    28</i>
   <i type="int" name="NGZF">    28</i>
   <i type="logical" name="ADDGRID"> F  </i>
  </separator>
  <separator name="ionic" >
   <i type="int" name="NSW">    15</i>
   <i type="int" name="IBRION">     2</i>
   <i type="int" name="MDALGO">     0</i>
   <i type="int" name="ISIF">     2</i>
   <i name="PSTRESS">      0.00000000</i>
   <i name="EDIFFG">     -0.01000000</i>
   <i type="int" name="NFREE">     1</i>
   <i name="POTIM">      0.50000000</i>
   <i name="SMASS">     -3.00000000</i>
   <i name="SCALEE">      1.00000000</i>
  </separator>
  <separator name="ionic md" >
   <i name="TEBEG">      0.00010000</i>
   <i name="TEEND">      0.00010000</i>
   <i type="int" name="NBLOCK">     1</i>
   <i type="int" name="KBLOCK">    15</i>
   <i type="int" name="NPACO">   256</i>
   <i name="APACO">     16.00000000</i>
  </separator>
  <separator name="symmetry" >
   <i type="int" name="ISYM">     2</i>
   <i name="SYMPREC">      0.00001000</i>
  </separator>
  <separator name="dos" >
   <i type="int" name="LORBIT">     0</i>
   <v name="RWIGS">     -1.00000000</v>
   <i type="int" name="NEDOS">   301</i>
   <i name="EMIN">     10.00000000</i>
   <i name="EMAX">    -10.00000000</i>
   <i name="EFERMI">      0.00000000</i>
  </separator>
  <separator name="writing" >
   <i type="int" name="NWRITE">     2</i>
   <i type="logical" name="LWAVE"> T  </i>
   <i type="logical" name="LDOWNSAMPLE"> F  </i>
   <i type="logical" name="LCHARG"> T  </i>
   <i type="logical" name="LPARD"> F  </i>
   <i type="logical" name="LVTOT"> F  </i>
   <i type="logical" name="LVHAR"> F  </i>
   <i type="logical" name="LELF"> F  </i>
   <i type="logical" name="LOPTICS"> F  </i>
   <v name="STM">      0.00000000      0.00000000      0.00000000      0.00000000      0.00000000      0.00000000      0.00000000</v>
  </separator>
  <separator name="performance" >
   <i type="int" name="NPAR">     8</i>
   <i type="int" name="NSIM">     4</i>
   <i type="int" name="NBLK">    -1</i>
   <i type="logical" name="LPLANE"> T  </i>
   <i type="logical" name="LSCALAPACK"> T  </i>
   <i type="logical" name="LSCAAWARE"> F  </i>
   <i type="logical" name="LSCALU"> F  </i>
   <i type="logical" name="LASYNC"> F  </i>
   <i type="logical" name="LORBITALREAL"> F  </i>
  </separator>
  <separator name="miscellaneous" >
   <i type="int" name="IDIOT">     3</i>
   <i type="int" name="ISPECIAL">     0</i>
   <i type="logical" name="LMUSIC"> F  </i>
   <v name="POMASS">     28.08500000</v>
   <v name="DARWINR">      0.00000000</v>
   <v name="DARWINV">      1.00000000</v>
   <i type="logical" name="LCORR"> T  </i>
  </separator>
  <i type="logical" name="GGA_COMPAT"> T  </i>
  <i type="logical" name="LBERRY"> F  </i>
  <i type="int" name="ICORELEVEL">     0</i>
  <i type="logical" name="LDAU"> F  </i>
  <i type="int" name="I_CONSTRAINED_M">     0</i>
  <separator name="electronic exchange-correlation" >
   <i type="string" name="GGA">--</i>
   <i type="int" name="VOSKOWN">     0</i>
   <i type="logical" name="LHFCALC"> F  </i>
   <i type="string" name="PRECFOCK"></i>
   <i type="logical" name="LSYMGRAD"> F  </i>
   <i type="logical" name="LHFONE"> F  </i>
   <i type="logical" name="LRHFCALC"> F  </i>
   <i type="logical" name="LTHOMAS"> F  </i>
   <i type="logical" name="LMODELHF"> F  </i>
   <i name="ENCUT4O">     -1.00000000</i>
   <i type="int" name="EXXOEP">     0</i>
   <i type="int" name="FOURORBIT">     0</i>
   <i name="AEXX">      0.00000000</i>
   <i name="HFALPHA">      0.00000000</i>
   <i name="MCALPHA">      0.00000000</i>
   <i name="ALDAX">      1.00000000</i>
   <i name="AGGAX">      1.00000000</i>
   <i name="ALDAC">      1.00000000</i>
   <i name="AGGAC">      1.00000000</i>
   <i type="int" name="NKREDX">     1</i>
   <i type="int" name="NKREDY">     1</i>
   <i type="int" name="NKREDZ">     1</i>
   <i type="logical" name="SHIFTRED"> F  </i>
   <i type="logical" name="ODDONLY"> F  </i>
   <i type="logical" name="EVENONLY"> F  </i>
   <i type="int" name="LMAXFOCK">     0</i>
   <i type="int" name="NMAXFOCKAE">     0</i>
   <i type="logical" name="LFOCKAEDFT"> F  </i>
   <i name="HFSCREEN">      0.00000000</i>
   <i name="HFSCREENC">      0.00000000</i>
   <i type="int" name="NBANDSGWLOW">     0</i>
  </separator>
  <separator name="vdW DFT" >
   <i type="logical" name="LUSE_VDW"> F  </i>
   <i name="Zab_VDW">     -0.84910000</i>
   <i name="PARAM1">      0.12340000</i>
   <i name="PARAM2">      1.00000000</i>
   <i name="PARAM3">      0.00000000</i>
  </separator>
  <separator name="model GW" >
   <i type="int" name="MODEL_GW">     0</i>
   <i name="MODEL_EPS0">      9.17662200</i>
   <i name="MODEL_ALPHA">      1.00000000</i>
  </separator>
  <separator name="linear response parameters" >
   <i type="logical" name="LEPSILON"> F  </i>
   <i type="logical" name="LRPA"> F  </i>
   <i type="logical" name="LNABLA"> F  </i>
   <i type="logical" name="LVEL"> F  </i>
   <i type="int" name="KINTER">     0</i>
   <i name="CSHIFT">      0.10000000</i>
   <i name="OMEGAMAX">     -1.00000000</i>
   <i name="DEG_THRESHOLD">      0.00200000</i>
   <i name="RTIME">     -0.10000000</i>
   <i name="WPLASMAI">      0.00000000</i>
   <v name="DFIELD">      0.00000000      0.00000000      0.00000000</v>
   <v name="WPLASMA">      0.00000000      0.00000000      0.00000000      0.00000000      0.00000000      0.00000000      0.00000000      0.00000000      0.00000000</v>
  </separator>
  <separator name="orbital magnetization" >
   <i type="logical" name="NUCIND"> F  </i>
   <v name="MAGPOS">      0.00000000      0.00000000      0.00000000</v>
   <i type="logical" name="LNICSALL"> T  </i>
   <i type="logical" name="ORBITALMAG"> F  </i>
   <i type="logical" name="LMAGBLOCH"> F  </i>
   <i type="logical" name="LCHIMAG"> F  </i>
   <i type="logical" name="LGAUGE"> T  </i>
   <i type="int" name="MAGATOM">     0</i>
   <v name="MAGDIPOL">      0.00000000      0.00000000      0.00000000</v>
   <v name="AVECCONST">      0.00000000      0.00000000      0.00000000</v>
  </separator>
  <separator name="response functions" >
   <i type="logical" name="LADDER"> F  </i>
   <i type="logical" name="LRPAFORCE"> F  </i>
   <i type="logical" name="LFXC"> F  </i>
   <i type="logical" name="LHARTREE"> T  </i>
   <i type="int" name="IBSE">     0</i>
   <v type="int" name="KPOINT">    -1     0     0     0</v>
   <i type="logical" name="LTCTE"> F  </i>
   <i type="logical" name="LTETE"> F  </i>
   <i type="logical" name="LTRIPLET"> F  </i>
   <i type="logical" name="LFXCEPS"> F  </i>
   <i type="logical" name="LFXHEG"> F  </i>
   <i type="int" name="NATURALO">     2</i>
   <i type="logical" name="L2ORDER"> F  </i>
   <i type="logical" name="LMP2LT"> F  </i>
   <i type="logical" name="LUSEW"> F  </i>
   <i name="ENCUTGW">     -2.00000000</i>
   <i name="ENCUTGWSOFT">     -2.00000000</i>
   <i name="ENCUTLF">     -1.00000000</i>
   <i type="int" name="LMAXMP2">    -1</i>
   <i name="SCISSOR">      0.00000000</i>
   <i type="int" name="NOMEGA">     0</i>
   <i type="int" name="NOMEGAR">     0</i>
   <i type="int" name="NBANDSGW">    -1</i>
   <i type="int" name="NBANDSO">    -1</i>
   <i type="int" name="NBANDSV">    -1</i>
   <i type="int" name="NELM">     1</i>
   <i type="int" name="NELMHF">     1</i>
   <i type="int" name="DIM">     3</i>
   <i type="int" name="ANTIRES">     0</i>
   <i name="OMEGAMAX">    -30.00000000</i>
   <i name="OMEGAMIN">    -30.00000000</i>
   <i name="OMEGATL">   -200.00000000</i>
   <i type="int" name="OMEGAGRID">   140</i>
   <i name="CSHIFT">     -0.10000000</i>
   <i type="logical" name="SELFENERGY"> F  </i>
   <i type="logical" name="LSPECTRAL"> F  </i>
   <i type="logical" name="LSPECTRALGW"> F  </i>
   <i type="logical" name="LSINGLES"> F  </i>
   <i type="logical" name="LFERMIGW"> F  </i>
   <i type="logical" name="ODDONLYGW"> F  </i>
   <i type="logical" name="EVENONLYGW"> F  </i>
   <i type="int" name="NKREDLFX">     1</i>
   <i type="int" name="NKREDLFY">     1</i>
   <i type="int" name="NKREDLFZ">     1</i>
   <i type="int" name="MAXMEM">  2800</i>
   <i type="int" name="TELESCOPE">     0</i>
   <i type="int" name="TAUPAR">     1</i>
   <i type="int" name="OMEGAPAR">    -1</i>
   <i name="LAMBDA">      1.00000000</i>
  </separator>
  <separator name="External order field" >
   <i name="OFIELD_KAPPA">      0.00000000</i>
   <v name="OFIELD_K">      0.00000000      0.00000000      0.00000000</v>
   <i name="OFIELD_Q6_NEAR">      0.00000000</i>
   <i name="OFIELD_Q6_FAR">      0.00000000</i>
   <i name="OFIELD_A">      0.00000000</i>
  </separator>
 </parameters>
 <atominfo>
  <atoms>       2 </atoms>
  <types>       1 </types>
  <array name="atoms" >
   <dimension dim="1">ion</dimension>
   <field type="string">element</field>
   <field type="int">atomtype</field>
   <set>
    <rc><c>Si</c><c>   1</c></rc>
    <rc><c>Si</c><c>   1</c></rc>
   </set>
  </array>
  <array name="atomtypes" >
   <dimension dim="1">type</dimension>
   <field type="int">atomspertype</field>
   <field type="string">element</field>
   <field>mass</field>
   <field>valence</field>
   <field type="string">pseudopotential</field>
   <set>
    <rc><c>   2</c><c>Si</c><c>     28.08500000</c><c>      4.00000000</c><c> PAW_PBE Si 05Jan2001                   </c></rc>
   </set>
  </array>
 </atominfo>
 <structure name="initialpos" >
  <crystal>
   <varray name="basis" >
    <v>      -2.45000000       2.45000000       1.27400000 </v>
    <v>       2.45000000      -2.45000000       1.27400000 </v>
    <v>       2.45000000       2.45000000      -1.27400000 </v>
   </varray>
   <i name="volume">     30.58874000 </i>
   <varray name="rec_basis" >
    <v>       0.00000000       0.20408163       0.39246468 </v>
    <v>       0.20408163       0.00000000       0.39246468 </v>
    <v>       0.20408163       0.20408163      -0.00000000 </v>
   </varray>
  </crystal>
  <varray name="positions" >
   <v>       0.25000000       0.75000000       0.50000000 </v>
   <v>       0.00000000       0.00000000       0.00000000 </v>
  </varray>
 </structure>
 <calculation>
  <scstep>
   <time name="dav">    0.46    0.46</time>
   <time name="total">    0.51    0.56</time>
   <energy>
    <i name="alphaZ">      4.40202223 </i>
    <i name="ewald">   -265.18101312 </i>
    <i name="hartreedc">     -2.47663944 </i>
    <i name="XCdc">    -17.57583526 </i>
    <i name="pawpsdc">     70.77389190 </i>
    <i name="pawaedc">    -35.69438145 </i>
    <i name="eentropy">     -0.01750372 </i>
    <i name="bandstr">     29.36725149 </i>
    <i name="atom">    206.12349923 </i>
    <i name="e_fr_energy">    -10.27870813 </i>
    <i name="e_wo_entrp">    -10.26120441 </i>
    <i name="e_0_energy">    -10.26995627 </i>
   </energy>
  </scstep>
  <scstep>
   <time name="dav">    0.40    0.41</time>
   <time name="total">    0.44    0.58</time>
   <energy>
    <i name="e_fr_energy">    -10.25718934 </i>
    <i name="e_wo_entrp">    -10.24024571 </i>
    <i name="e_0_energy">    -10.24871752 </i>
   </energy>
  </scstep>
  <scstep>
   <time name="dav">    0.40    0.40</time>
   <time name="total">    0.44    0.47</time>
   <energy>
    <i name="e_fr_energy">    -10.24662755 </i>
    <i name="e_wo_entrp">    -10.23041508 </i>
    <i name="e_0_energy">    -10.23852131 </i>
   </energy>
  </scstep>
  <scstep>
   <time name="dav">    0.32    0.33</time>
   <time name="total">    0.36    0.43</time>
   <energy>
    <i name="alphaZ">      4.40202223 </i>
    <i name="ewald">   -265.18101312 </i>
    <i name="hartreedc">     -2.50147585 </i>
    <i name="XCdc">    -17.57586376 </i>
    <i name="pawpsdc">     70.74755608 </i>
    <i name="pawaedc">    -35.66548412 </i>
    <i name="eentropy">     -0.01623563 </i>
    <i name="bandstr">     29.42028712 </i>
    <i name="atom">    206.12349923 </i>
    <i name="e_fr_energy">    -10.24670782 </i>
    <i name="e_wo_entrp">    -10.23047219 </i>
    <i name="e_0_energy">    -10.23859000 </i>
   </energy>
  </scstep>
  <structure>
   <crystal>
    <varray name="basis" >
     <v>      -2.45000000       2.45000000       1.27400000 </v>
     <v>       2.45000000      -2.45000000       1.27400000 </v>
     <v>       2.45000000       2.45000000      -1.27400000 </v>
    </varray>
    <i name="volume">     30.58874000 </i>
    <varray name="rec_basis" >
     <v>       0.00000000       0.20408163       0.39246468 </v>
     <v>       0.20408163       0.00000000       0.39246468 </v>
     <v>       0.20408163       0.20408163      -0.00000000 </v>
    </varray>
   </crystal>
   <varray name="positions" >
    <v>       0.25000000       0.75000000       0.50000000 </v>
    <v>       0.00000000       0.00000000       0.00000000 </v>
   </varray>
  </structure>
  <varray name="forces" >
   <v>       0.00000000      -0.00000000       0.00000000 </v>
   <v>      -0.00000000       0.00000000      -0.00000000 </v>
  </varray>
  <varray name="stress" >
   <v>     -39.71297087       0.00000000      -0.00000000 </v>
   <v>      -0.00000000     -39.71297087       0.00000000 </v>
   <v>       0.00000000       0.00000000      88.19433037 </v>
  </varray>
  <energy>
   <i name="e_fr_energy">    -10.24670782 </i>
   <i name="e_wo_entrp">    -10.23859000 </i>
   <i name="e_0_energy">     -0.01623563 </i>
  </energy>
  <time name="totalsc">    2.54    3.39</time>
  <eigenvalues>
   <array>
    <dimension dim="1">band</dimension>
    <dimension dim="2">kpoint</dimension>
    <dimension dim="3">spin</dimension>
    <field>eigene</field>
    <field>occ</field>
    <set>
     <set comment="spin 1">
      <set comment="kpoint 1">
       <r>   -4.6142    1.0000 </r>
       <r>    6.1933    1.0000 </r>
       <r>    6.2988    1.0000 </r>
       <r>    6.2988    1.0000 </r>
       <r>   10.5378    0.0000 </r>
       <r>   16.8700    0.0000 </r>
       <r>   17.3702    0.0000 </r>
       <r>   17.3702    0.0000 </r>
      </set>
      <set comment="kpoint 2">
       <r>   -4.0385    1.0000 </r>
       <r>    5.1630    1.0000 </r>
       <r>    6.2343    1.0000 </r>
       <r>    8.3221    1.0000 </r>
       <r>   11.6758    0.0000 </r>
       <r>   14.5386    0.0000 </r>
       <r>   14.9222    0.0000 </r>
       <r>   16.6282    0.0000 </r>
      </set>
      <set comment="kpoint 3">
       <r>   -2.3229    1.0000 </r>
       <r>    5.1443    1.0000 </r>
       <r>    6.5346    1.0000 </r>
       <r>    8.9663    0.5849 </r>
       <r>   11.2159    0.0000 </r>
       <r>   12.1589    0.0000 </r>
       <r>   13.5200    0.0000 </r>
       <r>   14.4069    0.0000 </r>
      </set>
      <set comment="kpoint 4">
       <r>    0.4874    1.0000 </r>
       <r>    4.3591    1.0000 </r>
       <r>    6.2296    1.0000 </r>
       <r>    7.4614    1.0000 </r>
       <r>    8.4545    0.9999 </r>
       <r>   10.9526    0.0000 </r>
       <r>   13.5811    0.0000 </r>
       <r>   14.4928    0.0000 </r>
      </set>
      <set comment="kpoint 5">
       <r>   -2.5628    1.0000 </r>
       <r>    5.4336    1.0000 </r>
       <r>    7.9386    1.0000 </r>
       <r>    9.0766    0.2858 </r>
       <r>   10.6811    0.0000 </r>
       <r>   11.1504    0.0000 </r>
       <r>   13.6142    0.0000 </r>
       <r>   14.4153    0.0000 </r>
      </set>
      <set comment="kpoint 6">
       <r>    0.0201    1.0000 </r>
       <r>    5.4515    1.0000 </r>
       <r>    6.3246    1.0000 </r>
       <r>    6.8896    1.0000 </r>
       <r>    9.4253    0.0012 </r>
       <r>   11.5497    0.0000 </r>
       <r>   12.3669    0.0000 </r>
       <r>   13.6682    0.0000 </r>
      </set>
      <set comment="kpoint 7">
       <r>    1.4095    1.0000 </r>
       <r>    3.6530    1.0000 </r>
       <r>    4.6490    1.0000 </r>
       <r>    7.5328    1.0000 </r>
       <r>    8.8439    0.8599 </r>
       <r>   11.5301    0.0000 </r>
       <r>   12.6470    0.0000 </r>
       <r>   16.1243    0.0000 </r>
      </set>
      <set comment="kpoint 8">
       <r>   -1.6056    1.0000 </r>
       <r>    3.2212    1.0000 </r>
       <r>    6.7183    1.0000 </r>
       <r>    8.2846    1.0000 </r>
       <r>   10.6761    0.0000 </r>
       <r>   12.5495    0.0000 </r>
       <r>   13.2808    0.0000 </r>
       <r>   15.2907    0.0000 </r>
      </set>
      <set comment="kpoint 9">
       <r>   -3.5545    1.0000 </r>
       <r>    2.9623    1.0000 </r>
       <r>    6.3912    1.0000 </r>
       <r>    9.6727    0.0000 </r>
       <r>   12.4466    0.0000 </r>
       <r>   13.7581    0.0000 </r>
       <r>   14.3127    0.0000 </r>
       <r>   16.0182    0.0000 </r>
      </set>
      <set comment="kpoint 10">
       <r>   -4.3715    1.0000 </r>
       <r>    3.7538    1.0000 </r>
       <r>    6.5242    1.0000 </r>
       <r>    7.9290    1.0000 </r>
       <r>   11.9847    0.0000 </r>
       <r>   14.3017    0.0000 </r>
       <r>   15.8742    0.0000 </r>
       <r>   19.4392    0.0000 </r>
      </set>
      <set comment="kpoint 11">
       <r>    2.6467    1.0000 </r>
       <r>    2.8166    1.0000 </r>
       <r>    3.6456    1.0000 </r>
       <r>    7.6745    1.0000 </r>
       <r>    9.3284    0.0095 </r>
       <r>   10.4778    0.0000 </r>
       <r>   14.6178    0.0000 </r>
       <r>   15.2989    0.0000 </r>
      </set>
      <set comment="kpoint 12">
       <r>   -0.4211    1.0000 </r>
       <r>    1.2092    1.0000 </r>
       <r>    7.5893    1.0000 </r>
       <r>    8.0097    1.0000 </r>
       <r>    9.2753    0.0244 </r>
       <r>   11.7972    0.0000 </r>
       <r>   14.3872    0.0000 </r>
       <r>   15.9372    0.0000 </r>
      </set>
      <set comment="kpoint 13">
       <r>   -2.5917    1.0000 </r>
       <r>    0.7107    1.0000 </r>
       <r>    7.2696    1.0000 </r>
       <r>   10.3340    0.0000 </r>
       <r>   10.7654    0.0000 </r>
       <r>   13.1677    0.0000 </r>
       <r>   14.7636    0.0000 </r>
       <r>   15.1865    0.0000 </r>
      </set>
      <set comment="kpoint 14">
       <r>   -3.6447    1.0000 </r>
       <r>    1.3129    1.0000 </r>
       <r>    7.1996    1.0000 </r>
       <r>    8.9883    0.5235 </r>
       <r>   11.8916    0.0000 </r>
       <r>   13.7549    0.0000 </r>
       <r>   15.2286    0.0000 </r>
       <r>   19.0388    0.0000 </r>
      </set>
      <set comment="kpoint 15">
       <r>   -1.1623    1.0000 </r>
       <r>   -1.1607    1.0000 </r>
       <r>    8.5836    0.9983 </r>
       <r>    8.6267    0.9955 </r>
       <r>   11.7155    0.0000 </r>
       <r>   12.2930    0.0000 </r>
       <r>   14.1542    0.0000 </r>
       <r>   15.0389    0.0000 </r>
      </set>
      <set comment="kpoint 16">
       <r>   -2.4420    1.0000 </r>
       <r>   -0.7785    1.0000 </r>
       <r>    8.3238    1.0000 </r>
       <r>    9.8919    0.0000 </r>
       <r>   10.2303    0.0000 </r>
       <r>   11.8257    0.0000 </r>
       <r>   18.8039    0.0000 </r>
       <r>   18.8617    0.0000 </r>
      </set>
      <set comment="kpoint 17">
       <r>   -1.8431    1.0000 </r>
       <r>    3.0522    1.0000 </r>
       <r>    8.3591    1.0000 </r>
       <r>    9.1978    0.0774 </r>
       <r>   10.2766    0.0000 </r>
       <r>   11.1772    0.0000 </r>
       <r>   14.0822    0.0000 </r>
       <r>   14.8129    0.0000 </r>
      </set>
      <set comment="kpoint 18">
       <r>    0.9580    1.0000 </r>
       <r>    4.1106    1.0000 </r>
       <r>    4.9114    1.0000 </r>
       <r>    6.3476    1.0000 </r>
       <r>   10.6107    0.0000 </r>
       <r>   13.1731    0.0000 </r>
       <r>   13.8873    0.0000 </r>
       <r>   14.2379    0.0000 </r>
      </set>
      <set comment="kpoint 19">
       <r>   -4.1291    1.0000 </r>
       <r>    3.4517    1.0000 </r>
       <r>    4.9260    1.0000 </r>
       <r>    9.8318    0.0000 </r>
       <r>   12.2190    0.0000 </r>
       <r>   12.8438    0.0000 </r>
       <r>   17.7696    0.0000 </r>
       <r>   17.9837    0.0000 </r>
      </set>
      <set comment="kpoint 20">
       <r>    2.3277    1.0000 </r>
       <r>    2.3582    1.0000 </r>
       <r>    4.6589    1.0000 </r>
       <r>    6.1509    1.0000 </r>
       <r>   11.6817    0.0000 </r>
       <r>   12.4933    0.0000 </r>
       <r>   14.4632    0.0000 </r>
       <r>   15.4572    0.0000 </r>
      </set>
      <set comment="kpoint 21">
       <r>   -0.6527    1.0000 </r>
       <r>    0.9910    1.0000 </r>
       <r>    8.6948    0.9836 </r>
       <r>    8.9135    0.7217 </r>
       <r>   10.6675    0.0000 </r>
       <r>   11.6892    0.0000 </r>
       <r>   12.5546    0.0000 </r>
       <r>   13.6022    0.0000 </r>
      </set>
      <set comment="kpoint 22">
       <r>   -3.4049    1.0000 </r>
       <r>    1.4839    1.0000 </r>
       <r>    5.1221    1.0000 </r>
       <r>    9.8231    0.0000 </r>
       <r>   11.3353    0.0000 </r>
       <r>   15.6294    0.0000 </r>
       <r>   15.9757    0.0000 </r>
       <r>   18.6153    0.0000 </r>
      </set>
      <set comment="kpoint 23">
       <r>   -3.0739    1.0000 </r>
       <r>    2.8199    1.0000 </r>
       <r>    4.4466    1.0000 </r>
       <r>   10.0862    0.0000 </r>
       <r>   11.7009    0.0000 </r>
       <r>   13.7424    0.0000 </r>
       <r>   15.2477    0.0000 </r>
       <r>   16.9409    0.0000 </r>
      </set>
      <set comment="kpoint 24">
       <r>   -2.2080    1.0000 </r>
       <r>   -0.5584    1.0000 </r>
       <r>    6.2160    1.0000 </r>
       <r>    7.8006    1.0000 </r>
       <r>   12.6278    0.0000 </r>
       <r>   14.1650    0.0000 </r>
       <r>   18.0434    0.0000 </r>
       <r>   18.1919    0.0000 </r>
      </set>
      <set comment="kpoint 25">
       <r>   -2.1193    1.0000 </r>
       <r>    1.0987    1.0000 </r>
       <r>    4.7986    1.0000 </r>
       <r>    7.8975    1.0000 </r>
       <r>   11.9133    0.0000 </r>
       <r>   14.5137    0.0000 </r>
       <r>   16.7944    0.0000 </r>
       <r>   17.4230    0.0000 </r>
      </set>
      <set comment="kpoint 26">
       <r>   -0.8975    1.0000 </r>
       <r>    3.2864    1.0000 </r>
       <r>    4.9603    1.0000 </r>
       <r>    7.4423    1.0000 </r>
       <r>    8.9747    0.5617 </r>
       <r>   13.3983    0.0000 </r>
       <r>   14.9668    0.0000 </r>
       <r>   16.0520    0.0000 </r>
      </set>
      <set comment="kpoint 27">
       <r>   -0.7112    1.0000 </r>
       <r>   -0.7060    1.0000 </r>
       <r>    6.1012    1.0000 </r>
       <r>    6.1063    1.0000 </r>
       <r>   11.8153    0.0000 </r>
       <r>   15.4739    0.0000 </r>
       <r>   16.2516    0.0000 </r>
       <r>   16.7605    0.0000 </r>
      </set>
      <set comment="kpoint 28">
       <r>    0.2644    1.0000 </r>
       <r>    1.8227    1.0000 </r>
       <r>    5.4923    1.0000 </r>
       <r>    6.8175    1.0000 </r>
       <r>    7.2534    1.0000 </r>
       <r>   13.5363    0.0000 </r>
       <r>   16.5877    0.0000 </r>
       <r>   17.5726    0.0000 </r>
      </set>
      <set comment="kpoint 29">
       <r>    2.2472    1.0000 </r>
       <r>    3.0657    1.0000 </r>
       <r>    4.9369    1.0000 </r>
       <r>    6.4420    1.0000 </r>
       <r>    8.5679    0.9988 </r>
       <r>   11.1402    0.0000 </r>
       <r>   12.3161    0.0000 </r>
       <r>   16.4790    0.0000 </r>
      </set>
      <set comment="kpoint 30">
       <r>    2.6095    1.0000 </r>
       <r>    3.6633    1.0000 </r>
       <r>    3.8317    1.0000 </r>
       <r>    7.0998    1.0000 </r>
       <r>    7.2495    1.0000 </r>
       <r>   11.1798    0.0000 </r>
       <r>   13.8925    0.0000 </r>
       <r>   14.7631    0.0000 </r>
      </set>
      <set comment="kpoint 31">
       <r>   -0.4523    1.0000 </r>
       <r>    6.5044    1.0000 </r>
       <r>    7.3559    1.0000 </r>
       <r>    8.2213    1.0000 </r>
       <r>    8.3061    1.0000 </r>
       <r>   10.7522    0.0000 </r>
       <r>   11.1742    0.0000 </r>
       <r>   12.4818    0.0000 </r>
      </set>
      <set comment="kpoint 32">
       <r>   -2.8035    1.0000 </r>
       <r>    7.7662    1.0000 </r>
       <r>    7.7662    1.0000 </r>
       <r>    7.7742    1.0000 </r>
       <r>   11.0831    0.0000 </r>
       <r>   11.5144    0.0000 </r>
       <r>   12.3579    0.0000 </r>
       <r>   13.7417    0.0000 </r>
      </set>
      <set comment="kpoint 33">
       <r>   -2.6900    1.0000 </r>
       <r>    1.5442    1.0000 </r>
       <r>    3.2793    1.0000 </r>
       <r>    7.3987    1.0000 </r>
       <r>   13.9371    0.0000 </r>
       <r>   17.0458    0.0000 </r>
       <r>   17.2603    0.0000 </r>
       <r>   18.1012    0.0000 </r>
      </set>
      <set comment="kpoint 34">
       <r>   -1.5156    1.0000 </r>
       <r>    0.0608    1.0000 </r>
       <r>    3.8280    1.0000 </r>
       <r>    5.3651    1.0000 </r>
       <r>   15.4457    0.0000 </r>
       <r>   16.3861    0.0000 </r>
       <r>   17.9705    0.0000 </r>
       <r>   18.5336    0.0000 </r>
      </set>
      <set comment="kpoint 35">
       <r>   -1.1880    1.0000 </r>
       <r>    1.3850    1.0000 </r>
       <r>    3.1574    1.0000 </r>
       <r>    5.6727    1.0000 </r>
       <r>   11.4926    0.0000 </r>
       <r>   17.1895    0.0000 </r>
       <r>   18.4435    0.0000 </r>
       <r>   19.1540    0.0000 </r>
      </set>
      <set comment="kpoint 36">
       <r>    0.1417    1.0000 </r>
       <r>    0.1511    1.0000 </r>
       <r>    3.9178    1.0000 </r>
       <r>    3.9200    1.0000 </r>
       <r>   11.3094    0.0000 </r>
       <r>   18.5883    0.0000 </r>
       <r>   18.7583    0.0000 </r>
       <r>   19.4254    0.0000 </r>
      </set>
      <set comment="kpoint 37">
       <r>    1.3492    1.0000 </r>
       <r>    2.3387    1.0000 </r>
       <r>    4.0989    1.0000 </r>
       <r>    5.0597    1.0000 </r>
       <r>    6.6347    1.0000 </r>
       <r>   15.3833    0.0000 </r>
       <r>   16.7733    0.0000 </r>
       <r>   18.1135    0.0000 </r>
      </set>
      <set comment="kpoint 38">
       <r>    2.4361    1.0000 </r>
       <r>    4.4161    1.0000 </r>
       <r>    4.5518    1.0000 </r>
       <r>    6.0481    1.0000 </r>
       <r>    6.0481    1.0000 </r>
       <r>   13.0195    0.0000 </r>
       <r>   13.6510    0.0000 </r>
       <r>   13.6511    0.0000 </r>
      </set>
      <set comment="kpoint 39">
       <r>   -0.4194    1.0000 </r>
       <r>    0.5772    1.0000 </r>
       <r>    2.3959    1.0000 </r>
       <r>    3.3800    1.0000 </r>
       <r>   16.2442    0.0000 </r>
       <r>   16.3851    0.0000 </r>
       <r>   19.6993    0.0000 </r>
       <r>   20.6302    0.0000 </r>
      </set>
      <set comment="kpoint 40">
       <r>    0.8950    1.0000 </r>
       <r>    0.9095    1.0000 </r>
       <r>    2.7131    1.0000 </r>
       <r>    2.7131    1.0000 </r>
       <r>   11.1199    0.0000 </r>
       <r>   19.7417    0.0000 </r>
       <r>   20.7019    0.0000 </r>
       <r>   20.7019    0.0000 </r>
      </set>
     </set>
    </set>
   </array>
  </eigenvalues>
  <separator name="orbital magnetization" >
   <v name="MAGDIPOLOUT">      0.00000000      0.00000000      0.00000000</v>
  </separator>
  <dos>
   <i name="efermi">      8.99662414 </i>
   <total>
    <array>
     <dimension dim="1">gridpoints</dimension>
     <dimension dim="2">spin</dimension>
     <field>energy</field>
     <field>total</field>
     <field>integrated</field>
     <set>
      <set comment="spin 1">
       <r>    -6.6142     0.0000     0.0000 </r>
       <r>    -6.5165     0.0000     0.0000 </r>
       <r>    -6.4188     0.0000     0.0000 </r>
       <r>    -6.3211     0.0000     0.0000 </r>
       <r>    -6.2233     0.0000     0.0000 </r>
       <r>    -6.1256     0.0000     0.0000 </r>
       <r>    -6.0279     0.0000     0.0000 </r>
       <r>    -5.9302     0.0000     0.0000 </r>
       <r>    -5.8324     0.0000     0.0000 </r>
       <r>    -5.7347     0.0000     0.0000 </r>
       <r>    -5.6370     0.0000     0.0000 </r>
       <r>    -5.5393     0.0000     0.0000 </r>
       <r>    -5.4416     0.0000     0.0000 </r>
       <r>    -5.3438     0.0000     0.0000 </r>
       <r>    -5.2461     0.0000     0.0000 </r>
       <r>    -5.1484     0.0000     0.0000 </r>
       <r>    -5.0507     0.0001     0.0000 </r>
       <r>    -4.9530     0.0004     0.0000 </r>
       <r>    -4.8552     0.0022     0.0003 </r>
       <r>    -4.7575     0.0073     0.0010 </r>
       <r>    -4.6598     0.0172     0.0027 </r>
       <r>    -4.5621     0.0327     0.0059 </r>
       <r>    -4.4644     0.0549     0.0112 </r>
       <r>    -4.3666     0.0810     0.0191 </r>
       <r>    -4.2689     0.1094     0.0298 </r>
       <r>    -4.1712     0.1489     0.0444 </r>
       <r>    -4.0735     0.1884     0.0628 </r>
       <r>    -3.9758     0.1849     0.0808 </r>
       <r>    -3.8780     0.1393     0.0945 </r>
       <r>    -3.7803     0.1248     0.1067 </r>
       <r>    -3.6826     0.2002     0.1262 </r>
       <r>    -3.5849     0.3257     0.1580 </r>
       <r>    -3.4872     0.3909     0.1962 </r>
       <r>    -3.3894     0.3406     0.2295 </r>
       <r>    -3.2917     0.2331     0.2523 </r>
       <r>    -3.1940     0.1603     0.2680 </r>
       <r>    -3.0963     0.1470     0.2823 </r>
       <r>    -2.9986     0.1463     0.2966 </r>
       <r>    -2.9008     0.1376     0.3101 </r>
       <r>    -2.8031     0.1737     0.3271 </r>
       <r>    -2.7054     0.2980     0.3562 </r>
       <r>    -2.6077     0.4532     0.4005 </r>
       <r>    -2.5100     0.5204     0.4513 </r>
       <r>    -2.4122     0.4808     0.4983 </r>
       <r>    -2.3145     0.4423     0.5415 </r>
       <r>    -2.2168     0.4613     0.5866 </r>
       <r>    -2.1191     0.4679     0.6323 </r>
       <r>    -2.0214     0.3950     0.6709 </r>
       <r>    -1.9236     0.2921     0.6995 </r>
       <r>    -1.8259     0.2483     0.7237 </r>
       <r>    -1.7282     0.2856     0.7516 </r>
       <r>    -1.6305     0.3653     0.7873 </r>
       <r>    -1.5328     0.4027     0.8267 </r>
       <r>    -1.4350     0.3495     0.8608 </r>
       <r>    -1.3373     0.2956     0.8897 </r>
       <r>    -1.2396     0.3403     0.9230 </r>
       <r>    -1.1419     0.4146     0.9635 </r>
       <r>    -1.0441     0.4029     1.0029 </r>
       <r>    -0.9464     0.3544     1.0375 </r>
       <r>    -0.8487     0.3908     1.0757 </r>
       <r>    -0.7510     0.5179     1.1263 </r>
       <r>    -0.6533     0.6445     1.1893 </r>
       <r>    -0.5555     0.7085     1.2585 </r>
       <r>    -0.4578     0.7001     1.3269 </r>
       <r>    -0.3601     0.5877     1.3844 </r>
       <r>    -0.2624     0.3903     1.4225 </r>
       <r>    -0.1647     0.2603     1.4479 </r>
       <r>    -0.0669     0.3283     1.4800 </r>
       <r>     0.0308     0.5412     1.5329 </r>
       <r>     0.1285     0.7138     1.6027 </r>
       <r>     0.2262     0.7172     1.6728 </r>
       <r>     0.3239     0.5811     1.7295 </r>
       <r>     0.4217     0.4298     1.7715 </r>
       <r>     0.5194     0.3614     1.8069 </r>
       <r>     0.6171     0.3784     1.8438 </r>
       <r>     0.7148     0.4284     1.8857 </r>
       <r>     0.8125     0.4922     1.9338 </r>
       <r>     0.9103     0.5996     1.9924 </r>
       <r>     1.0080     0.7339     2.0641 </r>
       <r>     1.1057     0.8208     2.1443 </r>
       <r>     1.2034     0.8542     2.2278 </r>
       <r>     1.3011     0.8870     2.3145 </r>
       <r>     1.3989     0.8945     2.4019 </r>
       <r>     1.4966     0.7771     2.4778 </r>
       <r>     1.5943     0.5460     2.5312 </r>
       <r>     1.6920     0.3594     2.5663 </r>
       <r>     1.7897     0.3007     2.5957 </r>
       <r>     1.8875     0.2786     2.6229 </r>
       <r>     1.9852     0.2130     2.6437 </r>
       <r>     2.0829     0.1758     2.6609 </r>
       <r>     2.1806     0.2711     2.6874 </r>
       <r>     2.2783     0.4698     2.7333 </r>
       <r>     2.3761     0.6094     2.7928 </r>
       <r>     2.4738     0.5942     2.8509 </r>
       <r>     2.5715     0.5261     2.9023 </r>
       <r>     2.6692     0.5253     2.9537 </r>
       <r>     2.7669     0.5817     3.0105 </r>
       <r>     2.8647     0.6535     3.0744 </r>
       <r>     2.9624     0.7337     3.1461 </r>
       <r>     3.0601     0.8109     3.2253 </r>
       <r>     3.1578     0.8536     3.3087 </r>
       <r>     3.2555     0.8182     3.3887 </r>
       <r>     3.3533     0.6869     3.4558 </r>
       <r>     3.4510     0.5487     3.5094 </r>
       <r>     3.5487     0.5488     3.5630 </r>
       <r>     3.6464     0.6945     3.6309 </r>
       <r>     3.7442     0.8314     3.7121 </r>
       <r>     3.8419     0.8540     3.7956 </r>
       <r>     3.9396     0.7922     3.8730 </r>
       <r>     4.0373     0.7056     3.9420 </r>
       <r>     4.1350     0.6081     4.0014 </r>
       <r>     4.2328     0.4954     4.0498 </r>
       <r>     4.3305     0.4185     4.0907 </r>
       <r>     4.4282     0.4261     4.1323 </r>
       <r>     4.5259     0.5019     4.1814 </r>
       <r>     4.6236     0.6229     4.2423 </r>
       <r>     4.7214     0.7652     4.3170 </r>
       <r>     4.8191     0.9023     4.4052 </r>
       <r>     4.9168     1.0057     4.5035 </r>
       <r>     5.0145     1.0184     4.6030 </r>
       <r>     5.1122     0.9204     4.6929 </r>
       <r>     5.2100     0.7781     4.7690 </r>
       <r>     5.3077     0.7136     4.8387 </r>
       <r>     5.4054     0.7798     4.9149 </r>
       <r>     5.5031     0.8251     4.9955 </r>
       <r>     5.6008     0.6862     5.0626 </r>
       <r>     5.6986     0.4351     5.1051 </r>
       <r>     5.7963     0.2383     5.1284 </r>
       <r>     5.8940     0.1891     5.1469 </r>
       <r>     5.9917     0.3354     5.1796 </r>
       <r>     6.0894     0.6661     5.2447 </r>
       <r>     6.1872     1.0680     5.3491 </r>
       <r>     6.2849     1.3829     5.4842 </r>
       <r>     6.3826     1.4874     5.6296 </r>
       <r>     6.4803     1.3568     5.7622 </r>
       <r>     6.5780     1.1178     5.8714 </r>
       <r>     6.6758     0.9474     5.9640 </r>
       <r>     6.7735     0.8845     6.0504 </r>
       <r>     6.8712     0.8184     6.1304 </r>
       <r>     6.9689     0.6883     6.1976 </r>
       <r>     7.0666     0.6191     6.2581 </r>
       <r>     7.1644     0.7522     6.3316 </r>
       <r>     7.2621     1.0036     6.4297 </r>
       <r>     7.3598     1.1625     6.5433 </r>
       <r>     7.4575     1.1725     6.6579 </r>
       <r>     7.5552     1.1036     6.7657 </r>
       <r>     7.6530     0.9919     6.8627 </r>
       <r>     7.7507     0.8958     6.9502 </r>
       <r>     7.8484     0.8871     7.0369 </r>
       <r>     7.9461     0.9051     7.1254 </r>
       <r>     8.0438     0.8432     7.2077 </r>
       <r>     8.1416     0.7766     7.2836 </r>
       <r>     8.2393     0.8496     7.3667 </r>
       <r>     8.3370     0.9738     7.4618 </r>
       <r>     8.4347     0.9640     7.5560 </r>
       <r>     8.5325     0.8526     7.6393 </r>
       <r>     8.6302     0.7652     7.7141 </r>
       <r>     8.7279     0.7306     7.7855 </r>
       <r>     8.8256     0.7563     7.8594 </r>
       <r>     8.9233     0.8176     7.9393 </r>
       <r>     9.0211     0.8219     8.0196 </r>
       <r>     9.1188     0.7599     8.0939 </r>
       <r>     9.2165     0.7296     8.1652 </r>
       <r>     9.3142     0.7420     8.2377 </r>
       <r>     9.4119     0.6967     8.3058 </r>
       <r>     9.5097     0.5736     8.3618 </r>
       <r>     9.6074     0.4763     8.4084 </r>
       <r>     9.7051     0.4618     8.4535 </r>
       <r>     9.8028     0.4634     8.4988 </r>
       <r>     9.9005     0.4146     8.5393 </r>
       <r>     9.9983     0.3445     8.5729 </r>
       <r>    10.0960     0.3318     8.6054 </r>
       <r>    10.1937     0.4104     8.6455 </r>
       <r>    10.2914     0.5313     8.6974 </r>
       <r>    10.3891     0.6244     8.7584 </r>
       <r>    10.4869     0.7260     8.8294 </r>
       <r>    10.5846     0.9311     8.9204 </r>
       <r>    10.6823     1.1460     9.0323 </r>
       <r>    10.7800     1.1302     9.1428 </r>
       <r>    10.8777     0.8796     9.2287 </r>
       <r>    10.9755     0.6875     9.2959 </r>
       <r>    11.0732     0.7634     9.3705 </r>
       <r>    11.1709     0.9811     9.4664 </r>
       <r>    11.2686     1.0704     9.5710 </r>
       <r>    11.3663     1.0081     9.6695 </r>
       <r>    11.4641     1.0174     9.7689 </r>
       <r>    11.5618     1.1897     9.8852 </r>
       <r>    11.6595     1.3872    10.0207 </r>
       <r>    11.7572     1.4550    10.1629 </r>
       <r>    11.8549     1.3228    10.2922 </r>
       <r>    11.9527     1.0231    10.3922 </r>
       <r>    12.0504     0.7133    10.4619 </r>
       <r>    12.1481     0.5883    10.5194 </r>
       <r>    12.2458     0.7231    10.5900 </r>
       <r>    12.3435     1.0253    10.6902 </r>
       <r>    12.4413     1.3160    10.8188 </r>
       <r>    12.5390     1.4200    10.9576 </r>
       <r>    12.6367     1.2430    11.0791 </r>
       <r>    12.7344     0.8578    11.1629 </r>
       <r>    12.8321     0.4797    11.2097 </r>
       <r>    12.9299     0.2923    11.2383 </r>
       <r>    13.0276     0.3480    11.2723 </r>
       <r>    13.1253     0.5781    11.3288 </r>
       <r>    13.2230     0.7987    11.4068 </r>
       <r>    13.3208     0.8735    11.4922 </r>
       <r>    13.4185     0.9127    11.5814 </r>
       <r>    13.5162     1.0959    11.6885 </r>
       <r>    13.6139     1.3618    11.8216 </r>
       <r>    13.7116     1.4851    11.9667 </r>
       <r>    13.8094     1.3728    12.1008 </r>
       <r>    13.9071     1.1218    12.2105 </r>
       <r>    14.0048     0.8989    12.2983 </r>
       <r>    14.1025     0.8543    12.3818 </r>
       <r>    14.2002     1.0254    12.4820 </r>
       <r>    14.2980     1.3006    12.6091 </r>
       <r>    14.3957     1.5119    12.7568 </r>
       <r>    14.4934     1.5205    12.9054 </r>
       <r>    14.5911     1.3155    13.0340 </r>
       <r>    14.6888     1.0640    13.1379 </r>
       <r>    14.7866     0.9124    13.2271 </r>
       <r>    14.8843     0.8260    13.3078 </r>
       <r>    14.9820     0.7524    13.3813 </r>
       <r>    15.0797     0.7529    13.4549 </r>
       <r>    15.1774     0.8872    13.5416 </r>
       <r>    15.2752     1.0671    13.6459 </r>
       <r>    15.3729     1.1158    13.7549 </r>
       <r>    15.4706     0.9672    13.8494 </r>
       <r>    15.5683     0.7037    13.9182 </r>
       <r>    15.6660     0.4645    13.9636 </r>
       <r>    15.7638     0.3851    14.0012 </r>
       <r>    15.8615     0.5370    14.0537 </r>
       <r>    15.9592     0.8290    14.1347 </r>
       <r>    16.0569     1.0229    14.2347 </r>
       <r>    16.1546     0.9787    14.3303 </r>
       <r>    16.2524     0.7994    14.4084 </r>
       <r>    16.3501     0.6623    14.4731 </r>
       <r>    16.4478     0.6389    14.5356 </r>
       <r>    16.5455     0.7018    14.6042 </r>
       <r>    16.6432     0.7928    14.6816 </r>
       <r>    16.7410     0.8474    14.7644 </r>
       <r>    16.8387     0.7995    14.8426 </r>
       <r>    16.9364     0.6384    14.9049 </r>
       <r>    17.0341     0.4570    14.9496 </r>
       <r>    17.1318     0.3570    14.9845 </r>
       <r>    17.2296     0.3543    15.0191 </r>
       <r>    17.3273     0.4133    15.0595 </r>
       <r>    17.4250     0.4895    15.1073 </r>
       <r>    17.5227     0.5210    15.1582 </r>
       <r>    17.6204     0.4621    15.2034 </r>
       <r>    17.7182     0.3493    15.2375 </r>
       <r>    17.8159     0.2868    15.2656 </r>
       <r>    17.9136     0.3478    15.2996 </r>
       <r>    18.0113     0.4884    15.3473 </r>
       <r>    18.1091     0.5720    15.4032 </r>
       <r>    18.2068     0.5157    15.4536 </r>
       <r>    18.3045     0.3964    15.4923 </r>
       <r>    18.4022     0.3618    15.5277 </r>
       <r>    18.4999     0.4462    15.5713 </r>
       <r>    18.5977     0.5405    15.6241 </r>
       <r>    18.6954     0.5432    15.6772 </r>
       <r>    18.7931     0.4619    15.7223 </r>
       <r>    18.8908     0.3541    15.7569 </r>
       <r>    18.9885     0.2697    15.7833 </r>
       <r>    19.0863     0.2334    15.8061 </r>
       <r>    19.1840     0.2234    15.8279 </r>
       <r>    19.2817     0.2175    15.8492 </r>
       <r>    19.3794     0.2253    15.8712 </r>
       <r>    19.4771     0.2303    15.8937 </r>
       <r>    19.5749     0.2017    15.9134 </r>
       <r>    19.6726     0.1586    15.9289 </r>
       <r>    19.7703     0.1210    15.9407 </r>
       <r>    19.8680     0.0787    15.9484 </r>
       <r>    19.9657     0.0368    15.9520 </r>
       <r>    20.0635     0.0114    15.9531 </r>
       <r>    20.1612     0.0024    15.9533 </r>
       <r>    20.2589     0.0014    15.9535 </r>
       <r>    20.3566     0.0069    15.9541 </r>
       <r>    20.4543     0.0270    15.9568 </r>
       <r>    20.5521     0.0688    15.9635 </r>
       <r>    20.6498     0.1137    15.9746 </r>
       <r>    20.7475     0.1221    15.9865 </r>
       <r>    20.8452     0.0853    15.9949 </r>
       <r>    20.9429     0.0387    15.9987 </r>
       <r>    21.0407     0.0113    15.9998 </r>
       <r>    21.1384     0.0021    16.0000 </r>
       <r>    21.2361     0.0003    16.0000 </r>
       <r>    21.3338     0.0000    16.0000 </r>
       <r>    21.4315     0.0000    16.0000 </r>
       <r>    21.5293     0.0000    16.0000 </r>
       <r>    21.6270     0.0000    16.0000 </r>
       <r>    21.7247     0.0000    16.0000 </r>
       <r>    21.8224     0.0000    16.0000 </r>
       <r>    21.9201     0.0000    16.0000 </r>
       <r>    22.0179     0.0000    16.0000 </r>
       <r>    22.1156     0.0000    16.0000 </r>
       <r>    22.2133     0.0000    16.0000 </r>
       <r>    22.3110     0.0000    16.0000 </r>
       <r>    22.4087     0.0000    16.0000 </r>
       <r>    22.5065     0.0000    16.0000 </r>
       <r>    22.6042     0.0000    16.0000 </r>
       <r>    22.7019     0.0000    16.0000 </r>
      </set>
     </set>
    </array>
   </total>
  </dos>
 </calculation>
 <structure name="finalpos" >
  <crystal>
   <varray name="basis" >
    <v>      -2.45000000       2.45000000       1.27400000 </v>
    <v>       2.45000000      -2.45000000       1.27400000 </v>
    <v>       2.45000000       2.45000000      -1.27400000 </v>
   </varray>
   <i name="volume">     30.58874000 </i>
   <varray name="rec_basis" >
    <v>       0.00000000       0.20408163       0.39246468 </v>
    <v>       0.20408163       0.00000000       0.39246468 </v>
    <v>       0.20408163       0.20408163      -0.00000000 </v>
   </varray>
  </crystal>
  <varray name="positions" >
   <v>       0.25000000       0.75000000       0.50000000 </v>
   <v>       0.00000000       0.00000000       0.00000000 </v>
  </varray>
 </structure>
</modeling>
