       N       E                     dE             d eps       ncg     rms          rms(c)
DAV:   1    -0.471363720411E+01   -0.47136E+01   -0.17649E+03  1944   0.300E+02
DAV:   2    -0.108779231804E+02   -0.61643E+01   -0.58741E+01  2640   0.444E+01
DAV:   3    -0.109253618372E+02   -0.47439E-01   -0.47439E-01  2264   0.454E+00
DAV:   4    -0.109254338341E+02   -0.71997E-04   -0.71998E-04  2744   0.166E-01
DAV:   5    -0.109254338522E+02   -0.18110E-07   -0.16974E-07  2048   0.216E-03    0.296E+00
DAV:   6    -0.108015052008E+02    0.12393E+00   -0.76816E-02  2040   0.141E+00    0.175E+00
DAV:   7    -0.107435267352E+02    0.57978E-01   -0.14369E-01  2256   0.202E+00    0.146E-01
DAV:   8    -0.107447493384E+02   -0.12226E-02   -0.33303E-03  1936   0.397E-01    0.247E-02
DAV:   9    -0.107448419214E+02   -0.92583E-04   -0.86150E-05  1376   0.720E-02
   1 F= -.10744842E+02 E0= -.10744819E+02  d E =-.107448E+02
       N       E                     dE             d eps       ncg     rms          rms(c)
DAV:   1    -0.107541902846E+02   -0.94409E-02   -0.26196E-01  2256   0.279E+00    0.323E-01
DAV:   2    -0.107497163296E+02    0.44740E-02   -0.33731E-03  2168   0.353E-01    0.184E-01
DAV:   3    -0.107473704541E+02    0.23459E-02   -0.47091E-03  2160   0.343E-01    0.230E-02
DAV:   4    -0.107473569256E+02    0.13529E-04   -0.37340E-05   944   0.478E-02
   2 F= -.10747357E+02 E0= -.10747344E+02  d E =-.251500E-02
       N       E                     dE             d eps       ncg     rms          rms(c)
DAV:   1    -0.107508665836E+02   -0.34961E-02   -0.42808E-02  2208   0.114E+00    0.132E-01
DAV:   2    -0.107501459841E+02    0.72060E-03   -0.54506E-04  2120   0.142E-01    0.746E-02
DAV:   3    -0.107497753202E+02    0.37066E-03   -0.74995E-04  1360   0.138E-01
   3 F= -.10749775E+02 E0= -.10749760E+02  d E =-.493340E-02
