unknown system                          
   1.00000000000000     
    -2.450000    2.450000    1.274000
     2.450000   -2.450000    1.274000
     2.450000    2.450000   -1.274000
   Si
     2
Direct
  0.250000  0.750000  0.500000
  0.000000  0.000000  0.000000
 
   32   32   32
 -5.3454     -4.1692     -1.0108      3.1751      7.2303      10.206      11.635      11.580      10.506      9.0371    
  7.5897      6.3083      5.2658      4.4834      3.9502      3.6433      3.5434      3.6433      3.9501      4.4834    
  5.2657      6.3083      7.5897      9.0371      10.506      11.580      11.635      10.206      7.2303      3.1751    
 -1.0108     -4.1693     -4.1693     -4.7794     -3.1122     0.30498      4.4487      8.2004      10.730      11.713    
  11.326      10.092      8.6133      7.2059      5.9884      5.0183      4.3068      3.8381      3.5894      3.5437    
  3.6968      4.0594      4.6528      5.4985      6.6018      7.9310      9.4004      10.833      11.742      11.519    
  9.7790      6.5730      2.4853     -1.4718     -1.0108     -3.1122     -3.1610     -1.1480      2.2847      6.1123    
  9.3202      11.238      11.694      10.967      9.6086      8.1463      6.7962      5.6556      4.7665      4.1304    
  3.7282      3.5375      3.5441      3.7476      4.1616      4.8079      5.7060      6.8554      8.2149      9.6883    
  11.068      11.833      11.423      9.5400      6.3406      2.4853      3.1751     0.30496     -1.1481     -.71662    
  1.4493      4.6489      7.9214      10.407      11.619      11.532      10.504      9.0785      7.6543      6.3772    
  5.3236      4.5205      3.9612      3.6243      3.4891      3.5446      3.7936      4.2518      4.9414      5.8788    
  7.0575      8.4283      9.8878      11.208      11.872      11.386      9.5400      6.5730      7.2303      4.4487    
  2.2847      1.4492      2.2213      4.3312      7.0794      9.6246      11.295      11.788      11.208      9.9578    
  8.5236      7.1570      5.9655      5.0052      4.2893      3.8049      3.5300      3.4458      3.5447      3.8325    
  4.3263      5.0473      6.0086      7.1981      8.5606      9.9900      11.254      11.872      11.423      9.7790    
  10.206      8.2004      6.1123      4.6489      4.3312      5.2735      7.1363      9.2764      11.011      11.864    
  11.705      10.736      9.3689      7.9657      6.6740      5.5769      4.7118      4.0809      3.6670      3.4483    
  3.4090      3.5445      3.8629      4.3817      5.1206      6.0891      7.2702      8.6056      9.9900      11.208    
  11.833      11.519      11.635      10.730      9.3202      7.9214      7.0794      7.1363      8.0803      9.5534    
  11.011      11.944      12.065      11.384      10.165      8.7757      7.4279      6.2241      5.2255      4.4535    
  3.9019      3.5515      3.3818      3.3799      3.5440      3.8836      4.4158      5.1582      6.1164      7.2702    
  8.5606      9.8878      11.068      11.742      11.580      11.713      11.238      10.407      9.6246      9.2764    
  9.5534      10.363      11.371      12.156      12.381      11.921      10.886      9.5639      8.2060      6.9328    
  5.8245      4.9232      4.2381      3.7576      3.4618      3.3326      3.3597      3.5434      3.8940      4.4274    
  5.1582      6.0891      7.1981      8.4283      9.6883      10.833      10.506      11.326      11.694      11.619    
  11.295      11.011      11.011      11.371      11.960      12.502      12.700      12.372      11.517      10.308    
  8.9866      7.6869      6.5010      5.4894      4.6794      4.0717      3.6518      3.4006      3.3024      3.3493    
  3.5432      3.8940      4.4158      5.1206      6.0086      7.0575      8.2149      9.4004      9.0371      10.092    
  10.967      11.532      11.788      11.864      11.944      12.156      12.502      12.846      12.982      12.733    
  12.038      10.980      9.7440      8.4660      7.2429      6.1492      5.2298      4.5010      3.9586      3.5872    
  3.3695      3.2922      3.3493      3.5434      3.8836      4.3817      5.0473      5.8788      6.8554      7.9310    
  7.5897      8.6133      9.6086      10.504      11.208      11.705      12.065      12.381      12.700      12.982    
  13.107      12.944      12.413      11.539      10.442      9.2417      8.0312      6.8939      5.8900      5.0530    
  4.3924      3.9014      3.5656      3.3695      3.3024      3.3597      3.5440      3.8629      4.3263      4.9414    
  5.7060      6.6018      6.3083      7.2059      8.1462      9.0785      9.9578      10.736      11.384      11.921    
  12.372      12.733      12.944      12.918      12.583      11.933      11.035      9.9734      8.8352      7.7049    
  6.6539      5.7315      4.9636      4.3559      3.9014      3.5872      3.4006      3.3326      3.3799      3.5445    
  3.8325      4.2518      4.8079      5.4985      5.2657      5.9884      6.7962      7.6544      8.5236      9.3689    
  10.165      10.886      11.517      12.038      12.413      12.583      12.490      12.109      11.465      10.609    
  9.6108      8.5501      7.5031      6.5319      5.6782      4.9636      4.3924      3.9586      3.6518      3.4618    
  3.3818      3.4090      3.5447      3.7936      4.1616      4.6528      4.4834      5.0183      5.6556      6.3772    
  7.1570      7.9657      8.7757      9.5639      10.308      10.980      11.539      11.933      12.109      12.029    
  11.684      11.092      10.303      9.3823      8.4035      7.4349      6.5319      5.7315      5.0530      4.5010    
  4.0717      3.7576      3.5515      3.4483      3.4458      3.5446      3.7476      4.0594      3.9501      4.3068    
  4.7665      5.3236      5.9655      6.6740      7.4279      8.2060      8.9866      9.7440      10.442      11.035    
  11.465      11.684      11.655      11.371      10.852      10.143      9.3043      8.4035      7.5031      6.6539    
  5.8900      5.2298      4.6794      4.2381      3.9019      3.6670      3.5300      3.4891      3.5441      3.6968    
  3.6433      3.8382      4.1304      4.5205      5.0052      5.5769      6.2241      6.9328      7.6869      8.4661    
  9.2417      9.9734      10.609      11.092      11.371      11.412      11.206      10.769      10.143      9.3823    
  8.5501      7.7049      6.8939      6.1492      5.4894      4.9232      4.4535      4.0809      3.8049      3.6243    
  3.5375      3.5437      3.5434      3.5895      3.7283      3.9612      4.2893      4.7119      5.2255      5.8245    
  6.5010      7.2429      8.0312      8.8352      9.6108      10.303      10.852      11.206      11.328      11.206    
  10.852      10.303      9.6108      8.8352      8.0312      7.2429      6.5010      5.8245      5.2255      4.7118    
  4.2893      3.9612      3.7282      3.5894      3.6433      3.5437      3.5375      3.6243      3.8050      4.0810    
  4.4535      4.9232      5.4894      6.1492      6.8938      7.7049      8.5501      9.3823      10.143      10.769    
  11.206      11.412      11.371      11.092      10.609      9.9734      9.2417      8.4660      7.6869      6.9328    
  6.2241      5.5769      5.0052      4.5205      4.1304      3.8381      3.9502      3.6968      3.5441      3.4891    
  3.5301      3.6671      3.9020      4.2381      4.6794      5.2298      5.8900      6.6539      7.5031      8.4035    
  9.3043      10.143      10.852      11.371      11.655      11.684      11.465      11.035      10.442      9.7440    
  8.9866      8.2060      7.4279      6.6740      5.9655      5.3236      4.7665      4.3068      4.4834      4.0595    
  3.7477      3.5446      3.4459      3.4484      3.5515      3.7576      4.0717      4.5010      5.0530      5.7315    
  6.5319      7.4349      8.4035      9.3823      10.303      11.092      11.684      12.029      12.109      11.933    
  11.539      10.980      10.308      9.5639      8.7757      7.9657      7.1570      6.3772      5.6556      5.0183    
  5.2658      4.6529      4.1616      3.7937      3.5448      3.4090      3.3818      3.4618      3.6518      3.9586    
  4.3923      4.9636      5.6782      6.5319      7.5031      8.5501      9.6108      10.609      11.465      12.109    
  12.490      12.583      12.413      12.038      11.517      10.886      10.165      9.3689      8.5236      7.6543    
  6.7962      5.9884      6.3083      5.4985      4.8079      4.2519      3.8326      3.5445      3.3799      3.3326    
  3.4006      3.5872      3.9014      4.3559      4.9636      5.7315      6.6539      7.7049      8.8352      9.9734    
  11.035      11.933      12.583      12.918      12.944      12.733      12.372      11.921      11.384      10.736    
  9.9578      9.0785      8.1463      7.2059      7.5897      6.6018      5.7060      4.9414      4.3263      3.8629    
  3.5440      3.3597      3.3023      3.3695      3.5655      3.9014      4.3923      5.0530      5.8900      6.8938    
  8.0312      9.2417      10.442      11.539      12.413      12.944      13.107      12.982      12.700      12.381    
  12.065      11.705      11.208      10.504      9.6086      8.6133      9.0371      7.9310      6.8554      5.8788    
  5.0473      4.3817      3.8836      3.5434      3.3493      3.2921      3.3695      3.5872      3.9586      4.5010    
  5.2298      6.1492      7.2429      8.4661      9.7440      10.980      12.038      12.733      12.982      12.846    
  12.502      12.156      11.944      11.864      11.788      11.532      10.967      10.092      10.506      9.4004    
  8.2149      7.0575      6.0086      5.1206      4.4158      3.8940      3.5432      3.3493      3.3023      3.4006    
  3.6518      4.0717      4.6794      5.4894      6.5010      7.6869      8.9866      10.308      11.517      12.372    
  12.700      12.502      11.960      11.371      11.011      11.011      11.295      11.619      11.694      11.326    
  11.580      10.833      9.6883      8.4283      7.1981      6.0891      5.1581      4.4274      3.8940      3.5434    
  3.3597      3.3326      3.4618      3.7576      4.2381      4.9232      5.8245      6.9328      8.2060      9.5639    
  10.886      11.921      12.381      12.156      11.371      10.363      9.5534      9.2764      9.6246      10.407    
  11.238      11.713      11.635      11.742      11.068      9.8878      8.5606      7.2702      6.1164      5.1581    
  4.4158      3.8836      3.5440      3.3799      3.3818      3.5515      3.9020      4.4535      5.2255      6.2241    
  7.4279      8.7757      10.165      11.384      12.065      11.944      11.011      9.5534      8.0803      7.1363    
  7.0794      7.9214      9.3202      10.730      10.206      11.519      11.833      11.208      9.9900      8.6056    
  7.2702      6.0891      5.1206      4.3817      3.8629      3.5445      3.4090      3.4484      3.6671      4.0810    
  4.7119      5.5769      6.6740      7.9657      9.3689      10.736      11.705      11.864      11.011      9.2764    
  7.1363      5.2735      4.3312      4.6489      6.1123      8.2004      7.2303      9.7791      11.423      11.872    
  11.254      9.9900      8.5606      7.1981      6.0086      5.0473      4.3263      3.8326      3.5448      3.4459    
  3.5301      3.8050      4.2893      5.0052      5.9655      7.1570      8.5236      9.9578      11.208      11.788    
  11.295      9.6246      7.0794      4.3312      2.2213      1.4493      2.2847      4.4487      3.1751      6.5730    
  9.5400      11.386      11.872      11.208      9.8878      8.4283      7.0575      5.8788      4.9414      4.2519    
  3.7937      3.5446      3.4891      3.6243      3.9612      4.5205      5.3236      6.3772      7.6544      9.0785    
  10.504      11.532      11.619      10.407      7.9214      4.6489      1.4492     -.71662     -1.1480     0.30498    
 -1.0108      2.4853      6.3406      9.5400      11.423      11.833      11.068      9.6883      8.2149      6.8554    
  5.7060      4.8079      4.1616      3.7477      3.5441      3.5375      3.7283      4.1304      4.7665      5.6556    
  6.7962      8.1462      9.6086      10.967      11.694      11.238      9.3202      6.1123      2.2847     -1.1481    
 -3.1610     -3.1122     -4.1692     -1.4718      2.4853      6.5730      9.7791      11.519      11.742      10.833    
  9.4004      7.9310      6.6018      5.4985      4.6529      4.0595      3.6968      3.5437      3.5895      3.8382    
  4.3068      5.0183      5.9884      7.2059      8.6133      10.092      11.326      11.713      10.730      8.2004    
  4.4487     0.30496     -3.1122     -4.7794     -4.1691     -3.3052     -.52326      3.3272      7.1579      10.036    
  11.463      11.452      10.418      8.9626      7.5123      6.2190      5.1595      4.3581      3.8045      3.4752    
  3.3494      3.4178      3.6860      4.1725      4.9012      5.8873      7.1167      8.5265      9.9911      11.167    
  11.459      10.386      7.8283      4.1648     0.24575     -2.8449     -3.3052     -4.1692     -2.8449     0.24577    
  4.1649      7.8283      10.386      11.459      11.167      9.9911      8.5264      7.1167      5.8873      4.9013    
  4.1725      3.6860      3.4178      3.3494      3.4752      3.8044      4.3580      5.1596      6.2190      7.5123    
  8.9626      10.418      11.452      11.463      10.036      7.1579      3.3273     -.52319     -.42931     -2.7430    
 -3.1121     -1.4294      1.7615      5.4916      8.7436      10.797      11.410      10.806      9.5054      8.0558    
  6.7024      5.5499      4.6461      3.9951      3.5780      3.3714      3.3597      3.5413      3.9288      4.5446    
  5.4107      6.5315      7.8732      9.3474      10.774      11.673      11.474      9.8396      6.8578      3.1145    
  3.5648     0.51630     -1.2378     -1.1481     0.73858      3.8005      7.0993      9.7390      11.160      11.265    
  10.361      8.9818      7.5675      6.2851      5.2197      4.4036      3.8322      3.4840      3.3373      3.3799    
  3.6138      4.0542      4.7244      5.6441      6.8115      8.1838      9.6646      11.051      11.845      11.532    
  9.8548      6.9886      7.5361      4.6125      2.1770     0.99773      1.4493      3.3566      6.0726      8.7460    
  10.643      11.380      10.991      9.8445      8.4401      7.0788      5.8801      4.9086      4.1820      3.6890    
  3.4071      3.3166      3.4090      3.6895      4.1755      4.8901      5.8494      7.0457      8.4295      9.8994    
  11.241      11.975      11.651      10.094      10.518      8.4129      6.1004      4.3163      3.6566      4.3312    
  6.0770      8.2741      10.203      11.313      11.391      10.583      9.2831      7.8986      6.6071      5.5016    
  4.6268      3.9884      3.5700      3.3494      3.3096      3.4457      3.7657      4.2880      5.0342      6.0169    
  7.2229      8.5978      10.039      11.339      12.060      11.822      12.007      11.049      9.4764      7.8091    
  6.6396      6.3910      7.1363      8.5695      10.143      11.295      11.661      11.177      10.069      8.7151    
  7.3768      6.1692      5.1623      4.3834      3.8285      3.4785      3.3124      3.3166      3.4890      3.8396    
  4.3869      5.1504      6.1385      7.3338      8.6793      10.076      11.336      12.084      12.025      12.151    
  11.582      10.555      9.4962      8.8472      8.8751      9.5534      10.577      11.502      11.932      11.670    
  10.773      9.5062      8.1662      6.8951      5.7811      4.8735      4.1855      3.7067      3.4169      3.2973    
  3.3373      3.5373      3.9085      4.4682      5.2331      6.2079      7.3721      8.6689      10.005      11.227    
  11.005      11.860      12.197      12.006      11.481      10.941      10.687      10.858      11.371      11.955    
  12.284      12.116      11.393      10.254      8.9538      7.6610      6.4727      5.4564      4.6440      4.0387    
  3.6262      3.3869      3.3046      3.3713      3.5893      3.9697      4.5281      5.2783      6.2215      7.3354    
  8.5662      9.8292      9.5557      10.674      11.571      12.094      12.231      12.123      11.983      11.994    
  12.202      12.502      12.680      12.526      11.929      10.934      9.7167      8.4464      7.2234      6.1268    
  5.2061      4.4805      3.9467      3.5890      3.3895      3.3343      3.4178      3.6431      4.0207      4.5640    
  5.2835      6.1780      7.2251      8.3757      8.1065      9.1963      10.244      11.155      11.816      12.206    
  12.407      12.547      12.710      12.890      12.982      12.839      12.353      11.513      10.423      9.2245    
  8.0134      6.8743      5.8705      5.0379      4.3873      3.9119      3.5963      3.4247      3.3856      3.4752    
  3.6967      4.0592      4.5738      5.2482      6.0795      7.0466      6.8086      7.7713      8.7671      9.7378    
  10.628      11.367      11.925      12.333      12.645      12.884      13.012      12.944      12.597      11.941    
  11.028      9.9568      8.8130      7.6798      6.6295      5.7130      4.9569      4.3670      3.9353      3.6480    
  3.4916      3.4571      3.5414      3.7476      4.0832      4.5568      5.1738      5.9306      5.7388      6.5226    
  7.3857      8.2870      9.1806      10.025      10.787      11.435      11.962      12.371      12.645      12.735    
  12.583      12.156      11.474      10.592      9.5792      8.5114      7.4642      6.4997      5.6599      4.9655    
  4.4202      4.0166      3.7430      3.5886      3.5463      3.6138      3.7937      4.0914      4.5136      5.0639    
  4.9240      5.5135      6.2023      6.9673      7.7770      8.5964      9.3932      10.142      10.822      11.407    
  11.870      12.170      12.261      12.109      11.706      11.073      10.257      9.3228      8.3407      7.3786    
  6.4908      5.7134      5.0642      4.5464      4.1543      3.8790      3.7128      3.6502      3.6897      3.8326    
  4.0832      4.4461      4.3578      4.7605      5.2650      5.8621      6.5346      7.2594      8.0109      8.7646    
  9.4981      10.188      10.804      11.305      11.646      11.782      11.684      11.345      10.788      10.056    
  9.2093      8.3132      7.4286      6.6044      5.8732      5.2513      4.7430      4.3453      4.0528      3.8606    
  3.7653      3.7659      3.8630      4.0593      4.0208      4.2529      4.5814      5.0048      5.5169      6.1058    
  6.7560      7.4500      8.1694      8.8943      9.5988      10.248      10.796      11.193      11.395      11.371    
  11.116      10.649      10.008      9.2498      8.4331      7.6142      6.8383      6.1357      5.5228      5.0056    
  4.5849      4.2593      4.0272      3.8876      3.8398      3.8837      3.8941      3.9697      4.1362      4.3944    
  4.7438      5.1806      5.6983      6.2876      6.9376      7.6354      8.3627      9.0921      9.7846      10.391    
  10.859      11.141      11.206      11.045      10.672      10.122      9.4450      8.6967      7.9296      7.1859    
  6.4943      5.8717      5.3273      4.8663      4.4922      4.2073      4.0128      3.9085      3.9697      3.8942    
  3.9086      4.0128      4.2073      4.4922      4.8663      5.3273      5.8717      6.4943      7.1859      7.9296    
  8.6967      9.4449      10.122      10.672      11.045      11.206      11.141      10.859      10.391      9.7846    
  9.0921      8.3627      7.6355      6.9376      6.2875      5.6982      5.1806      4.7438      4.3944      4.1362    
  4.2529      4.0207      3.8837      3.8397      3.8876      4.0273      4.2593      4.5849      5.0056      5.5228    
  6.1357      6.8383      7.6142      8.4331      9.2499      10.008      10.648      11.116      11.371      11.395    
  11.193      10.796      10.248      9.5989      8.8943      8.1694      7.4500      6.7561      6.1058      5.5168    
  5.0048      4.5814      4.7606      4.3578      4.0592      3.8630      3.7659      3.7653      3.8605      4.0528    
  4.3453      4.7430      5.2513      5.8732      6.6044      7.4286      8.3132      9.2093      10.056      10.788    
  11.345      11.684      11.782      11.646      11.305      10.804      10.188      9.4981      8.7646      8.0109    
  7.2594      6.5345      5.8621      5.2651      5.5134      4.9239      4.4461      4.0832      3.8326      3.6896    
  3.6502      3.7128      3.8791      4.1543      4.5464      5.0642      5.7134      6.4908      7.3786      8.3407    
  9.3228      10.257      11.073      11.706      12.109      12.261      12.170      11.870      11.407      10.822    
  10.142      9.3932      8.5964      7.7771      6.9673      6.2022      6.5226      5.7389      5.0640      4.5136    
  4.0913      3.7936      3.6138      3.5462      3.5885      3.7429      4.0166      4.4202      4.9656      5.6599    
  6.4997      7.4642      8.5114      9.5792      10.592      11.474      12.156      12.583      12.735      12.645    
  12.371      11.962      11.435      10.787      10.025      9.1806      8.2870      7.3857      7.7713      6.8086    
  5.9306      5.1738      4.5568      4.0832      3.7476      3.5414      3.4570      3.4916      3.6480      3.9353    
  4.3670      4.9569      5.7130      6.6295      7.6798      8.8130      9.9568      11.028      11.941      12.597    
  12.944      13.012      12.884      12.645      12.333      11.925      11.367      10.628      9.7378      8.7671    
  9.1963      8.1065      7.0466      6.0794      5.2482      4.5738      4.0592      3.6967      3.4752      3.3856    
  3.4246      3.5963      3.9119      4.3873      5.0379      5.8704      6.8743      8.0135      9.2245      10.423    
  11.513      12.353      12.839      12.981      12.890      12.710      12.547      12.408      12.206      11.816    
  11.155      10.244      10.674      9.5557      8.3757      7.2252      6.1780      5.2835      4.5640      4.0207    
  3.6431      3.4178      3.3343      3.3895      3.5890      3.9467      4.4805      5.2060      6.1268      7.2234    
  8.4464      9.7167      10.934      11.929      12.526      12.680      12.502      12.202      11.993      11.983    
  12.123      12.231      12.094      11.571      11.860      11.005      9.8293      8.5662      7.3354      6.2214    
  5.2783      4.5282      3.9697      3.5893      3.3713      3.3047      3.3870      3.6262      4.0387      4.6440    
  5.4564      6.4727      7.6610      8.9538      10.254      11.393      12.116      12.284      11.955      11.371    
  10.858      10.687      10.941      11.481      12.006      12.197      12.151      12.025      11.227      10.005    
  8.6689      7.3721      6.2080      5.2331      4.4682      3.9085      3.5374      3.3373      3.2974      3.4169    
  3.7067      4.1855      4.8735      5.7811      6.8951      8.1662      9.5062      10.773      11.670      11.932    
  11.502      10.577      9.5533      8.8751      8.8472      9.4962      10.555      11.582      11.050      12.007    
  12.084      11.336      10.076      8.6793      7.3338      6.1385      5.1504      4.3870      3.8397      3.4890    
  3.3166      3.3125      3.4785      3.8285      4.3834      5.1623      6.1693      7.3768      8.7151      10.069    
  11.178      11.661      11.295      10.143      8.5695      7.1363      6.3911      6.6396      7.8090      9.4764    
  8.4130      10.518      11.822      12.060      11.339      10.039      8.5978      7.2229      6.0169      5.0343    
  4.2881      3.7658      3.4458      3.3097      3.3494      3.5700      3.9884      4.6268      5.5016      6.6071    
  7.8986      9.2832      10.583      11.391      11.313      10.203      8.2741      6.0771      4.3312      3.6566    
  4.3164      6.1005      4.6125      7.5361      10.094      11.651      11.975      11.241      9.8994      8.4295    
  7.0457      5.8493      4.8901      4.1756      3.6896      3.4090      3.3166      3.4071      3.6891      4.1820    
  4.9085      5.8801      7.0788      8.4401      9.8444      10.991      11.380      10.643      8.7461      6.0726    
  3.3567      1.4494     0.99789      2.1771     0.51632      3.5649      6.9887      9.8548      11.532      11.845    
  11.051      9.6647      8.1838      6.8114      5.6441      4.7245      4.0542      3.6138      3.3800      3.3374    
  3.4840      3.8322      4.4036      5.2198      6.2852      7.5675      8.9817      10.361      11.265      11.160    
  9.7390      7.0993      3.8006     0.73873     -1.1480     -1.2378     -2.7429     -.42919      3.1145      6.8577    
  9.8396      11.475      11.673      10.774      9.3474      7.8732      6.5316      5.4107      4.5445      3.9288    
  3.5414      3.3598      3.3714      3.5780      3.9951      4.6462      5.5499      6.7024      8.0558      9.5055    
  10.806      11.410      10.797      8.7436      5.4917      1.7615     -1.4294     -3.1121     -1.0105     -.42912    
  1.8111      5.0047      8.2081      10.592      11.697      11.524      10.439      8.9862      7.5451      6.2557    
  5.1925      4.3799      3.8090      3.4569      3.3023      3.3342      3.5559      3.9838      4.6409      5.5452    
  6.6910      8.0293      9.4561      10.737      11.359      10.850      9.0301      6.1558      2.9169     0.24592    
 -.52309     -1.4716     -.52308      2.0126      5.3367      8.4843      10.673      11.535      11.157      9.9704    
  8.5209      7.1237      5.8996      4.9113      4.1737      3.6730      3.3856      3.2922      3.3855      3.6730    
  4.1737      4.9113      5.8996      7.1237      8.5209      9.9704      11.157      11.535      10.673      8.4843    
  5.3367      2.0126      1.8111     -.42913     -1.0105     0.24592      2.9169      6.1558      9.0301      10.850    
  11.359      10.737      9.4560      8.0292      6.6910      5.5452      4.6409      3.9838      3.5559      3.3343    
  3.3024      3.4570      3.8090      4.3800      5.1925      6.2557      7.5451      8.9862      10.439      11.524    
  11.697      10.592      8.2081      5.0047      5.2255      2.3496     0.51644     0.30513      1.7616      4.3801    
  7.3172      9.7244      11.040      11.131      10.259      8.9157      7.5283      6.2626      5.2051      4.3906    
  3.8162      3.4615      3.3046      3.3326      3.5462      3.9594      4.5950      5.4739      6.5995      7.9384    
  9.4068      10.846      11.840      11.878      10.662      8.2727      8.6851      5.9737      3.5514      2.1771    
  2.2849      3.8006      6.1768      8.6243      10.421      11.156      10.818      9.7294      8.3672      7.0343    
  5.8529      4.8906      4.1683      3.6761      3.3923      3.2974      3.3818      3.6501      4.1188      4.8108    
  5.7441      6.9163      8.2863      9.7637      11.178      12.107      12.091      10.902      11.289      9.3869    
  7.1385      5.2419      4.3164      4.6490      6.0726      8.0424      9.8677      10.982      11.128      10.404    
  9.1688      7.8263      6.5628      5.4749      4.6113      3.9804      3.5672      3.3502      3.3125      3.4483    
  3.7653      4.2813      5.0185      5.9913      7.1914      8.5716      10.038      11.420      12.316      12.326    
  12.553      11.759      10.266      8.5449      7.1797      6.6396      7.0793      8.2740      9.7234      10.867    
  11.303      10.922      9.9037      8.6077      7.3094      6.1288      5.1403      4.3752      3.8318      3.4922    
  3.3361      3.3494      3.5300      3.8876      4.4407      5.2094      6.2041      7.4110      8.7790      10.215    
  11.557      12.449      12.483      12.723      12.225      11.180      9.9855      9.0998      8.8472      9.2763    
  10.143      11.024      11.504      11.342      10.549      9.3574      8.0680      6.8338      5.7463      4.8590    
  4.1886      3.7264      3.4531      3.3502      3.4072      3.6243      4.0128      4.5906      5.3749      6.3717    
  7.5632      8.8963      10.281      11.576      11.468      12.394      12.784      12.592      11.979      11.258    
  10.761      10.687      11.010      11.502      11.836      11.742      11.117      10.062      8.8186      7.5706    
  6.4168      5.4278      4.6393      4.0566      3.6667      3.4506      3.3924      3.4841      3.7282      4.1363    
  4.7245      5.5069      6.4856      7.6393      8.9157      10.231      10.064      11.229      12.164      12.692    
  12.775      12.538      12.203      11.988      11.993      12.156      12.284      12.155      11.626      10.704    
  9.5426      8.3197      7.1370      6.0744      5.1840      4.4874      3.9824      3.6542      3.4852      3.4616    
  3.5780      3.8382      4.2530      4.8364      5.5990      6.5392      7.6343      8.8347      8.6566      9.7890    
  10.867      11.788      12.419      12.723      12.778      12.728      12.694      12.710      12.700      12.526    
  12.060      11.264      10.215      9.0577      7.8879      6.7873      5.8197      5.0225      4.4075      3.9682    
  3.6897      3.5560      3.5561      3.6861      3.9501      4.3579      4.9208      5.6459      6.5293      7.5480    
  7.3843      8.3902      9.4176      10.402      11.280      11.967      12.422      12.682      12.821      12.891    
  12.884      12.733      12.353      11.697      10.798      9.7519      8.6426      7.5479      6.5378      5.6625    
  4.9488      4.4023      4.0149      3.7725      3.6616      3.6731      3.8045      4.0595      4.4462      4.9733    
  5.6451      6.4560      6.3229      7.1517      8.0488      8.9682      9.8586      10.672      11.368      11.907    
  12.293      12.546      12.672      12.645      12.413      11.941      11.236      10.356      9.3629      8.3271    