unknown system                          
   1.00000000000000     
    -2.450000    2.450000    1.274000
     2.450000   -2.450000    1.274000
     2.450000    2.450000   -1.274000
   Si
     2
Direct
  0.250000  0.750000  0.500000
  0.000000  0.000000  0.000000
 
   32   32   32
 -.53454395798E+01 -.41692405321E+01 -.10107905517E+01 0.31751261118E+01 0.72302937232E+01
 0.10206440242E+02 0.11634819252E+02 0.11579723484E+02 0.10505810263E+02 0.90370991314E+01
 0.75896720712E+01 0.63082819900E+01 0.52657693329E+01 0.44834012776E+01 0.39501504250E+01
 0.36432595292E+01 0.35434155290E+01 0.36432610757E+01 0.39501256065E+01 0.44833573598E+01
 0.52657456631E+01 0.63082830154E+01 0.75896667978E+01 0.90370847028E+01 0.10505811763E+02
 0.11579735347E+02 0.11634812828E+02 0.10206423081E+02 0.72302937814E+01 0.31751267413E+01
 -.10108263462E+01 -.41692893222E+01 -.41692893222E+01 -.47793909836E+01 -.31122110393E+01
 0.30497920929E+00 0.44486658321E+01 0.82003604923E+01 0.10730426630E+02 0.11712572427E+02
 0.11326090694E+02 0.10092385208E+02 0.86133002488E+01 0.72059246623E+01 0.59883600594E+01
 0.50183349305E+01 0.43067888141E+01 0.38381377733E+01 0.35894374580E+01 0.35436507559E+01
 0.36967790048E+01 0.40594424754E+01 0.46528249878E+01 0.54984871281E+01 0.66017551176E+01
 0.79310158868E+01 0.94004021439E+01 0.10833238894E+02 0.11741741330E+02 0.11519278523E+02
 0.97790411699E+01 0.65729525775E+01 0.24852725503E+01 -.14718245584E+01 -.10108263462E+01
 -.31122491771E+01 -.31609894277E+01 -.11480468852E+01 0.22847332672E+01 0.61122919622E+01
 0.93201644887E+01 0.11238161952E+02 0.11693521315E+02 0.10967001949E+02 0.96086122476E+01
 0.81462557334E+01 0.67962166681E+01 0.56555972386E+01 0.47665143177E+01 0.41304313901E+01
 0.37282051830E+01 0.35374718319E+01 0.35440793292E+01 0.37476241601E+01 0.41615547584E+01
 0.48078902893E+01 0.57060381463E+01 0.68553967475E+01 0.82149194072E+01 0.96882610899E+01
 0.11067727020E+02 0.11832677398E+02 0.11422670345E+02 0.95399665840E+01 0.63406446883E+01
 0.24852725503E+01 0.31751267413E+01 0.30495898449E+00 -.11480675160E+01 -.71662214386E+00
 0.14492502414E+01 0.46488978055E+01 0.79213681134E+01 0.10407201004E+02 0.11618683907E+02
 0.11531674247E+02 0.10503893437E+02 0.90785424721E+01 0.76543499147E+01 0.63771533536E+01
 0.53235996162E+01 0.45205236478E+01 0.39611709931E+01 0.36242677183E+01 0.34890562267E+01
 0.35445643387E+01 0.37936143775E+01 0.42518220027E+01 0.49413514810E+01 0.58788124726E+01
 0.70575038018E+01 0.84282552859E+01 0.98878176609E+01 0.11207777341E+02 0.11872355797E+02
 0.11385675113E+02 0.95399665840E+01 0.65729525775E+01 0.72302937814E+01 0.44486734554E+01
 0.22847305253E+01 0.14492472196E+01 0.22213430834E+01 0.43312315441E+01 0.70793606461E+01
 0.96246170120E+01 0.11294787501E+02 0.11787681795E+02 0.11207761273E+02 0.99577751216E+01
 0.85235820865E+01 0.71570136598E+01 0.59655149428E+01 0.50052086597E+01 0.42893168987E+01
 0.38049345075E+01 0.35299963269E+01 0.34458423449E+01 0.35447389851E+01 0.38325079714E+01
 0.43262554116E+01 0.50472604968E+01 0.60086275210E+01 0.71980804105E+01 0.85606173639E+01
 0.99899858783E+01 0.11254349406E+02 0.11872355797E+02 0.11422670345E+02 0.97790411699E+01
 0.10206423081E+02 0.82003623483E+01 0.61123031772E+01 0.46489098813E+01 0.43312424372E+01
 0.52735242867E+01 0.71363012189E+01 0.92764124385E+01 0.11010714810E+02 0.11864303352E+02
 0.11705248054E+02 0.10736080570E+02 0.93689090589E+01 0.79657253378E+01 0.66739785209E+01
 0.55768733152E+01 0.47118352249E+01 0.40809356962E+01 0.36670077276E+01 0.34483381043E+01
 0.34089918043E+01 0.35444791441E+01 0.38628826484E+01 0.43817172912E+01 0.51206073563E+01
 0.60890895935E+01 0.72702312979E+01 0.86055598090E+01 0.99899858783E+01 0.11207777341E+02
 0.11832677398E+02 0.11519278523E+02 0.11634812828E+02 0.10730418508E+02 0.93201677560E+01
 0.79213819307E+01 0.70793802401E+01 0.71363176569E+01 0.80803103809E+01 0.95534203187E+01
 0.11010601691E+02 0.11943686708E+02 0.12065133312E+02 0.11384218303E+02 0.10164667562E+02
 0.87757489751E+01 0.74278858641E+01 0.62240728051E+01 0.52254534460E+01 0.44534982086E+01
 0.39019443624E+01 0.35514700122E+01 0.33818180311E+01 0.33799157704E+01 0.35439778264E+01
 0.38835599232E+01 0.44158303441E+01 0.51581500027E+01 0.61164083760E+01 0.72702312979E+01
 0.85606173639E+01 0.98878176609E+01 0.11067727020E+02 0.11741741330E+02 0.11579735347E+02
 0.11712578344E+02 0.11238164818E+02 0.10407204801E+02 0.96246262112E+01 0.92764297768E+01
 0.95534365008E+01 0.10362514560E+02 0.11370897308E+02 0.12155896253E+02 0.12381197652E+02
 0.11920510058E+02 0.10886466908E+02 0.95639008816E+01 0.82059746974E+01 0.69328064317E+01
 0.58245160778E+01 0.49231801767E+01 0.42380554454E+01 0.37575612691E+01 0.34618408935E+01
 0.33326321664E+01 0.33596810708E+01 0.35434288189E+01 0.38940363007E+01 0.44273909147E+01
 0.51581500027E+01 0.60890895935E+01 0.71980804105E+01 0.84282552859E+01 0.96882610899E+01
 0.10833238894E+02 0.10505811763E+02 0.11326104864E+02 0.11693535269E+02 0.11618689587E+02
 0.11294787266E+02 0.11010718689E+02 0.11010615049E+02 0.11370910562E+02 0.11960255716E+02
 0.12501671742E+02 0.12700471709E+02 0.12372446934E+02 0.11516513827E+02 0.10308151305E+02
 0.89866386387E+01 0.76869010603E+01 0.65009665854E+01 0.54894300015E+01 0.46794245445E+01
 0.40716971410E+01 0.36517819946E+01 0.34005956611E+01 0.33023512519E+01 0.33493059448E+01
 0.35432434222E+01 0.38940363007E+01 0.44158303441E+01 0.51206073563E+01 0.60086275210E+01
 0.70575038018E+01 0.82149194072E+01 0.94004021439E+01 0.90370847028E+01 0.10092381531E+02
 0.10967008341E+02 0.11531684897E+02 0.11787689966E+02 0.11864305105E+02 0.11943686826E+02
 0.12155902715E+02 0.12501681023E+02 0.12845602894E+02 0.12981553926E+02 0.12733085219E+02
 0.12037935405E+02 0.10980061927E+02 0.97439969277E+01 0.84660472000E+01 0.72429013891E+01
 0.61491923441E+01 0.52297863834E+01 0.45010369499E+01 0.39585869650E+01 0.35872260719E+01
 0.33695407094E+01 0.32921658641E+01 0.33493059448E+01 0.35434288189E+01 0.38835599232E+01
 0.43817172912E+01 0.50472604968E+01 0.58788124726E+01 0.68553967475E+01 0.79310158868E+01
 0.75896667978E+01 0.86132856004E+01 0.96085985409E+01 0.10503892235E+02 0.11207773379E+02
 0.11705260081E+02 0.12065133153E+02 0.12381191754E+02 0.12700474537E+02 0.12981563052E+02
 0.13107409019E+02 0.12944235302E+02 0.12413273587E+02 0.11538774750E+02 0.10442491262E+02
 0.92416948997E+01 0.80311550929E+01 0.68938555214E+01 0.58900060697E+01 0.50529774710E+01
 0.43923588099E+01 0.39014198359E+01 0.35655677545E+01 0.33695407094E+01 0.33023512519E+01
 0.33596810708E+01 0.35439778264E+01 0.38628826484E+01 0.43262554116E+01 0.49413514810E+01
 0.57060381463E+01 0.66017551176E+01 0.63082830154E+01 0.72059232907E+01 0.81462470614E+01
 0.90785312739E+01 0.99577712794E+01 0.10736088261E+02 0.11384227561E+02 0.11920509313E+02
 0.12372441686E+02 0.12733088964E+02 0.12944244930E+02 0.12917879336E+02 0.12583243866E+02
 0.11932728635E+02 0.11034600115E+02 0.99733840110E+01 0.88351613387E+01 0.77049211603E+01
 0.66538879700E+01 0.57315031735E+01 0.49635549341E+01 0.43559092666E+01 0.39014198359E+01
 0.35872260719E+01 0.34005956611E+01 0.33326321664E+01 0.33799157704E+01 0.35444791441E+01
 0.38325079714E+01 0.42518220027E+01 0.48078902893E+01 0.54984871281E+01 0.52657456631E+01
 0.59883623232E+01 0.67962305619E+01 0.76543540150E+01 0.85235700678E+01 0.93688985965E+01
 0.10164674235E+02 0.10886479836E+02 0.11516514560E+02 0.12037928835E+02 0.12413276820E+02
 0.12583254039E+02 0.12489627169E+02 0.12108899775E+02 0.11465398441E+02 0.10609157986E+02
 0.96108055786E+01 0.85501095983E+01 0.75031343513E+01 0.65318611061E+01 0.56782342004E+01
 0.49635549341E+01 0.43923588099E+01 0.39585869650E+01 0.36517819946E+01 0.34618408935E+01
 0.33818180311E+01 0.34089918043E+01 0.35447389851E+01 0.37936143775E+01 0.41615547584E+01
 0.46528249878E+01 0.44833573598E+01 0.50183184820E+01 0.56556088925E+01 0.63771744909E+01
 0.71570206976E+01 0.79657165186E+01 0.87757446718E+01 0.95639113953E+01 0.10308161464E+02
 0.10980058134E+02 0.11538767910E+02 0.11932733596E+02 0.12108909441E+02 0.12029493318E+02
 0.11683660910E+02 0.11092034450E+02 0.10302789137E+02 0.93822732948E+01 0.84034864435E+01
 0.74349332027E+01 0.65318611061E+01 0.57315031735E+01 0.50529774710E+01 0.45010369499E+01
 0.40716971410E+01 0.37575612691E+01 0.35514700122E+01 0.34483381043E+01 0.34458423449E+01
 0.35445643387E+01 0.37476241601E+01 0.40594424754E+01 0.39501256065E+01 0.43067707997E+01
 0.47665070208E+01 0.53236127060E+01 0.59655408104E+01 0.66739948144E+01 0.74278847174E+01
 0.82059714713E+01 0.89866451143E+01 0.97440042599E+01 0.10442489257E+02 0.11034595601E+02
 0.11465401267E+02 0.11683666491E+02 0.11654946577E+02 0.11370958081E+02 0.10851990897E+02
 0.10142799771E+02 0.93043169453E+01 0.84034864435E+01 0.75031343513E+01 0.66538879700E+01
 0.58900060697E+01 0.52297863834E+01 0.46794245445E+01 0.42380554454E+01 0.39019443624E+01
 0.36670077276E+01 0.35299963269E+01 0.34890562267E+01 0.35440793292E+01 0.36967790048E+01
 0.36432610757E+01 0.38381505551E+01 0.41304372002E+01 0.45205316099E+01 0.50052321496E+01
 0.55769022479E+01 0.62240859153E+01 0.69328027665E+01 0.76868993716E+01 0.84660560966E+01
 0.92417029311E+01 0.99733817513E+01 0.10609152085E+02 0.11092033591E+02 0.11370959895E+02
 0.11412002931E+02 0.11205784430E+02 0.10769331797E+02 0.10142799771E+02 0.93822732948E+01
 0.85501095983E+01 0.77049211603E+01 0.68938555214E+01 0.61491923441E+01 0.54894300015E+01
 0.49231801767E+01 0.44534982086E+01 0.40809356962E+01 0.38049345075E+01 0.36242677183E+01
 0.35374718319E+01 0.35436507559E+01 0.35434155290E+01 0.35894740054E+01 0.37282540068E+01
 0.39612098227E+01 0.42893429968E+01 0.47118558457E+01 0.52254699408E+01 0.58245246449E+01
 0.65009683407E+01 0.72429027639E+01 0.80311591822E+01 0.88351648810E+01 0.96108050225E+01
 0.10302785525E+02 0.10851987595E+02 0.11205782975E+02 0.11328000217E+02 0.11205784430E+02
 0.10851990897E+02 0.10302789137E+02 0.96108055786E+01 0.88351613387E+01 0.80311550929E+01
 0.72429013891E+01 0.65009665854E+01 0.58245160778E+01 0.52254534460E+01 0.47118352249E+01
 0.42893168987E+01 0.39611709931E+01 0.37282051830E+01 0.35894374580E+01 0.36432595292E+01
 0.35436863736E+01 0.35375432601E+01 0.36243443088E+01 0.38049874184E+01 0.40809614967E+01
 0.44535115383E+01 0.49231917201E+01 0.54894374393E+01 0.61491907860E+01 0.68938495658E+01
 0.77049206800E+01 0.85501157339E+01 0.93822769133E+01 0.10142795688E+02 0.10769325992E+02
 0.11205782975E+02 0.11412002931E+02 0.11370958081E+02 0.11092034450E+02 0.10609157986E+02
 0.99733840110E+01 0.92416948997E+01 0.84660472000E+01 0.76869010603E+01 0.69328064317E+01
 0.62240728051E+01 0.55768733152E+01 0.50052086597E+01 0.45205236478E+01 0.41304313901E+01
 0.38381377733E+01 0.39501504250E+01 0.36968203725E+01 0.35441439946E+01 0.34891352823E+01
 0.35300709124E+01 0.36670608274E+01 0.39019693115E+01 0.42380595397E+01 0.46794221390E+01
 0.52297847063E+01 0.58900024466E+01 0.66538821679E+01 0.75031330831E+01 0.84034912026E+01
 0.93043193340E+01 0.10142795688E+02 0.10851987595E+02 0.11370959895E+02 0.11654946577E+02
 0.11683660910E+02 0.11465398441E+02 0.11034600115E+02 0.10442491262E+02 0.97439969277E+01
 0.89866386387E+01 0.82059746974E+01 0.74278858641E+01 0.66739785209E+01 0.59655149428E+01
 0.53235996162E+01 0.47665143177E+01 0.43067888141E+01 0.44834012776E+01 0.40595016496E+01
 0.37476874395E+01 0.35446287332E+01 0.34459099647E+01 0.34484024793E+01 0.35515107950E+01
 0.37575650165E+01 0.40716791973E+01 0.45010256769E+01 0.50529790193E+01 0.57315013539E+01
 0.65318503329E+01 0.74349271815E+01 0.84034912026E+01 0.93822769133E+01 0.10302785525E+02
 0.11092033591E+02 0.11683666491E+02 0.12029493318E+02 0.12108899775E+02 0.11932728635E+02
 0.11538774750E+02 0.10980061927E+02 0.10308151305E+02 0.95639008816E+01 0.87757489751E+01
 0.79657253378E+01 0.71570136598E+01 0.63771533536E+01 0.56555972386E+01 0.50183349305E+01
 0.52657693329E+01 0.46528750475E+01 0.41616211579E+01 0.37936812253E+01 0.35447946766E+01
 0.34090353747E+01 0.33818486187E+01 0.34618487616E+01 0.36517637476E+01 0.39585608116E+01
 0.43923460021E+01 0.49635528215E+01 0.56782271926E+01 0.65318503329E+01 0.75031330831E+01
 0.85501157339E+01 0.96108050225E+01 0.10609152085E+02 0.11465401267E+02 0.12108909441E+02
 0.12489627169E+02 0.12583243866E+02 0.12413273587E+02 0.12037935405E+02 0.11516513827E+02
 0.10886466908E+02 0.10164667562E+02 0.93689090589E+01 0.85235820865E+01 0.76543499147E+01
 0.67962166681E+01 0.59883600594E+01 0.63082819900E+01 0.54984999267E+01 0.48079330510E+01
 0.42518872845E+01 0.38325636593E+01 0.35445030337E+01 0.33799179982E+01 0.33326298421E+01
 0.34005835948E+01 0.35871938877E+01 0.39013816009E+01 0.43558890390E+01 0.49635528215E+01
 0.57315013539E+01 0.66538821679E+01 0.77049206800E+01 0.88351648810E+01 0.99733817513E+01
 0.11034595601E+02 0.11932733596E+02 0.12583254039E+02 0.12917879336E+02 0.12944235302E+02
 0.12733085219E+02 0.12372446934E+02 0.11920510058E+02 0.11384218303E+02 0.10736080570E+02
 0.99577751216E+01 0.90785424721E+01 0.81462557334E+01 0.72059246623E+01 0.75896720712E+01
 0.66017529380E+01 0.57060449928E+01 0.49413812781E+01 0.43262966499E+01 0.38629058133E+01
 0.35439705998E+01 0.33596591716E+01 0.33023278792E+01 0.33695080593E+01 0.35655221838E+01
 0.39013816009E+01 0.43923460021E+01 0.50529790193E+01 0.58900024466E+01 0.68938495658E+01
 0.80311591822E+01 0.92417029311E+01 0.10442489257E+02 0.11538767910E+02 0.12413276820E+02
 0.12944244930E+02 0.13107409019E+02 0.12981553926E+02 0.12700471709E+02 0.12381197652E+02
 0.12065133312E+02 0.11705248054E+02 0.11207761273E+02 0.10503893437E+02 0.96086122476E+01
 0.86133002488E+01 0.90370991314E+01 0.79310305798E+01 0.68553986238E+01 0.58788058060E+01
 0.50472636976E+01 0.43817323832E+01 0.38835629237E+01 0.35434019600E+01 0.33492619109E+01
 0.32921262513E+01 0.33695080593E+01 0.35871938877E+01 0.39585608116E+01 0.45010256769E+01
 0.52297847063E+01 0.61491907860E+01 0.72429027639E+01 0.84660560966E+01 0.97440042599E+01
 0.10980058134E+02 0.12037928835E+02 0.12733088964E+02 0.12981563052E+02 0.12845602894E+02
 0.12501671742E+02 0.12155896253E+02 0.11943686708E+02 0.11864303352E+02 0.11787681795E+02
 0.11531674247E+02 0.10967001949E+02 0.10092385208E+02 0.10505810263E+02 0.94004170814E+01
 0.82149355324E+01 0.70575021279E+01 0.60086117024E+01 0.51205977203E+01 0.44158285118E+01
 0.38940190152E+01 0.35432010127E+01 0.33492619109E+01 0.33023278792E+01 0.34005835948E+01
 0.36517637476E+01 0.40716791973E+01 0.46794221390E+01 0.54894374393E+01 0.65009683407E+01
 0.76868993716E+01 0.89866451143E+01 0.10308161464E+02 0.11516514560E+02 0.12372441686E+02
 0.12700474537E+02 0.12501681023E+02 0.11960255716E+02 0.11370897308E+02 0.11010601691E+02
 0.11010714810E+02 0.11294787501E+02 0.11618683907E+02 0.11693521315E+02 0.11326090694E+02
 0.11579723484E+02 0.10833228480E+02 0.96882657287E+01 0.84282715740E+01 0.71980853873E+01
 0.60890723389E+01 0.51581264719E+01 0.44273750521E+01 0.38940190152E+01 0.35434019600E+01
 0.33596591716E+01 0.33326298421E+01 0.34618487616E+01 0.37575650165E+01 0.42380595397E+01
 0.49231917201E+01 0.58245246449E+01 0.69328027665E+01 0.82059714713E+01 0.95639113953E+01
 0.10886479836E+02 0.11920509313E+02 0.12381191754E+02 0.12155902715E+02 0.11370910562E+02
 0.10362514560E+02 0.95534203187E+01 0.92764124385E+01 0.96246170120E+01 0.10407201004E+02
 0.11238161952E+02 0.11712572427E+02 0.11634819252E+02 0.11741730207E+02 0.11067708544E+02
 0.98878189768E+01 0.85606370083E+01 0.72702355341E+01 0.61163844169E+01 0.51581264719E+01
 0.44158285118E+01 0.38835629237E+01 0.35439705998E+01 0.33799179982E+01 0.33818486187E+01
 0.35515107950E+01 0.39019693115E+01 0.44535115383E+01 0.52254699408E+01 0.62240859153E+01
 0.74278847174E+01 0.87757446718E+01 0.10164674235E+02 0.11384227561E+02 0.12065133153E+02
 0.11943686826E+02 0.11010615049E+02 0.95534365008E+01 0.80803103809E+01 0.71363012189E+01
 0.70793606461E+01 0.79213681134E+01 0.93201644887E+01 0.10730426630E+02 0.10206440242E+02
 0.11519299206E+02 0.11832674425E+02 0.11207757017E+02 0.99899815425E+01 0.86055755568E+01
 0.72702355341E+01 0.60890723389E+01 0.51205977203E+01 0.43817323832E+01 0.38629058133E+01
 0.35445030337E+01 0.34090353747E+01 0.34484024793E+01 0.36670608274E+01 0.40809614967E+01
 0.47118558457E+01 0.55769022479E+01 0.66739948144E+01 0.79657165186E+01 0.93688985965E+01
 0.10736088261E+02 0.11705260081E+02 0.11864305105E+02 0.11010718689E+02 0.92764297768E+01
 0.71363176569E+01 0.52735242867E+01 0.43312315441E+01 0.46488978055E+01 0.61122919622E+01
 0.82003604923E+01 0.72302937232E+01 0.97790706255E+01 0.11422705949E+02 0.11872356439E+02
 0.11254324871E+02 0.99899815425E+01 0.85606370083E+01 0.71980853873E+01 0.60086117024E+01
 0.50472636976E+01 0.43262966499E+01 0.38325636593E+01 0.35447946766E+01 0.34459099647E+01
 0.35300709124E+01 0.38049874184E+01 0.42893429968E+01 0.50052321496E+01 0.59655408104E+01
 0.71570206976E+01 0.85235700678E+01 0.99577712794E+01 0.11207773379E+02 0.11787689966E+02
 0.11294787266E+02 0.96246262112E+01 0.70793802401E+01 0.43312424372E+01 0.22213430834E+01
 0.14492502414E+01 0.22847332672E+01 0.44486658321E+01 0.31751261118E+01 0.65729568045E+01
 0.95400027349E+01 0.11385714102E+02 0.11872356439E+02 0.11207757017E+02 0.98878189768E+01
 0.84282715740E+01 0.70575021279E+01 0.58788058060E+01 0.49413812781E+01 0.42518872845E+01
 0.37936812253E+01 0.35446287332E+01 0.34891352823E+01 0.36243443088E+01 0.39612098227E+01
 0.45205316099E+01 0.53236127060E+01 0.63771744909E+01 0.76543540150E+01 0.90785312739E+01
 0.10503892235E+02 0.11531684897E+02 0.11618689587E+02 0.10407204801E+02 0.79213819307E+01
 0.46489098813E+01 0.14492472196E+01 -.71662214386E+00 -.11480468852E+01 0.30497920929E+00
 -.10107905517E+01 0.24852763653E+01 0.63406492854E+01 0.95400027349E+01 0.11422705949E+02
 0.11832674425E+02 0.11067708544E+02 0.96882657287E+01 0.82149355324E+01 0.68553986238E+01
 0.57060449928E+01 0.48079330510E+01 0.41616211579E+01 0.37476874395E+01 0.35441439946E+01
 0.35375432601E+01 0.37282540068E+01 0.41304372002E+01 0.47665070208E+01 0.56556088925E+01
 0.67962305619E+01 0.81462470614E+01 0.96085985409E+01 0.10967008341E+02 0.11693535269E+02
 0.11238164818E+02 0.93201677560E+01 0.61123031772E+01 0.22847305253E+01 -.11480675160E+01
 -.31609894277E+01 -.31122110393E+01 -.41692405321E+01 -.14717833655E+01 0.24852763653E+01
 0.65729568045E+01 0.97790706255E+01 0.11519299206E+02 0.11741730207E+02 0.10833228480E+02
 0.94004170814E+01 0.79310305798E+01 0.66017529380E+01 0.54984999267E+01 0.46528750475E+01
 0.40595016496E+01 0.36968203725E+01 0.35436863736E+01 0.35894740054E+01 0.38381505551E+01
 0.43067707997E+01 0.50183184820E+01 0.59883623232E+01 0.72059232907E+01 0.86132856004E+01
 0.10092381531E+02 0.11326104864E+02 0.11712578344E+02 0.10730418508E+02 0.82003623483E+01
 0.44486734554E+01 0.30495898449E+00 -.31122491771E+01 -.47793909836E+01 -.41691397586E+01
 -.33051987458E+01 -.52325847378E+00 0.33272416625E+01 0.71579416687E+01 0.10036339825E+02
 0.11463470135E+02 0.11451791550E+02 0.10418402593E+02 0.89626257033E+01 0.75122674439E+01
 0.62189510846E+01 0.51595259873E+01 0.43580860229E+01 0.38044568319E+01 0.34751812624E+01
 0.33493906524E+01 0.34178235353E+01 0.36860437209E+01 0.41725439959E+01 0.49012452785E+01
 0.58872666607E+01 0.71166985315E+01 0.85264997010E+01 0.99910753513E+01 0.11167209794E+02
 0.11459273395E+02 0.10386482999E+02 0.78283005401E+01 0.41648444190E+01 0.24574897105E+00
 -.28448888212E+01 -.33052367270E+01 -.41692491374E+01 -.28449480709E+01 0.24577355505E+00
 0.41648658496E+01 0.78282573792E+01 0.10386431299E+02 0.11459291190E+02 0.11167271307E+02
 0.99910889620E+01 0.85264476705E+01 0.71166624246E+01 0.58873000890E+01 0.49012921822E+01
 0.41725304550E+01 0.36859968081E+01 0.34178241825E+01 0.33494353698E+01 0.34751830970E+01
 0.38043915216E+01 0.43580417537E+01 0.51595654154E+01 0.62190089616E+01 0.75122564011E+01
 0.89625767884E+01 0.10418405931E+02 0.11451838214E+02 0.11463465228E+02 0.10036268424E+02
 0.71579068695E+01 0.33273016348E+01 -.52319295157E+00 -.42931020936E+00 -.27430138914E+01
 -.31121387682E+01 -.14293534407E+01 0.17614743850E+01 0.54915872845E+01 0.87435873621E+01
 0.10796862171E+02 0.11409869522E+02 0.10805600624E+02 0.95054109522E+01 0.80557765279E+01
 0.67024192966E+01 0.55499235889E+01 0.46461186835E+01 0.39951223564E+01 0.35779991575E+01
 0.33713830776E+01 0.33597364727E+01 0.35413152835E+01 0.39287677868E+01 0.45445859067E+01
 0.54107012036E+01 0.65315297935E+01 0.78731891034E+01 0.93474336659E+01 0.10774304668E+02
 0.11673139671E+02 0.11474435922E+02 0.98395574924E+01 0.68577666491E+01 0.31145385839E+01
 0.35648027253E+01 0.51629953341E+00 -.12378322375E+01 -.11480948910E+01 0.73858019491E+00
 0.38005094164E+01 0.70992972213E+01 0.97390163991E+01 0.11160193663E+02 0.11264886093E+02
 0.10361439243E+02 0.89817557102E+01 0.75674679642E+01 0.62851301999E+01 0.52197482206E+01
 0.44036476381E+01 0.38321867735E+01 0.34839958708E+01 0.33373051119E+01 0.33799361074E+01
 0.36137501059E+01 0.40541533851E+01 0.47244230387E+01 0.56441084595E+01 0.68114745846E+01
 0.81838301746E+01 0.96646454702E+01 0.11050552298E+02 0.11845281227E+02 0.11531718407E+02
 0.98548079051E+01 0.69886247965E+01 0.75361116105E+01 0.46125171286E+01 0.21770477900E+01
 0.99772727616E+00 0.14492634541E+01 0.33566450054E+01 0.60726190308E+01 0.87460171229E+01
 0.10643069168E+02 0.11379687868E+02 0.10991058394E+02 0.98444559343E+01 0.84400692984E+01
 0.70787900969E+01 0.58801486758E+01 0.49085815217E+01 0.41820315715E+01 0.36890113514E+01
 0.34070802124E+01 0.33166262897E+01 0.34089834797E+01 0.36894674934E+01 0.41755452456E+01
 0.48901102370E+01 0.58493962234E+01 0.70457309285E+01 0.84295038084E+01 0.98994332539E+01
 0.11240968199E+02 0.11975302287E+02 0.11651302286E+02 0.10093672820E+02 0.10518437825E+02
 0.84129467466E+01 0.61004266699E+01 0.43163441333E+01 0.36565711178E+01 0.43312113993E+01
 0.60770108408E+01 0.82740614086E+01 0.10202746383E+02 0.11312687438E+02 0.11391045712E+02
 0.10583150193E+02 0.92831418513E+01 0.78986078591E+01 0.66070827495E+01 0.55015513112E+01
 0.46267995431E+01 0.39884461992E+01 0.35700459684E+01 0.33493565434E+01 0.33096283621E+01
 0.34457410442E+01 0.37657414317E+01 0.42880418354E+01 0.50342321106E+01 0.60168819858E+01
 0.72229271053E+01 0.85978208612E+01 0.10039260606E+02 0.11338711797E+02 0.12059622190E+02
 0.11821975628E+02 0.12006650407E+02 0.11049433882E+02 0.94764060334E+01 0.78090884101E+01
 0.66396409239E+01 0.63910414321E+01 0.71362540798E+01 0.85694796290E+01 0.10142916145E+02
 0.11295102441E+02 0.11660511664E+02 0.11177480189E+02 0.10069231935E+02 0.87151402503E+01
 0.73768178039E+01 0.61692167703E+01 0.51623367429E+01 0.43834298863E+01 0.38285296426E+01
 0.34784751821E+01 0.33124052547E+01 0.33165991128E+01 0.34889986614E+01 0.38396159514E+01
 0.43869355435E+01 0.51503901959E+01 0.61385146120E+01 0.73337620709E+01 0.86792844336E+01
 0.10075652583E+02 0.11336434216E+02 0.12083650611E+02 0.12024943513E+02 0.12151258271E+02
 0.11581738064E+02 0.10554977961E+02 0.94961743635E+01 0.88472130999E+01 0.88751361116E+01
 0.95534108178E+01 0.10577280969E+02 0.11502239025E+02 0.11932227322E+02 0.11669953175E+02
 0.10773014119E+02 0.95061575057E+01 0.81661721484E+01 0.68950707825E+01 0.57811211157E+01
 0.48735332814E+01 0.41855322349E+01 0.37066930768E+01 0.34169110323E+01 0.32973337388E+01
 0.33372886787E+01 0.35373265984E+01 0.39084813300E+01 0.44682011528E+01 0.52330939023E+01
 0.62079272054E+01 0.73720837015E+01 0.86689087731E+01 0.10005034496E+02 0.11226694220E+02
 0.11005204125E+02 0.11859974906E+02 0.12196800630E+02 0.12005883635E+02 0.11481029566E+02
 0.10941218337E+02 0.10686832323E+02 0.10858485223E+02 0.11370839514E+02 0.11954920215E+02
 0.12283689097E+02 0.12115857262E+02 0.11392868651E+02 0.10253742038E+02 0.89538203902E+01
 0.76609975102E+01 0.64727497003E+01 0.54563887302E+01 0.46440479444E+01 0.40387113957E+01
 0.36261922136E+01 0.33869261239E+01 0.33046093535E+01 0.33713283111E+01 0.35893377915E+01
 0.39696907495E+01 0.45281407456E+01 0.52782667765E+01 0.62214618307E+01 0.73354257855E+01
 0.85661802010E+01 0.98292241942E+01 0.95556836979E+01 0.10673788825E+02 0.11571178969E+02
 0.12093798725E+02 0.12231444136E+02 0.12122779517E+02 0.11983449649E+02 0.11993500425E+02
 0.12202300807E+02 0.12501672663E+02 0.12679948930E+02 0.12525897483E+02 0.11929410503E+02
 0.10933788467E+02 0.97166972739E+01 0.84464477156E+01 0.72234371711E+01 0.61267715213E+01
 0.52060542231E+01 0.44805366810E+01 0.39467043829E+01 0.35890274236E+01 0.33894882516E+01
 0.33343129105E+01 0.34177879272E+01 0.36431387379E+01 0.40207165389E+01 0.45640170128E+01
 0.52835004311E+01 0.61779679683E+01 0.72251292927E+01 0.83757193645E+01 0.81064915188E+01
 0.91962743715E+01 0.10243803225E+02 0.11155229492E+02 0.11815752831E+02 0.12205649137E+02
 0.12407485656E+02 0.12546620718E+02 0.12710089360E+02 0.12889775405E+02 0.12981533918E+02
 0.12839231047E+02 0.12353155960E+02 0.11512676558E+02 0.10423056451E+02 0.92244703342E+01
 0.80134461896E+01 0.68743192489E+01 0.58704525681E+01 0.50378845954E+01 0.43873318451E+01
 0.39119041359E+01 0.35963166610E+01 0.34246502426E+01 0.33856139327E+01 0.34751738720E+01
 0.36967201132E+01 0.40592349279E+01 0.45737954467E+01 0.52481638699E+01 0.60794525037E+01
 0.70466347922E+01 0.68085586879E+01 0.77712509515E+01 0.87670952107E+01 0.97378164402E+01
 0.10627785166E+02 0.11367433471E+02 0.11924874879E+02 0.12332803132E+02 0.12645054382E+02
 0.12883885208E+02 0.13011685936E+02 0.12944259691E+02 0.12597445815E+02 0.11940573337E+02
 0.11027534601E+02 0.99568095935E+01 0.88130041807E+01 0.76798360876E+01 0.66294939969E+01
 0.57129655379E+01 0.49568963496E+01 0.43669870799E+01 0.39352770213E+01 0.36479594322E+01
 0.34915929712E+01 0.34570676935E+01 0.35414036319E+01 0.37476495086E+01 0.40832141749E+01
 0.45568033630E+01 0.51738496449E+01 0.59306351059E+01 0.57388429995E+01 0.65226315245E+01
 0.73857314698E+01 0.82869876827E+01 0.91805806038E+01 0.10025221405E+02 0.10787494104E+02
 0.11435152283E+02 0.11962058015E+02 0.12371169630E+02 0.12644654850E+02 0.12734865936E+02
 0.12583252994E+02 0.12156017150E+02 0.11473798139E+02 0.10592488623E+02 0.95792493781E+01
 0.85114209752E+01 0.74642277466E+01 0.64997100551E+01 0.56598754588E+01 0.49655466892E+01
 0.44202235147E+01 0.40165697597E+01 0.37429692016E+01 0.35885625494E+01 0.35462519677E+01
 0.36138281995E+01 0.37936696884E+01 0.40914077786E+01 0.45135708015E+01 0.50639445541E+01
 0.49239627559E+01 0.55134788244E+01 0.62022569334E+01 0.69673150684E+01 0.77770407296E+01
 0.85963963565E+01 0.93932454019E+01 0.10142078211E+02 0.10821781637E+02 0.11407478643E+02
 0.11869973166E+02 0.12170129616E+02 0.12261492599E+02 0.12108924229E+02 0.11705907589E+02
 0.11073236892E+02 0.10257400102E+02 0.93227663826E+01 0.83407213648E+01 0.73786249205E+01
 0.64907942353E+01 0.57134097310E+01 0.50642289201E+01 0.45463878791E+01 0.41542542934E+01
 0.38790459806E+01 0.37127643869E+01 0.36502134978E+01 0.36896520785E+01 0.38326421983E+01
 0.40832177630E+01 0.44461285222E+01 0.43578328941E+01 0.47605443782E+01 0.52650355432E+01
 0.58620732509E+01 0.65346024906E+01 0.72594235998E+01 0.80109057148E+01 0.87645924782E+01
 0.94980602638E+01 0.10187759873E+02 0.10803569448E+02 0.11305468435E+02 0.11646492358E+02
 0.11782361323E+02 0.11683672032E+02 0.11345011565E+02 0.10787633126E+02 0.10055855680E+02
 0.92093073468E+01 0.83132160872E+01 0.74286170543E+01 0.66044203190E+01 0.58731748974E+01
 0.52513157636E+01 0.47429820131E+01 0.43452645749E+01 0.40527829809E+01 0.38605598129E+01
 0.37653181605E+01 0.37658536517E+01 0.38629993066E+01 0.40592648377E+01 0.40207510259E+01
 0.42528566897E+01 0.45814001801E+01 0.50048450230E+01 0.55168517380E+01 0.61058020189E+01
 0.67560456575E+01 0.74500057136E+01 0.81694398357E+01 0.88942646702E+01 0.95988330022E+01
 0.10247928700E+02 0.10796197897E+02 0.11193454514E+02 0.11394733800E+02 0.11370960344E+02
 0.11116037006E+02 0.10648512726E+02 0.10008306046E+02 0.92498460236E+01 0.84330920556E+01
 0.76142371221E+01 0.68383327352E+01 0.61357218705E+01 0.55227630192E+01 0.50056170037E+01
 0.45848971642E+01 0.42592628447E+01 0.40272220555E+01 0.38876183754E+01 0.38397546817E+01
 0.38837242610E+01 0.38941482483E+01 0.39697485567E+01 0.41362199206E+01 0.43944444005E+01
 0.47437671283E+01 0.51806309843E+01 0.56982825165E+01 0.62875543716E+01 0.69376450941E+01
 0.76354407576E+01 0.83626999552E+01 0.90920824574E+01 0.97845682044E+01 0.10390983510E+02
 0.10858537235E+02 0.11140531706E+02 0.11205793108E+02 0.11044889814E+02 0.10671922919E+02
 0.10121991677E+02 0.94449611854E+01 0.86966676542E+01 0.79296207274E+01 0.71858960149E+01
 0.64942649459E+01 0.58716868668E+01 0.53272920467E+01 0.48662915646E+01 0.44921953294E+01
 0.42073470851E+01 0.40128066767E+01 0.39085378193E+01 0.39697147010E+01 0.38941854542E+01
 0.39085869917E+01 0.40127970412E+01 0.42073073392E+01 0.44922040741E+01 0.48663497384E+01
 0.53273269650E+01 0.58716717534E+01 0.64942511121E+01 0.71859171902E+01 0.79296418377E+01
 0.86966548652E+01 0.94449401286E+01 0.10121998929E+02 0.10671944687E+02 0.11044888943E+02
 0.11205768932E+02 0.11140516016E+02 0.10858544304E+02 0.10390994386E+02 0.97845634140E+01
 0.90920699543E+01 0.83627013409E+01 0.76354555529E+01 0.69376441347E+01 0.62875214049E+01
 0.56982483332E+01 0.51806349126E+01 0.47437898114E+01 0.43944262415E+01 0.41361573499E+01
 0.42528824459E+01 0.40207277593E+01 0.38836711267E+01 0.38397267271E+01 0.38876336954E+01
 0.40272512343E+01 0.42592758540E+01 0.45848973417E+01 0.50056265913E+01 0.55227860833E+01
 0.61357351635E+01 0.68383208781E+01 0.76142219599E+01 0.84331027746E+01 0.92498695709E+01
 0.10008303753E+02 0.10648484504E+02 0.11116022862E+02 0.11370969738E+02 0.11394727165E+02
 0.11193416955E+02 0.10796175028E+02 0.10247952051E+02 0.95988621609E+01 0.88942533129E+01
 0.81694138896E+01 0.74500147743E+01 0.67560712388E+01 0.61057850658E+01 0.55167947481E+01