    2    2   15    1
  0.1529437E+02  0.3691622E-09  0.3691622E-09  0.3691622E-09  0.5000000E-15
  1.000000000000000E-004
  CAR 
 unknown system                          
      8    126      8
 
  0.0000000E+00  0.0000000E+00  0.0000000E+00  0.7513148E-03
    1       -4.615706   1.000000
    2        6.184364   1.000000
    3        6.298239   1.000000
    4        6.298246   1.000000
    5       10.524256   0.000000
    6       16.771470   0.000000
    7       17.366590   0.000000
    8       17.366599   0.000000
 
  0.9090909E-01 -0.1249769E-17  0.1249769E-17  0.6010518E-02
    1       -4.382293   1.000000
    2        5.428788   1.000000
    3        6.253139   1.000000
    4        7.462581   1.000000
    5       11.006575   0.000000
    6       15.534766   0.000000
    7       16.608678   0.000000
    8       17.377754   0.000000
 
  0.1818182E+00 -0.2499539E-17  0.2499539E-17  0.6010518E-02
    1       -3.683942   1.000000
    2        5.048701   1.000000
    3        6.251978   1.000000
    4        8.995925   0.786475
    5       12.292977   0.000000
    6       13.417840   0.000000
    7       13.815832   0.000000
    8       15.827111   0.000000
 
  0.2727273E+00 -0.2456599E-16  0.2456599E-16  0.6010518E-02
    1       -2.526523   1.000000
    2        5.099159   1.000000
    3        6.476376   1.000000
    4        9.305208   0.081853
    5       11.378670   0.000000
    6       12.088122   0.000000
    7       13.596506   0.000000
    8       14.530367   0.000000
 
  0.3636364E+00 -0.4999077E-17  0.4999077E-17  0.6010518E-02
    1       -0.921498   1.000000
    2        5.520141   1.000000
    3        6.517236   1.000000
    4        6.987254   1.000000
    5        9.648579   0.000067
    6       12.044172   0.000000
    7       13.682740   0.000000
    8       13.825124   0.000000
 
  0.4545455E+00 -0.5101859E-16 -0.4492561E-17  0.6010518E-02
    1        1.101473   1.000000
    2        3.609669   1.000000
    3        6.477143   1.000000
    4        7.624072   1.000000
    5        8.038061   1.000000
    6       10.618321   0.000000
    7       13.524390   0.000000
    8       14.505810   0.000000
 
  0.9090909E-01  0.9090909E-01  0.6302053E-17  0.6010518E-02
    1       -3.781943   1.000000
    2        5.360560   1.000000
    3        7.011682   1.000000
    4        8.068231   1.000000
    5       11.837713   0.000000
    6       13.854633   0.000000
    7       13.985378   0.000000
    8       16.352519   0.000000
 
  0.1818182E+00  0.9090909E-01 -0.1326486E-16  0.1202104E-01
    1       -2.721201   1.000000
    2        5.388292   1.000000
    3        7.488496   1.000000
    4        9.217083   0.220777
    5       11.018438   0.000000
    6       11.546387   0.000000
    7       13.420202   0.000000
    8       14.638029   0.000000
 
  0.2727273E+00  0.9090909E-01  0.1260411E-16  0.1202104E-01
    1       -1.209950   1.000000
    2        5.775332   1.000000
    3        7.113084   1.000000
    4        7.846166   1.000000
    5        9.289076   0.100512
    6       12.042430   0.000000
    7       12.499256   0.000000
    8       13.946761   0.000000
 
  0.3636364E+00  0.9090909E-01  0.3112467E-17  0.1202104E-01
    1        0.729818   1.000000
    2        4.242180   1.000000
    3        6.589319   1.000000
    4        6.985266   1.000000
    5        8.784951   0.988875
    6       10.871162   0.000000
    7       12.816535   0.000000
    8       14.946247   0.000000
 
  0.4545455E+00  0.9090909E-01 -0.2652972E-16  0.1202104E-01
    1        1.647145   1.000000
    2        3.162074   1.000000
    3        5.609546   1.000000
    4        7.431852   1.000000
    5        8.555949   0.999953
    6       11.202155   0.000000
    7       12.561226   0.000000
    8       15.548831   0.000000
 
 -0.4545455E+00  0.9090909E-01 -0.1715602E-16  0.1202104E-01
    1       -0.442599   1.000000
    2        4.509545   1.000000
    3        5.947895   1.000000
    4        7.009413   1.000000
    5        9.641847   0.000081
    6       12.336029   0.000000
    7       13.017697   0.000000
    8       14.803094   0.000000
 
 -0.3636364E+00  0.9090909E-01  0.3189586E-17  0.1202104E-01
    1       -2.138275   1.000000
    2        3.940510   1.000000
    3        6.432261   1.000000
    4        8.919610   0.908877
    5       11.264906   0.000000
    6       12.509959   0.000000
    7       13.364444   0.000000
    8       14.768268   0.000000
 
 -0.2727273E+00  0.9090909E-01  0.1302975E-17  0.1202104E-01
    1       -3.390367   1.000000
    2        3.772258   1.000000
    3        6.202778   1.000000
    4        9.878487   0.000000
    5       12.570641   0.000000
    6       13.067755   0.000000
    7       13.686595   0.000000
    8       15.291000   0.000000
 
 -0.1818182E+00  0.9090909E-01  0.7590381E-17  0.1202104E-01
    1       -4.185687   1.000000
    2        4.029614   1.000000
    3        6.272755   1.000000
    4        8.429539   0.999999
    5       12.100863   0.000000
    6       14.044081   0.000000
    7       15.973075   0.000000
    8       17.043940   0.000000
 
 -0.9090909E-01  0.9090909E-01  0.1699965E-18  0.3005259E-02
    1       -4.517257   1.000000
    2        4.681780   1.000000
    3        6.389392   1.000000
    4        7.444818   1.000000
    5       11.139237   0.000000
    6       15.249120   0.000000
    7       16.599678   0.000000
    8       18.892445   0.000000
 
  0.1818182E+00  0.1818182E+00  0.1260411E-16  0.6010518E-02
    1       -1.306175   1.000000
    2        5.770079   1.000000
    3        7.742496   1.000000
    4        7.854339   1.000000
    5        9.493235   0.003242
    6       11.336433   0.000000
    7       12.924502   0.000000
    8       13.076372   0.000000
 
  0.2727273E+00  0.1818182E+00  0.3086804E-16  0.1202104E-01
    1        0.542424   1.000000
    2        5.041326   1.000000
    3        5.980906   1.000000
    4        6.523696   1.000000
    5        9.776753   0.000001
    6       11.523528   0.000000
    7       12.212406   0.000000
    8       13.598787   0.000000
 
  0.3636364E+00  0.1818182E+00 -0.2652972E-16  0.1202104E-01
    1        2.303026   1.000000
    2        2.957534   1.000000
    3        4.477867   1.000000
    4        7.421760   1.000000
    5        9.089186   0.553613
    6       11.147432   0.000000
    7       12.814562   0.000000
    8       15.934370   0.000000
 
  0.4545455E+00  0.1818182E+00 -0.6607546E-18  0.1202104E-01
    1        0.223570   1.000000
    2        3.260465   1.000000
    3        5.573150   1.000000
    4        7.473393   1.000000
    5        9.368884   0.032667
    6       11.375122   0.000000
    7       14.112503   0.000000
    8       15.675696   0.000000
 
 -0.4545455E+00  0.1818182E+00 -0.2664766E-16  0.1202104E-01
    1       -1.558228   1.000000
    2        2.566031   1.000000
    3        6.877819   1.000000
    4        8.557236   0.999951
    5       10.469689   0.000000
    6       12.450675   0.000000
    7       13.281277   0.000000
    8       15.916071   0.000000
 
 -0.3636364E+00  0.1818182E+00  0.1518076E-16  0.1202104E-01
    1       -2.902570   1.000000
    2        2.296674   1.000000
    3        6.602639   1.000000
    4       10.449346   0.000000
    5       11.415911   0.000000
    6       12.612006   0.000000
    7       14.434719   0.000000
    8       15.957471   0.000000
 
 -0.2727273E+00  0.1818182E+00 -0.1322630E-16  0.1202104E-01
    1       -3.793267   1.000000
    2        2.464767   1.000000
    3        6.620851   1.000000
    4        9.131962   0.433418
    5       12.519156   0.000000
    6       13.945111   0.000000
    7       14.921208   0.000000
    8       16.539903   0.000000
 
 -0.1818182E+00  0.1818182E+00  0.3399929E-18  0.3005259E-02
    1       -4.222198   1.000000
    2        3.059204   1.000000
    3        6.662739   1.000000
    4        8.221387   1.000000
    5       12.755551   0.000000
    6       13.594004   0.000000
    7       15.285179   0.000000
    8       19.324452   0.000000
 
  0.2727273E+00  0.2727273E+00 -0.6379172E-17  0.6010518E-02
    1        2.580381   1.000000
    2        3.360377   1.000000
    3        3.554567   1.000000
    4        7.413465   1.000000
    5        9.506057   0.002455
    6       10.576875   0.000000
    7       14.000315   0.000000
    8       14.835960   0.000000
 
  0.3636364E+00  0.2727273E+00 -0.3602136E-16  0.1202104E-01
    1        1.071438   1.000000
    2        2.091619   1.000000
    3        5.389124   1.000000
    4        8.010593   1.000000
    5        9.020874   0.731656
    6       10.710340   0.000000
    7       15.387611   0.000000
    8       16.210530   0.000000
 
  0.4545455E+00  0.2727273E+00  0.2520821E-16  0.1202104E-01
    1       -0.789773   1.000000
    2        1.286974   1.000000
    3        7.520445   1.000000
    4        8.328626   1.000000
    5        9.499562   0.002829
    6       12.066006   0.000000
    7       13.977020   0.000000
    8       15.857991   0.000000
 
 -0.4545455E+00  0.2727273E+00  0.1937185E-16  0.1202104E-01
    1       -2.222705   1.000000
    2        0.919750   1.000000
    3        7.220477   1.000000
    4       10.085930   0.000000
    5       10.975302   0.000000
    6       12.513245   0.000000
    7       14.191633   0.000000
    8       14.944113   0.000000
 
 -0.3636364E+00  0.2727273E+00 -0.1702881E-16  0.1202104E-01
    1       -3.206746   1.000000
    2        0.998692   1.000000
    3        7.164645   1.000000
    4        9.813415   0.000000
    5       11.126218   0.000000
    6       13.710612   0.000000
    7       15.710491   0.000000
    8       16.337308   0.000000
 
 -0.2727273E+00  0.2727273E+00 -0.1434744E-16  0.3005259E-02
    1       -3.731850   1.000000
    2        1.519632   1.000000
    3        7.118081   1.000000
    4        8.880307   0.946496
    5       12.084925   0.000000
    6       13.931699   0.000000
    7       14.889425   0.000000
    8       19.067160   0.000000
 
  0.3636364E+00  0.3636364E+00  0.2520821E-16  0.6010518E-02
    1        0.157337   1.000000
    2        0.166216   1.000000
    3        8.022184   1.000000
    4        8.311650   1.000000
    5        8.810852   0.982263
    6       11.942061   0.000000
    7       14.525460   0.000000
    8       15.315714   0.000000
 
  0.4545455E+00  0.3636364E+00 -0.3979458E-16  0.1202104E-01
    1       -1.354461   1.000000
    2       -0.303772   1.000000
    3        8.021722   1.000000
    4        8.991691   0.795083
    5       11.135986   0.000000
    6       12.794801   0.000000
    7       14.027431   0.000000
    8       14.074607   0.000000
 
 -0.4545455E+00  0.3636364E+00 -0.1340671E-16  0.1202104E-01
    1       -2.428840   1.000000
    2       -0.317527   1.000000
    3        7.891867   1.000000
    4        9.875824   0.000000
    5       10.601006   0.000000
    6       12.565753   0.000000
    7       15.749097   0.000000
    8       16.493472   0.000000
 
 -0.3636364E+00  0.3636364E+00  0.6799859E-18  0.3005259E-02
    1       -3.048309   1.000000
    2        0.119519   1.000000
    3        7.754746   1.000000
    4        9.613959   0.000175
    5       10.739586   0.000000
    6       12.654200   0.000000
    7       17.192141   0.000000
    8       18.874270   0.000000
 
  0.4545455E+00  0.4545455E+00 -0.4928622E-16  0.6010518E-02
    1       -1.463842   1.000000
    2       -1.463167   1.000000
    3        8.786397   0.988572
    4        8.810030   0.982516
    5       11.456106   0.000000
    6       11.578517   0.000000
    7       15.680709   0.000000
    8       16.460460   0.000000
 
 -0.4545455E+00  0.4545455E+00 -0.2152036E-17  0.3005259E-02
    1       -2.174878   1.000000
    2       -1.116142   1.000000
    3        8.571926   0.999925
    4        9.567610   0.000581
    5       10.482151   0.000000
    6       11.497657   0.000000
    7       18.787310   0.000000
    8       18.823960   0.000000
 
  0.9090909E-01  0.9090909E-01  0.9090909E-01  0.6010518E-02
    1       -3.487990   1.000000
    2        3.755292   1.000000
    3        7.277272   1.000000
    4        8.829879   0.975487
    5       12.817664   0.000000
    6       13.427876   0.000000
    7       13.723566   0.000000
    8       15.467366   0.000000
 
  0.1818182E+00  0.9090909E-01  0.9090909E-01  0.1202104E-01
    1       -2.331811   1.000000
    2        3.857741   1.000000
    3        7.786997   1.000000
    4        9.349940   0.043724
    5       10.837965   0.000000
    6       11.296832   0.000000
    7       14.268549   0.000000
    8       15.147559   0.000000
 
  0.2727273E+00  0.9090909E-01  0.9090909E-01  0.1202104E-01
    1       -0.728495   1.000000
    2        4.366993   1.000000
    3        6.610290   1.000000
    4        7.902954   1.000000
    5        9.352325   0.042185
    6       12.756660   0.000000
    7       13.356202   0.000000
    8       14.147083   0.000000
 
  0.3636364E+00  0.9090909E-01  0.9090909E-01  0.1202104E-01
    1        1.291501   1.000000
    2        3.780949   1.000000
    3        5.358288   1.000000
    4        6.642583   1.000000
    5        9.596217   0.000280
    6       11.755064   0.000000
    7       13.734444   0.000000
    8       14.438878   0.000000
 
 -0.9090909E-01  0.9090909E-01  0.9090909E-01  0.3005259E-02
    1       -4.418922   1.000000
    2        4.363617   1.000000
    3        5.601507   1.000000
    4        8.440576   0.999999
    5       11.598606   0.000000
    6       14.046357   0.000000
    7       17.528362   0.000000
    8       18.093239   0.000000
 
  0.1818182E+00  0.1818182E+00  0.9090909E-01  0.6010518E-02
    1       -0.824109   1.000000
    2        4.303014   1.000000
    3        7.351445   1.000000
    4        7.435264   1.000000
    5        9.979520   0.000000
    6       11.869153   0.000000
    7       13.995557   0.000000
    8       14.233813   0.000000
 
  0.2727273E+00  0.1818182E+00  0.9090909E-01  0.1202104E-01
    1        1.109180   1.000000
    2        4.557590   1.000000
    3        5.192820   1.000000
    4        5.639469   1.000000
    5       10.742892   0.000000
    6       12.690611   0.000000
    7       13.228014   0.000000
    8       14.147181   0.000000
 
  0.3636364E+00  0.1818182E+00  0.9090909E-01  0.1202104E-01
    1        2.026125   1.000000
    2        3.464758   1.000000
    3        4.191498   1.000000
    4        6.435346   1.000000
    5       10.375175   0.000000
    6       12.399377   0.000000
    7       13.517727   0.000000
    8       15.250136   0.000000
 
  0.4545455E+00  0.1818182E+00  0.9090909E-01  0.1202104E-01
    1       -0.058220   1.000000
    2        3.028107   1.000000
    3        6.267509   1.000000
    4        7.865071   1.000000
    5        9.718829   0.000008
    6       12.564947   0.000000
    7       13.537570   0.000000
    8       14.976720   0.000000
 
 -0.4545455E+00  0.1818182E+00  0.9090909E-01  0.1202104E-01
    1       -1.749885   1.000000
    2        2.413810   1.000000
    3        8.213211   1.000000
    4        9.211139   0.233446
    5       10.582408   0.000000
    6       11.563430   0.000000
    7       13.115496   0.000000
    8       15.011018   0.000000
 
 -0.3636364E+00  0.1818182E+00  0.9090909E-01  0.6010518E-02
    1       -2.999457   1.000000
    2        2.227280   1.000000
    3        7.717385   1.000000
    4        9.460626   0.006357
    5       12.088506   0.000000
    6       12.957802   0.000000
    7       14.128440   0.000000
    8       14.830026   0.000000
 
 -0.1818182E+00  0.1818182E+00  0.9090909E-01  0.6010518E-02
    1       -4.124247   1.000000
    2        3.075356   1.000000
    3        5.547554   1.000000
    4        9.418349   0.014163
    5       12.446120   0.000000
    6       13.006057   0.000000
    7       16.458190   0.000000
    8       18.806804   0.000000
 
 -0.9090909E-01  0.1818182E+00  0.9090909E-01  0.6010518E-02
    1       -3.989582   1.000000
    2        3.729499   1.000000
    3        5.176576   1.000000
    4        9.776926   0.000001
    5       12.548998   0.000000
    6       12.828331   0.000000
    7       15.789618   0.000000
    8       18.016860   0.000000
 
  0.2727273E+00  0.2727273E+00  0.9090909E-01  0.6010518E-02
    1        2.799601   1.000000
    2        2.993796   1.000000
    3        3.633569   1.000000
    4        6.362865   1.000000
    5       10.936957   0.000000
    6       11.869511   0.000000
    7       14.687663   0.000000
    8       14.878905   0.000000
 
  0.3636364E+00  0.2727273E+00  0.9090909E-01  0.1202104E-01
    1        0.796799   1.000000
    2        1.829761   1.000000
    3        6.093886   1.000000
    4        7.803821   1.000000
    5       10.327105   0.000000
    6       11.571241   0.000000
    7       14.222827   0.000000
    8       15.402157   0.000000
 
  0.4545455E+00  0.2727273E+00  0.9090909E-01  0.1202104E-01
    1       -0.978384   1.000000
    2        1.112960   1.000000
    3        8.633509   0.999606
    4        9.099146   0.525661
    5       10.409517   0.000000
    6       11.813752   0.000000
    7       12.451097   0.000000
    8       14.140654   0.000000
 
 -0.4545455E+00  0.2727273E+00  0.9090909E-01  0.6010518E-02
    1       -2.318445   1.000000
    2        0.835250   1.000000
    3        8.326829   1.000000
    4       10.115288   0.000000
    5       11.101779   0.000000
    6       12.446628   0.000000
    7       13.601663   0.000000
    8       13.930976   0.000000
 
 -0.2727273E+00  0.2727273E+00  0.9090909E-01  0.6010518E-02
    1       -3.634595   1.000000
    2        1.589065   1.000000
    3        5.953340   1.000000
    4       10.156911   0.000000
    5       10.945000   0.000000
    6       15.052266   0.000000
    7       15.141129   0.000000
    8       18.860588   0.000000
 
 -0.1818182E+00  0.2727273E+00  0.9090909E-01  0.1202104E-01
    1       -3.598268   1.000000
    2        2.547288   1.000000
    3        5.127437   1.000000
    4       10.760915   0.000000
    5       11.023523   0.000000
    6       14.345894   0.000000
    7       15.315776   0.000000
    8       17.226663   0.000000
 
 -0.9090909E-01  0.2727273E+00  0.9090909E-01  0.6010518E-02
    1       -3.098042   1.000000
    2        3.537967   1.000000
    3        5.092621   1.000000
    4       10.782006   0.000000
    5       11.454229   0.000000
    6       12.890577   0.000000
    7       14.482125   0.000000
    8       15.588023   0.000000
 
  0.3636364E+00  0.3636364E+00  0.9090909E-01  0.6010518E-02
    1       -0.023151   1.000000
    2       -0.020232   1.000000
    3        8.775681   0.990654
    4        9.130415   0.437725
    5       10.387410   0.000000
    6       11.482228   0.000000
    7       12.893060   0.000000
    8       13.451528   0.000000
 
  0.4545455E+00  0.3636364E+00  0.9090909E-01  0.6010518E-02
    1       -1.448505   1.000000
    2       -0.394491   1.000000
    3        9.094322   0.539224
    4        9.978773   0.000000
    5       10.996265   0.000000
    6       11.770132   0.000000
    7       13.346736   0.000000
    8       13.422646   0.000000
 
 -0.3636364E+00  0.3636364E+00  0.9090909E-01  0.6010518E-02
    1       -2.952207   1.000000
    2        0.204280   1.000000
    3        6.583689   1.000000
    4        9.595542   0.000285
    5       10.907358   0.000000
    6       13.896185   0.000000
    7       17.280575   0.000000
    8       18.579312   0.000000
 
 -0.2727273E+00  0.3636364E+00  0.9090909E-01  0.1202104E-01
    1       -3.013617   1.000000
    2        1.152113   1.000000
    3        5.600104   1.000000
    4        9.584389   0.000380
    5       11.544402   0.000000
    6       14.606440   0.000000
    7       16.209461   0.000000
    8       16.648612   0.000000
 
 -0.1818182E+00  0.3636364E+00  0.9090909E-01  0.1202104E-01
    1       -2.612338   1.000000
    2        2.460594   1.000000
    3        5.090117   1.000000
    4        9.877760   0.000000
    5       11.056373   0.000000
    6       13.321681   0.000000
    7       15.336118   0.000000
    8       16.405977   0.000000
 
 -0.9090909E-01  0.3636364E+00  0.9090909E-01  0.6010518E-02
    1       -1.752358   1.000000
    2        3.786316   1.000000
    3        5.391470   1.000000
    4        8.390869   1.000000
    5       10.493664   0.000000
    6       13.170435   0.000000
    7       14.351390   0.000000
    8       14.613530   0.000000
 
 -0.4545455E+00  0.4545455E+00  0.9090909E-01  0.6010518E-02
    1       -2.080511   1.000000
    2       -1.025124   1.000000
    3        7.406947   1.000000
    4        8.413411   1.000000
    5       11.768698   0.000000
    6       12.766374   0.000000
    7       18.328279   0.000000
    8       18.424236   0.000000
 
 -0.3636364E+00  0.4545455E+00  0.9090909E-01  0.1202104E-01
    1       -2.238581   1.000000
    2       -0.142032   1.000000
    3        6.314592   1.000000
    4        8.320078   1.000000
    5       12.289067   0.000000
    6       13.993726   0.000000
    7       15.624467   0.000000
    8       17.441208   0.000000
 
 -0.2727273E+00  0.4545455E+00  0.9090909E-01  0.1202104E-01
    1       -1.936262   1.000000
    2        1.162864   1.000000
    3        5.636829   1.000000
    4        8.581963   0.999901
    5       10.873334   0.000000
    6       13.971361   0.000000
    7       15.219554   0.000000
    8       16.772082   0.000000
 
 -0.1818182E+00  0.4545455E+00  0.9090909E-01  0.1202104E-01
    1       -1.176501   1.000000
    2        2.816002   1.000000
    3        5.453123   1.000000
    4        7.967808   1.000000
    5        9.264320   0.134885
    6       13.231855   0.000000
    7       15.020321   0.000000
    8       15.853621   0.000000
 
 -0.9090909E-01  0.4545455E+00  0.9090909E-01  0.6010518E-02
    1        0.031578   1.000000
    2        4.404531   1.000000
    3        5.479474   1.000000
    4        6.073602   1.000000
    5        9.667192   0.000039
    6       11.886833   0.000000
    7       12.808058   0.000000
    8       16.210709   0.000000
 
 -0.4545455E+00 -0.4545455E+00  0.9090909E-01  0.6010518E-02
    1       -1.279448   1.000000
    2       -1.277529   1.000000
    3        7.220515   1.000000
    4        7.231221   1.000000
    5       12.864964   0.000000
    6       13.441736   0.000000
    7       15.406417   0.000000
    8       17.446929   0.000000
 
 -0.3636364E+00 -0.4545455E+00  0.9090909E-01  0.1202104E-01
    1       -1.074282   1.000000
    2       -0.035036   1.000000
    3        6.431856   1.000000
    4        7.421673   1.000000
    5       10.753479   0.000000
    6       14.695502   0.000000
    7       15.109571   0.000000
    8       15.897296   0.000000
 
 -0.2727273E+00 -0.4545455E+00  0.9090909E-01  0.1202104E-01
    1       -0.415006   1.000000
    2        1.621063   1.000000
    3        6.066498   1.000000
    4        7.630809   1.000000
    5        8.158085   1.000000
    6       13.085999   0.000000
    7       15.837111   0.000000
    8       17.024392   0.000000
 
 -0.1818182E+00 -0.4545455E+00  0.9090909E-01  0.1202104E-01
    1        0.689431   1.000000
    2        3.576337   1.000000
    3        5.062911   1.000000
    4        6.235691   1.000000
    5        8.832234   0.974514
    6       11.567084   0.000000
    7       13.796476   0.000000
    8       17.090052   0.000000
 
 -0.9090909E-01 -0.4545455E+00  0.9090909E-01  0.6010518E-02
    1        2.113131   1.000000
    2        2.789071   1.000000
    3        5.652844   1.000000
    4        7.065212   1.000000
    5        8.716345   0.997207
    6       11.322246   0.000000
    7       11.398340   0.000000
    8       16.506083   0.000000
 
 -0.3636364E+00 -0.3636364E+00  0.9090909E-01  0.6010518E-02
    1        0.516144   1.000000
    2        0.531380   1.000000
    3        6.882067   1.000000
    4        6.921640   1.000000
    5        7.781770   1.000000
    6       13.021363   0.000000
    7       16.343170   0.000000
    8       17.323246   0.000000
 
 -0.2727273E+00 -0.3636364E+00  0.9090909E-01  0.1202104E-01
    1        1.521565   1.000000
    2        2.508707   1.000000
    3        4.858008   1.000000
    4        6.916229   1.000000
    5        7.838462   1.000000
    6       11.386244   0.000000
    7       15.214699   0.000000
    8       16.720586   0.000000
 
 -0.1818182E+00 -0.3636364E+00  0.9090909E-01  0.1202104E-01
    1        2.251006   1.000000
    2        3.097933   1.000000
    3        4.903139   1.000000
    4        7.261061   1.000000
    5        8.580609   0.999905
    6       10.604914   0.000000
    7       12.357408   0.000000
    8       15.630594   0.000000
 
 -0.9090909E-01 -0.3636364E+00  0.9090909E-01  0.6010518E-02
    1        0.352054   1.000000
    2        4.868694   1.000000
    3        7.006595   1.000000
    4        7.957129   1.000000
    5        7.963689   1.000000
    6       10.718692   0.000000
    7       11.650390   0.000000
    8       14.304934   0.000000
 
 -0.2727273E+00 -0.2727273E+00  0.9090909E-01  0.6010518E-02
    1        2.199575   1.000000
    2        3.881731   1.000000
    3        3.981467   1.000000
    4        7.693186   1.000000
    5        8.185001   1.000000
    6       10.345687   0.000000
    7       13.492607   0.000000
    8       14.440179   0.000000
 
 -0.1818182E+00 -0.2727273E+00  0.9090909E-01  0.1202104E-01
    1        0.162322   1.000000
    2        5.643767   1.000000
    3        6.498157   1.000000
    4        7.660219   1.000000
    5        8.830646   0.975174
    6       10.670076   0.000000
    7       11.559587   0.000000
    8       13.005253   0.000000
 
 -0.9090909E-01 -0.2727273E+00  0.9090909E-01  0.6010518E-02
    1       -1.499779   1.000000
    2        6.939089   1.000000
    3        7.744249   1.000000
    4        7.933053   1.000000
    5        9.216194   0.222646
    6       11.382633   0.000000
    7       11.781387   0.000000
    8       13.087039   0.000000
 
 -0.1818182E+00 -0.1818182E+00  0.9090909E-01  0.6010518E-02
    1       -1.596597   1.000000
    2        7.238370   1.000000
    3        8.157198   1.000000
    4        8.261110   1.000000
    5        9.159344   0.358939
    6       10.649890   0.000000
    7       12.134832   0.000000
    8       12.296358   0.000000
 
 -0.9090909E-01 -0.1818182E+00  0.9090909E-01  0.6010518E-02
    1       -2.916284   1.000000
    2        6.735886   1.000000
    3        7.469583   1.000000
    4        8.558815   0.999949
    5       11.304026   0.000000
    6       11.793722   0.000000
    7       12.415604   0.000000
    8       14.150761   0.000000
 
 -0.9090909E-01 -0.9090909E-01  0.9090909E-01  0.1502630E-02
    1       -3.880052   1.000000
    2        6.860156   1.000000
    3        6.922899   1.000000
    4        6.922905   1.000000
    5       11.262498   0.000000
    6       14.052234   0.000000
    7       14.363097   0.000000
    8       16.419037   0.000000
 
  0.1818182E+00  0.1818182E+00  0.1818182E+00  0.6010518E-02
    1       -0.152542   1.000000
    2        2.946665   1.000000
    3        7.068896   1.000000
    4        7.118714   1.000000
    5       10.633069   0.000000
    6       12.431771   0.000000
    7       13.839485   0.000000
    8       14.470125   0.000000
 
  0.2727273E+00  0.1818182E+00  0.1818182E+00  0.1202104E-01
    1        1.857269   1.000000
    2        3.817244   1.000000
    3        4.455586   1.000000
    4        5.364003   1.000000
    5       11.676778   0.000000
    6       13.785519   0.000000
    7       13.912247   0.000000
    8       14.508582   0.000000
 
 -0.1818182E+00  0.1818182E+00  0.1818182E+00  0.3005259E-02
    1       -3.830851   1.000000
    2        2.836050   1.000000
    3        4.419191   1.000000
    4       10.840085   0.000000
    5       10.915868   0.000000
    6       13.909693   0.000000
    7       17.713759   0.000000
    8       18.010069   0.000000
 
  0.2727273E+00  0.2727273E+00  0.1818182E+00  0.6010518E-02
    1        2.755739   1.000000
    2        2.794988   1.000000
    3        4.326396   1.000000
    4        5.275696   1.000000
    5       12.366856   0.000000
    6       13.167043   0.000000
    7       14.380460   0.000000
    8       15.237165   0.000000
 
  0.3636364E+00  0.2727273E+00  0.1818182E+00  0.6010518E-02
    1        0.704701   1.000000
    2        1.741116   1.000000
    3        6.929216   1.000000
    4        6.945594   1.000000
    5       11.453163   0.000000
    6       12.371272   0.000000
    7       13.431426   0.000000
    8       14.077112   0.000000
 
 -0.2727273E+00  0.2727273E+00  0.1818182E+00  0.6010518E-02
    1       -3.343426   1.000000
    2        1.752320   1.000000
    3        4.413813   1.000000
    4        9.328293   0.059860
    5       11.990941   0.000000
    6       15.608989   0.000000
    7       16.756066   0.000000
    8       18.468474   0.000000
 
 -0.1818182E+00  0.2727273E+00  0.1818182E+00  0.6010518E-02
    1       -3.209320   1.000000
    2        2.386546   1.000000
    3        4.046366   1.000000
    4        9.442556   0.009042
    5       12.205037   0.000000
    6       14.986837   0.000000
    7       15.440964   0.000000
    8       18.563989   0.000000
 
 -0.3636364E+00  0.3636364E+00  0.1818182E+00  0.6010518E-02
    1       -2.664735   1.000000
    2        0.447940   1.000000
    3        4.965581   1.000000
    4        7.967392   1.000000
    5       12.848919   0.000000
    6       15.691356   0.000000
    7       17.527703   0.000000
    8       18.169257   0.000000
 
 -0.2727273E+00  0.3636364E+00  0.1818182E+00  0.1202104E-01
    1       -2.628685   1.000000
    2        1.403189   1.000000
    3        4.107109   1.000000
    4        8.006176   1.000000
    5       13.008559   0.000000
    6       14.882446   0.000000
    7       17.233746   0.000000
    8       17.948269   0.000000
 