       N       E                     dE             d eps       ncg     rms          rms(c)
DAV:   1     0.497672412545E+00    0.49767E+00   -0.26174E+03  2040   0.520E+02
DAV:   2    -0.101345657648E+02   -0.10632E+02   -0.10193E+02  3000   0.623E+01
DAV:   3    -0.102514378028E+02   -0.11687E+00   -0.11606E+00  2808   0.772E+00
DAV:   4    -0.102517189923E+02   -0.28119E-03   -0.28117E-03  3120   0.340E-01
DAV:   5    -0.102517191775E+02   -0.18527E-06   -0.18576E-06  2736   0.600E-03    0.150E+00
DAV:   6    -0.102470568923E+02    0.46623E-02   -0.17960E-03  2616   0.326E-01    0.938E-01
DAV:   7    -0.102431560519E+02    0.39008E-02   -0.53062E-03  2304   0.572E-01    0.334E-02
DAV:   8    -0.102431406507E+02    0.15401E-04   -0.82066E-05  1528   0.756E-02
   1 F= -.10243141E+02 E0= -.10235301E+02  d E =-.102431E+02
       N       E                     dE             d eps       ncg     rms          rms(c)
DAV:   1    -0.102690382124E+02   -0.25882E-01   -0.72522E-01  2960   0.492E+00    0.522E-01
DAV:   2    -0.102614788843E+02    0.75593E-02   -0.15982E-02  2568   0.989E-01    0.291E-01
DAV:   3    -0.102578466416E+02    0.36322E-02   -0.10047E-02  2904   0.552E-01    0.269E-02
DAV:   4    -0.102578763447E+02   -0.29703E-04   -0.37568E-04  1368   0.162E-01
   2 F= -.10257876E+02 E0= -.10249851E+02  d E =-.147357E-01
       N       E                     dE             d eps       ncg     rms          rms(c)
DAV:   1    -0.102579427862E+02   -0.96145E-04   -0.14134E-03  2672   0.221E-01    0.171E-02
DAV:   2    -0.102579368789E+02    0.59073E-05   -0.25383E-05  1144   0.416E-02
   3 F= -.10257937E+02 E0= -.10249910E+02  d E =-.147962E-01
       N       E                     dE             d eps       ncg     rms          rms(c)
DAV:   1    -0.102580011950E+02   -0.58409E-04   -0.46741E-03  3048   0.393E-01    0.419E-02
DAV:   2    -0.102579530056E+02    0.48189E-04   -0.95624E-05  1216   0.780E-02
   4 F= -.10257953E+02 E0= -.10249894E+02  d E =-.148124E-01
