unknown system                          
   1.00000000000000     
    -2.262861    2.262861    1.291279
     2.262861   -2.262861    1.291279
     2.262861    2.262861   -1.291279
   Si
     2
Direct
  0.000000  0.000000  0.000000
  0.250000  0.750000  0.500000
 
   32   32   32
 -4.8590     -3.9233     -1.3742      2.1117      5.6837      8.5897      10.371      10.932      10.491      9.4601    
  8.2675      7.1230      6.1259      5.3348      4.7722      4.4390      4.3289      4.4390      4.7722      5.3348    
  6.1259      7.1230      8.2675      9.4601      10.491      10.932      10.371      8.5896      5.6837      2.1117    
 -1.3743     -3.9233     -3.9233     -4.3534     -2.9740     -.17096      3.3175      6.6613      9.1928      10.564    
  10.779      10.121      9.0198      7.8460      6.7527      5.8262      5.1129      4.6276      4.3681      4.3288    
  4.5085      4.9124      5.5466      6.4062      7.4602      8.6394      9.8313      10.766      11.000      10.159    
  8.1019      5.0195      1.4562     -1.7970     -1.3743     -2.9740     -2.9116     -1.2175      1.6298      4.8836    
  7.7863      9.7892      10.667      10.515      9.6632      8.5302      7.3927      6.3654      5.5199      4.8905    
  4.4849      4.2990      4.3283      4.5739      5.0425      5.7391      6.6543      7.7492      8.9459      10.118    
  10.952      11.019      9.9990      7.8300      4.7845      1.4562      2.1117     -.17098     -1.2175     -.74662    
  1.0885      3.7625      6.5733      8.8762      10.260      10.621      10.130      9.1382      8.0109      6.9264    
  5.9775      5.2200      4.6768      4.3500      4.2347      4.3279      4.6328      5.1569      5.9038      6.8593    
  7.9775      9.1742      10.311      11.058      11.019      9.9395      7.8300      5.0195      5.6837      3.3175    
  1.6297      1.0885      1.8325      3.6211      5.9312      8.1490      9.7678      10.517      10.399      9.6382    
  8.5779      7.4823      6.4664      5.6048      4.9383      4.4800      4.2283      4.1780      4.3277      4.6827    
  5.2510      6.0338      7.0122      8.1351      9.3150      10.408      11.092      11.019      9.9990      8.1019    
  8.5896      6.6613      4.8836      3.7625      3.6211      4.4797      6.0531      7.8643      9.4167      10.348    
  10.517      10.009      9.0753      8.0098      6.9657      6.0305      5.2612      4.6849      4.3073      4.1241    
  4.1307      4.3278      4.7221      5.3210      6.1234      7.1065      8.2156      9.3626      10.408      11.058    
  11.019      10.159      10.371      9.1928      7.7863      6.5734      5.9312      6.0531      6.8763      8.1126    
  9.3627      10.258      10.571      10.269      9.4936      8.4928      7.4570      6.4813      5.6350      4.9586    
  4.4682      4.1640      4.0406      4.0946      4.3283      4.7492      5.3641      6.1691      7.1384      8.2156    
  9.3150      10.311      10.952      11.000      10.932      10.564      9.7892      8.8762      8.1490      7.8643    
  8.1126      8.7857      9.6252      10.325      10.641      10.462      9.8321      8.9233      7.9265      6.9432    
  6.0484      5.2937      4.7064      4.2941      4.0538      3.9798      4.0702      4.3287      4.7631      5.3787    
  6.1691      7.1065      8.1351      9.1742      10.118      10.766      10.491      10.779      10.667      10.260    
  9.7678      9.4167      9.3627      9.6253      10.084      10.531      10.755      10.619      10.101      9.2970    
  8.3644      7.4043      6.4909      5.6829      5.0177      4.5117      4.1672      3.9792      3.9430      4.0579    
  4.3289      4.7631      5.3641      6.1234      7.0122      7.9775      8.9459      9.8313      9.4601      10.121    
  10.515      10.621      10.517      10.348      10.258      10.325      10.531      10.763      10.875      10.739    
  10.303      9.6074      8.7614      7.8536      6.9526      6.1191      5.3981      4.8151      4.3794      4.0900    
  3.9417      3.9306      4.0579      4.3287      4.7492      5.3210      6.0338      6.8593      7.7492      8.6394    
  8.2675      9.0198      9.6632      10.130      10.399      10.517      10.571      10.641      10.755      10.875    
  10.915      10.784      10.424      9.8418      9.1049      8.2787      7.4221      6.5941      5.8432      5.2032    
  4.6914      4.3126      4.0642      3.9417      3.9430      4.0702      4.3283      4.7221      5.2510      5.9038    
  6.6543      7.4602      7.1230      7.8460      8.5302      9.1381      9.6382      10.009      10.269      10.462    
  10.619      10.739      10.784      10.696      10.431      9.9799      9.3767      8.6623      7.8843      7.0957    
  6.3458      5.6736      5.1043      4.6498      4.3126      4.0900      3.9792      3.9798      4.0946      4.3278    
  4.6827      5.1569      5.7391      6.4062      6.1259      6.7527      7.3927      8.0109      8.5779      9.0753    
  9.4936      9.8321      10.101      10.303      10.424      10.431      10.294      9.9985      9.5542      8.9821    
  8.3179      7.6059      6.8926      6.2190      5.6165      5.1043      4.6914      4.3794      4.1672      4.0538    
  4.0406      4.1307      4.3277      4.6328      5.0425      5.5466      5.3348      5.8262      6.3654      6.9264    
  7.4823      8.0098      8.4928      8.9233      9.2970      9.6074      9.8418      9.9799      9.9985      9.8792    
  9.6149      9.2133      8.6970      8.1000      7.4622      6.8237      6.2190      5.6736      5.2032      4.8151    
  4.5117      4.2941      4.1640      4.1241      4.1780      4.3279      4.5739      4.9124      4.7722      5.1129    
  5.5199      5.9775      6.4664      6.9657      7.4570      7.9265      8.3644      8.7614      9.1049      9.3767    
  9.5542      9.6149      9.5427      9.3327      8.9939      8.5479      8.0255      7.4622      6.8926      6.3458    
  5.8432      5.3981      5.0177      4.7064      4.4682      4.3073      4.2283      4.2347      4.3283      4.5085    
  4.4390      4.6276      4.8905      5.2200      5.6048      6.0305      6.4813      6.9432      7.4043      7.8536    
  8.2787      8.6623      8.9821      9.2133      9.3327      9.3245      9.1837      8.9184      8.5479      8.1000    
  7.6059      7.0957      6.5941      6.1191      5.6829      5.2937      4.9586      4.6849      4.4800      4.3500    
  4.2990      4.3288      4.3289      4.3681      4.4850      4.6768      4.9383      5.2612      5.6350      6.0484    
  6.4909      6.9526      7.4222      7.8843      8.3179      8.6970      8.9939      9.1837      9.2490      9.1837    
  8.9939      8.6970      8.3179      7.8843      7.4221      6.9526      6.4909      6.0484      5.6350      5.2612    
  4.9383      4.6768      4.4849      4.3681      4.4390      4.3288      4.2991      4.3501      4.4801      4.6850    
  4.9586      5.2937      5.6829      6.1191      6.5941      7.0957      7.6060      8.1000      8.5479      8.9184    
  9.1837      9.3245      9.3327      9.2133      8.9821      8.6623      8.2787      7.8536      7.4043      6.9432    
  6.4813      6.0305      5.6048      5.2200      4.8905      4.6276      4.7722      4.5086      4.3284      4.2348    
  4.2284      4.3074      4.4682      4.7064      5.0177      5.3981      5.8432      6.3458      6.8926      7.4622    
  8.0255      8.5479      8.9939      9.3327      9.5427      9.6149      9.5542      9.3767      9.1049      8.7614    
  8.3644      7.9265      7.4570      6.9657      6.4664      5.9775      5.5199      5.1129      5.3348      4.9125    
  4.5740      4.3279      4.1780      4.1242      4.1640      4.2941      4.5117      4.8150      5.2032      5.6736    
  6.2190      6.8237      7.4622      8.1000      8.6970      9.2133      9.6149      9.8792      9.9985      9.9799    
  9.8418      9.6074      9.2970      8.9233      8.4928      8.0098      7.4823      6.9264      6.3654      5.8262    
  6.1259      5.5466      5.0426      4.6328      4.3277      4.1308      4.0406      4.0538      4.1672      4.3794    
  4.6914      5.1043      5.6165      6.2190      6.8926      7.6060      8.3179      8.9821      9.5542      9.9985    
  10.294      10.431      10.424      10.303      10.101      9.8321      9.4936      9.0753      8.5779      8.0109    
  7.3927      6.7527      7.1230      6.4062      5.7391      5.1569      4.6827      4.3278      4.0945      3.9798    
  3.9792      4.0900      4.3126      4.6498      5.1043      5.6736      6.3458      7.0957      7.8843      8.6623    
  9.3767      9.9799      10.431      10.696      10.784      10.739      10.619      10.462      10.269      10.009    
  9.6382      9.1382      8.5302      7.8460      8.2675      7.4602      6.6543      5.9038      5.2510      4.7220    
  4.3282      4.0701      3.9429      3.9416      4.0641      4.3126      4.6914      5.2032      5.8432      6.5941    
  7.4222      8.2787      9.1049      9.8418      10.424      10.784      10.915      10.875      10.755      10.641    
  10.571      10.517      10.399      10.130      9.6632      9.0198      9.4601      8.6394      7.7492      6.8592    
  6.0337      5.3210      4.7492      4.3286      4.0578      3.9306      3.9416      4.0900      4.3794      4.8150    
  5.3981      6.1191      6.9526      7.8536      8.7614      9.6074      10.303      10.739      10.875      10.763    
  10.531      10.325      10.258      10.348      10.517      10.621      10.515      10.121      10.491      9.8313    
  8.9459      7.9775      7.0122      6.1234      5.3641      4.7630      4.3288      4.0578      3.9429      3.9792    
  4.1672      4.5117      5.0177      5.6829      6.4909      7.4043      8.3644      9.2970      10.101      10.619    
  10.755      10.531      10.084      9.6252      9.3627      9.4167      9.7678      10.260      10.667      10.779    
  10.932      10.766      10.118      9.1743      8.1351      7.1064      6.1691      5.3787      4.7630      4.3286    
  4.0701      3.9798      4.0538      4.2941      4.7064      5.2937      6.0484      6.9432      7.9265      8.9233    
  9.8321      10.462      10.641      10.325      9.6253      8.7857      8.1126      7.8643      8.1490      8.8762    
  9.7892      10.564      10.371      11.000      10.952      10.311      9.3150      8.2156      7.1383      6.1691    
  5.3641      4.7492      4.3282      4.0945      4.0406      4.1640      4.4682      4.9586      5.6350      6.4813    
  7.4570      8.4928      9.4936      10.269      10.571      10.258      9.3627      8.1126      6.8763      6.0531    
  5.9312      6.5733      7.7863      9.1928      8.5897      10.160      11.019      11.058      10.408      9.3626    
  8.2156      7.1064      6.1234      5.3210      4.7220      4.3278      4.1308      4.1242      4.3074      4.6850    
  5.2612      6.0305      6.9657      8.0098      9.0753      10.009      10.517      10.348      9.4167      7.8643    
  6.0531      4.4797      3.6211      3.7625      4.8836      6.6613      5.6837      8.1019      9.9990      11.019    
  11.092      10.408      9.3150      8.1351      7.0122      6.0337      5.2510      4.6827      4.3277      4.1780    
  4.2284      4.4801      4.9383      5.6048      6.4664      7.4823      8.5779      9.6382      10.399      10.517    
  9.7678      8.1490      5.9312      3.6211      1.8325      1.0885      1.6298      3.3175      2.1117      5.0195    
  7.8300      9.9395      11.019      11.058      10.311      9.1743      7.9775      6.8592      5.9038      5.1569    
  4.6328      4.3279      4.2348      4.3501      4.6768      5.2200      5.9775      6.9264      8.0109      9.1381    
  10.130      10.621      10.260      8.8762      6.5734      3.7625      1.0885     -.74662     -1.2175     -.17096    
 -1.3742      1.4562      4.7845      7.8300      9.9990      11.019      10.952      10.118      8.9459      7.7492    
  6.6543      5.7391      5.0426      4.5740      4.3284      4.2991      4.4850      4.8905      5.5199      6.3654    
  7.3927      8.5302      9.6632      10.515      10.667      9.7892      7.7863      4.8836      1.6297     -1.2175    
 -2.9116     -2.9740     -3.9233     -1.7969      1.4562      5.0195      8.1019      10.160      11.000      10.766    
  9.8313      8.6394      7.4602      6.4062      5.5466      4.9125      4.5086      4.3288      4.3681      4.6276    
  5.1129      5.8262      6.7527      7.8460      9.0198      10.121      10.779      10.564      9.1928      6.6613    
  3.3175     -.17098     -2.9740     -4.3534     -3.9232     -3.2555     -1.0286      2.1659      5.5370      8.3506    
  10.128      10.731      10.337      9.3295      8.1347      6.9785      5.9635      5.1506      4.5632      4.2016    
  4.0579      4.1274      4.4123      4.9195      5.6520      6.5944      7.6972      8.8699      9.9429      10.528    
  10.214      8.7568      6.2029      2.9435     -.34100     -2.8520     -3.2555     -3.9234     -2.8521     -.34097    
  2.9435      6.2029      8.7567      10.214      10.528      9.9429      8.8699      7.6972      6.5944      5.6521    
  4.9194      4.4122      4.1274      4.0580      4.2016      4.5632      5.1506      5.9636      6.9785      8.1347    
  9.3294      10.337      10.731      10.128      8.3505      5.5370      2.1660     -1.0285     -.91841     -2.7338    
 -2.9740     -1.5857      1.0349      4.1906      7.1240      9.2469      10.276      10.256      9.4837      8.3748    
  7.2393      6.2035      5.3439      4.6978      4.2735      4.0662      4.0702      4.2860      4.7209      5.3825    
  6.2663      7.3408      8.5352      9.7347      10.663      10.891      10.082      8.1299      5.2535      1.9895    
  2.4479     -.25184E-01 -1.3650     -1.2176     0.35218      2.8862      5.7038      8.1326      9.7038      10.250    
  9.8959      8.9714      7.8614      6.7779      5.8207      5.0508      4.4938      4.1522      4.0203      4.0946    
  4.3781      4.8798      5.6061      6.5482      7.6666      8.8829      10.071      10.923      11.035      10.125    
  8.1577      5.4119      5.9932      3.4717      1.5159     0.64767      1.0885      2.6781      4.9381      7.2489    
  9.0556      10.022      10.089      9.4458      8.4303      7.3471      6.3298      5.4601      4.7832      4.3146    
  4.0527      3.9919      4.1308      4.4749      5.0340      5.8129      6.7975      7.9421      9.1632      10.327    
  11.119      11.176      10.276      8.4438      8.9429      6.9031      4.9020      3.4763      3.0156      3.6211    
  5.0709      6.9080      8.6084      9.7513      10.130      9.7790      8.9275      7.8870      6.8496      5.9107    
  5.1339      4.5501      4.1664      3.9787      3.9823      4.1779      4.5733      5.1780      5.9944      7.0036    
  8.1551      9.3630      10.492      11.247      11.311      10.519      10.808      9.5651      7.9929      6.5234    
  5.5780      5.4191      6.0530      7.2334      8.5593      9.6217      10.134      10.006      9.3408      8.3824    
  7.3608      6.3864      5.5352      4.8530      4.3587      4.0536      3.9325      3.9919      4.2347      4.6698    
  5.3060      6.1428      7.1571      8.2952      9.4714      10.559      11.296      11.417      11.460      11.074    
  10.195      9.0892      8.1041      7.5459      7.5675      8.1126      8.9441      9.7396      10.209      10.189    
  9.6784      8.8271      7.8494      6.8718      5.9746      5.2155      4.6255      4.2142      3.9793      3.9153    
  4.0203      4.2990      4.7606      5.4126      6.2512      7.2502      8.3544      9.4811      10.519      11.250    
  11.093      11.404      11.245      10.715      10.027      9.4399      9.1569      9.2476      9.6252      10.087    
  10.398      10.378      9.9636      9.2195      8.3063      7.3538      6.4402      5.6289      4.9617      4.4577    
  4.1204      3.9451      3.9271      4.0662      4.3681      4.8417      5.4926      6.3140      7.2773      8.3280    
  9.3887      10.365      10.101      10.817      11.216      11.261      11.030      10.680      10.388      10.274    
  10.351      10.531      10.657      10.578      10.209      9.5570      8.7239      7.8214      6.9203      6.0843    
  5.3618      4.7815      4.3541      4.0790      3.9512      3.9669      4.1274      4.4389      4.9094      5.5420    
  6.3271      7.2355      8.2152      9.1962      8.9111      9.7346      10.421      10.882      11.087      11.085    
  10.983      10.888      10.858      10.880      10.874      10.740      10.398      9.8301      9.0911      8.2623    
  7.4029      6.5718      5.8198      5.1829      4.6803      4.3172      4.0912      3.9972      4.0332      4.2016    
  4.5085      4.9603      5.5576      6.2890      7.1255      8.0198      7.7505      8.5464      9.2862      9.9241    
  10.412      10.720      10.876      10.937      10.960      10.963      10.923      10.784      10.489      10.015    
  9.3892      8.6600      7.8726      7.0783      6.3267      5.6581      5.0988      4.6616      4.3484      4.1564    
  4.0817      4.1239      4.2861      4.5739      4.9919      5.5382      6.2004      6.9515      6.7219      7.4204    
  8.1193      8.7764      9.3565      9.8359      10.197      10.445      10.604      10.693      10.711      10.635    
  10.431      10.081      9.5929      8.9916      8.3086      7.5860      6.8689      6.1987      5.6070      5.1135    
  4.7267      4.4475      4.2735      4.2027      4.2363      4.3781      4.6328      5.0026      5.4842      6.0651    
  5.8898      6.4481      7.0456      7.6501      8.2286      8.7534      9.2067      9.5807      9.8741      10.088    
  10.221      10.262      10.193      9.9985      9.6752      9.2304      8.6848      8.0703      7.4254      6.7892    
  6.1957      5.6703      5.2281      4.8753      4.6129      4.4401      4.3574      4.3677      4.4749      4.6828    
  4.9919      5.3980      5.2837      5.6830      6.1435      6.6444      7.1607      7.6671      8.1423      8.5716    
  8.9472      9.2643      9.5167      9.6935      9.7791      9.7569      9.6149      9.3503      8.9723      8.5017    
  7.9679      7.4050      6.8464      6.3206      5.8482      5.4410      5.1046      4.8411      4.6525      4.5420    
  4.5142      4.5733      4.7221      4.9603      4.9094      5.1469      5.4551      5.8231      6.2352      6.6727    
  7.1164      7.5504      7.9628      8.3453      8.6897      8.9848      9.2147      9.3603      9.4037      9.3327    
  9.1449      8.8485      8.4624      8.0129      7.5296      7.0411      6.5711      6.1364      5.7471      5.4091    
  5.1268      4.9054      4.7515      4.6713      4.6698      4.7493      4.7631      4.8417      4.9945      5.2170    
  5.5013      5.8358      6.2066      6.5998      7.0040      7.4097      7.8087      8.1897      8.5372      8.8310    
  9.0491      9.1712      9.1837      9.0825      8.8739      8.5741      8.2061      7.7955      7.3665      6.9389    
  6.5263      6.1377      5.7803      5.4618      5.1915      4.9793      4.8336      4.7605      4.8417      4.7631    
  4.7606      4.8336      4.9792      5.1915      5.4619      5.7803      6.1377      6.5263      6.9389      7.3666    
  7.7954      8.2060      8.5741      8.8739      9.0825      9.1837      9.1712      9.0491      8.8310      8.5372    
  8.1897      7.8087      7.4098      7.0039      6.5998      6.2066      5.8358      5.5013      5.2170      4.9945    
  5.1469      4.9094      4.7492      4.6698      4.6714      4.7515      4.9055      5.1268      5.4091      5.7471    
  6.1364      6.5711      7.0410      7.5296      8.0129      8.4624      8.8485      9.1449      9.3327      9.4037    
  9.3602      9.2147      8.9849      8.6898      8.3453      7.9628      7.5504      7.1165      6.6727      6.2352    
  5.8231      5.4552      5.6831      5.2836      4.9603      4.7221      4.5733      4.5142      4.5420      4.6525    
  4.8411      5.1046      5.4410      5.8481      6.3206      6.8464      7.4050      7.9679      8.5017      8.9724    
  9.3503      9.6149      9.7569      9.7791      9.6935      9.5167      9.2643      8.9472      8.5717      8.1423    
  7.6671      7.1606      6.6444      6.1436      6.4480      5.8898      5.3980      4.9919      4.6827      4.4749    
  4.3676      4.3574      4.4401      4.6129      4.8753      5.2281      5.6703      6.1957      6.7892      7.4254    
  8.0704      8.6848      9.2304      9.6752      9.9985      10.193      10.262      10.221      10.088      9.8741    
  9.5807      9.2066      8.7534      8.2286      7.6501      7.0456      7.4203      6.7219      6.0652      5.4842    
  5.0026      4.6327      4.3781      4.2363      4.2027      4.2734      4.4475      4.7267      5.1135      5.6070    
  6.1987      6.8689      7.5860      8.3086      8.9916      9.5929      10.081      10.431      10.635      10.711    
  10.693      10.604      10.445      10.197      9.8359      9.3566      8.7764      8.1192      8.5464      7.7505    
  6.9515      6.2004      5.5382      4.9919      4.5739      4.2860      4.1238      4.0817      4.1564      4.3484    
  4.6615      5.0988      5.6581      6.3267      7.0783      7.8726      8.6600      9.3892      10.015      10.489    
  10.784      10.923      10.963      10.960      10.937      10.876      10.720      10.412      9.9241      9.2862    
  9.7346      8.9111      8.0198      7.1254      6.2890      5.5576      4.9603      4.5084      4.2015      4.0332    
  3.9972      4.0911      4.3172      4.6803      5.1829      5.8198      6.5718      7.4030      8.2624      9.0911    
  9.8301      10.398      10.740      10.874      10.880      10.858      10.888      10.984      11.085      11.086    
  10.882      10.421      10.817      10.101      9.1962      8.2152      7.2355      6.3271      5.5420      4.9094    
  4.4389      4.1274      3.9669      3.9512      4.0790      4.3541      4.7814      5.3618      6.0843      6.9203    
  7.8214      8.7239      9.5570      10.209      10.578      10.657      10.531      10.351      10.274      10.388    
  10.680      11.030      11.261      11.216      11.403      11.093      10.365      9.3887      8.3280      7.2773    
  6.3139      5.4926      4.8417      4.3681      4.0662      3.9271      3.9451      4.1203      4.4577      4.9617    
  5.6289      6.4401      7.3538      8.3063      9.2195      9.9636      10.378      10.398      10.087      9.6252    
  9.2476      9.1568      9.4399      10.027      10.715      11.245      11.074      11.460      11.250      10.518    
  9.4811      8.3545      7.2502      6.2512      5.4126      4.7606      4.2990      4.0203      3.9153      3.9793    
  4.2143      4.6255      5.2155      5.9746      6.8718      7.8494      8.8271      9.6784      10.189      10.209    
  9.7396      8.9441      8.1126      7.5675      7.5459      8.1041      9.0892      10.195      9.5651      10.808    
  11.417      11.296      10.559      9.4715      8.2952      7.1571      6.1428      5.3061      4.6698      4.2347    
  3.9919      3.9325      4.0536      4.3587      4.8530      5.5352      6.3865      7.3608      8.3823      9.3408    
  10.006      10.134      9.6217      8.5593      7.2334      6.0531      5.4191      5.5780      6.5234      7.9930    
  6.9031      8.9429      10.519      11.311      11.247      10.492      9.3630      8.1551      7.0037      5.9944    
  5.1780      4.5733      4.1780      3.9823      3.9787      4.1664      4.5501      5.1340      5.9107      6.8495    
  7.8870      8.9275      9.7790      10.130      9.7513      8.6085      6.9081      5.0709      3.6211      3.0156    
  3.4764      4.9021      3.4716      5.9932      8.4438      10.276      11.176      11.119      10.326      9.1632    
  7.9421      6.7975      5.8129      5.0341      4.4749      4.1307      3.9919      4.0527      4.3146      4.7832    
  5.4600      6.3297      7.3471      8.4303      9.4458      10.089      10.022      9.0557      7.2489      4.9381    
  2.6782      1.0887     0.64784      1.5160     -.25169E-01  2.4480      5.4120      8.1578      10.125      11.035    
  10.923      10.071      8.8829      7.6665      6.5482      5.6061      4.8798      4.3781      4.0946      4.0203    
  4.1522      4.4937      5.0508      5.8207      6.7779      7.8614      8.9713      9.8958      10.250      9.7039    
  8.1325      5.7037      2.8863     0.35235     -1.2174     -1.3650     -2.7337     -.91828      1.9895      5.2534    
  8.1299      10.082      10.891      10.663      9.7346      8.5352      7.3408      6.2663      5.3824      4.7209    
  4.2861      4.0702      4.0662      4.2735      4.6978      5.3439      6.2035      7.2393      8.3748      9.4837    
  10.256      10.276      9.2469      7.1241      4.1907      1.0350     -1.5857     -2.9739     -1.3741     -.91830    
 0.90967      3.6150      6.5061      8.9238      10.424      10.867      10.398      9.3653      8.1605      6.9933    
  5.9629      5.1292      4.5163      4.1238      3.9429      3.9669      4.1963      4.6379      5.2969      6.1645    
  7.2023      8.3331      9.4306      10.191      10.225      9.2710      7.3174      4.6620      1.8754     -.34090    
 -1.0285     -1.7970     -1.0285      1.0592      3.8957      6.7639      9.0308      10.314      10.547      9.9359    
  8.8601      7.6858      6.5770      5.6230      4.8736      4.3447      4.0332      3.9306      4.0332      4.3447    
  4.8736      5.6231      6.5770      7.6858      8.8601      9.9359      10.547      10.314      9.0308      6.7639    
  3.8957      1.0592     0.90967     -.91832     -1.3741     -.34089      1.8754      4.6621      7.3174      9.2710    
  10.225      10.191      9.4306      8.3331      7.2024      6.1646      5.2969      4.6378      4.1963      3.9669    
  3.9430      4.1238      4.5163      5.1293      5.9629      6.9933      8.1604      9.3653      10.398      10.867    
  10.424      8.9238      6.5062      3.6150      3.8797      1.4570     -.25103E-01 -.17091      1.0350      3.2217    
  5.7725      8.0418      9.5520      10.104      9.7845      8.8929      7.8009      6.7262      5.7701      4.9955    
  4.4296      4.0755      3.9271      3.9798      4.2363      4.7056      5.3964      6.3045      7.3984      8.6093    
  9.8294      10.812      11.168      10.597      9.0119      6.6139      7.0873      4.6562      2.6198      1.5159    
  1.6298      2.8863      4.8808      7.0323      8.7855      9.7749      9.9019      9.3188      8.3413      7.2790    
  6.2726      5.4064      4.7283      4.2552      3.9862      3.9153      4.0406      4.3676      4.9070      5.6659    
  6.6353      7.7765      9.0145      10.234      11.170      11.458      10.848      9.3113      9.7888      7.8575    
  5.8263      4.2228      3.4764      3.7626      4.9381      6.5992      8.2353      9.4040      9.8585      9.5924    
  8.8046      7.7987      6.7826      5.8556      5.0846      4.5032      4.1200      3.9314      3.9325      4.1241    
  4.5142      5.1137      5.9276      6.9418      8.1116      9.3577      10.562      11.460      11.727      11.165    
  11.504      10.369      8.8027      7.2118      6.0316      5.5780      5.9311      6.9079      8.1385      9.2064    
  9.7914      9.7592      9.1783      8.2713      7.2807      6.3265      5.4878      4.8141      4.3265      4.0277    
  3.9129      3.9787      4.2284      4.6714      5.3183      6.1711      7.2107      8.3877      9.6207      10.794    
  11.664      11.951      12.095      11.803      10.951      9.7722      8.6090      7.7966      7.5458      7.8642    
  8.5592      9.3192      9.8339      9.9003      9.4799      8.6936      7.7538      6.8034      5.9251      5.1800    
  4.6020      4.2028      3.9809      3.9314      4.0528      4.3501      4.8336      5.5127      6.3856      7.4288    
  8.5897      9.7873      10.914      11.761      11.729      12.118      11.996      11.429      10.616      9.8264    
  9.2988      9.1568      9.3625      9.7395      10.049      10.085      9.7464      9.0678      8.1954      7.2739    
  6.3841      5.5916      4.9410      4.4539      4.1350      3.9806      3.9862      4.1522      4.4849      4.9946    
  5.6882      6.5604      7.5840      8.7048      9.8445      10.908      10.768      11.552      11.990      12.025    
  11.714      11.213      10.718      10.385      10.274      10.325      10.398      10.328      10.002      9.3997    
  8.6016      7.7281      6.8527      6.0390      5.3371      4.7779      4.3737      4.1247      4.0265      4.0755    
  4.2735      4.6276      5.1470      5.8360      6.6856      7.6662      8.7239      9.7854      9.6100      10.498    
  11.228      11.696      11.855      11.750      11.490      11.206      10.989      10.858      10.755      10.578    
  10.236      9.6865      8.9653      8.1563      7.3196      6.5114      5.7828      5.1708      4.6956      4.3636    
  4.1723      4.1173      4.1963      4.4122      4.7722      5.2837      5.9482      6.7536      7.6690      8.6432    
  8.4650      9.3258      10.113      10.771      11.241      11.483      11.524      11.432      11.286      11.131    
  10.963      10.739      10.398      9.9049      9.2699      8.5443      7.7708      6.9964      6.2686      5.6274    
  5.0995      4.6978      4.4247      4.2770      4.2506      4.3448      4.5632      4.9124      5.3980      6.0183    
  6.7592      7.5903      7.4335      8.1983      8.9475      9.6323      10.211      10.654      10.937      11.068    
  11.083      11.022      10.902      10.711      10.424      10.015      9.4894      8.8710      8.1878      7.4771    