   2   2   0   0
  0.1322409E+02  0.3450867E-09  0.3450867E-09  0.3450867E-09  0.5000000E-15
  1.000000000000000E-004
  CAR 
 unknown system                          
     27.61991356     -5.87997285  301     11.06309980      1.00000000
     -5.880  0.0000E+00  0.0000E+00
     -5.768  0.0000E+00  0.0000E+00
     -5.657  0.0000E+00  0.0000E+00
     -5.545  0.0000E+00  0.0000E+00
     -5.433  0.0000E+00  0.0000E+00
     -5.322  0.0000E+00  0.0000E+00
     -5.210  0.0000E+00  0.0000E+00
     -5.098  0.0000E+00  0.0000E+00
     -4.987  0.2382E-16  0.2660E-17
     -4.875  0.9221E-14  0.1032E-14
     -4.763  0.1953E-11  0.2191E-12
     -4.652  0.2245E-09  0.2529E-10
     -4.540  0.1403E-07  0.1592E-08
     -4.428  0.4784E-06  0.5501E-07
     -4.317  0.8920E-05  0.1051E-05
     -4.205  0.9133E-04  0.1125E-04
     -4.093  0.5165E-03  0.6892E-04
     -3.982  0.1633E-02  0.2513E-03
     -3.870  0.3003E-02  0.5866E-03
     -3.758  0.3733E-02  0.1004E-02
     -3.647  0.4841E-02  0.1544E-02
     -3.535  0.8374E-02  0.2479E-02
     -3.423  0.1279E-01  0.3907E-02
     -3.312  0.1382E-01  0.5451E-02
     -3.200  0.1146E-01  0.6730E-02
     -3.088  0.8644E-02  0.7695E-02
     -2.977  0.6963E-02  0.8473E-02
     -2.865  0.7575E-02  0.9318E-02
     -2.753  0.1163E-01  0.1062E-01
     -2.642  0.1912E-01  0.1275E-01
     -2.530  0.2480E-01  0.1552E-01
     -2.418  0.2123E-01  0.1789E-01
     -2.307  0.1362E-01  0.1941E-01
     -2.195  0.1346E-01  0.2092E-01
     -2.083  0.1862E-01  0.2300E-01
     -1.972  0.1935E-01  0.2516E-01
     -1.860  0.1591E-01  0.2694E-01
     -1.748  0.1489E-01  0.2860E-01
     -1.637  0.1719E-01  0.3052E-01
     -1.525  0.1963E-01  0.3271E-01
     -1.413  0.2166E-01  0.3513E-01
     -1.302  0.2419E-01  0.3783E-01
     -1.190  0.2424E-01  0.4054E-01
     -1.078  0.1957E-01  0.4272E-01
     -0.967  0.1899E-01  0.4484E-01
     -0.855  0.2877E-01  0.4806E-01
     -0.743  0.3594E-01  0.5207E-01
     -0.632  0.2879E-01  0.5528E-01
     -0.520  0.1625E-01  0.5710E-01
     -0.408  0.8580E-02  0.5806E-01
     -0.297  0.7572E-02  0.5890E-01
     -0.185  0.1462E-01  0.6053E-01
     -0.073  0.3003E-01  0.6389E-01
      0.038  0.4734E-01  0.6917E-01
      0.150  0.5126E-01  0.7490E-01
      0.262  0.3796E-01  0.7914E-01
      0.373  0.2526E-01  0.8196E-01
      0.485  0.2383E-01  0.8462E-01
      0.597  0.2664E-01  0.8759E-01
      0.708  0.2708E-01  0.9062E-01
      0.820  0.2467E-01  0.9337E-01
      0.932  0.2101E-01  0.9572E-01
      1.043  0.1884E-01  0.9782E-01
      1.155  0.2050E-01  0.1001E+00
      1.267  0.2467E-01  0.1029E+00
      1.378  0.2606E-01  0.1058E+00
      1.490  0.2352E-01  0.1084E+00
      1.602  0.2688E-01  0.1114E+00
      1.713  0.4395E-01  0.1163E+00
      1.825  0.5962E-01  0.1230E+00
      1.937  0.5473E-01  0.1291E+00
      2.048  0.3734E-01  0.1332E+00
      2.160  0.2601E-01  0.1362E+00
      2.272  0.2311E-01  0.1387E+00
      2.383  0.2428E-01  0.1414E+00
      2.495  0.3390E-01  0.1452E+00
      2.607  0.4960E-01  0.1508E+00
      2.718  0.5495E-01  0.1569E+00
      2.830  0.4636E-01  0.1621E+00
      2.942  0.3670E-01  0.1662E+00
      3.053  0.3084E-01  0.1696E+00
      3.165  0.2687E-01  0.1726E+00
      3.277  0.2534E-01  0.1755E+00
      3.388  0.2432E-01  0.1782E+00
      3.500  0.2165E-01  0.1806E+00
      3.612  0.1903E-01  0.1827E+00
      3.723  0.1997E-01  0.1849E+00
      3.835  0.2632E-01  0.1879E+00
      3.947  0.3548E-01  0.1918E+00
      4.058  0.4327E-01  0.1967E+00
      4.170  0.5072E-01  0.2023E+00
      4.282  0.5829E-01  0.2088E+00
      4.393  0.5935E-01  0.2155E+00
      4.505  0.5248E-01  0.2213E+00
      4.617  0.4347E-01  0.2262E+00
      4.728  0.3708E-01  0.2303E+00
      4.840  0.3455E-01  0.2342E+00
      4.952  0.3410E-01  0.2380E+00
      5.063  0.3709E-01  0.2421E+00
      5.175  0.4521E-01  0.2472E+00
      5.287  0.4957E-01  0.2527E+00
      5.398  0.4291E-01  0.2575E+00
      5.510  0.3397E-01  0.2613E+00
      5.622  0.2786E-01  0.2644E+00
      5.733  0.2340E-01  0.2670E+00
      5.845  0.2729E-01  0.2701E+00
      5.957  0.4118E-01  0.2747E+00
      6.068  0.5110E-01  0.2804E+00
      6.180  0.5022E-01  0.2860E+00
      6.292  0.5273E-01  0.2919E+00
      6.403  0.6524E-01  0.2992E+00
      6.515  0.7203E-01  0.3072E+00
      6.627  0.6144E-01  0.3141E+00
      6.738  0.4333E-01  0.3189E+00
      6.850  0.3217E-01  0.3225E+00
      6.962  0.2964E-01  0.3258E+00
      7.073  0.3208E-01  0.3294E+00
      7.185  0.3539E-01  0.3333E+00
      7.297  0.3545E-01  0.3373E+00
      7.408  0.3961E-01  0.3417E+00
      7.520  0.5644E-01  0.3480E+00
      7.632  0.7542E-01  0.3565E+00
      7.743  0.8067E-01  0.3655E+00
      7.855  0.7094E-01  0.3734E+00
      7.967  0.5335E-01  0.3793E+00
      8.078  0.3821E-01  0.3836E+00
      8.190  0.3351E-01  0.3873E+00
      8.302  0.3806E-01  0.3916E+00
      8.413  0.4778E-01  0.3969E+00
      8.525  0.5885E-01  0.4035E+00
      8.637  0.6483E-01  0.4107E+00
      8.748  0.6000E-01  0.4174E+00
      8.860  0.4930E-01  0.4229E+00
      8.972  0.4693E-01  0.4282E+00
      9.083  0.6308E-01  0.4352E+00
      9.195  0.9119E-01  0.4454E+00
      9.307  0.1039E+00  0.4570E+00
      9.418  0.8768E-01  0.4668E+00
      9.530  0.6115E-01  0.4736E+00
      9.642  0.4099E-01  0.4782E+00
      9.753  0.3242E-01  0.4818E+00
      9.865  0.3487E-01  0.4857E+00
      9.977  0.4010E-01  0.4902E+00
     10.088  0.4242E-01  0.4949E+00
     10.200  0.4062E-01  0.4995E+00
     10.312  0.3636E-01  0.5035E+00
     10.423  0.3435E-01  0.5074E+00
     10.535  0.3403E-01  0.5112E+00
     10.647  0.3391E-01  0.5150E+00
     10.758  0.3635E-01  0.5190E+00
     10.870  0.4186E-01  0.5237E+00
     10.982  0.4849E-01  0.5291E+00
     11.093  0.5176E-01  0.5349E+00
     11.205  0.4995E-01  0.5405E+00
     11.317  0.4606E-01  0.5456E+00
     11.428  0.4201E-01  0.5503E+00
     11.540  0.4192E-01  0.5550E+00
     11.652  0.4345E-01  0.5598E+00
     11.763  0.3765E-01  0.5640E+00
     11.875  0.2817E-01  0.5672E+00
     11.987  0.2754E-01  0.5703E+00
     12.098  0.3628E-01  0.5743E+00
     12.210  0.4587E-01  0.5794E+00
     12.322  0.5458E-01  0.5855E+00
     12.433  0.6204E-01  0.5925E+00
     12.545  0.6104E-01  0.5993E+00
     12.657  0.5330E-01  0.6052E+00
     12.768  0.4730E-01  0.6105E+00
     12.880  0.4430E-01  0.6155E+00
     12.992  0.4216E-01  0.6202E+00
     13.103  0.4393E-01  0.6251E+00
     13.215  0.5277E-01  0.6310E+00
     13.327  0.6234E-01  0.6379E+00
     13.438  0.6762E-01  0.6455E+00
     13.550  0.6891E-01  0.6532E+00
     13.662  0.6487E-01  0.6604E+00
     13.773  0.5976E-01  0.6671E+00
     13.885  0.6536E-01  0.6744E+00
     13.997  0.7818E-01  0.6831E+00
     14.108  0.7673E-01  0.6917E+00
     14.220  0.6146E-01  0.6985E+00
     14.332  0.5133E-01  0.7043E+00
     14.443  0.5122E-01  0.7100E+00
     14.555  0.5638E-01  0.7163E+00
     14.667  0.6150E-01  0.7232E+00
     14.778  0.6046E-01  0.7299E+00
     14.890  0.4929E-01  0.7354E+00
     15.002  0.3459E-01  0.7393E+00
     15.113  0.2741E-01  0.7423E+00
     15.225  0.2866E-01  0.7455E+00
     15.337  0.3510E-01  0.7495E+00
     15.448  0.4918E-01  0.7550E+00
     15.560  0.7003E-01  0.7628E+00
     15.672  0.8494E-01  0.7723E+00
     15.783  0.8294E-01  0.7815E+00
     15.895  0.6901E-01  0.7892E+00
     16.007  0.5427E-01  0.7953E+00
     16.118  0.4221E-01  0.8000E+00
     16.230  0.3749E-01  0.8042E+00
     16.342  0.4783E-01  0.8095E+00
     16.453  0.6494E-01  0.8168E+00
     16.565  0.7205E-01  0.8248E+00
     16.677  0.7376E-01  0.8331E+00
     16.788  0.8577E-01  0.8426E+00
     16.900  0.9596E-01  0.8534E+00
     17.012  0.8383E-01  0.8627E+00
     17.123  0.6427E-01  0.8699E+00
     17.235  0.6191E-01  0.8768E+00
     17.347  0.7588E-01  0.8853E+00
     17.458  0.8862E-01  0.8952E+00
     17.570  0.8249E-01  0.9044E+00
     17.682  0.5958E-01  0.9110E+00
     17.793  0.4090E-01  0.9156E+00
     17.905  0.3497E-01  0.9195E+00
     18.017  0.3266E-01  0.9232E+00
     18.128  0.2770E-01  0.9262E+00
     18.240  0.2394E-01  0.9289E+00
     18.352  0.2466E-01  0.9317E+00
     18.463  0.3024E-01  0.9351E+00
     18.575  0.4128E-01  0.9397E+00
     18.687  0.5640E-01  0.9460E+00
     18.798  0.6869E-01  0.9536E+00
     18.910  0.7163E-01  0.9616E+00
     19.022  0.6708E-01  0.9691E+00
     19.133  0.6002E-01  0.9758E+00
     19.245  0.5342E-01  0.9818E+00
     19.357  0.4778E-01  0.9871E+00
     19.468  0.4432E-01  0.9921E+00
     19.580  0.4319E-01  0.9969E+00
     19.692  0.3973E-01  0.1001E+01
     19.803  0.3166E-01  0.1005E+01
     19.915  0.2395E-01  0.1008E+01
     20.027  0.2259E-01  0.1010E+01
     20.138  0.2808E-01  0.1013E+01
     20.250  0.3501E-01  0.1017E+01
     20.362  0.3601E-01  0.1021E+01
     20.473  0.2935E-01  0.1024E+01
     20.585  0.2077E-01  0.1027E+01
     20.697  0.1677E-01  0.1029E+01
     20.808  0.1936E-01  0.1031E+01
     20.920  0.2402E-01  0.1033E+01
     21.032  0.2415E-01  0.1036E+01
     21.143  0.1903E-01  0.1038E+01
     21.255  0.1241E-01  0.1040E+01
     21.367  0.7596E-02  0.1040E+01
     21.478  0.8347E-02  0.1041E+01
     21.590  0.1724E-01  0.1043E+01
     21.702  0.2957E-01  0.1047E+01
     21.813  0.3459E-01  0.1051E+01
     21.925  0.2876E-01  0.1054E+01
     22.037  0.2022E-01  0.1056E+01
     22.148  0.1464E-01  0.1058E+01
     22.260  0.9666E-02  0.1059E+01
     22.372  0.4494E-02  0.1059E+01
     22.483  0.1286E-02  0.1059E+01
     22.595  0.2164E-03  0.1059E+01
     22.707  0.4961E-04  0.1059E+01
     22.818  0.2676E-03  0.1059E+01
     22.930  0.1338E-02  0.1060E+01
     23.042  0.3732E-02  0.1060E+01
     23.153  0.5979E-02  0.1061E+01
     23.265  0.6326E-02  0.1061E+01
     23.377  0.6234E-02  0.1062E+01
     23.488  0.6308E-02  0.1063E+01
     23.600  0.4764E-02  0.1063E+01
     23.712  0.2762E-02  0.1064E+01
     23.823  0.2485E-02  0.1064E+01
     23.935  0.2919E-02  0.1064E+01
     24.047  0.2251E-02  0.1064E+01
     24.158  0.9783E-03  0.1065E+01
     24.270  0.2366E-03  0.1065E+01
     24.382  0.5206E-04  0.1065E+01
     24.493  0.1767E-03  0.1065E+01
     24.605  0.8023E-03  0.1065E+01
     24.717  0.2037E-02  0.1065E+01
     24.828  0.2859E-02  0.1065E+01
     24.940  0.2221E-02  0.1065E+01
     25.052  0.9544E-03  0.1066E+01
     25.163  0.2319E-03  0.1066E+01
     25.275  0.9239E-04  0.1066E+01
     25.387  0.3951E-03  0.1066E+01
     25.498  0.1356E-02  0.1066E+01
     25.610  0.2584E-02  0.1066E+01
     25.722  0.2725E-02  0.1066E+01
     25.833  0.1589E-02  0.1067E+01
     25.945  0.5124E-03  0.1067E+01
     26.057  0.9112E-04  0.1067E+01
     26.168  0.8914E-05  0.1067E+01
     26.280  0.4783E-06  0.1067E+01
     26.392  0.1403E-07  0.1067E+01
     26.503  0.2245E-09  0.1067E+01
     26.615  0.1953E-11  0.1067E+01
     26.727  0.9220E-14  0.1067E+01
     26.838  0.2382E-16  0.1067E+01
     26.950  0.0000E+00  0.1067E+01
     27.062  0.0000E+00  0.1067E+01
     27.173  0.0000E+00  0.1067E+01
     27.285  0.0000E+00  0.1067E+01
     27.397  0.0000E+00  0.1067E+01
     27.508  0.0000E+00  0.1067E+01
     27.620  0.0000E+00  0.1067E+01
