    2    2   15    1
  0.1322409E+02  0.3450867E-09  0.3450867E-09  0.3450867E-09  0.5000000E-15
  1.000000000000000E-004
  CAR 
 unknown system                          
      8     56      8
 
  0.6250000E-01  0.6250000E-01  0.6250000E-01  0.1562500E-01
    1       -3.431806   1.000000
    2        6.654835   1.000000
    3        8.924822   1.000000
    4       11.278351   0.063998
    5       14.014288   0.000000
    6       16.596321   0.000000
    7       16.933723   0.000000
    8       19.577527   0.000000
 
  0.1875000E+00  0.6250000E-01  0.6250000E-01  0.3125000E-01
    1       -2.094693   1.000000
    2        6.299300   1.000000
    3        9.202798   1.000000
    4       11.279304   0.063158
    5       13.242218   0.000000
    6       13.990520   0.000000
    7       16.363019   0.000000
    8       17.485568   0.000000
 
  0.3125000E+00  0.6250000E-01  0.6250000E-01  0.3125000E-01
    1        0.106975   1.000000
    2        6.558260   1.000000
    3        7.176601   1.000000
    4        9.311366   1.000000
    5       11.018798   0.622958
    6       13.832505   0.000000
    7       16.786995   0.000000
    8       16.860163   0.000000
 
  0.4375000E+00  0.6250000E-01  0.6250000E-01  0.1562500E-01
    1        2.852649   1.000000
    2        3.459458   1.000000
    3        7.810404   1.000000
    4        8.137284   1.000000
    5       11.017344   0.626856
    6       12.480562   0.000000
    7       16.413709   0.000000
    8       16.945146   0.000000
 
 -0.6250000E-01  0.6250000E-01  0.6250000E-01  0.7812500E-02
    1       -3.879973   1.000000
    2        7.549252   1.000000
    3        7.913338   1.000000
    4       11.125420   0.329726
    5       12.878388   0.000000
    6       17.919097   0.000000
    7       20.797819   0.000000
    8       20.818057   0.000000
 
  0.1875000E+00  0.1875000E+00  0.6250000E-01  0.1562500E-01
    1       -0.107322   1.000000
    2        6.507972   1.000000
    3        8.297766   1.000000
    4        8.420836   1.000000
    5       12.068863   0.000000
    6       14.770443   0.000000
    7       15.541279   0.000000
    8       15.586287   0.000000
 
  0.3125000E+00  0.1875000E+00  0.6250000E-01  0.3125000E-01
    1        2.675018   1.000000
    2        4.454744   1.000000
    3        6.052004   1.000000
    4        7.665573   1.000000
    5       12.401790   0.000000
    6       13.997360   0.000000
    7       15.433604   0.000000
    8       17.957749   0.000000
 
  0.4375000E+00  0.1875000E+00  0.6250000E-01  0.3125000E-01
    1        1.175065   1.000000
    2        4.507133   1.000000
    3        6.426576   1.000000
    4        9.247953   1.000000
    5       11.516232   0.000677
    6       14.450162   0.000000
    7       16.481884   0.000000
    8       18.250601   0.000000
 
 -0.4375000E+00  0.1875000E+00  0.6250000E-01  0.3125000E-01
    1       -1.225010   1.000000
    2        3.873885   1.000000
    3        9.786236   1.000000
    4       10.762023   0.983370
    5       12.630705   0.000000
    6       14.611946   0.000000
    7       15.578412   0.000000
    8       18.450143   0.000000
 
 -0.3125000E+00  0.1875000E+00  0.6250000E-01  0.1562500E-01
    1       -2.773782   1.000000
    2        4.055712   1.000000
    3        9.492903   1.000000
    4       12.033905   0.000000
    5       14.792888   0.000000
    6       16.086267   0.000000
    7       16.861735   0.000000
    8       18.494351   0.000000
 
 -0.1875000E+00  0.1875000E+00  0.6250000E-01  0.1562500E-01
    1       -3.439911   1.000000
    2        5.061169   1.000000
    3        8.168177   1.000000
    4       12.166412   0.000000
    5       15.472249   0.000000
    6       15.782989   0.000000
    7       19.269195   0.000000
    8       20.284472   0.000000
 
 -0.6250000E-01  0.1875000E+00  0.6250000E-01  0.1562500E-01
    1       -3.212274   1.000000
    2        6.597224   1.000000
    3        7.176724   1.000000
    4       12.865730   0.000000
    5       14.792654   0.000000
    6       15.653606   0.000000
    7       16.394991   0.000000
    8       19.222827   0.000000
 
  0.3125000E+00  0.3125000E+00  0.6250000E-01  0.1562500E-01
    1        2.639164   1.000000
    2        2.665797   1.000000
    3        6.212204   1.000000
    4        9.158869   1.000000
    5       12.364880   0.000000
    6       13.276496   0.000000
    7       18.103516   0.000000
    8       18.727837   0.000000
 
  0.4375000E+00  0.3125000E+00  0.6250000E-01  0.3125000E-01
    1        0.070219   1.000000
    2        1.777855   1.000000
    3       10.090553   1.000000
    4       10.808705   0.963978
    5       12.385416   0.000000
    6       13.974451   0.000000
    7       15.781235   0.000000
    8       17.353758   0.000000
 
 -0.4375000E+00  0.3125000E+00  0.6250000E-01  0.1562500E-01
    1       -1.682914   1.000000
    2        1.753943   1.000000
    3       10.426373   0.999997
    4       12.876391   0.000000
    5       13.426352   0.000000
    6       15.333708   0.000000
    7       16.384071   0.000000
    8       16.933853   0.000000
 
 -0.3125000E+00  0.3125000E+00  0.6250000E-01  0.1562500E-01
    1       -2.563263   1.000000
    2        2.587797   1.000000
    3        8.958992   1.000000
    4       13.051620   0.000000
    5       13.604663   0.000000
    6       17.483378   0.000000
    7       18.626419   0.000000
    8       19.931135   0.000000
 
 -0.1875000E+00  0.3125000E+00  0.6250000E-01  0.3125000E-01
    1       -2.555351   1.000000
    2        4.250757   1.000000
    3        7.536877   1.000000
    4       13.311439   0.000000
    5       13.982514   0.000000
    6       15.584156   0.000000
    7       17.440993   0.000000
    8       18.970755   0.000000
 
 -0.6250000E-01  0.3125000E+00  0.6250000E-01  0.1562500E-01
    1       -1.659548   1.000000
    2        6.403576   1.000000
    3        7.063448   1.000000
    4       10.312784   1.000000
    5       13.720392   0.000000
    6       15.785919   0.000000
    7       15.960403   0.000000
    8       17.205237   0.000000
 
  0.4375000E+00  0.4375000E+00  0.6250000E-01  0.7812500E-02
    1       -0.168540   1.000000
    2       -0.168539   1.000000
    3       11.688289   0.000005
    4       11.688290   0.000005
    5       14.307768   0.000000
    6       14.307774   0.000000
    7       16.185284   0.000000
    8       16.185292   0.000000
 
 -0.4375000E+00  0.4375000E+00  0.6250000E-01  0.1562500E-01
    1       -1.257172   1.000000
    2        0.466552   1.000000
    3       10.141551   1.000000
    4       11.699873   0.000003
    5       14.244875   0.000000
    6       15.749582   0.000000
    7       19.354628   0.000000
    8       19.541687   0.000000
 
 -0.3125000E+00  0.4375000E+00  0.6250000E-01  0.3125000E-01
    1       -1.466418   1.000000
    2        1.962254   1.000000
    3        8.529056   1.000000
    4       11.630778   0.000030
    5       13.648630   0.000000
    6       16.012267   0.000000
    7       17.563612   0.000000
    8       18.920588   0.000000
 
 -0.1875000E+00  0.4375000E+00  0.6250000E-01  0.3125000E-01
    1       -0.792991   1.000000
    2        4.271761   1.000000
    3        7.566313   1.000000
    4        9.569990   1.000000
    5       12.170878   0.000000
    6       15.164488   0.000000
    7       17.234546   0.000000
    8       18.722760   0.000000
 
 -0.6250000E-01  0.4375000E+00  0.6250000E-01  0.1562500E-01
    1        0.747549   1.000000
    2        5.870583   1.000000
    3        7.217248   1.000000
    4        7.662817   1.000000
    5       11.699078   0.000003
    6       13.445359   0.000000
    7       14.917828   0.000000
    8       18.940876   0.000000
 
 -0.4375000E+00 -0.4375000E+00  0.6250000E-01  0.1562500E-01
    1        0.043948   1.000000
    2        0.045895   1.000000
    3        9.890845   1.000000
    4        9.928205   1.000000
    5       13.554253   0.000000
    6       16.805835   0.000000
    7       17.423078   0.000000
    8       17.732376   0.000000
 
 -0.3125000E+00 -0.4375000E+00  0.6250000E-01  0.3125000E-01
    1        0.497104   1.000000
    2        2.196072   1.000000
    3        8.617532   1.000000
    4        9.252198   1.000000
    5       10.437413   0.999995
    6       14.689320   0.000000
    7       18.640558   0.000000
    8       20.262715   0.000000
 
 -0.1875000E+00 -0.4375000E+00  0.6250000E-01  0.3125000E-01
    1        1.805832   1.000000
    2        4.941490   1.000000
    3        5.582775   1.000000
    4        8.389513   1.000000
    5       10.990494   0.696163
    6       13.159131   0.000000
    7       15.661479   0.000000
    8       20.404559   0.000000
 
 -0.6250000E-01 -0.4375000E+00  0.6250000E-01  0.1562500E-01
    1        2.257655   1.000000
    2        4.050486   1.000000
    3        8.496547   1.000000
    4        8.747267   1.000000
    5       10.195825   1.000000
    6       11.942276   0.000000
    7       14.537475   0.000000
    8       18.820476   0.000000
 
 -0.3125000E+00 -0.3125000E+00  0.6250000E-01  0.1562500E-01
    1        3.221308   1.000000
    2        3.298342   1.000000
    3        5.227172   1.000000
    4        9.402981   1.000000
    5        9.917918   1.000000
    6       12.708705   0.000000
    7       17.684759   0.000000
    8       19.126164   0.000000
 
 -0.1875000E+00 -0.3125000E+00  0.6250000E-01  0.3125000E-01
    1        1.855650   1.000000
    2        5.263625   1.000000
    3        6.857236   1.000000
    4        9.237585   1.000000
    5       10.597403   0.999504
    6       12.485138   0.000000
    7       14.175428   0.000000
    8       17.480573   0.000000
 
 -0.6250000E-01 -0.3125000E+00  0.6250000E-01  0.1562500E-01
    1       -0.538154   1.000000
    2        7.853485   1.000000
    3        9.056123   1.000000
    4        9.165888   1.000000
    5       11.003674   0.662833
    6       12.657236   0.000000
    7       15.023830   0.000000
    8       16.377885   0.000000
 
 -0.1875000E+00 -0.1875000E+00  0.6250000E-01  0.1562500E-01
    1       -0.753878   1.000000
    2        8.723922   1.000000
    3        9.140473   1.000000
    4        9.437155   1.000000
    5       11.220982   0.132126
    6       13.492624   0.000000
    7       13.982645   0.000000
    8       14.356676   0.000000
 
 -0.6250000E-01 -0.1875000E+00  0.6250000E-01  0.1562500E-01
    1       -2.531303   1.000000
    2        8.669222   1.000000
    3        8.986937   1.000000
    4       11.524592   0.000551
    5       13.554765   0.000000
    6       14.019053   0.000000
    7       14.471503   0.000000
    8       15.931774   0.000000
 
 -0.6250000E-01 -0.6250000E-01  0.6250000E-01  0.3906250E-02
    1       -3.651745   1.000000
    2        8.734332   1.000000
    3        8.734332   1.000000
    4       10.336102   1.000000
    5       12.461238   0.000000
    6       17.468282   0.000000
    7       17.515485   0.000000
    8       19.354430   0.000000
 
  0.1875000E+00  0.1875000E+00  0.1875000E+00  0.1562500E-01
    1        0.963523   1.000000
    2        4.316234   1.000000
    3        7.758185   1.000000
    4        7.808017   1.000000
    5       13.152702   0.000000
    6       15.663872   0.000000
    7       16.503427   0.000000
    8       17.200353   0.000000
 
  0.3125000E+00  0.1875000E+00  0.1875000E+00  0.1562500E-01
    1        3.684675   1.000000
    2        4.236235   1.000000
    3        5.460029   1.000000
    4        5.958865   1.000000
    5       14.266436   0.000000
    6       15.963848   0.000000
    7       16.787795   0.000000
    8       17.345874   0.000000
 
 -0.1875000E+00  0.1875000E+00  0.1875000E+00  0.7812500E-02
    1       -3.001354   1.000000
    2        5.162530   1.000000
    3        5.860170   1.000000
    4       13.487338   0.000000
    5       14.643897   0.000000
    6       16.543217   0.000000
    7       18.781931   0.000000
    8       19.746685   0.000000
 
  0.3125000E+00  0.3125000E+00  0.1875000E+00  0.7812500E-02
    1        2.446275   1.000000
    2        2.446275   1.000000
    3        7.588247   1.000000
    4        7.588248   1.000000
    5       14.556371   0.000000
    6       14.556372   0.000000
    7       17.036663   0.000000
    8       17.036670   0.000000
 
 -0.3125000E+00  0.3125000E+00  0.1875000E+00  0.1562500E-01
    1       -2.127771   1.000000
    2        2.990461   1.000000
    3        6.384616   1.000000
    4       11.198509   0.169160
    5       15.772676   0.000000
    6       17.940340   0.000000
    7       18.768220   0.000000
    8       20.206362   0.000000
 
 -0.1875000E+00  0.3125000E+00  0.1875000E+00  0.1562500E-01
    1       -1.901867   1.000000
    2        4.539765   1.000000
    3        5.293030   1.000000
    4       11.353525   0.020007
    5       13.423050   0.000000
    6       17.803916   0.000000
    7       18.783424   0.000000
    8       19.785405   0.000000
 
 -0.4375000E+00  0.4375000E+00  0.1875000E+00  0.1562500E-01
    1       -0.826647   1.000000
    2        0.888783   1.000000
    3        7.598045   1.000000
    4        9.213737   1.000000
    5       16.563986   0.000000
    6       17.244204   0.000000
    7       19.231100   0.000000
    8       20.124330   0.000000
 
 -0.3125000E+00  0.4375000E+00  0.1875000E+00  0.3125000E-01
    1       -0.819041   1.000000
    2        2.575742   1.000000
    3        6.002057   1.000000
    4        9.224375   1.000000
    5       12.912240   0.000000
    6       19.089814   0.000000
    7       19.457048   0.000000
    8       21.684972   0.000000
 
 -0.1875000E+00  0.4375000E+00  0.1875000E+00  0.1562500E-01
    1        0.066978   1.000000
    2        4.755648   1.000000
    3        5.528543   1.000000
    4        8.747169   1.000000
    5       10.094584   1.000000
    6       16.889469   0.000000
    7       17.506306   0.000000
    8       20.874817   0.000000
 
 -0.4375000E+00 -0.4375000E+00  0.1875000E+00  0.1562500E-01
    1        0.680064   1.000000
    2        0.683870   1.000000
    3        7.414843   1.000000
    4        7.420729   1.000000
    5       12.732249   0.000000
    6       19.268539   0.000000
    7       20.056130   0.000000
    8       21.096685   0.000000
 
 -0.3125000E+00 -0.4375000E+00  0.1875000E+00  0.3125000E-01
    1        1.345046   1.000000
    2        3.017069   1.000000
    3        6.413225   1.000000
    4        7.902074   1.000000
    5        8.590446   1.000000
    6       16.808847   0.000000
    7       19.676489   0.000000
    8       21.758139   0.000000
 
 -0.1875000E+00 -0.4375000E+00  0.1875000E+00  0.1562500E-01
    1        2.836924   1.000000
    2        4.656196   1.000000
    3        6.010580   1.000000
    4        6.560040   1.000000
    5        9.403686   1.000000
    6       14.796308   0.000000
    7       15.250623   0.000000
    8       20.542676   0.000000
 
 -0.3125000E+00 -0.3125000E+00  0.1875000E+00  0.1562500E-01
    1        3.974518   1.000000
    2        4.327884   1.000000
    3        4.872847   1.000000
    4        7.631309   1.000000
    5        7.752858   1.000000
    6       14.777473   0.000000
    7       17.047507   0.000000
    8       18.849280   0.000000
 
 -0.1875000E+00 -0.3125000E+00  0.1875000E+00  0.1562500E-01
    1        1.437641   1.000000
    2        6.468237   1.000000
    3        7.804287   1.000000
    4        8.283441   1.000000
    5        9.496687   1.000000
    6       13.500975   0.000000
    7       13.704357   0.000000
    8       16.542973   0.000000
 
 -0.1875000E+00 -0.1875000E+00  0.1875000E+00  0.3906250E-02
    1       -0.970044   1.000000
    2        9.890957   1.000000
    3        9.890957   1.000000
    4       10.142288   1.000000
    5       10.574833   0.999722
    6       13.318998   0.000000
    7       13.319003   0.000000
    8       13.642878   0.000000
 
 -0.3125000E+00  0.3125000E+00  0.3125000E+00  0.7812500E-02
    1       -1.260639   1.000000
    2        3.473103   1.000000
    3        4.285549   1.000000
    4        8.846842   1.000000
    5       16.791807   0.000000
    6       17.344804   0.000000
    7       20.686322   0.000000
    8       21.232607   0.000000
 
 -0.4375000E+00  0.4375000E+00  0.3125000E+00  0.1562500E-01
    1        0.028809   1.000000
    2        1.717650   1.000000
    3        5.188509   1.000000
    4        6.820741   1.000000
    5       16.797189   0.000000
    6       16.931450   0.000000
    7       21.886843   0.000000
    8       23.121727   0.000000
 
 -0.3125000E+00  0.4375000E+00  0.3125000E+00  0.1562500E-01
    1        0.251848   1.000000
    2        3.263556   1.000000
    3        4.096196   1.000000
    4        7.027323   1.000000
    5       12.365058   0.000000
    6       20.930060   0.000000
    7       21.590744   0.000000
    8       22.055990   0.000000
 
 -0.4375000E+00 -0.4375000E+00  0.3125000E+00  0.1562500E-01
    1        1.721887   1.000000
    2        1.727576   1.000000
    3        5.196779   1.000000
    4        5.198826   1.000000
    5       12.175859   0.000000
    6       20.981866   0.000000
    7       22.161193   0.000000
    8       23.443902   0.000000
 
 -0.3125000E+00 -0.4375000E+00  0.3125000E+00  0.1562500E-01
    1        2.593911   1.000000
    2        3.910195   1.000000
    3        4.733396   1.000000
    4        6.017009   1.000000
    5        8.061216   1.000000
    6       19.053278   0.000000
    7       19.577671   0.000000
    8       21.807288   0.000000
 
 -0.3125000E+00 -0.3125000E+00  0.3125000E+00  0.3906250E-02
    1        4.097286   1.000000
    2        5.444824   1.000000
    3        5.731276   1.000000
    4        6.176166   1.000000
    5        6.176167   1.000000
    6       16.835442   0.000000
    7       16.835454   0.000000
    8       17.919801   0.000000
 
 -0.4375000E+00  0.4375000E+00  0.4375000E+00  0.7812500E-02
    1        1.289436   1.000000
    2        2.611612   1.000000
    3        3.477927   1.000000
    4        4.781490   1.000000
    5       16.575940   0.000000
    6       16.607505   0.000000
    7       24.780598   0.000000
    8       25.619914   0.000000
 
 -0.4375000E+00 -0.4375000E+00  0.4375000E+00  0.3906250E-02
    1        2.827785   1.000000
    2        2.837730   1.000000
    3        3.691812   1.000000
    4        3.691812   1.000000
    5       11.985402   0.000000
    6       21.200676   0.000000
    7       23.885535   0.000000
    8       23.893776   0.000000
