 vasp.5.4.4.18Apr17-6-g9f103f2a35 (build Dec 09 2018 21:25:21) complex          
  
 executed on IFC18.0.1.163_CrayMP date 2019.04.01  15:50:44
 running on    8 total cores
 distrk:  each k-point on    8 cores,    1 groups
 distr:  one band on NCORES_PER_BAND=   1 cores,    8 groups


--------------------------------------------------------------------------------------------------------


 INCAR:
 POTCAR:   PAW_PBE Si 05Jan2001                   

 ----------------------------------------------------------------------------- 
|                                                                             |
|           W    W    AA    RRRRR   N    N  II  N    N   GGGG   !!!           |
|           W    W   A  A   R    R  NN   N  II  NN   N  G    G  !!!           |
|           W    W  A    A  R    R  N N  N  II  N N  N  G       !!!           |
|           W WW W  AAAAAA  RRRRR   N  N N  II  N  N N  G  GGG   !            |
|           WW  WW  A    A  R   R   N   NN  II  N   NN  G    G                |
|           W    W  A    A  R    R  N    N  II  N    N   GGGG   !!!           |
|                                                                             |
|      For optimal performance we recommend to set                            |
|        NCORE= 4 - approx SQRT( number of cores)                             |
|      NCORE specifies how many cores store one orbital (NPAR=cpu/NCORE).     |
|      This setting can  greatly improve the performance of VASP for DFT.     |
|      The default,   NCORE=1            might be grossly inefficient         |
|      on modern multi-core architectures or massively parallel machines.     |
|      Do your own testing !!!!                                               |
|      Unfortunately you need to use the default for GW and RPA calculations. |
|      (for HF NCORE is supported but not extensively tested yet)             |
|                                                                             |
 ----------------------------------------------------------------------------- 

 POTCAR:   PAW_PBE Si 05Jan2001                   
   VRHFIN =Si: s2p2                                                             
   LEXCH  = PE                                                                  
   EATOM  =   103.0669 eV,    7.5752 Ry                                         
                                                                                
   TITEL  = PAW_PBE Si 05Jan2001                                                
   LULTRA =        F    use ultrasoft PP ?                                      
   IUNSCR =        1    unscreen: 0-lin 1-nonlin 2-no                           
   RPACOR =    1.500    partial core radius                                     
   POMASS =   28.085; ZVAL   =    4.000    mass and valenz                      
   RCORE  =    1.900    outmost cutoff radius                                   
   RWIGS  =    2.480; RWIGS  =    1.312    wigner-seitz radius (au A)           
   ENMAX  =  245.345; ENMIN  =  184.009 eV                                      
   ICORE  =        2    local potential                                         
   LCOR   =        T    correct aug charges                                     
   LPAW   =        T    paw PP                                                  
   EAUG   =  322.069                                                            
   DEXC   =    -.007                                                            
   RMAX   =    2.944    core radius for proj-oper                               
   RAUG   =    1.300    factor for augmentation sphere                          
   RDEP   =    1.993    radius for radial grids                                 
   QCUT   =   -4.246; QGAM   =    8.493    optimization parameters              
                                                                                
   Description                                                                  
     l     E      TYP  RCUT    TYP  RCUT                                        
     0   .000     23  1.900                                                     
     0   .000     23  1.900                                                     
     1   .000     23  1.900                                                     
     1   .000     23  1.900                                                     
     2   .000      7  1.900                                                     
  local pseudopotential read in
  partial core-charges read in
  atomic valenz-charges read in
  non local Contribution for L=           0  read in
    real space projection operators read in
  non local Contribution for L=           0  read in
    real space projection operators read in
  non local Contribution for L=           1  read in
    real space projection operators read in
  non local Contribution for L=           1  read in
    real space projection operators read in
    PAW grid and wavefunctions read in
 
   number of l-projection  operators is LMAX  =           4
   number of lm-projection operators is LMMAX =           8
 
 PAW_PBE Si 05Jan2001                   :
 energy of atom  1       EATOM= -103.0669
 kinetic energy error for atom=    0.0013 (will be added to EATOM!!)
 
 
 POSCAR: Si2                                     
  positions in direct lattice
  No initial velocities read in
 exchange correlation table for  LEXCH =        8
   RHO(1)=    0.500       N(1)  =     2000
   RHO(2)=  100.500       N(2)  =     4000
 


--------------------------------------------------------------------------------------------------------


 ion  position               nearest neighbor table
   1  0.000  0.000  0.000-   2 2.35   2 2.35   2 2.35   2 2.35   2 2.98   2 2.98   2 2.98   2 2.98

   2  0.250  0.750  0.500-   1 2.35   1 2.35   1 2.35   1 2.35   1 2.98   1 2.98   1 2.98   1 2.98

 
  LATTYP: Found a body centered tetragonal cell.
 ALAT       =     4.5257220000
 C/A-ratio  =     0.5706399995
  
  Lattice vectors:
  
 A1 = (  -2.2628610000,   2.2628610000,   1.2912790000)
 A2 = (   2.2628610000,  -2.2628610000,   1.2912790000)
 A3 = (   2.2628610000,   2.2628610000,  -1.2912790000)


Analysis of symmetry for initial positions (statically):
=====================================================================
 Subroutine PRICEL returns:
 Original cell was already a primitive cell.
 

 Routine SETGRP: Setting up the symmetry group for a 
 body centered tetragonal supercell.


 Subroutine GETGRP returns: Found 16 space group operations
 (whereof  8 operations were pure point group operations)
 out of a pool of 16 trial point group operations.


The static configuration has the point symmetry D_2d.
 The point group associated with its full space group is D_4h.


Analysis of symmetry for dynamics (positions and initial velocities):
=====================================================================
 Subroutine PRICEL returns:
 Original cell was already a primitive cell.
 

 Routine SETGRP: Setting up the symmetry group for a 
 body centered tetragonal supercell.


 Subroutine GETGRP returns: Found 16 space group operations
 (whereof  8 operations were pure point group operations)
 out of a pool of 16 trial point group operations.


The dynamic configuration has the point symmetry D_2d.
 The point group associated with its full space group is D_4h.


 Subroutine INISYM returns: Found 16 space group operations
 (whereof  8 operations are pure point group operations),
 and found     1 'primitive' translations

 
 
 KPOINTS: Automatic kpoint scheme                 

Automatic generation of k-mesh.
Space group operators:
 irot       det(A)        alpha          n_x          n_y          n_z        tau_x        tau_y        tau_z
    1     1.000000     0.000000     1.000000     0.000000     0.000000     0.000000     0.000000     0.000000
    2    -1.000000    90.000000    -0.000000     0.000000    -1.000000     0.000000     0.000000     0.000000
    3     1.000000   180.000000     0.000000    -0.000000     1.000000     0.000000     0.000000     0.000000
    4    -1.000000    90.000000     0.000000     0.000000     1.000000     0.000000     0.000000     0.000000
    5    -1.000000   180.000000    -0.000000    -1.000000     0.000000     0.000000     0.000000     0.000000
    6     1.000000   180.000000     0.707107     0.707107    -0.000000     0.000000     0.000000     0.000000
    7    -1.000000   180.000000     1.000000     0.000000     0.000000     0.000000     0.000000     0.000000
    8     1.000000   180.000000     0.707107    -0.707107     0.000000     0.000000     0.000000     0.000000
    9    -1.000000     0.000000     1.000000     0.000000     0.000000     0.250000     0.750000     0.500000
   10     1.000000    90.000000    -0.000000     0.000000    -1.000000     0.250000     0.750000     0.500000
   11    -1.000000   180.000000     0.000000    -0.000000     1.000000     0.250000     0.750000     0.500000
   12     1.000000    90.000000     0.000000     0.000000     1.000000     0.250000     0.750000     0.500000
   13     1.000000   180.000000    -0.000000    -1.000000     0.000000     0.250000     0.750000     0.500000
   14    -1.000000   180.000000     0.707107     0.707107    -0.000000     0.250000     0.750000     0.500000
   15     1.000000   180.000000     1.000000     0.000000     0.000000     0.250000     0.750000     0.500000
   16    -1.000000   180.000000     0.707107    -0.707107     0.000000     0.250000     0.750000     0.500000
 
 Subroutine IBZKPT returns following result:
 ===========================================
 
 Found     56 irreducible k-points:
 
 Following reciprocal coordinates:
            Coordinates               Weight
  0.062500  0.062500  0.062500    128.000000
  0.187500  0.062500  0.062500    256.000000
  0.312500  0.062500  0.062500    256.000000
  0.437500  0.062500  0.062500    128.000000
 -0.062500  0.062500  0.062500     64.000000
  0.187500  0.187500  0.062500    128.000000
  0.312500  0.187500  0.062500    256.000000
  0.437500  0.187500  0.062500    256.000000
 -0.437500  0.187500  0.062500    256.000000
 -0.312500  0.187500  0.062500    128.000000
 -0.187500  0.187500  0.062500    128.000000
 -0.062500  0.187500  0.062500    128.000000
  0.312500  0.312500  0.062500    128.000000
  0.437500  0.312500  0.062500    256.000000
 -0.437500  0.312500  0.062500    128.000000
 -0.312500  0.312500  0.062500    128.000000
 -0.187500  0.312500  0.062500    256.000000
 -0.062500  0.312500  0.062500    128.000000
  0.437500  0.437500  0.062500     64.000000
 -0.437500  0.437500  0.062500    128.000000
 -0.312500  0.437500  0.062500    256.000000
 -0.187500  0.437500  0.062500    256.000000
 -0.062500  0.437500  0.062500    128.000000
 -0.437500 -0.437500  0.062500    128.000000
 -0.312500 -0.437500  0.062500    256.000000
 -0.187500 -0.437500  0.062500    256.000000
 -0.062500 -0.437500  0.062500    128.000000
 -0.312500 -0.312500  0.062500    128.000000
 -0.187500 -0.312500  0.062500    256.000000
 -0.062500 -0.312500  0.062500    128.000000
 -0.187500 -0.187500  0.062500    128.000000
 -0.062500 -0.187500  0.062500    128.000000
 -0.062500 -0.062500  0.062500     32.000000
  0.187500  0.187500  0.187500    128.000000
  0.312500  0.187500  0.187500    128.000000
 -0.187500  0.187500  0.187500     64.000000
  0.312500  0.312500  0.187500     64.000000
 -0.312500  0.312500  0.187500    128.000000
 -0.187500  0.312500  0.187500    128.000000
 -0.437500  0.437500  0.187500    128.000000
 -0.312500  0.437500  0.187500    256.000000
 -0.187500  0.437500  0.187500    128.000000
 -0.437500 -0.437500  0.187500    128.000000
 -0.312500 -0.437500  0.187500    256.000000
 -0.187500 -0.437500  0.187500    128.000000
 -0.312500 -0.312500  0.187500    128.000000
 -0.187500 -0.312500  0.187500    128.000000
 -0.187500 -0.187500  0.187500     32.000000
 -0.312500  0.312500  0.312500     64.000000
 -0.437500  0.437500  0.312500    128.000000
 -0.312500  0.437500  0.312500    128.000000
 -0.437500 -0.437500  0.312500    128.000000
 -0.312500 -0.437500  0.312500    128.000000
 -0.312500 -0.312500  0.312500     32.000000
 -0.437500  0.437500  0.437500     64.000000
 -0.437500 -0.437500  0.437500     32.000000
 
 Following cartesian coordinates:
            Coordinates               Weight
  0.027620  0.027620  0.048402    128.000000
  0.027620  0.055240  0.096803    256.000000
  0.027620  0.082860  0.145205    256.000000
  0.027620  0.110480  0.193606    128.000000
  0.027620  0.000000  0.000000     64.000000
  0.055240  0.055240  0.145205    128.000000
  0.055240  0.082860  0.193606    256.000000
  0.055240  0.110480  0.242008    256.000000
  0.055240 -0.082860 -0.096803    256.000000
  0.055240 -0.055240 -0.048402    128.000000
  0.055240 -0.027620  0.000000    128.000000
  0.055240 -0.000000  0.048402    128.000000
  0.082860  0.082860  0.242008    128.000000
  0.082860  0.110480  0.290410    256.000000
  0.082860 -0.082860 -0.048402    128.000000
  0.082860 -0.055240  0.000000    128.000000
  0.082860 -0.027620  0.048402    256.000000
  0.082860 -0.000000  0.096803    128.000000
  0.110480  0.110480  0.338811     64.000000
  0.110480 -0.082860  0.000000    128.000000
  0.110480 -0.055240  0.048402    256.000000
  0.110480 -0.027620  0.096803    256.000000
  0.110480 -0.000000  0.145205    128.000000
 -0.082860 -0.082860 -0.338811    128.000000
 -0.082860 -0.055240 -0.290410    256.000000
 -0.082860 -0.027620 -0.242008    256.000000
 -0.082860  0.000000 -0.193606    128.000000
 -0.055240 -0.055240 -0.242008    128.000000
 -0.055240 -0.027620 -0.193606    256.000000
 -0.055240  0.000000 -0.145205    128.000000
 -0.027620 -0.027620 -0.145205    128.000000
 -0.027620  0.000000 -0.096803    128.000000
  0.000000  0.000000 -0.048402     32.000000
  0.082860  0.082860  0.145205    128.000000
  0.082860  0.110480  0.193606    128.000000
  0.082860  0.000000  0.000000     64.000000
  0.110480  0.110480  0.242008     64.000000
  0.110480 -0.027620  0.000000    128.000000
  0.110480  0.000000  0.048402    128.000000
  0.138100 -0.055240  0.000000    128.000000
  0.138100 -0.027620  0.048402    256.000000
  0.138100 -0.000000  0.096803    128.000000
 -0.055240 -0.055240 -0.338811    128.000000
 -0.055240 -0.027620 -0.290410    256.000000
 -0.055240  0.000000 -0.242008    128.000000
 -0.027620 -0.027620 -0.242008    128.000000
 -0.027620  0.000000 -0.193606    128.000000
  0.000000  0.000000 -0.145205     32.000000
  0.138100 -0.000000 -0.000000     64.000000
  0.165719 -0.027620  0.000000    128.000000
  0.165719  0.000000  0.048402    128.000000
 -0.027620 -0.027620 -0.338811    128.000000
 -0.027620 -0.000000 -0.290410    128.000000
  0.000000  0.000000 -0.242008     32.000000
  0.193339  0.000000  0.000000     64.000000
 -0.000000  0.000000 -0.338811     32.000000
 


--------------------------------------------------------------------------------------------------------




 Dimension of arrays:
   k-points           NKPTS =     56   k-points in BZ     NKDIM =     56   number of bands    NBANDS=      8
   number of dos      NEDOS =    301   number of ions     NIONS =      2
   non local maximal  LDIM  =      4   non local SUM 2l+1 LMDIM =      8
   total plane-waves  NPLWV =   4096
   max r-space proj   IRMAX =      1   max aug-charges    IRDMAX=   5377
   dimension x,y,z NGX =    16 NGY =   16 NGZ =   16
   dimension x,y,z NGXF=    32 NGYF=   32 NGZF=   32
   support grid    NGXF=    32 NGYF=   32 NGZF=   32
   ions per type =               2
   NGX,Y,Z   is equivalent  to a cutoff of   7.71,  7.71,  7.71 a.u.
   NGXF,Y,Z  is equivalent  to a cutoff of  15.42, 15.42, 15.42 a.u.

 SYSTEM =  unknown system                          
 POSCAR =  Si2                                     

 Startparameter for this run:
   NWRITE =      2    write-flag & timer
   PREC   = normal    normal or accurate (medium, high low for compatibility)
   ISTART =      0    job   : 0-new  1-cont  2-samecut
   ICHARG =      2    charge: 1-file 2-atom 10-const
   ISPIN  =      1    spin polarized calculation?
   LNONCOLLINEAR =      F non collinear calculations
   LSORBIT =      F    spin-orbit coupling
   INIWAV =      1    electr: 0-lowe 1-rand  2-diag
   LASPH  =      F    aspherical Exc in radial PAW
   METAGGA=      F    non-selfconsistent MetaGGA calc.

 Electronic Relaxation 1
   ENCUT  =  350.0 eV  25.72 Ry    5.07 a.u.   5.26  5.26  5.26*2*pi/ulx,y,z
   ENINI  =  350.0     initial cutoff
   ENAUG  =  322.1 eV  augmentation charge cutoff
   NELM   =     60;   NELMIN=  2; NELMDL= -5     # of ELM steps 
   EDIFF  = 0.4E-03   stopping-criterion for ELM
   LREAL  =      F    real-space projection
   NLSPLINE    = F    spline interpolate recip. space projectors
   LCOMPAT=      F    compatible to vasp.4.4
   GGA_COMPAT  = T    GGA compatible to vasp.4.4-vasp.4.6
   LMAXPAW     = -100 max onsite density
   LMAXMIX     =    2 max onsite mixed and CHGCAR
   VOSKOWN=      0    Vosko Wilk Nusair interpolation
   ROPT   =    0.00000
 Ionic relaxation
   EDIFFG = -.1E-01   stopping-criterion for IOM
   NSW    =     15    number of steps for IOM
   NBLOCK =      1;   KBLOCK =     15    inner block; outer block 
   IBRION =      2    ionic relax: 0-MD 1-quasi-New 2-CG
   NFREE  =      1    steps in history (QN), initial steepest desc. (CG)
   ISIF   =      2    stress and relaxation
   IWAVPR =     11    prediction:  0-non 1-charg 2-wave 3-comb
   ISYM   =      2    0-nonsym 1-usesym 2-fastsym
   LCORR  =      T    Harris-Foulkes like correction to forces

   POTIM  = 0.5000    time-step for ionic-motion
   TEIN   =    0.0    initial temperature
   TEBEG  =    0.0;   TEEND  =   0.0 temperature during run
   SMASS  =  -3.00    Nose mass-parameter (am)
   estimated Nose-frequenzy (Omega)   =  0.10E-29 period in steps =****** mass=  -0.272E-27a.u.
   SCALEE = 1.0000    scale energy and forces
   NPACO  =    256;   APACO  = 16.0  distance and # of slots for P.C.
   PSTRESS=    0.0 pullay stress

  Mass of Ions in am
   POMASS =  28.09
  Ionic Valenz
   ZVAL   =   4.00
  Atomic Wigner-Seitz radii
   RWIGS  =  -1.00
  virtual crystal weights 
   VCA    =   1.00
   NELECT =       8.0000    total number of electrons
   NUPDOWN=      -1.0000    fix difference up-down

 DOS related values:
   EMIN   =  10.00;   EMAX   =-10.00  energy-range for DOS
   EFERMI =   0.00
   ISMEAR =     0;   SIGMA  =   0.20  broadening in eV -4-tet -1-fermi 0-gaus

 Electronic relaxation 2 (details)
   IALGO  =     38    algorithm
   LDIAG  =      T    sub-space diagonalisation (order eigenvalues)
   LSUBROT=      F    optimize rotation matrix (better conditioning)
   TURBO    =      0    0=normal 1=particle mesh
   IRESTART =      0    0=no restart 2=restart with 2 vectors
   NREBOOT  =      0    no. of reboots
   NMIN     =      0    reboot dimension
   EREF     =   0.00    reference energy to select bands
   IMIX   =      4    mixing-type and parameters
     AMIX     =   0.40;   BMIX     =  1.00
     AMIX_MAG =   1.60;   BMIX_MAG =  1.00
     AMIN     =   0.10
     WC   =   100.;   INIMIX=   1;  MIXPRE=   1;  MAXMIX= -45

 Intra band minimization:
   WEIMIN = 0.0010     energy-eigenvalue tresh-hold
   EBREAK =  0.13E-04  absolut break condition
   DEPER  =   0.30     relativ break condition  

   TIME   =   0.40     timestep for ELM

  volume/ion in A,a.u.               =      13.22        89.24
  Fermi-wavevector in a.u.,A,eV,Ry     =   1.098937  2.076690 16.431253  1.207663
  Thomas-Fermi vector in A             =   2.235323
 
 Write flags
   LWAVE        =      T    write WAVECAR
   LDOWNSAMPLE  =      F    k-point downsampling of WAVECAR
   LCHARG       =      T    write CHGCAR
   LVTOT        =      F    write LOCPOT, total local potential
   LVHAR        =      F    write LOCPOT, Hartree potential only
   LELF         =      F    write electronic localiz. function (ELF)
   LORBIT       =      0    0 simple, 1 ext, 2 COOP (PROOUT), +10 PAW based schemes


 Dipole corrections
   LMONO  =      F    monopole corrections only (constant potential shift)
   LDIPOL =      F    correct potential (dipole corrections)
   IDIPOL =      0    1-x, 2-y, 3-z, 4-all directions 
   EPSILON=  1.0000000 bulk dielectric constant

 Exchange correlation treatment:
   GGA     =    --    GGA type
   LEXCH   =     8    internal setting for exchange type
   VOSKOWN=      0    Vosko Wilk Nusair interpolation
   LHFCALC =     F    Hartree Fock is set to
   LHFONE  =     F    Hartree Fock one center treatment
   AEXX    =    0.0000 exact exchange contribution

 Linear response parameters
   LEPSILON=     F    determine dielectric tensor
   LRPA    =     F    only Hartree local field effects (RPA)
   LNABLA  =     F    use nabla operator in PAW spheres
   LVEL    =     F    velocity operator in full k-point grid
   LINTERFAST=   F  fast interpolation
   KINTER  =     0    interpolate to denser k-point grid
   CSHIFT  =0.1000    complex shift for real part using Kramers Kronig
   OMEGAMAX=  -1.0    maximum frequency
   DEG_THRESHOLD= 0.2000000E-02 threshold for treating states as degnerate
   RTIME   =   -0.100 relaxation time in fs
  (WPLASMAI=    0.000 imaginary part of plasma frequency in eV, 0.658/RTIME)
   DFIELD  = 0.0000000 0.0000000 0.0000000 field for delta impulse in time
 
 Orbital magnetization related:
   ORBITALMAG=     F  switch on orbital magnetization
   LCHIMAG   =     F  perturbation theory with respect to B field
   DQ        =  0.001000  dq finite difference perturbation B field
   LLRAUG    =     F  two centre corrections for induced B field



--------------------------------------------------------------------------------------------------------


 conjugate gradient relaxation of ions
 charge density and potential will be updated during run
 non-spin polarized calculation
 Variant of blocked Davidson
 Davidson routine will perform the subspace rotation
 perform sub-space diagonalisation
    after iterative eigenvector-optimisation
 modified Broyden-mixing scheme, WC =      100.0
 initial mixing is a Kerker type mixing with AMIX =  0.4000 and BMIX =      1.0000
 Hartree-type preconditioning will be used
 using additional bands            4
 reciprocal scheme for non local part
 use partial core corrections
 calculate Harris-corrections to forces 
   (improved forces if not selfconsistent)
 use gradient corrections 
 use of overlap-Matrix (Vanderbilt PP)
 Gauss-broadening in eV      SIGMA  =   0.20


--------------------------------------------------------------------------------------------------------


  energy-cutoff  :      350.00
  volume of cell :       26.45
      direct lattice vectors                 reciprocal lattice vectors
    -2.262861000  2.262861000  1.291279000    -0.000000000  0.220959219  0.387212988
     2.262861000 -2.262861000  1.291279000     0.220959219 -0.000000000  0.387212988
     2.262861000  2.262861000 -1.291279000     0.220959219  0.220959219 -0.000000000

  length of vectors
     3.450866741  3.450866741  3.450866741     0.445821573  0.445821573  0.312483525


 
 k-points in units of 2pi/SCALE and weight: Automatic kpoint scheme                 
   0.02761990  0.02761990  0.04840162       0.016
   0.02761990  0.05523980  0.09680325       0.031
   0.02761990  0.08285971  0.14520487       0.031
   0.02761990  0.11047961  0.19360649       0.016
   0.02761990  0.00000000 -0.00000000       0.008
   0.05523980  0.05523980  0.14520487       0.016
   0.05523980  0.08285971  0.19360649       0.031
   0.05523980  0.11047961  0.24200812       0.031
   0.05523980 -0.08285971 -0.09680325       0.031
   0.05523980 -0.05523980 -0.04840162       0.016
   0.05523980 -0.02761990  0.00000000       0.016
   0.05523980 -0.00000000  0.04840162       0.016
   0.08285971  0.08285971  0.24200812       0.016
   0.08285971  0.11047961  0.29040974       0.031
   0.08285971 -0.08285971 -0.04840162       0.016
   0.08285971 -0.05523980 -0.00000000       0.016
   0.08285971 -0.02761990  0.04840162       0.031
   0.08285971 -0.00000000  0.09680325       0.016
   0.11047961  0.11047961  0.33881136       0.008
   0.11047961 -0.08285971 -0.00000000       0.016
   0.11047961 -0.05523980  0.04840162       0.031
   0.11047961 -0.02761990  0.09680325       0.031
   0.11047961 -0.00000000  0.14520487       0.016
  -0.08285971 -0.08285971 -0.33881136       0.016
  -0.08285971 -0.05523980 -0.29040974       0.031
  -0.08285971 -0.02761990 -0.24200812       0.031
  -0.08285971  0.00000000 -0.19360649       0.016
  -0.05523980 -0.05523980 -0.24200812       0.016
  -0.05523980 -0.02761990 -0.19360649       0.031
  -0.05523980  0.00000000 -0.14520487       0.016
  -0.02761990 -0.02761990 -0.14520487       0.016
  -0.02761990  0.00000000 -0.09680325       0.016
   0.00000000  0.00000000 -0.04840162       0.004
   0.08285971  0.08285971  0.14520487       0.016
   0.08285971  0.11047961  0.19360649       0.016
   0.08285971 -0.00000000 -0.00000000       0.008
   0.11047961  0.11047961  0.24200812       0.008
   0.11047961 -0.02761990 -0.00000000       0.016
   0.11047961 -0.00000000  0.04840162       0.016
   0.13809951 -0.05523980  0.00000000       0.016
   0.13809951 -0.02761990  0.04840162       0.031
   0.13809951 -0.00000000  0.09680325       0.016
  -0.05523980 -0.05523980 -0.33881136       0.016
  -0.05523980 -0.02761990 -0.29040974       0.031
  -0.05523980  0.00000000 -0.24200812       0.016
  -0.02761990 -0.02761990 -0.24200812       0.016
  -0.02761990  0.00000000 -0.19360649       0.016
  -0.00000000  0.00000000 -0.14520487       0.004
   0.13809951 -0.00000000  0.00000000       0.008
   0.16571941 -0.02761990 -0.00000000       0.016
   0.16571941 -0.00000000  0.04840162       0.016
  -0.02761990 -0.02761990 -0.33881136       0.016
  -0.02761990 -0.00000000 -0.29040974       0.016
  -0.00000000 -0.00000000 -0.24200812       0.004
   0.19333932  0.00000000 -0.00000000       0.008
   0.00000000  0.00000000 -0.33881136       0.004
 
 k-points in reciprocal lattice and weights: Automatic kpoint scheme                 
   0.06250000  0.06250000  0.06250000       0.016
   0.18750000  0.06250000  0.06250000       0.031
   0.31250000  0.06250000  0.06250000       0.031
   0.43750000  0.06250000  0.06250000       0.016
  -0.06250000  0.06250000  0.06250000       0.008
   0.18750000  0.18750000  0.06250000       0.016
   0.31250000  0.18750000  0.06250000       0.031
   0.43750000  0.18750000  0.06250000       0.031
  -0.43750000  0.18750000  0.06250000       0.031
  -0.31250000  0.18750000  0.06250000       0.016
  -0.18750000  0.18750000  0.06250000       0.016
  -0.06250000  0.18750000  0.06250000       0.016
   0.31250000  0.31250000  0.06250000       0.016
   0.43750000  0.31250000  0.06250000       0.031
  -0.43750000  0.31250000  0.06250000       0.016
  -0.31250000  0.31250000  0.06250000       0.016
  -0.18750000  0.31250000  0.06250000       0.031
  -0.06250000  0.31250000  0.06250000       0.016
   0.43750000  0.43750000  0.06250000       0.008
  -0.43750000  0.43750000  0.06250000       0.016
  -0.31250000  0.43750000  0.06250000       0.031
  -0.18750000  0.43750000  0.06250000       0.031
  -0.06250000  0.43750000  0.06250000       0.016
  -0.43750000 -0.43750000  0.06250000       0.016
  -0.31250000 -0.43750000  0.06250000       0.031
  -0.18750000 -0.43750000  0.06250000       0.031
  -0.06250000 -0.43750000  0.06250000       0.016
  -0.31250000 -0.31250000  0.06250000       0.016
  -0.18750000 -0.31250000  0.06250000       0.031
  -0.06250000 -0.31250000  0.06250000       0.016
  -0.18750000 -0.18750000  0.06250000       0.016
  -0.06250000 -0.18750000  0.06250000       0.016
  -0.06250000 -0.06250000  0.06250000       0.004
   0.18750000  0.18750000  0.18750000       0.016
   0.31250000  0.18750000  0.18750000       0.016
  -0.18750000  0.18750000  0.18750000       0.008
   0.31250000  0.31250000  0.18750000       0.008
  -0.31250000  0.31250000  0.18750000       0.016
  -0.18750000  0.31250000  0.18750000       0.016
  -0.43750000  0.43750000  0.18750000       0.016
  -0.31250000  0.43750000  0.18750000       0.031
  -0.18750000  0.43750000  0.18750000       0.016
  -0.43750000 -0.43750000  0.18750000       0.016
  -0.31250000 -0.43750000  0.18750000       0.031
  -0.18750000 -0.43750000  0.18750000       0.016
  -0.31250000 -0.31250000  0.18750000       0.016
  -0.18750000 -0.31250000  0.18750000       0.016
  -0.18750000 -0.18750000  0.18750000       0.004
  -0.31250000  0.31250000  0.31250000       0.008
  -0.43750000  0.43750000  0.31250000       0.016
  -0.31250000  0.43750000  0.31250000       0.016
  -0.43750000 -0.43750000  0.31250000       0.016
  -0.31250000 -0.43750000  0.31250000       0.016
  -0.31250000 -0.31250000  0.31250000       0.004
  -0.43750000  0.43750000  0.43750000       0.008
  -0.43750000 -0.43750000  0.43750000       0.004
 
 position of ions in fractional coordinates (direct lattice) 
   0.00000000  0.00000000  0.00000000
   0.25000000  0.75000000  0.50000000
 
 position of ions in cartesian coordinates  (Angst):
   0.00000000  0.00000000  0.00000000
   2.26286100  0.00000000  0.64563950
 


--------------------------------------------------------------------------------------------------------


 k-point  1 :   0.0625 0.0625 0.0625  plane waves:     385
 k-point  2 :   0.1875 0.0625 0.0625  plane waves:     396
 k-point  3 :   0.3125 0.0625 0.0625  plane waves:     398
 k-point  4 :   0.4375 0.0625 0.0625  plane waves:     396
 k-point  5 :  -0.0625 0.0625 0.0625  plane waves:     393
 k-point  6 :   0.1875 0.1875 0.0625  plane waves:     403
 k-point  7 :   0.3125 0.1875 0.0625  plane waves:     396
 k-point  8 :   0.4375 0.1875 0.0625  plane waves:     395
 k-point  9 :  -0.4375 0.1875 0.0625  plane waves:     396
 k-point 10 :  -0.3125 0.1875 0.0625  plane waves:     393
 k-point 11 :  -0.1875 0.1875 0.0625  plane waves:     390
 k-point 12 :  -0.0625 0.1875 0.0625  plane waves:     392
 k-point 13 :   0.3125 0.3125 0.0625  plane waves:     394
 k-point 14 :   0.4375 0.3125 0.0625  plane waves:     397
 k-point 15 :  -0.4375 0.3125 0.0625  plane waves:     396
 k-point 16 :  -0.3125 0.3125 0.0625  plane waves:     392
 k-point 17 :  -0.1875 0.3125 0.0625  plane waves:     388
 k-point 18 :  -0.0625 0.3125 0.0625  plane waves:     395
 k-point 19 :   0.4375 0.4375 0.0625  plane waves:     396
 k-point 20 :  -0.4375 0.4375 0.0625  plane waves:     395
 k-point 21 :  -0.3125 0.4375 0.0625  plane waves:     389
 k-point 22 :  -0.1875 0.4375 0.0625  plane waves:     394
 k-point 23 :  -0.0625 0.4375 0.0625  plane waves:     400
 k-point 24 :  -0.4375-0.4375 0.0625  plane waves:     392
 k-point 25 :  -0.3125-0.4375 0.0625  plane waves:     394
 k-point 26 :  -0.1875-0.4375 0.0625  plane waves:     398
 k-point 27 :  -0.0625-0.4375 0.0625  plane waves:     397
 k-point 28 :  -0.3125-0.3125 0.0625  plane waves:     393
 k-point 29 :  -0.1875-0.3125 0.0625  plane waves:     399
 k-point 30 :  -0.0625-0.3125 0.0625  plane waves:     390
 k-point 31 :  -0.1875-0.1875 0.0625  plane waves:     390
 k-point 32 :  -0.0625-0.1875 0.0625  plane waves:     388
 k-point 33 :  -0.0625-0.0625 0.0625  plane waves:     388
 k-point 34 :   0.1875 0.1875 0.1875  plane waves:     393
 k-point 35 :   0.3125 0.1875 0.1875  plane waves:     392
 k-point 36 :  -0.1875 0.1875 0.1875  plane waves:     385
 k-point 37 :   0.3125 0.3125 0.1875  plane waves:     388
 k-point 38 :  -0.3125 0.3125 0.1875  plane waves:     389
 k-point 39 :  -0.1875 0.3125 0.1875  plane waves:     393
 k-point 40 :  -0.4375 0.4375 0.1875  plane waves:     390
 k-point 41 :  -0.3125 0.4375 0.1875  plane waves:     393
 k-point 42 :  -0.1875 0.4375 0.1875  plane waves:     394
 k-point 43 :  -0.4375-0.4375 0.1875  plane waves:     388
 k-point 44 :  -0.3125-0.4375 0.1875  plane waves:     394
 k-point 45 :  -0.1875-0.4375 0.1875  plane waves:     397
 k-point 46 :  -0.3125-0.3125 0.1875  plane waves:     396
 k-point 47 :  -0.1875-0.3125 0.1875  plane waves:     400
 k-point 48 :  -0.1875-0.1875 0.1875  plane waves:     388
 k-point 49 :  -0.3125 0.3125 0.3125  plane waves:     379
 k-point 50 :  -0.4375 0.4375 0.3125  plane waves:     386
 k-point 51 :  -0.3125 0.4375 0.3125  plane waves:     387
 k-point 52 :  -0.4375-0.4375 0.3125  plane waves:     391
 k-point 53 :  -0.3125-0.4375 0.3125  plane waves:     388
 k-point 54 :  -0.3125-0.3125 0.3125  plane waves:     404
 k-point 55 :  -0.4375 0.4375 0.4375  plane waves:     385
 k-point 56 :  -0.4375-0.4375 0.4375  plane waves:     384

 maximum and minimum number of plane-waves per node :       404      379

 maximum number of plane-waves:       404
 maximum index in each direction: 
   IXMAX=    5   IYMAX=    5   IZMAX=    5
   IXMIN=   -5   IYMIN=   -5   IZMIN=   -5


 serial   3D FFT for wavefunctions
 parallel 3D FFT for charge:
    minimum data exchange during FFTs selected (reduces bandwidth)


 total amount of memory used by VASP MPI-rank0    32392. kBytes
=======================================================================

   base      :      30000. kBytes
   nonl-proj :       1475. kBytes
   fftplans  :        160. kBytes
   grid      :        372. kBytes
   one-center:          6. kBytes
   wavefun   :        379. kBytes
 
     INWAV:  cpu time    0.0000: real time    0.0003
 Broyden mixing: mesh for mixing (old mesh)
   NGX = 11   NGY = 11   NGZ = 11
  (NGX  = 32   NGY  = 32   NGZ  = 32)
  gives a total of   1331 points

 initial charge density was supplied:
 charge density of overlapping atoms calculated
 number of electron       8.0000000 magnetization 
 keeping initial charge density in first step


--------------------------------------------------------------------------------------------------------


 Maximum index for augmentation-charges          629 (set IRDMAX)


--------------------------------------------------------------------------------------------------------


 First call to EWALD:  gamma=   0.595
 Maximum number of real-space cells 3x 3x 3
 Maximum number of reciprocal cells 3x 3x 3

    FEWALD:  cpu time    0.0040: real time    0.0057


--------------------------------------- Iteration      1(   1)  ---------------------------------------


    POTLOK:  cpu time    0.0280: real time    0.0346
    SETDIJ:  cpu time    0.0080: real time    0.0099
     EDDAV:  cpu time    0.3560: real time    0.3569
       DOS:  cpu time    0.0000: real time    0.0026
    --------------------------------------------
      LOOP:  cpu time    0.3920: real time    0.4045

 eigenvalue-minimisations  :   896
 total energy-change (2. order) : 0.1771745E+01  (-0.2871376E+03)
 number of electron       8.0000000 magnetization 
 augmentation part        8.0000000 magnetization 

 Free energy of the ion-electron system (eV)
  ---------------------------------------------------
  alpha Z        PSCENC =         5.09117453
  Ewald energy   TEWEN  =      -278.35836222
  -Hartree energ DENC   =        -1.45506954
  -exchange      EXHF   =         0.00000000
  -V(xc)+E(xc)   XCENC  =       -17.06049939
  PAW double counting   =        65.95520812      -30.76852678
  entropy T*S    EENTRO =        -0.01330904
  eigenvalues    EBANDS =        52.24987520
  atomic energy  EATOM  =       206.13125414
  Solvation  Ediel_sol  =         0.00000000
  ---------------------------------------------------
  free energy    TOTEN  =         1.77174502 eV

  energy without entropy =        1.78505406  energy(sigma->0) =        1.77839954


--------------------------------------------------------------------------------------------------------




--------------------------------------- Iteration      1(   2)  ---------------------------------------


     EDDAV:  cpu time    0.5160: real time    0.5235
       DOS:  cpu time    0.0000: real time    0.0027
    --------------------------------------------
      LOOP:  cpu time    0.5200: real time    0.5263

 eigenvalue-minimisations  :  1336
 total energy-change (2. order) :-0.1168400E+02  (-0.1124661E+02)
 number of electron       8.0000000 magnetization 
 augmentation part        8.0000000 magnetization 

 Free energy of the ion-electron system (eV)
  ---------------------------------------------------
  alpha Z        PSCENC =         5.09117453
  Ewald energy   TEWEN  =      -278.35836222
  -Hartree energ DENC   =        -1.45506954
  -exchange      EXHF   =         0.00000000
  -V(xc)+E(xc)   XCENC  =       -17.06049939
  PAW double counting   =        65.95520812      -30.76852678
  entropy T*S    EENTRO =        -0.01422268
  eigenvalues    EBANDS =        40.56678412
  atomic energy  EATOM  =       206.13125414
  Solvation  Ediel_sol  =         0.00000000
  ---------------------------------------------------
  free energy    TOTEN  =        -9.91225969 eV

  energy without entropy =       -9.89803701  energy(sigma->0) =       -9.90514835


--------------------------------------------------------------------------------------------------------




--------------------------------------- Iteration      1(   3)  ---------------------------------------


     EDDAV:  cpu time    0.4600: real time    0.4621
       DOS:  cpu time    0.0000: real time    0.0026
    --------------------------------------------
      LOOP:  cpu time    0.4600: real time    0.4648

 eigenvalue-minimisations  :  1168
 total energy-change (2. order) :-0.1174340E+00  (-0.1152299E+00)
 number of electron       8.0000000 magnetization 
 augmentation part        8.0000000 magnetization 

 Free energy of the ion-electron system (eV)
  ---------------------------------------------------
  alpha Z        PSCENC =         5.09117453
  Ewald energy   TEWEN  =      -278.35836222
  -Hartree energ DENC   =        -1.45506954
  -exchange      EXHF   =         0.00000000
  -V(xc)+E(xc)   XCENC  =       -17.06049939
  PAW double counting   =        65.95520812      -30.76852678
  entropy T*S    EENTRO =        -0.01508903
  eigenvalues    EBANDS =        40.45021644
  atomic energy  EATOM  =       206.13125414
  Solvation  Ediel_sol  =         0.00000000
  ---------------------------------------------------
  free energy    TOTEN  =       -10.02969373 eV

  energy without entropy =      -10.01460470  energy(sigma->0) =      -10.02214921


--------------------------------------------------------------------------------------------------------




--------------------------------------- Iteration      1(   4)  ---------------------------------------


     EDDAV:  cpu time    0.5400: real time    0.5448
       DOS:  cpu time    0.0040: real time    0.0026
    --------------------------------------------
      LOOP:  cpu time    0.5400: real time    0.5473

 eigenvalue-minimisations  :  1400
 total energy-change (2. order) :-0.4308916E-03  (-0.4308867E-03)
 number of electron       8.0000000 magnetization 
 augmentation part        8.0000000 magnetization 

 Free energy of the ion-electron system (eV)
  ---------------------------------------------------
  alpha Z        PSCENC =         5.09117453
  Ewald energy   TEWEN  =      -278.35836222
  -Hartree energ DENC   =        -1.45506954
  -exchange      EXHF   =         0.00000000
  -V(xc)+E(xc)   XCENC  =       -17.06049939
  PAW double counting   =        65.95520812      -30.76852678
  entropy T*S    EENTRO =        -0.01508918
  eigenvalues    EBANDS =        40.44978570
  atomic energy  EATOM  =       206.13125414
  Solvation  Ediel_sol  =         0.00000000
  ---------------------------------------------------
  free energy    TOTEN  =       -10.03012462 eV

  energy without entropy =      -10.01503544  energy(sigma->0) =      -10.02258003


--------------------------------------------------------------------------------------------------------




--------------------------------------- Iteration      1(   5)  ---------------------------------------


     EDDAV:  cpu time    0.4640: real time    0.4744
       DOS:  cpu time    0.0040: real time    0.0026
    CHARGE:  cpu time    0.0160: real time    0.0173
    MIXING:  cpu time    0.0000: real time    0.0020
    --------------------------------------------
      LOOP:  cpu time    0.4880: real time    0.4966

 eigenvalue-minimisations  :  1200
 total energy-change (2. order) :-0.1984149E-06  (-0.1979516E-06)
 number of electron       8.0000004 magnetization 
 augmentation part       -0.4707486 magnetization 

 Broyden mixing:
  rms(total) = 0.18694E+00    rms(broyden)= 0.18694E+00
  rms(prec ) = 0.43514E+00
  weight for this iteration     100.00

 Free energy of the ion-electron system (eV)
  ---------------------------------------------------
  alpha Z        PSCENC =         5.09117453
  Ewald energy   TEWEN  =      -278.35836222
  -Hartree energ DENC   =        -1.45506954
  -exchange      EXHF   =         0.00000000
  -V(xc)+E(xc)   XCENC  =       -17.06049939
  PAW double counting   =        65.95520812      -30.76852678
  entropy T*S    EENTRO =        -0.01508917
  eigenvalues    EBANDS =        40.44978549
  atomic energy  EATOM  =       206.13125414
  Solvation  Ediel_sol  =         0.00000000
  ---------------------------------------------------
  free energy    TOTEN  =       -10.03012482 eV

  energy without entropy =      -10.01503565  energy(sigma->0) =      -10.02258023


--------------------------------------------------------------------------------------------------------




--------------------------------------- Iteration      1(   6)  ---------------------------------------


    POTLOK:  cpu time    0.0200: real time    0.0312
    SETDIJ:  cpu time    0.0080: real time    0.0083
     EDDAV:  cpu time    0.4880: real time    0.4893
       DOS:  cpu time    0.0000: real time    0.0026
    CHARGE:  cpu time    0.0160: real time    0.0161
    MIXING:  cpu time    0.0040: real time    0.0015
    --------------------------------------------
      LOOP:  cpu time    0.5320: real time    0.5488

 eigenvalue-minimisations  :  1264
 total energy-change (2. order) : 0.2084975E-01  (-0.6523179E-03)
 number of electron       8.0000004 magnetization 
 augmentation part       -0.4712685 magnetization 

 Broyden mixing:
  rms(total) = 0.11441E+00    rms(broyden)= 0.11441E+00
  rms(prec ) = 0.26500E+00
  weight for this iteration     100.00

 eigenvalues of (default mixing * dielectric matrix)
  average eigenvalue GAMMA=   2.5651
  2.5651

 Free energy of the ion-electron system (eV)
  ---------------------------------------------------
  alpha Z        PSCENC =         5.09117453
  Ewald energy   TEWEN  =      -278.35836222
  -Hartree energ DENC   =        -1.59041791
  -exchange      EXHF   =         0.00000000
  -V(xc)+E(xc)   XCENC  =       -16.94348355
  PAW double counting   =        69.44975438      -34.34985991
  entropy T*S    EENTRO =        -0.01530686
  eigenvalues    EBANDS =        40.57597232
  atomic energy  EATOM  =       206.13125414
  Solvation  Ediel_sol  =         0.00000000
  ---------------------------------------------------
  free energy    TOTEN  =       -10.00927507 eV

  energy without entropy =       -9.99396821  energy(sigma->0) =      -10.00162164


--------------------------------------------------------------------------------------------------------




--------------------------------------- Iteration      1(   7)  ---------------------------------------


    POTLOK:  cpu time    0.0160: real time    0.0262
    SETDIJ:  cpu time    0.0080: real time    0.0083
     EDDAV:  cpu time    0.4680: real time    0.4679
       DOS:  cpu time    0.0000: real time    0.0027
    CHARGE:  cpu time    0.0160: real time    0.0155
    MIXING:  cpu time    0.0040: real time    0.0014
    --------------------------------------------
      LOOP:  cpu time    0.5120: real time    0.5220

 eigenvalue-minimisations  :  1216
 total energy-change (2. order) : 0.1214116E-01  (-0.1485461E-02)
 number of electron       8.0000004 magnetization 
 augmentation part       -0.4727361 magnetization 

 Broyden mixing:
  rms(total) = 0.74395E-02    rms(broyden)= 0.74394E-02
  rms(prec ) = 0.21739E-01
  weight for this iteration     100.00

 eigenvalues of (default mixing * dielectric matrix)
  average eigenvalue GAMMA=   2.5308
  2.5308  2.5308

 Free energy of the ion-electron system (eV)
  ---------------------------------------------------
  alpha Z        PSCENC =         5.09117453
  Ewald energy   TEWEN  =      -278.35836222
  -Hartree energ DENC   =        -1.90269962
  -exchange      EXHF   =         0.00000000
  -V(xc)+E(xc)   XCENC  =       -16.73882805
  PAW double counting   =        74.86910175      -39.90478850
  entropy T*S    EENTRO =        -0.01563498
  eigenvalues    EBANDS =        40.83164904
  atomic energy  EATOM  =       206.13125414
  Solvation  Ediel_sol  =         0.00000000
  ---------------------------------------------------
  free energy    TOTEN  =        -9.99713391 eV

  energy without entropy =       -9.98149893  energy(sigma->0) =       -9.98931642


--------------------------------------------------------------------------------------------------------




--------------------------------------- Iteration      1(   8)  ---------------------------------------


    POTLOK:  cpu time    0.0160: real time    0.0232
    SETDIJ:  cpu time    0.0080: real time    0.0084
     EDDAV:  cpu time    0.3440: real time    0.3434
       DOS:  cpu time    0.0000: real time    0.0027
    --------------------------------------------
      LOOP:  cpu time    0.3680: real time    0.3776

 eigenvalue-minimisations  :   840
 total energy-change (2. order) : 0.1178378E-03  (-0.9380265E-04)
 number of electron       8.0000004 magnetization 
 augmentation part       -0.4727361 magnetization 

 Free energy of the ion-electron system (eV)
  ---------------------------------------------------
  alpha Z        PSCENC =         5.09117453
  Ewald energy   TEWEN  =      -278.35836222
  -Hartree energ DENC   =        -1.90310015
  -exchange      EXHF   =         0.00000000
  -V(xc)+E(xc)   XCENC  =       -16.73430819
  PAW double counting   =        74.57654068      -39.60789610
  entropy T*S    EENTRO =        -0.01557198
  eigenvalues    EBANDS =        40.82325320
  atomic energy  EATOM  =       206.13125414
  Solvation  Ediel_sol  =         0.00000000
  ---------------------------------------------------
  free energy    TOTEN  =        -9.99701607 eV

  energy without entropy =       -9.98144410  energy(sigma->0) =       -9.98923008


--------------------------------------------------------------------------------------------------------




 average (electrostatic) potential at core
  the test charge radii are     0.9892
  (the norm of the test charge is              1.0000)
       1 -78.4667       2 -78.4667
 
 
 
 E-fermi :  11.0631     XC(G=0): -11.4858     alpha+bet :-18.1370


 k-point     1 :       0.0625    0.0625    0.0625
  band No.  band energies     occupation 
      1      -3.4318      2.00000
      2       6.6548      2.00000
      3       8.9248      2.00000
      4      11.2784      0.12800
      5      14.0143      0.00000
      6      16.5963      0.00000
      7      16.9337      0.00000
      8      19.5775      0.00000

 k-point     2 :       0.1875    0.0625    0.0625
  band No.  band energies     occupation 
      1      -2.0947      2.00000
      2       6.2993      2.00000
      3       9.2028      2.00000
      4      11.2793      0.12632
      5      13.2422      0.00000
      6      13.9905      0.00000
      7      16.3630      0.00000
      8      17.4856      0.00000

 k-point     3 :       0.3125    0.0625    0.0625
  band No.  band energies     occupation 
      1       0.1070      2.00000
      2       6.5583      2.00000
      3       7.1766      2.00000
      4       9.3114      2.00000
      5      11.0188      1.24592
      6      13.8325      0.00000
      7      16.7870      0.00000
      8      16.8602      0.00000

 k-point     4 :       0.4375    0.0625    0.0625
  band No.  band energies     occupation 
      1       2.8526      2.00000
      2       3.4595      2.00000
      3       7.8104      2.00000
      4       8.1373      2.00000
      5      11.0173      1.25371
      6      12.4806      0.00000
      7      16.4137      0.00000
      8      16.9451      0.00000

 k-point     5 :      -0.0625    0.0625    0.0625
  band No.  band energies     occupation 
      1      -3.8800      2.00000
      2       7.5493      2.00000
      3       7.9133      2.00000
      4      11.1254      0.65945
      5      12.8784      0.00000
      6      17.9191      0.00000
      7      20.7978      0.00000
      8      20.8181      0.00000

 k-point     6 :       0.1875    0.1875    0.0625
  band No.  band energies     occupation 
      1      -0.1073      2.00000
      2       6.5080      2.00000
      3       8.2978      2.00000
      4       8.4208      2.00000
      5      12.0689      0.00000
      6      14.7704      0.00000
      7      15.5413      0.00000
      8      15.5863      0.00000

 k-point     7 :       0.3125    0.1875    0.0625
  band No.  band energies     occupation 
      1       2.6750      2.00000
      2       4.4547      2.00000
      3       6.0520      2.00000
      4       7.6656      2.00000
      5      12.4018      0.00000
      6      13.9974      0.00000
      7      15.4336      0.00000
      8      17.9577      0.00000

 k-point     8 :       0.4375    0.1875    0.0625
  band No.  band energies     occupation 
      1       1.1751      2.00000
      2       4.5071      2.00000
      3       6.4266      2.00000
      4       9.2480      2.00000
      5      11.5162      0.00135
      6      14.4502      0.00000
      7      16.4819      0.00000
      8      18.2506      0.00000

 k-point     9 :      -0.4375    0.1875    0.0625
  band No.  band energies     occupation 
      1      -1.2250      2.00000
      2       3.8739      2.00000
      3       9.7862      2.00000
      4      10.7620      1.96674
      5      12.6307      0.00000
      6      14.6119      0.00000
      7      15.5784      0.00000
      8      18.4501      0.00000

 k-point    10 :      -0.3125    0.1875    0.0625
  band No.  band energies     occupation 
      1      -2.7738      2.00000
      2       4.0557      2.00000
      3       9.4929      2.00000
      4      12.0339      0.00000
      5      14.7929      0.00000
      6      16.0863      0.00000
      7      16.8617      0.00000
      8      18.4944      0.00000

 k-point    11 :      -0.1875    0.1875    0.0625
  band No.  band energies     occupation 
      1      -3.4399      2.00000
      2       5.0612      2.00000
      3       8.1682      2.00000
      4      12.1664      0.00000
      5      15.4722      0.00000
      6      15.7830      0.00000
      7      19.2692      0.00000
      8      20.2845      0.00000

 k-point    12 :      -0.0625    0.1875    0.0625
  band No.  band energies     occupation 
      1      -3.2123      2.00000
      2       6.5972      2.00000
      3       7.1767      2.00000
      4      12.8657      0.00000
      5      14.7927      0.00000
      6      15.6536      0.00000
      7      16.3950      0.00000
      8      19.2228      0.00000

 k-point    13 :       0.3125    0.3125    0.0625
  band No.  band energies     occupation 
      1       2.6392      2.00000
      2       2.6658      2.00000
      3       6.2122      2.00000
      4       9.1589      2.00000
      5      12.3649      0.00000
      6      13.2765      0.00000
      7      18.1035      0.00000
      8      18.7278      0.00000

 k-point    14 :       0.4375    0.3125    0.0625
  band No.  band energies     occupation 
      1       0.0702      2.00000
      2       1.7779      2.00000
      3      10.0906      2.00000
      4      10.8087      1.92796
      5      12.3854      0.00000
      6      13.9745      0.00000
      7      15.7812      0.00000
      8      17.3538      0.00000

 k-point    15 :      -0.4375    0.3125    0.0625
  band No.  band energies     occupation 
      1      -1.6829      2.00000
      2       1.7539      2.00000
      3      10.4264      1.99999
      4      12.8764      0.00000
      5      13.4264      0.00000
      6      15.3337      0.00000
      7      16.3841      0.00000
      8      16.9339      0.00000

 k-point    16 :      -0.3125    0.3125    0.0625
  band No.  band energies     occupation 
      1      -2.5633      2.00000
      2       2.5878      2.00000
      3       8.9590      2.00000
      4      13.0516      0.00000
      5      13.6047      0.00000
      6      17.4834      0.00000
      7      18.6264      0.00000
      8      19.9311      0.00000

 k-point    17 :      -0.1875    0.3125    0.0625
  band No.  band energies     occupation 
      1      -2.5554      2.00000
      2       4.2508      2.00000
      3       7.5369      2.00000
      4      13.3114      0.00000
      5      13.9825      0.00000
      6      15.5842      0.00000
      7      17.4410      0.00000
      8      18.9708      0.00000

 k-point    18 :      -0.0625    0.3125    0.0625
  band No.  band energies     occupation 
      1      -1.6595      2.00000
      2       6.4036      2.00000
      3       7.0634      2.00000
      4      10.3128      2.00000
      5      13.7204      0.00000
      6      15.7859      0.00000
      7      15.9604      0.00000
      8      17.2052      0.00000

 k-point    19 :       0.4375    0.4375    0.0625
  band No.  band energies     occupation 
      1      -0.1685      2.00000
      2      -0.1685      2.00000
      3      11.6883      0.00001
      4      11.6883      0.00001
      5      14.3078      0.00000
      6      14.3078      0.00000
      7      16.1853      0.00000
      8      16.1853      0.00000

 k-point    20 :      -0.4375    0.4375    0.0625
  band No.  band energies     occupation 
      1      -1.2572      2.00000
      2       0.4666      2.00000
      3      10.1416      2.00000
      4      11.6999      0.00001
      5      14.2449      0.00000
      6      15.7496      0.00000
      7      19.3546      0.00000
      8      19.5417      0.00000

 k-point    21 :      -0.3125    0.4375    0.0625
  band No.  band energies     occupation 
      1      -1.4664      2.00000
      2       1.9623      2.00000
      3       8.5291      2.00000
      4      11.6308      0.00006
      5      13.6486      0.00000
      6      16.0123      0.00000
      7      17.5636      0.00000
      8      18.9206      0.00000

 k-point    22 :      -0.1875    0.4375    0.0625
  band No.  band energies     occupation 
      1      -0.7930      2.00000
      2       4.2718      2.00000
      3       7.5663      2.00000
      4       9.5700      2.00000
      5      12.1709      0.00000
      6      15.1645      0.00000
      7      17.2345      0.00000
      8      18.7228      0.00000

 k-point    23 :      -0.0625    0.4375    0.0625
  band No.  band energies     occupation 
      1       0.7475      2.00000
      2       5.8706      2.00000
      3       7.2172      2.00000
      4       7.6628      2.00000
      5      11.6991      0.00001
      6      13.4454      0.00000
      7      14.9178      0.00000
      8      18.9409      0.00000

 k-point    24 :      -0.4375   -0.4375    0.0625
  band No.  band energies     occupation 
      1       0.0439      2.00000
      2       0.0459      2.00000
      3       9.8908      2.00000
      4       9.9282      2.00000
      5      13.5543      0.00000
      6      16.8058      0.00000
      7      17.4231      0.00000
      8      17.7324      0.00000

 k-point    25 :      -0.3125   -0.4375    0.0625
  band No.  band energies     occupation 
      1       0.4971      2.00000
      2       2.1961      2.00000
      3       8.6175      2.00000
      4       9.2522      2.00000
      5      10.4374      1.99999
      6      14.6893      0.00000
      7      18.6406      0.00000
      8      20.2627      0.00000

 k-point    26 :      -0.1875   -0.4375    0.0625
  band No.  band energies     occupation 
      1       1.8058      2.00000
      2       4.9415      2.00000
      3       5.5828      2.00000
      4       8.3895      2.00000
      5      10.9905      1.39233
      6      13.1591      0.00000
      7      15.6615      0.00000
      8      20.4046      0.00000

 k-point    27 :      -0.0625   -0.4375    0.0625
  band No.  band energies     occupation 
      1       2.2577      2.00000
      2       4.0505      2.00000
      3       8.4965      2.00000
      4       8.7473      2.00000
      5      10.1958      2.00000
      6      11.9423      0.00000
      7      14.5375      0.00000
      8      18.8205      0.00000

 k-point    28 :      -0.3125   -0.3125    0.0625
  band No.  band energies     occupation 
      1       3.2213      2.00000
      2       3.2983      2.00000
      3       5.2272      2.00000
      4       9.4030      2.00000
      5       9.9179      2.00000
      6      12.7087      0.00000
      7      17.6848      0.00000
      8      19.1262      0.00000

 k-point    29 :      -0.1875   -0.3125    0.0625
  band No.  band energies     occupation 
      1       1.8556      2.00000
      2       5.2636      2.00000
      3       6.8572      2.00000
      4       9.2376      2.00000
      5      10.5974      1.99901
      6      12.4851      0.00000
      7      14.1754      0.00000
      8      17.4806      0.00000

 k-point    30 :      -0.0625   -0.3125    0.0625
  band No.  band energies     occupation 
      1      -0.5382      2.00000
      2       7.8535      2.00000
      3       9.0561      2.00000
      4       9.1659      2.00000
      5      11.0037      1.32567
      6      12.6572      0.00000
      7      15.0238      0.00000
      8      16.3779      0.00000

 k-point    31 :      -0.1875   -0.1875    0.0625
  band No.  band energies     occupation 
      1      -0.7539      2.00000
      2       8.7239      2.00000
      3       9.1405      2.00000
      4       9.4372      2.00000
      5      11.2210      0.26425
      6      13.4926      0.00000
      7      13.9826      0.00000
      8      14.3567      0.00000

 k-point    32 :      -0.0625   -0.1875    0.0625
  band No.  band energies     occupation 
      1      -2.5313      2.00000
      2       8.6692      2.00000
      3       8.9869      2.00000
      4      11.5246      0.00110
      5      13.5548      0.00000
      6      14.0191      0.00000
      7      14.4715      0.00000
      8      15.9318      0.00000

 k-point    33 :      -0.0625   -0.0625    0.0625
  band No.  band energies     occupation 
      1      -3.6517      2.00000
      2       8.7343      2.00000
      3       8.7343      2.00000
      4      10.3361      2.00000
      5      12.4612      0.00000
      6      17.4683      0.00000
      7      17.5155      0.00000
      8      19.3544      0.00000

 k-point    34 :       0.1875    0.1875    0.1875
  band No.  band energies     occupation 
      1       0.9635      2.00000
      2       4.3162      2.00000
      3       7.7582      2.00000
      4       7.8080      2.00000
      5      13.1527      0.00000
      6      15.6639      0.00000
      7      16.5034      0.00000
      8      17.2004      0.00000

 k-point    35 :       0.3125    0.1875    0.1875
  band No.  band energies     occupation 
      1       3.6847      2.00000
      2       4.2362      2.00000
      3       5.4600      2.00000
      4       5.9589      2.00000
      5      14.2664      0.00000
      6      15.9638      0.00000
      7      16.7878      0.00000
      8      17.3459      0.00000

 k-point    36 :      -0.1875    0.1875    0.1875
  band No.  band energies     occupation 
      1      -3.0014      2.00000
      2       5.1625      2.00000
      3       5.8602      2.00000
      4      13.4873      0.00000
      5      14.6439      0.00000
      6      16.5432      0.00000
      7      18.7819      0.00000
      8      19.7467      0.00000

 k-point    37 :       0.3125    0.3125    0.1875
  band No.  band energies     occupation 
      1       2.4463      2.00000
      2       2.4463      2.00000
      3       7.5882      2.00000
      4       7.5882      2.00000
      5      14.5564      0.00000
      6      14.5564      0.00000
      7      17.0367      0.00000
      8      17.0367      0.00000

 k-point    38 :      -0.3125    0.3125    0.1875
  band No.  band energies     occupation 
      1      -2.1278      2.00000
      2       2.9905      2.00000
      3       6.3846      2.00000
      4      11.1985      0.33832
      5      15.7727      0.00000
      6      17.9403      0.00000
      7      18.7682      0.00000
      8      20.2064      0.00000

 k-point    39 :      -0.1875    0.3125    0.1875
  band No.  band energies     occupation 
      1      -1.9019      2.00000
      2       4.5398      2.00000
      3       5.2930      2.00000
      4      11.3535      0.04001
      5      13.4231      0.00000
      6      17.8039      0.00000
      7      18.7834      0.00000
      8      19.7854      0.00000

 k-point    40 :      -0.4375    0.4375    0.1875
  band No.  band energies     occupation 
      1      -0.8266      2.00000
      2       0.8888      2.00000
      3       7.5980      2.00000
      4       9.2137      2.00000
      5      16.5640      0.00000
      6      17.2442      0.00000
      7      19.2311      0.00000
      8      20.1243      0.00000

 k-point    41 :      -0.3125    0.4375    0.1875
  band No.  band energies     occupation 
      1      -0.8190      2.00000
      2       2.5757      2.00000
      3       6.0021      2.00000
      4       9.2244      2.00000
      5      12.9122      0.00000
      6      19.0898      0.00000
      7      19.4570      0.00000
      8      21.6850      0.00000

 k-point    42 :      -0.1875    0.4375    0.1875
  band No.  band energies     occupation 
      1       0.0670      2.00000
      2       4.7556      2.00000
      3       5.5285      2.00000
      4       8.7472      2.00000
      5      10.0946      2.00000
      6      16.8895      0.00000
      7      17.5063      0.00000
      8      20.8748      0.00000

 k-point    43 :      -0.4375   -0.4375    0.1875
  band No.  band energies     occupation 
      1       0.6801      2.00000
      2       0.6839      2.00000
      3       7.4148      2.00000
      4       7.4207      2.00000
      5      12.7322      0.00000
      6      19.2685      0.00000
      7      20.0561      0.00000
      8      21.0967      0.00000

 k-point    44 :      -0.3125   -0.4375    0.1875
  band No.  band energies     occupation 
      1       1.3450      2.00000
      2       3.0171      2.00000
      3       6.4132      2.00000
      4       7.9021      2.00000
      5       8.5904      2.00000
      6      16.8088      0.00000
      7      19.6765      0.00000
      8      21.7581      0.00000

 k-point    45 :      -0.1875   -0.4375    0.1875
  band No.  band energies     occupation 
      1       2.8369      2.00000
      2       4.6562      2.00000
      3       6.0106      2.00000
      4       6.5600      2.00000
      5       9.4037      2.00000
      6      14.7963      0.00000
      7      15.2506      0.00000
      8      20.5427      0.00000

 k-point    46 :      -0.3125   -0.3125    0.1875
  band No.  band energies     occupation 
      1       3.9745      2.00000
      2       4.3279      2.00000
      3       4.8728      2.00000
      4       7.6313      2.00000
      5       7.7529      2.00000
      6      14.7775      0.00000
      7      17.0475      0.00000
      8      18.8493      0.00000

 k-point    47 :      -0.1875   -0.3125    0.1875
  band No.  band energies     occupation 
      1       1.4376      2.00000
      2       6.4682      2.00000
      3       7.8043      2.00000
      4       8.2834      2.00000
      5       9.4967      2.00000
      6      13.5010      0.00000
      7      13.7044      0.00000
      8      16.5430      0.00000

 k-point    48 :      -0.1875   -0.1875    0.1875
  band No.  band energies     occupation 
      1      -0.9700      2.00000
      2       9.8910      2.00000
      3       9.8910      2.00000
      4      10.1423      2.00000
      5      10.5748      1.99944
      6      13.3190      0.00000
      7      13.3190      0.00000
      8      13.6429      0.00000

 k-point    49 :      -0.3125    0.3125    0.3125
  band No.  band energies     occupation 
      1      -1.2606      2.00000
      2       3.4731      2.00000
      3       4.2855      2.00000
      4       8.8468      2.00000
      5      16.7918      0.00000
      6      17.3448      0.00000
      7      20.6863      0.00000
      8      21.2326      0.00000

 k-point    50 :      -0.4375    0.4375    0.3125
  band No.  band energies     occupation 
      1       0.0288      2.00000
      2       1.7177      2.00000
      3       5.1885      2.00000
      4       6.8207      2.00000
      5      16.7972      0.00000
      6      16.9315      0.00000
      7      21.8868      0.00000
      8      23.1217      0.00000

 k-point    51 :      -0.3125    0.4375    0.3125
  band No.  band energies     occupation 
      1       0.2518      2.00000
      2       3.2636      2.00000
      3       4.0962      2.00000
      4       7.0273      2.00000
      5      12.3651      0.00000
      6      20.9301      0.00000
      7      21.5907      0.00000
      8      22.0560      0.00000

 k-point    52 :      -0.4375   -0.4375    0.3125
  band No.  band energies     occupation 
      1       1.7219      2.00000
      2       1.7276      2.00000
      3       5.1968      2.00000
      4       5.1988      2.00000
      5      12.1759      0.00000
      6      20.9819      0.00000
      7      22.1612      0.00000
      8      23.4439      0.00000

 k-point    53 :      -0.3125   -0.4375    0.3125
  band No.  band energies     occupation 
      1       2.5939      2.00000
      2       3.9102      2.00000
      3       4.7334      2.00000
      4       6.0170      2.00000
      5       8.0612      2.00000
      6      19.0533      0.00000
      7      19.5777      0.00000
      8      21.8073      0.00000

 k-point    54 :      -0.3125   -0.3125    0.3125
  band No.  band energies     occupation 
      1       4.0973      2.00000
      2       5.4448      2.00000
      3       5.7313      2.00000
      4       6.1762      2.00000
      5       6.1762      2.00000
      6      16.8354      0.00000
      7      16.8355      0.00000
      8      17.9198      0.00000

 k-point    55 :      -0.4375    0.4375    0.4375
  band No.  band energies     occupation 
      1       1.2894      2.00000
      2       2.6116      2.00000
      3       3.4779      2.00000
      4       4.7815      2.00000
      5      16.5759      0.00000
      6      16.6075      0.00000
      7      24.7806      0.00000
      8      25.6199      0.00000

 k-point    56 :      -0.4375   -0.4375    0.4375
  band No.  band energies     occupation 
      1       2.8278      2.00000
      2       2.8377      2.00000
      3       3.6918      2.00000
      4       3.6918      2.00000
      5      11.9854      0.00000
      6      21.2007      0.00000
      7      23.8855      0.00000
      8      23.8938      0.00000


--------------------------------------------------------------------------------------------------------


 soft charge-density along one line, spin component           1
         0         1         2         3         4         5         6         7         8         9
 total charge-density along one line
 
 pseudopotential strength for first ion, spin component:           1
 17.845  -0.005  -0.000   0.000   0.000   0.000  -0.000  -0.000
 -0.005   0.005   0.000  -0.000  -0.000  -0.000   0.000   0.000
 -0.000   0.000   4.092   0.000   0.000  -0.007  -0.000  -0.000
  0.000  -0.000   0.000   4.092   0.000  -0.000  -0.007  -0.000
  0.000  -0.000   0.000   0.000   4.092  -0.000  -0.000  -0.007
  0.000  -0.000  -0.007  -0.000  -0.000   0.005   0.000   0.000
 -0.000   0.000  -0.000  -0.007  -0.000   0.000   0.005   0.000
 -0.000   0.000  -0.000  -0.000  -0.007   0.000   0.000   0.005
 total augmentation occupancy for first ion, spin component:           1
  1.570  -0.720   0.000   0.000  -0.000   0.000   0.000   0.000
 -0.720   1.221  -0.000   0.000  -0.000   0.000   0.000   0.000
  0.000   0.000   1.028   0.000   0.000  -0.627  -0.000   0.000
  0.000   0.000   0.000   0.909   0.000  -0.000  -0.552   0.000
 -0.000   0.000   0.000   0.000   1.028   0.000   0.000  -0.627
  0.000   0.000  -0.627  -0.000   0.000   0.498  -0.000   0.000
  0.000   0.000  -0.000  -0.552   0.000  -0.000   0.448   0.000
  0.000   0.000   0.000   0.000  -0.627   0.000   0.000   0.498


------------------------ aborting loop because EDIFF is reached ----------------------------------------


    CHARGE:  cpu time    0.0240: real time    0.0230
    FORLOC:  cpu time    0.0000: real time    0.0004
    FORNL :  cpu time    0.0160: real time    0.0174
    STRESS:  cpu time    0.1760: real time    0.1766
    FORCOR:  cpu time    0.0120: real time    0.0130
    FORHAR:  cpu time    0.0040: real time    0.0033
    MIXING:  cpu time    0.0000: real time    0.0010
    OFIELD:  cpu time    0.0000: real time    0.0004

  FORCE on cell =-STRESS in cart. coord.  units (eV):
  Direction    XX          YY          ZZ          XY          YZ          ZX
  --------------------------------------------------------------------------------------
  Alpha Z     5.09117     5.09117     5.09117
  Ewald     -90.29703   -90.29703   -97.76452    -0.00000     0.00000     0.00000
  Hartree     0.68469     0.68469     0.53998    -0.00000    -0.00000    -0.00000
  E(xc)     -26.53421   -26.53421   -26.27758     0.00000     0.00000     0.00000
  Local     -14.57022   -14.57022    -4.78637    -0.00004    -0.00003    -0.00003
  n-local    80.87850    80.08938    75.94722     1.36336    -0.64573    -0.99003
  augment   -12.08246   -12.08246   -11.78041     0.00002     0.00002     0.00002
  Kinetic    59.25236    63.45065    62.15393     3.41716    -1.56310    -1.76172
  Fock        0.00000     0.00000     0.00000     0.00000     0.00000     0.00000
  -------------------------------------------------------------------------------------
  Total       4.12739     4.12739     3.12341     0.00000     0.00000     0.00000
  in kB     250.02902   250.02902   189.21000     0.00000     0.00000     0.00000
  external pressure =      229.76 kB  Pullay stress =        0.00 kB


 VOLUME and BASIS-vectors are now :
 -----------------------------------------------------------------------------
  energy-cutoff  :      350.00
  volume of cell :       26.45
      direct lattice vectors                 reciprocal lattice vectors
    -2.262861000  2.262861000  1.291279000    -0.000000000  0.220959219  0.387212988
     2.262861000 -2.262861000  1.291279000     0.220959219 -0.000000000  0.387212988
     2.262861000  2.262861000 -1.291279000     0.220959219  0.220959219 -0.000000000

  length of vectors
     3.450866741  3.450866741  3.450866741     0.445821573  0.445821573  0.312483525


 FORCES acting on ions
    electron-ion (+dipol)            ewald-force                    non-local-force                 convergence-correction
 -----------------------------------------------------------------------------------------------
   0.171E-06 -.171E-06 0.325E-14   -.199E-14 -.222E-16 0.351E-16   -.178E-16 0.655E-16 0.168E-17   -.624E-09 0.624E-09 -.215E-15
   -.171E-06 0.171E-06 -.243E-13   0.197E-14 -.114E-15 -.458E-15   0.465E-16 -.506E-16 0.802E-17   0.624E-09 -.624E-09 0.307E-16
 -----------------------------------------------------------------------------------------------
   0.153E-13 0.955E-14 -.211E-13   -.259E-16 -.136E-15 -.423E-15   0.287E-16 0.148E-16 0.970E-17   -.368E-16 0.658E-17 -.184E-15
 
 
 POSITION                                       TOTAL-FORCE (eV/Angst)
 -----------------------------------------------------------------------------------
      0.00000      0.00000      0.00000         0.000000     -0.000000     -0.000000
      2.26286      0.00000      0.64564        -0.000000      0.000000      0.000000
 -----------------------------------------------------------------------------------
    total drift:                                0.000000      0.000000     -0.000000


--------------------------------------------------------------------------------------------------------



  FREE ENERGIE OF THE ION-ELECTRON SYSTEM (eV)
  ---------------------------------------------------
  free  energy   TOTEN  =        -9.99701607 eV

  energy  without entropy=       -9.98144410  energy(sigma->0) =       -9.98923008
 


--------------------------------------------------------------------------------------------------------


    POTLOK:  cpu time    0.0280: real time    0.0400


--------------------------------------------------------------------------------------------------------




--------------------------------------------------------------------------------------------------------


  
 reached required accuracy - stopping structural energy minimisation
 writing wavefunctions
     LOOP+:  cpu time    4.5480: real time    5.2706
    4ORBIT:  cpu time    0.0000: real time    0.0000

 total amount of memory used by VASP MPI-rank0    32392. kBytes
=======================================================================

   base      :      30000. kBytes
   nonl-proj :       1475. kBytes
   fftplans  :        160. kBytes
   grid      :        372. kBytes
   one-center:          6. kBytes
   wavefun   :        379. kBytes
 
  
  
 General timing and accounting informations for this job:
 ========================================================
  
                  Total CPU time used (sec):        8.472
                            User time (sec):        7.056
                          System time (sec):        1.416
                         Elapsed time (sec):       10.219
  
                   Maximum memory used (kb):        9808.
                   Average memory used (kb):           0.
  
                          Minor page faults:        38162
                          Major page faults:           21
                 Voluntary context switches:        32022
