unknown system                          
           1
    -2.262861    2.262861    1.291279
     2.262861   -2.262861    1.291279
     2.262861    2.262861   -1.291279
   Si
   2
Direct configuration=     1
   0.00000000  0.00000000  0.00000000
   0.25000000  0.75000000  0.50000000
