unknown system                          
   1.00000000000000     
     0.000000    2.715000    2.715000
     2.715000    0.000000    2.715000
     2.715000    2.715000    0.000000
   Si
     2
Direct
  0.500000  0.500000  0.500000
  0.750000  0.750000  0.750000
 
   24   24   24
 0.87128726783E+00 0.90874879552E+00 0.10261097499E+01 0.12376946851E+01 0.15647100981E+01
 0.20299133015E+01 0.26486678349E+01 0.34162471661E+01 0.42931425134E+01 0.51945436325E+01
 0.59942939959E+01 0.65509081375E+01 0.67509800288E+01 0.65509291818E+01 0.59943200129E+01
 0.51945580202E+01 0.42931416100E+01 0.34162398527E+01 0.26486659397E+01 0.20299221602E+01
 0.15647245464E+01 0.12377037713E+01 0.10261081728E+01 0.90874306614E+00 0.90874879552E+00
 0.96971297291E+00 0.10993653849E+01 0.13116376624E+01 0.16232148683E+01 0.20477329279E+01
 0.25876657123E+01 0.32245346726E+01 0.39099915500E+01 0.45635204693E+01 0.50835234459E+01
 0.53733115378E+01 0.53733157615E+01 0.50835504651E+01 0.45635873468E+01 0.39100785429E+01
 0.32245914868E+01 0.25876595036E+01 0.20476793817E+01 0.16231592552E+01 0.13116134275E+01
 0.10993736632E+01 0.96973282202E+00 0.90875831032E+00 0.10261097499E+01 0.10993653849E+01
 0.12313450740E+01 0.14340939780E+01 0.17189135081E+01 0.20910227113E+01 0.25432153200E+01
 0.30494079530E+01 0.35606687898E+01 0.40082237869E+01 0.43169839268E+01 0.44274924462E+01
 0.43170034420E+01 0.40082473244E+01 0.35606799700E+01 0.30494030782E+01 0.25432019175E+01
 0.20910075531E+01 0.17188972729E+01 0.14340780177E+01 0.12313360407E+01 0.10993673306E+01
 0.10261159260E+01 0.10027613735E+01 0.12376946851E+01 0.13116376624E+01 0.14340939780E+01
 0.16146025385E+01 0.18595388569E+01 0.21679088622E+01 0.25269950094E+01 0.29087164035E+01
 0.32690698833E+01 0.35538897651E+01 0.37120461165E+01 0.37120637928E+01 0.35539127051E+01
 0.32690443304E+01 0.29086312666E+01 0.25269007415E+01 0.21678689855E+01 0.18595703941E+01
 0.16146673321E+01 0.14341409593E+01 0.13116460784E+01 0.12376803877E+01 0.12033498499E+01
 0.12033589090E+01 0.15647100981E+01 0.16232148683E+01 0.17189135081E+01 0.18595388569E+01
 0.20483337620E+01 0.22810441149E+01 0.25432217813E+01 0.28087097481E+01 0.30413661892E+01
 0.32019586744E+01 0.32594424402E+01 0.32019389802E+01 0.30413333227E+01 0.28086739792E+01
 0.25431949091E+01 0.22810367570E+01 0.20483494669E+01 0.18595699690E+01 0.17189461386E+01
 0.16232391493E+01 0.15647243263E+01 0.15343994279E+01 0.15251816429E+01 0.15343930602E+01
 0.20299133015E+01 0.20477329279E+01 0.20910227113E+01 0.21679088622E+01 0.22810441149E+01
 0.24255169684E+01 0.25876632070E+01 0.27455740446E+01 0.28725162019E+01 0.29435694219E+01
 0.29435466523E+01 0.28724697225E+01 0.27455497583E+01 0.25876923802E+01 0.24255917675E+01
 0.22811208590E+01 0.21679374399E+01 0.20909890085E+01 0.20476764426E+01 0.20298880906E+01
 0.20267947744E+01 0.20282795901E+01 0.20282657922E+01 0.20267802881E+01 0.26486678349E+01
 0.25876657123E+01 0.25432153200E+01 0.25269950094E+01 0.25432217813E+01 0.25876632070E+01
 0.26486542382E+01 0.27099665849E+01 0.27550441661E+01 0.27715796113E+01 0.27550397368E+01
 0.27099715097E+01 0.26486722136E+01 0.25876856597E+01 0.25432456094E+01 0.25270178945E+01
 0.25432189352E+01 0.25876327526E+01 0.26486136318E+01 0.27099372555E+01 0.27550349089E+01
 0.27715849872E+01 0.27550497552E+01 0.27099779472E+01 0.34162471661E+01 0.32245346726E+01
 0.30494079530E+01 0.29087164035E+01 0.28087097481E+01 0.27455740446E+01 0.27099665849E+01
 0.26920473138E+01 0.26847658650E+01 0.26847658804E+01 0.26920597462E+01 0.27099937168E+01
 0.27455780343E+01 0.28086629116E+01 0.29086519657E+01 0.30493783091E+01 0.32245434409E+01
 0.34162604826E+01 0.35978337951E+01 0.37399423685E+01 0.38179579632E+01 0.38179579481E+01
 0.37399439198E+01 0.35978321306E+01 0.42931425134E+01 0.39099915500E+01 0.35606687898E+01
 0.32690698833E+01 0.30413661892E+01 0.28725162019E+01 0.27550441661E+01 0.26847658650E+01
 0.26611917697E+01 0.26847372413E+01 0.27550258032E+01 0.28725187955E+01 0.30413613990E+01
 0.32690472198E+01 0.35606484482E+01 0.39099808126E+01 0.42931335054E+01 0.46689470779E+01
 0.49870801330E+01 0.52001707865E+01 0.52751071195E+01 0.52001216860E+01 0.49870369155E+01
 0.46689396321E+01 0.51945436325E+01 0.45635204693E+01 0.40082237869E+01 0.35538897651E+01
 0.32019586744E+01 0.29435694219E+01 0.27715796113E+01 0.26847658804E+01 0.26847372413E+01
 0.27715302498E+01 0.29435535709E+01 0.32019785062E+01 0.35539200250E+01 0.40082597697E+01
 0.45635573068E+01 0.51945521954E+01 0.58463431344E+01 0.64412971551E+01 0.68963154490E+01
 0.71429180312E+01 0.71429104325E+01 0.68963157412E+01 0.64413271390E+01 0.58463728188E+01
 0.59942939959E+01 0.50835234459E+01 0.43169839268E+01 0.37120461165E+01 0.32594424402E+01
 0.29435466523E+01 0.27550397368E+01 0.26920597462E+01 0.27550258032E+01 0.29435535709E+01
 0.32594753414E+01 0.37120717349E+01 0.43169896353E+01 0.50835307101E+01 0.59943067558E+01
 0.69891416095E+01 0.79646431298E+01 0.87923377665E+01 0.93485238863E+01 0.95446093173E+01
 0.93485411673E+01 0.87923748246E+01 0.79646792448E+01 0.69891495689E+01 0.65509081375E+01
 0.53733115378E+01 0.44274924462E+01 0.37120637928E+01 0.32019389802E+01 0.28724697225E+01
 0.27099715097E+01 0.27099937168E+01 0.28725187955E+01 0.32019785062E+01 0.37120717349E+01
 0.44274752138E+01 0.53732818299E+01 0.65508626444E+01 0.79105681013E+01 0.93373979269E+01
 0.10660673321E+02 0.11687489461E+02 0.12249813154E+02 0.12249778872E+02 0.11687428459E+02
 0.10660656467E+02 0.93374405177E+01 0.79106291254E+01 0.67509800288E+01 0.53733157615E+01
 0.43170034420E+01 0.35539127051E+01 0.30413333227E+01 0.27455497583E+01 0.26486722136E+01
 0.27455780343E+01 0.30413613990E+01 0.35539200250E+01 0.43169896353E+01 0.53732818299E+01
 0.67509286640E+01 0.84283223141E+01 0.10303490955E+02 0.12185556830E+02 0.13818351878E+02
 0.14935275209E+02 0.15332063732E+02 0.14935260237E+02 0.13818321916E+02 0.12185532417E+02
 0.10303501447E+02 0.84283681207E+01 0.65509291818E+01 0.50835504651E+01 0.40082473244E+01
 0.32690443304E+01 0.28086739792E+01 0.25876923802E+01 0.25876856597E+01 0.28086629116E+01
 0.32690472198E+01 0.40082597697E+01 0.50835307101E+01 0.65508626444E+01 0.84283223141E+01
 0.10652816167E+02 0.13049234358E+02 0.15330271941E+02 0.17123432772E+02 0.18098047273E+02
 0.18098120385E+02 0.17123540070E+02 0.15330248752E+02 0.13049104814E+02 0.10652738553E+02
 0.84283584431E+01 0.59943200129E+01 0.45635873468E+01 0.35606799700E+01 0.29086312666E+01
 0.25431949091E+01 0.24255917675E+01 0.25432456094E+01 0.29086519657E+01 0.35606484482E+01
 0.45635573068E+01 0.59943067558E+01 0.79105681013E+01 0.10303490955E+02 0.13049234358E+02
 0.15878405505E+02 0.18345321239E+02 0.19991912977E+02 0.20565181975E+02 0.19991939751E+02
 0.18345288230E+02 0.15878307313E+02 0.13049167619E+02 0.10303497217E+02 0.79105922565E+01
 0.51945580202E+01 0.39100785429E+01 0.30494030782E+01 0.25269007415E+01 0.22810367570E+01
 0.22811208590E+01 0.25270178945E+01 0.30493783091E+01 0.39099808126E+01 0.51945521954E+01
 0.69891416095E+01 0.93373979269E+01 0.12185556830E+02 0.15330271941E+02 0.18345321239E+02
 0.20661679853E+02 0.21900003886E+02 0.21899948484E+02 0.20661550341E+02 0.18345223872E+02
 0.15330298738E+02 0.12185652702E+02 0.93374190833E+01 0.69890828622E+01 0.42931416100E+01
 0.32245914868E+01 0.25432019175E+01 0.21678689855E+01 0.20483494669E+01 0.21679374399E+01
 0.25432189352E+01 0.32245434409E+01 0.42931335054E+01 0.58463431344E+01 0.79646431298E+01
 0.10660673321E+02 0.13818351878E+02 0.17123432772E+02 0.19991912977E+02 0.21900003886E+02
 0.22563731273E+02 0.21900054210E+02 0.19991912100E+02 0.17123382932E+02 0.13818356824E+02
 0.10660731773E+02 0.79646516449E+01 0.58463021074E+01 0.34162398527E+01 0.25876595036E+01
 0.20910075531E+01 0.18595703941E+01 0.18595699690E+01 0.20909890085E+01 0.25876327526E+01
 0.34162604826E+01 0.46689470779E+01 0.64412971551E+01 0.87923377665E+01 0.11687489461E+02
 0.14935275209E+02 0.18098047273E+02 0.20565181975E+02 0.21899948484E+02 0.21900054210E+02
 0.20565328525E+02 0.18098007034E+02 0.14935122775E+02 0.11687440593E+02 0.87923985682E+01
 0.64413174714E+01 0.46688998337E+01 0.26486659397E+01 0.20476793817E+01 0.17188972729E+01
 0.16146673321E+01 0.17189461386E+01 0.20476764426E+01 0.26486136318E+01 0.35978337951E+01
 0.49870801330E+01 0.68963154490E+01 0.93485238863E+01 0.12249813154E+02 0.15332063732E+02
 0.18098120385E+02 0.19991939751E+02 0.20661550341E+02 0.19991912100E+02 0.18098007034E+02
 0.15331921317E+02 0.12249773994E+02 0.93485775802E+01 0.68963298720E+01 0.49870363577E+01
 0.35978346701E+01 0.20299221602E+01 0.16231592552E+01 0.14340780177E+01 0.14341409593E+01
 0.16232391493E+01 0.20298880906E+01 0.27099372555E+01 0.37399423685E+01 0.52001707865E+01
 0.71429180312E+01 0.95446093173E+01 0.12249778872E+02 0.14935260237E+02 0.17123540070E+02
 0.18345288230E+02 0.18345223872E+02 0.17123382932E+02 0.14935122775E+02 0.12249773994E+02
 0.95447010382E+01 0.71429540646E+01 0.52001147500E+01 0.37399243616E+01 0.27100104235E+01
 0.15647245464E+01 0.13116134275E+01 0.12313360407E+01 0.13116460784E+01 0.15647243263E+01
 0.20267947744E+01 0.27550349089E+01 0.38179579632E+01 0.52751071195E+01 0.71429104325E+01
 0.93485411673E+01 0.11687428459E+02 0.13818321916E+02 0.15330248752E+02 0.15878307313E+02
 0.15330298738E+02 0.13818356824E+02 0.11687440593E+02 0.93485775802E+01 0.71429540646E+01
 0.52750923556E+01 0.38179015685E+01 0.27550192441E+01 0.20268230998E+01 0.12377037713E+01
 0.10993736632E+01 0.10993673306E+01 0.12376803877E+01 0.15343994279E+01 0.20282795901E+01
 0.27715849872E+01 0.38179579481E+01 0.52001216860E+01 0.68963157412E+01 0.87923748246E+01
 0.10660656467E+02 0.12185532417E+02 0.13049104814E+02 0.13049167619E+02 0.12185652702E+02
 0.10660731773E+02 0.87923985682E+01 0.68963298720E+01 0.52001147500E+01 0.38179015685E+01
 0.27715162735E+01 0.20282589519E+01 0.15344233228E+01 0.10261081728E+01 0.96973282202E+00
 0.10261159260E+01 0.12033498499E+01 0.15251816429E+01 0.20282657922E+01 0.27550497552E+01
 0.37399439198E+01 0.49870369155E+01 0.64413271390E+01 0.79646792448E+01 0.93374405177E+01
 0.10303501447E+02 0.10652738553E+02 0.10303497217E+02 0.93374190833E+01 0.79646516449E+01
 0.64413174714E+01 0.49870363577E+01 0.37399243616E+01 0.27550192441E+01 0.20282589519E+01
 0.15251985674E+01 0.12033576729E+01 0.90874306614E+00 0.90875831032E+00 0.10027613735E+01
 0.12033589090E+01 0.15343930602E+01 0.20267802881E+01 0.27099779472E+01 0.35978321306E+01
 0.46689396321E+01 0.58463728188E+01 0.69891495689E+01 0.79106291254E+01 0.84283681207E+01
 0.84283584431E+01 0.79105922565E+01 0.69890828622E+01 0.58463021074E+01 0.46688998337E+01
 0.35978346701E+01 0.27100104235E+01 0.20268230998E+01 0.15344233228E+01 0.12033576729E+01
 0.10027361078E+01 0.90874285859E+00 0.96971063816E+00 0.10993669876E+01 0.13116379467E+01
 0.16232127078E+01 0.20477331948E+01 0.25876708947E+01 0.32245428903E+01 0.39100030314E+01
 0.45635363729E+01 0.50835368058E+01 0.53733089485E+01 0.53732912937E+01 0.50835114835E+01
 0.45635463082E+01 0.39100467081E+01 0.32245795427E+01 0.25876729891E+01 0.20477102597E+01
 0.16231902837E+01 0.13116336562E+01 0.10993836545E+01 0.96973563703E+00 0.90875487303E+00
 0.96971063816E+00 0.10381275821E+01 0.11625130623E+01 0.13554615650E+01 0.16287499892E+01
 0.19878307412E+01 0.24255169585E+01 0.29158668000E+01 0.34107727435E+01 0.38433812631E+01
 0.41413880373E+01 0.42479418835E+01 0.41413988368E+01 0.38434367868E+01 0.34108737816E+01
 0.29159537212E+01 0.24255294701E+01 0.19877737262E+01 0.16286816033E+01 0.13554298614E+01
 0.11625212099E+01 0.10381510216E+01 0.96972708077E+00 0.94802845942E+00 0.10993669876E+01
 0.11625130623E+01 0.12701740897E+01 0.14329955156E+01 0.16581546939E+01 0.19450156589E+01
 0.22810390301E+01 0.26388238749E+01 0.29762804387E+01 0.32425144706E+01 0.33901104460E+01
 0.33901220885E+01 0.32425481427E+01 0.29763268574E+01 0.26388615442E+01 0.22810463424E+01
 0.19449890165E+01 0.16581111395E+01 0.14329580655E+01 0.12701564664E+01 0.11625148005E+01
 0.10993771214E+01 0.10707712586E+01 0.10707659160E+01 0.13116379467E+01 0.13554615650E+01
 0.14329955156E+01 0.15531973457E+01 0.17200185030E+01 0.19295628327E+01 0.21679090173E+01
 0.24102367065E+01 0.26228504399E+01 0.27696270958E+01 0.28221759150E+01 0.27696495143E+01
 0.26228627378E+01 0.24102085664E+01 0.21678456142E+01 0.19295024145E+01 0.17199976525E+01
 0.15532197014E+01 0.14330333319E+01 0.13554843402E+01 0.13116377350E+01 0.12909924308E+01
 0.12851790718E+01 0.12910009672E+01 0.16232127078E+01 0.16287499892E+01 0.16581546939E+01
 0.17200185030E+01 0.18171400919E+01 0.19450184102E+01 0.20910268383E+01 0.22348283046E+01
 0.23513389005E+01 0.24168825327E+01 0.24168837793E+01 0.23513395261E+01 0.22348183484E+01
 0.20909957302E+01 0.19449716826E+01 0.18171057615E+01 0.17200253931E+01 0.16582024344E+01
 0.16288074340E+01 0.16232484059E+01 0.16296388699E+01 0.16364219651E+01 0.16364223966E+01
 0.16296295732E+01 0.20477331948E+01 0.19878307412E+01 0.19450156589E+01 0.19295628327E+01
 0.19450184102E+01 0.19878306856E+01 0.20477303162E+01 0.21092933545E+01 0.21554301578E+01
 0.21725449852E+01 0.21554302577E+01 0.21092975718E+01 0.20477387905E+01 0.19878406222E+01
 0.19450314633E+01 0.19295815610E+01 0.19450343749E+01 0.19878408762E+01 0.20477363499E+01
 0.21092979392E+01 0.21554333883E+01 0.21725452949E+01 0.21554276255E+01 0.21092935235E+01
 0.25876708947E+01 0.24255169585E+01 0.22810390301E+01 0.21679090173E+01 0.20910268383E+01
 0.20477303162E+01 0.20299044213E+01 0.20267767046E+01 0.20282711522E+01 0.20282894008E+01
 0.20268122598E+01 0.20299192827E+01 0.20477102639E+01 0.20910027534E+01 0.21679231698E+01
 0.22810895145E+01 0.24255538516E+01 0.25876536581E+01 0.27455227853E+01 0.28724672967E+01
 0.29435627174E+01 0.29435851450E+01 0.28725247797E+01 0.27455821162E+01 0.32245428903E+01
 0.29158668000E+01 0.26388238749E+01 0.24102367065E+01 0.22348283046E+01 0.21092933545E+01
 0.20267767046E+01 0.19804333377E+01 0.19655525184E+01 0.19804683930E+01 0.20267961077E+01
 0.21092507799E+01 0.22347400933E+01 0.24101759906E+01 0.26388446336E+01 0.29159417156E+01
 0.32245922337E+01 0.35342191417E+01 0.38033403506E+01 0.39879406376E+01 0.40538186656E+01
 0.39879990768E+01 0.38034125190E+01 0.35342429622E+01 0.39100030314E+01 0.34107727435E+01
 0.29762804387E+01 0.26228504399E+01 0.23513389005E+01 0.21554301578E+01 0.20282711522E+01
 0.19655525184E+01 0.19655489728E+01 0.20282439190E+01 0.21553598102E+01 0.23512502357E+01
 0.26228040589E+01 0.29763095881E+01 0.34108441011E+01 0.39100536580E+01 0.44358976227E+01
 0.49285131539E+01 0.53153407775E+01 0.55291576851E+01 0.55291613323E+01 0.53153556229E+01
 0.49285337915E+01 0.44358942676E+01 0.45635363729E+01 0.38433812631E+01 0.32425144706E+01
 0.27696270958E+01 0.24168825327E+01 0.21725449852E+01 0.20282894008E+01 0.19804683930E+01
 0.20282439190E+01 0.21724418423E+01 0.24167690663E+01 0.27696045299E+01 0.32426221404E+01
 0.38435310840E+01 0.45636046409E+01 0.53643637825E+01 0.61701628865E+01 0.68736925082E+01
 0.73581017318E+01 0.75312748320E+01 0.73580938971E+01 0.68737196360E+01 0.61702319447E+01
 0.53644030516E+01 0.50835368058E+01 0.41413880373E+01 0.33901104460E+01 0.28221759150E+01
 0.24168837793E+01 0.21554302577E+01 0.20268122598E+01 0.20267961077E+01 0.21553598102E+01
 0.24167690663E+01 0.28221273333E+01 0.33902214174E+01 0.41415865204E+01 0.50836492639E+01
 0.61899014778E+01 0.73810016878E+01 0.85191947405E+01 0.94272168827E+01 0.99342661636E+01
 0.99342684032E+01 0.94272485751E+01 0.85192920744E+01 0.73811328279E+01 0.61899516262E+01
 0.53733089485E+01 0.42479418835E+01 0.33901220885E+01 0.27696495143E+01 0.23513395261E+01
 0.21092975718E+01 0.20299192827E+01 0.21092507799E+01 0.23512502357E+01 0.27696045299E+01
 0.33902214174E+01 0.42481289451E+01 0.53734003375E+01 0.67654466600E+01 0.83616129867E+01
 0.10013396705E+02 0.11489754720E+02 0.12523684804E+02 0.12896634383E+02 0.12523685884E+02
 0.11489783701E+02 0.10013499812E+02 0.83617726419E+01 0.67655331801E+01 0.53732912937E+01
 0.41413988368E+01 0.32425481427E+01 0.26228627378E+01 0.22348183484E+01 0.20477387905E+01
 0.20477102639E+01 0.22347400933E+01 0.26228040589E+01 0.32426221404E+01 0.41415865204E+01
 0.53734003375E+01 0.69724899401E+01 0.89141764185E+01 0.11071010726E+02 0.13188865595E+02
 0.14914621759E+02 0.15891362160E+02 0.15891365036E+02 0.14914610071E+02 0.13188856775E+02
 0.11071094625E+02 0.89143495835E+01 0.69725806413E+01 0.50835114835E+01 0.38434367868E+01
 0.29763268574E+01 0.24102085664E+01 0.20909957302E+01 0.19878406222E+01 0.20910027534E+01
 0.24101759906E+01 0.29763095881E+01 0.38435310840E+01 0.50836492639E+01 0.67654466600E+01
 0.89141764185E+01 0.11454516882E+02 0.14156751277E+02 0.16627169444E+02 0.18385110319E+02
 0.19024480033E+02 0.18385123570E+02 0.16627135579E+02 0.14156715619E+02 0.11454581337E+02
 0.89142841054E+01 0.67654326902E+01 0.45635463082E+01 0.34108737816E+01 0.26388615442E+01
 0.21678456142E+01 0.19449716826E+01 0.19450314633E+01 0.21679231698E+01 0.26388446336E+01
 0.34108441011E+01 0.45636046409E+01 0.61899014778E+01 0.83616129867E+01 0.11071010726E+02
 0.14156751277E+02 0.17252018916E+02 0.19815113458E+02 0.21276630877E+02 0.21276645300E+02
 0.19815098112E+02 0.17251936804E+02 0.14156703661E+02 0.11071058056E+02 0.83616450200E+01
 0.61898375798E+01 0.39100467081E+01 0.29159537212E+01 0.22810463424E+01 0.19295024145E+01
 0.18171057615E+01 0.19295815610E+01 0.22810895145E+01 0.29159417156E+01 0.39100536580E+01
 0.53643637825E+01 0.73810016878E+01 0.10013396705E+02 0.13188865595E+02 0.16627169444E+02
 0.19815113458E+02 0.22096795015E+02 0.22925188307E+02 0.22096873556E+02 0.19815091545E+02
 0.16627028824E+02 0.13188793132E+02 0.10013463214E+02 0.73810718895E+01 0.53643593766E+01
 0.32245795427E+01 0.24255294701E+01 0.19449890165E+01 0.17199976525E+01 0.17200253931E+01
 0.19450343749E+01 0.24255538516E+01 0.32245922337E+01 0.44358976227E+01 0.61701628865E+01
 0.85191947405E+01 0.11489754720E+02 0.14914621759E+02 0.18385110319E+02 0.21276630877E+02
 0.22925188307E+02 0.22925321886E+02 0.21276812441E+02 0.18385040197E+02 0.14914389436E+02
 0.11489664860E+02 0.85193062566E+01 0.61702869746E+01 0.44359286242E+01 0.25876729891E+01
 0.19877737262E+01 0.16581111395E+01 0.15532197014E+01 0.16582024344E+01 0.19878408762E+01
 0.25876536581E+01 0.35342191417E+01 0.49285131539E+01 0.68736925082E+01 0.94272168827E+01
 0.12523684804E+02 0.15891362160E+02 0.19024480033E+02 0.21276645300E+02 0.22096873556E+02
 0.21276812441E+02 0.19024520433E+02 0.15891155060E+02 0.12523451702E+02 0.94271745661E+01
 0.68738003540E+01 0.49286338948E+01 0.35342999834E+01 0.20477102597E+01 0.16286816033E+01
 0.14329580655E+01 0.14330333319E+01 0.16288074340E+01 0.20477363499E+01 0.27455227853E+01
 0.38033403506E+01 0.53153407775E+01 0.73581017318E+01 0.99342661636E+01 0.12896634383E+02
 0.15891365036E+02 0.18385123570E+02 0.19815098112E+02 0.19815091545E+02 0.18385040197E+02
 0.15891155060E+02 0.12896414420E+02 0.99341871476E+01 0.73581633001E+01 0.53154524625E+01
 0.38034565101E+01 0.27456055240E+01 0.16231902837E+01 0.13554298614E+01 0.12701564664E+01
 0.13554843402E+01 0.16232484059E+01 0.21092979392E+01 0.28724672967E+01 0.39879406376E+01
 0.55291576851E+01 0.75312748320E+01 0.99342684032E+01 0.12523685884E+02 0.14914610071E+02
 0.16627135579E+02 0.17251936804E+02 0.16627028824E+02 0.14914389436E+02 0.12523451702E+02
 0.99341871476E+01 0.75313839428E+01 0.55293242068E+01 0.39880370848E+01 0.28724836144E+01
 0.21092691925E+01 0.13116336562E+01 0.11625212099E+01 0.11625148005E+01 0.13116377350E+01
 0.16296388699E+01 0.21554333883E+01 0.29435627174E+01 0.40538186656E+01 0.55291613323E+01
 0.73580938971E+01 0.94272485751E+01 0.11489783701E+02 0.13188856775E+02 0.14156715619E+02
 0.14156703661E+02 0.13188793132E+02 0.11489664860E+02 0.94271745661E+01 0.73581633001E+01
 0.55293242068E+01 0.40539252578E+01 0.29435423868E+01 0.21553515941E+01 0.16295868922E+01
 0.10993836545E+01 0.10381510216E+01 0.10993771214E+01 0.12909924308E+01 0.16364219651E+01
 0.21725452949E+01 0.29435851450E+01 0.39879990768E+01 0.53153556229E+01 0.68737196360E+01
 0.85192920744E+01 0.10013499812E+02 0.11071094625E+02 0.11454581337E+02 0.11071058056E+02
 0.10013463214E+02 0.85193062566E+01 0.68738003540E+01 0.53154524625E+01 0.39880370848E+01
 0.29435423868E+01 0.21724699411E+01 0.16363722937E+01 0.12909824616E+01 0.96973563703E+00
 0.96972708077E+00 0.10707712586E+01 0.12851790718E+01 0.16364223966E+01 0.21554276255E+01
 0.28725247797E+01 0.38034125190E+01 0.49285337915E+01 0.61702319447E+01 0.73811328279E+01
 0.83617726419E+01 0.89143495835E+01 0.89142841054E+01 0.83616450200E+01 0.73810718895E+01
 0.61702869746E+01 0.49286338948E+01 0.38034565101E+01 0.28724836144E+01 0.21553515941E+01
 0.16363722937E+01 0.12851721914E+01 0.10707858836E+01 0.90875487303E+00 0.94802845942E+00
 0.10707659160E+01 0.12910009672E+01 0.16296295732E+01 0.21092935235E+01 0.27455821162E+01
 0.35342429622E+01 0.44358942676E+01 0.53644030516E+01 0.61899516262E+01 0.67655331801E+01
 0.69725806413E+01 0.67654326902E+01 0.61898375798E+01 0.53643593766E+01 0.44359286242E+01
 0.35342999834E+01 0.27456055240E+01 0.21092691925E+01 0.16295868922E+01 0.12909824616E+01
 0.10707858836E+01 0.94805766899E+00 0.10260999642E+01 0.10993632500E+01 0.12313479718E+01
 0.14340938904E+01 0.17189109368E+01 0.20910256905E+01 0.25432254850E+01 0.30494193680E+01
 0.35606783803E+01 0.40082296735E+01 0.43169755885E+01 0.44274580279E+01 0.43169485111E+01
 0.40081944781E+01 0.35606492946E+01 0.30494024542E+01 0.25432318832E+01 0.20910603146E+01
 0.17189518246E+01 0.14341117881E+01 0.12313444318E+01 0.10993621556E+01 0.10261066659E+01
 0.10027498470E+01 0.10993632500E+01 0.11625134243E+01 0.12701755510E+01 0.14329952915E+01
 0.16581544383E+01 0.19450185461E+01 0.22810441793E+01 0.26388272198E+01 0.29762787023E+01
 0.32425046157E+01 0.33900888703E+01 0.33900903113E+01 0.32425176731E+01 0.29763129280E+01
 0.26388717527E+01 0.22810773080E+01 0.19450306434E+01 0.16581501369E+01 0.14329814678E+01
 0.12701589632E+01 0.11625027969E+01 0.10993618905E+01 0.10707591887E+01 0.10707578787E+01
 0.12313479718E+01 0.12701755510E+01 0.13415329171E+01 0.14549299624E+01 0.16147121056E+01
 0.18171385444E+01 0.20483298106E+01 0.22836903080E+01 0.24901660202E+01 0.26326186217E+01
 0.26835877358E+01 0.26326256996E+01 0.24901863283E+01 0.22837247238E+01 0.20483664633E+01
 0.18171587665E+01 0.16147034617E+01 0.14548953014E+01 0.13414895753E+01 0.12701440450E+01
 0.12313367784E+01 0.12139814377E+01 0.12093045435E+01 0.12139807501E+01 0.14340938904E+01
 0.14329952915E+01 0.14549299624E+01 0.15091974368E+01 0.15990261398E+01 0.17200180989E+01
 0.18595385098E+01 0.19974774283E+01 0.21093675535E+01 0.21723259503E+01 0.21723269609E+01
 0.21093656100E+01 0.19974646872E+01 0.18595159982E+01 0.17199963672E+01 0.15990139561E+01
 0.15091933805E+01 0.14549270474E+01 0.14329907743E+01 0.14340907243E+01 0.14455212422E+01
 0.14550218845E+01 0.14550211659E+01 0.14455212078E+01 0.17189109368E+01 0.16581544383E+01
 0.16147121056E+01 0.15990261398E+01 0.16147132552E+01 0.16581570472E+01 0.17189171331E+01
 0.17813512969E+01 0.18281407137E+01 0.18454947841E+01 0.18281271573E+01 0.17813327607E+01
 0.17188984703E+01 0.16581356879E+01 0.16146906079E+01 0.15990147822E+01 0.16147247325E+01
 0.16581883887E+01 0.17189492135E+01 0.17813666952E+01 0.18281392165E+01 0.18454890983E+01
 0.18281272946E+01 0.17813397177E+01 0.20910256905E+01 0.19450185461E+01 0.18171385444E+01
 0.17200180989E+01 0.16581570472E+01 0.16287526502E+01 0.16232148292E+01 0.16296327212E+01
 0.16364232898E+01 0.16364119805E+01 0.16296144663E+01 0.16232167415E+01 0.16287799923E+01
 0.16581888152E+01 0.17200331911E+01 0.18171371665E+01 0.19450165167E+01 0.20910350379E+01
 0.22348391608E+01 0.23513421357E+01 0.24168745655E+01 0.24168671722E+01 0.23513238425E+01
 0.22348200704E+01 0.25432254850E+01 0.22810441793E+01 0.20483298106E+01 0.18595385098E+01
 0.17189171331E+01 0.16232148292E+01 0.15647060151E+01 0.15343925727E+01 0.15251851563E+01
 0.15343993519E+01 0.15647203219E+01 0.16232388787E+01 0.17189500025E+01 0.18595703430E+01
 0.20483459534E+01 0.22810369463E+01 0.25431991323E+01 0.28086745594E+01 0.30413298381E+01
 0.32019390292E+01 0.32594463917E+01 0.32019589082E+01 0.30413623453E+01 0.28087094776E+01
 0.30494193680E+01 0.26388272198E+01 0.22836903080E+01 0.19974774283E+01 0.17813512969E+01
 0.16296327212E+01 0.15343925727E+01 0.14887306682E+01 0.14887450175E+01 0.15344219024E+01
 0.16296528647E+01 0.17813515637E+01 0.19974607446E+01 0.22836652133E+01 0.26388082381E+01
 0.30494171567E+01 0.34847779229E+01 0.38956702186E+01 0.42206548425E+01 0.44012434411E+01
 0.44012654421E+01 0.42206959669E+01 0.38956913552E+01 0.34847764729E+01 0.35606783803E+01
 0.29762787023E+01 0.24901660202E+01 0.21093675535E+01 0.18281407137E+01 0.16364232898E+01
 0.15251851563E+01 0.14887450175E+01 0.15252079453E+01 0.16364358583E+01 0.18281273733E+01
 0.21093397644E+01 0.24901288584E+01 0.29762343606E+01 0.35606559973E+01 0.42136180474E+01
 0.48751465526E+01 0.54571166019E+01 0.58604403255E+01 0.60051721590E+01 0.58604327724E+01
 0.54570762530E+01 0.48750855537E+01 0.42135880414E+01 0.40082296735E+01 0.32425046157E+01
 0.26326186217E+01 0.21723259503E+01 0.18454947841E+01 0.16364119805E+01 0.15343993519E+01
 0.15344219024E+01 0.16364358583E+01 0.18454690324E+01 0.21722831194E+01 0.26326115888E+01
 0.32425177823E+01 0.40082281564E+01 0.49106803487E+01 0.58888089238E+01 0.68312242358E+01
 0.75888990058E+01 0.80142838641E+01 0.80142745395E+01 0.75888574917E+01 0.68311529783E+01
 0.58887562034E+01 0.49106726612E+01 0.43169755885E+01 0.33900888703E+01 0.26835877358E+01
 0.21723269609E+01 0.18281271573E+01 0.16296144663E+01 0.15647203219E+01 0.16296528647E+01
 0.18281273733E+01 0.21722831194E+01 0.26835756552E+01 0.33901270226E+01 0.43170073347E+01
 0.54672477886E+01 0.67951557594E+01 0.81818097068E+01 0.94324047221E+01 0.10314393897E+02
 0.10633772065E+02 0.10314449239E+02 0.94324247798E+01 0.81817692945E+01 0.67951180943E+01
 0.54672333570E+01 0.44274580279E+01 0.33900903113E+01 0.26326256996E+01 0.21093656100E+01
 0.17813327607E+01 0.16232167415E+01 0.16232388787E+01 0.17813515637E+01 0.21093397644E+01
 0.26326115888E+01 0.33901270226E+01 0.44274817976E+01 0.57781428976E+01 0.74300209104E+01
 0.92832673346E+01 0.11121775221E+02 0.12632650467E+02 0.13492467318E+02 0.13492532421E+02
 0.12632747029E+02 0.11121776842E+02 0.92832194589E+01 0.74300240404E+01 0.57781686065E+01
 0.43169485111E+01 0.32425176731E+01 0.24901863283E+01 0.19974646872E+01 0.17188984703E+01
 0.16287799923E+01 0.17189500025E+01 0.19974607446E+01 0.24901288584E+01 0.32425177823E+01
 0.43170073347E+01 0.57781428976E+01 0.76589921188E+01 0.99068344145E+01 0.12325673941E+02
 0.14559059017E+02 0.16159451314E+02 0.16743591157E+02 0.16159486211E+02 0.14559043708E+02
 0.12325623597E+02 0.99068477265E+01 0.76590523969E+01 0.57781392844E+01 0.40081944781E+01
 0.29763129280E+01 0.22837247238E+01 0.18595159982E+01 0.16581356879E+01 0.16581888152E+01
 0.18595703430E+01 0.22836652133E+01 0.29762343606E+01 0.40082281564E+01 0.54672477886E+01
 0.74300209104E+01 0.99068344145E+01 0.12763755774E+02 0.15662321702E+02 0.18083238940E+02
 0.19474273907E+02 0.19474269285E+02 0.18083194229E+02 0.15662237877E+02 0.12763722069E+02
 0.99068724963E+01 0.74300198804E+01 0.54671671899E+01 0.35606492946E+01 0.26388717527E+01
 0.20483664633E+01 0.17199963672E+01 0.16146906079E+01 0.17200331911E+01 0.20483459534E+01
 0.26388082381E+01 0.35606559973E+01 0.49106803487E+01 0.67951557594E+01 0.92832673346E+01
 0.12325673941E+02 0.15662321702E+02 0.18787592469E+02 0.21048301650E+02 0.21877280063E+02
 0.21048318237E+02 0.18787541663E+02 0.15662225128E+02 0.12325641949E+02 0.92832926035E+01
 0.67951285700E+01 0.49106061789E+01 0.30494024542E+01 0.22810773080E+01 0.18171587665E+01
 0.15990139561E+01 0.15990147822E+01 0.18171371665E+01 0.22810369463E+01 0.30494171567E+01
 0.42136180474E+01 0.58888089238E+01 0.81818097068E+01 0.11121775221E+02 0.14559059017E+02
 0.18083238940E+02 0.21048301650E+02 0.22759302336E+02 0.22759339501E+02 0.21048335668E+02
 0.18083190276E+02 0.14559006730E+02 0.11121810658E+02 0.81818614490E+01 0.58887712335E+01
 0.42135381818E+01 0.25432318832E+01 0.19450306434E+01 0.16147034617E+01 0.15091933805E+01
 0.16147247325E+01 0.19450165167E+01 0.25431991323E+01 0.34847779229E+01 0.48751465526E+01
 0.68312242358E+01 0.94324047221E+01 0.12632650467E+02 0.16159451314E+02 0.19474273907E+02
 0.21877280063E+02 0.22759339501E+02 0.21877325623E+02 0.19474304629E+02 0.16159464926E+02
 0.12632693363E+02 0.94324511483E+01 0.68312009180E+01 0.48750743775E+01 0.34847524539E+01
 0.20910603146E+01 0.16581501369E+01 0.14548953014E+01 0.14549270474E+01 0.16581883887E+01
 0.20910350379E+01 0.28086745594E+01 0.38956702186E+01 0.54571166019E+01 0.75888990058E+01
 0.10314393897E+02 0.13492467318E+02 0.16743591157E+02 0.19474269285E+02 0.21048318237E+02
 0.21048335668E+02 0.19474304629E+02 0.16743623624E+02 0.13492494817E+02 0.10314400224E+02
 0.75888570080E+01 0.54570536953E+01 0.38956594851E+01 0.28087231356E+01 0.17189518246E+01
 0.14329814678E+01 0.13414895753E+01 0.14329907743E+01 0.17189492135E+01 0.22348391608E+01
 0.30413298381E+01 0.42206548425E+01 0.58604403255E+01 0.80142838641E+01 0.10633772065E+02
 0.13492532421E+02 0.16159486211E+02 0.18083194229E+02 0.18787541663E+02 0.18083190276E+02
 0.16159464926E+02 0.13492494817E+02 0.10633736318E+02 0.80142601937E+01 0.58604265328E+01
 0.42206540031E+01 0.30413461711E+01 0.22348586135E+01 0.14341117881E+01 0.12701589632E+01
 0.12701440450E+01 0.14340907243E+01 0.17813666952E+01 0.23513421357E+01 0.32019390292E+01
 0.44012434411E+01 0.60051721590E+01 0.80142745395E+01 0.10314449239E+02 0.12632747029E+02
 0.14559043708E+02 0.15662237877E+02 0.15662225128E+02 0.14559006730E+02 0.12632693363E+02
 0.10314400224E+02 0.80142601937E+01 0.60052022343E+01 0.44012866905E+01 0.32019537377E+01