unknown system                          
   1.00000000000000     
     0.000000    2.715000    2.715000
     2.715000    0.000000    2.715000
     2.715000    2.715000    0.000000
   Si
     2
Direct
  0.500000  0.500000  0.500000
  0.750000  0.750000  0.750000
 
   36   36   36
 0.85036830196E+00 0.86673974116E+00 0.91692814943E+00 0.10040107606E+01 0.11327034229E+01
 0.13088674222E+01 0.15389738502E+01 0.18294882804E+01 0.21859755785E+01 0.26116541615E+01
 0.31052739506E+01 0.36585645679E+01 0.42539510932E+01 0.48635074013E+01 0.54499948907E+01
 0.59703064920E+01 0.63809179432E+01 0.66443275539E+01 0.67351236011E+01 0.66443154651E+01
 0.63809053446E+01 0.59703144605E+01 0.54500436489E+01 0.48635993707E+01 0.42540623900E+01
 0.36586563407E+01 0.31053168649E+01 0.26116454519E+01 0.21859357503E+01 0.18294439024E+01
 0.15389422374E+01 0.13088524696E+01 0.11327006105E+01 0.10040136745E+01 0.91693207959E+00
 0.86674219152E+00 0.86673974116E+00 0.89533198389E+00 0.95427938650E+00 0.10469020085E+01
 0.11776870296E+01 0.13517921435E+01 0.15744764198E+01 0.18504070187E+01 0.21826961830E+01
 0.25715224700E+01 0.30123557998E+01 0.34941069856E+01 0.39978181416E+01 0.44966166375E+01
 0.49574540362E+01 0.53446735747E+01 0.56248734358E+01 0.57720813197E+01 0.57720814247E+01
 0.56248771620E+01 0.53446914068E+01 0.49574983395E+01 0.44966877220E+01 0.39978948588E+01
 0.34941569885E+01 0.30123587334E+01 0.25714832686E+01 0.21826379926E+01 0.18503545570E+01
 0.15744441373E+01 0.13517813251E+01 0.11776892129E+01 0.10469059534E+01 0.95427859406E+00
 0.89532772029E+00 0.86673736725E+00 0.91692814943E+00 0.95427938650E+00 0.10189373831E+01
 0.11142165705E+01 0.12441862795E+01 0.14131706403E+01 0.16251577457E+01 0.18830694480E+01
 0.21878039688E+01 0.25370134887E+01 0.29237405113E+01 0.33352496343E+01 0.37525422104E+01
 0.41510281259E+01 0.45026074855E+01 0.47790275413E+01 0.49559524374E+01 0.50168776001E+01
 0.49559587370E+01 0.47790435788E+01 0.45026370037E+01 0.41510675127E+01 0.37525752917E+01
 0.33352551421E+01 0.29237085937E+01 0.25369541160E+01 0.21877391958E+01 0.18830194641E+01
 0.16251328391E+01 0.14131699714E+01 0.12441995479E+01 0.11142290433E+01 0.10189388850E+01
 0.95427087951E+00 0.91691939407E+00 0.90472351569E+00 0.10040107606E+01 0.10469020085E+01
 0.11142165705E+01 0.12091069343E+01 0.13351153244E+01 0.14956788306E+01 0.16935420901E+01
 0.19300400230E+01 0.22042189363E+01 0.25118402613E+01 0.28444430728E+01 0.31887639990E+01
 0.35268566795E+01 0.38371799383E+01 0.40967295831E+01 0.42839977254E+01 0.43822292360E+01
 0.43822314843E+01 0.42840051704E+01 0.40967416987E+01 0.38371905588E+01 0.35268542459E+01
 0.31887390057E+01 0.28443965791E+01 0.25117846439E+01 0.22041704560E+01 0.19300108728E+01
 0.16935372391E+01 0.14956955933E+01 0.13351431849E+01 0.12091306793E+01 0.11142246600E+01
 0.10468941624E+01 0.10039973941E+01 0.98318279287E+00 0.98318907035E+00 0.11327034229E+01
 0.11776870296E+01 0.12441862795E+01 0.13351153244E+01 0.14534541778E+01 0.16017766659E+01
 0.17816976312E+01 0.19932197452E+01 0.22339949359E+01 0.24985897352E+01 0.27779317410E+01
 0.30591681788E+01 0.33261545971E+01 0.35607097707E+01 0.37446211093E+01 0.38621594446E+01
 0.39026083024E+01 0.38621604377E+01 0.37446216923E+01 0.35607045021E+01 0.33261361755E+01
 0.30591352694E+01 0.27778929961E+01 0.24985582025E+01 0.22339797370E+01 0.19932236216E+01
 0.17817193119E+01 0.16018114811E+01 0.14534924759E+01 0.13351443929E+01 0.12441972175E+01
 0.11776804608E+01 0.11326886800E+01 0.11067857877E+01 0.10983465334E+01 0.11067969668E+01
 0.13088674222E+01 0.13517921435E+01 0.14131706403E+01 0.14956788306E+01 0.16017766659E+01
 0.17332791706E+01 0.18908701409E+01 0.20735576381E+01 0.22781130510E+01 0.24985896546E+01
 0.27260663913E+01 0.29487812955E+01 0.31527946501E+01 0.33232547023E+01 0.34462107660E+01
 0.35107124419E+01 0.35107123854E+01 0.34462091281E+01 0.33232472692E+01 0.31527774659E+01
 0.29487570193E+01 0.27260460638E+01 0.24985851686E+01 0.22781285305E+01 0.20735892440E+01
 0.18909114145E+01 0.17333229566E+01 0.16018138252E+01 0.14957005345E+01 0.14131739081E+01
 0.13517817472E+01 0.13088520983E+01 0.12818875430E+01 0.12689426673E+01 0.12689473311E+01
 0.12818999478E+01 0.15389738502E+01 0.15744764198E+01 0.16251577457E+01 0.16935420901E+01
 0.17816976312E+01 0.18908701409E+01 0.20210907575E+01 0.21707676349E+01 0.23363068668E+01
 0.25118402250E+01 0.26891658693E+01 0.28580232511E+01 0.30068111013E+01 0.31237971663E+01
 0.31987294152E+01 0.32245490045E+01 0.31987309232E+01 0.31237961187E+01 0.30068039550E+01
 0.28580126240E+01 0.26891609996E+01 0.25118503437E+01 0.23363341861E+01 0.21708070353E+01
 0.20211340365E+01 0.18909080231E+01 0.17817204227E+01 0.16935440460E+01 0.16251423799E+01
 0.15744547862E+01 0.15389561715E+01 0.15160249835E+01 0.15033449800E+01 0.14993113338E+01
 0.15033490919E+01 0.15160351568E+01 0.18294882804E+01 0.18504070187E+01 0.18830694480E+01
 0.19300400230E+01 0.19932197452E+01 0.20735576381E+01 0.21707676349E+01 0.22830604920E+01
 0.24069256286E+01 0.25370136919E+01 0.26661958602E+01 0.27859045228E+01 0.28868566355E+01
 0.29601826322E+01 0.29988180770E+01 0.29988215239E+01 0.29601898978E+01 0.28868622929E+01
 0.27859073193E+01 0.26661998303E+01 0.25370236839E+01 0.24069434265E+01 0.22830844638E+01
 0.21707928867E+01 0.20735751354E+01 0.19932188759E+01 0.19300165347E+01 0.18830315088E+01
 0.18503710211E+01 0.18294669378E+01 0.18174025804E+01 0.18113254915E+01 0.18089325622E+01
 0.18089305894E+01 0.18113230031E+01 0.18174081292E+01 0.21859755785E+01 0.21826961830E+01
 0.21878039688E+01 0.22042189363E+01 0.22339949359E+01 0.22781130510E+01 0.23363068668E+01
 0.24069256286E+01 0.24868552677E+01 0.25715226848E+01 0.26550401558E+01 0.27305879945E+01
 0.27911210410E+01 0.28303765636E+01 0.28439899941E+01 0.28303886080E+01 0.27911385249E+01
 0.27306038063E+01 0.26550503476E+01 0.25715254782E+01 0.24868508562E+01 0.24069173411E+01
 0.23362978234E+01 0.22780996939E+01 0.22339681216E+01 0.22041748058E+01 0.21877520294E+01
 0.21826540578E+01 0.21859558811E+01 0.21941324734E+01 0.22034736551E+01 0.22106457298E+01
 0.22133124863E+01 0.22106344102E+01 0.22034599542E+01 0.21941300422E+01 0.26116541615E+01
 0.25715224700E+01 0.25370134887E+01 0.25118402613E+01 0.24985897352E+01 0.24985896546E+01
 0.25118402250E+01 0.25370136919E+01 0.25715226848E+01 0.26116541779E+01 0.26528036333E+01
 0.26898877964E+01 0.27179867421E+01 0.27331488685E+01 0.27331584178E+01 0.27180106899E+01
 0.26899147706E+01 0.26528204979E+01 0.26116500886E+01 0.25714939242E+01 0.25369674171E+01
 0.25117896096E+01 0.24985420017E+01 0.24985424387E+01 0.25117905895E+01 0.25369684245E+01
 0.25714948123E+01 0.26116507929E+01 0.26528206953E+01 0.26899143098E+01 0.27180099578E+01
 0.27331578306E+01 0.27331483731E+01 0.27179862012E+01 0.26898874154E+01 0.26528035700E+01
 0.31052739506E+01 0.30123557998E+01 0.29237405113E+01 0.28444430728E+01 0.27779317410E+01
 0.27260663913E+01 0.26891658693E+01 0.26661958602E+01 0.26550401558E+01 0.26528036333E+01
 0.26561390940E+01 0.26616409206E+01 0.26663268669E+01 0.26681419683E+01 0.26663483892E+01
 0.26616729270E+01 0.26561619628E+01 0.26527964181E+01 0.26549924495E+01 0.26661165698E+01
 0.26890782244E+01 0.27259913301E+01 0.27778768967E+01 0.28444077671E+01 0.29237260819E+01
 0.30123649161E+01 0.31053029314E+01 0.31961912986E+01 0.32778147264E+01 0.33428419588E+01
 0.33848384314E+01 0.33993609779E+01 0.33848210475E+01 0.33428117635E+01 0.32777771979E+01
 0.31961529546E+01 0.36585645679E+01 0.34941069856E+01 0.33352496343E+01 0.31887639990E+01
 0.30591681788E+01 0.29487812955E+01 0.28580232511E+01 0.27859045228E+01 0.27305879945E+01
 0.26898877964E+01 0.26616409206E+01 0.26439747970E+01 0.26355129196E+01 0.26355246761E+01
 0.26440032542E+01 0.26616655885E+01 0.26898805242E+01 0.27305302208E+01 0.27858041309E+01
 0.28579120587E+01 0.29486934869E+01 0.30591212410E+01 0.31887581338E+01 0.33352779330E+01
 0.34941599813E+01 0.36586279028E+01 0.38198767449E+01 0.39676302757E+01 0.40910644085E+01
 0.41800785744E+01 0.42267658497E+01 0.42267624435E+01 0.41800674279E+01 0.40910417494E+01
 0.39675906149E+01 0.38198199638E+01 0.42539510932E+01 0.39978181416E+01 0.37525422104E+01
 0.35268566795E+01 0.33261545971E+01 0.31527946501E+01 0.30068111013E+01 0.28868566355E+01
 0.27911210410E+01 0.27179867421E+01 0.26663268669E+01 0.26355129196E+01 0.26252723785E+01
 0.26355314362E+01 0.26663471408E+01 0.27179787880E+01 0.27910597177E+01 0.28867464333E+01
 0.30066898263E+01 0.31527075709E+01 0.33261253768E+01 0.35268819213E+01 0.37526050587E+01
 0.39978990517E+01 0.42540301379E+01 0.45091079140E+01 0.47487904625E+01 0.49574867492E+01
 0.51199830315E+01 0.52233493122E+01 0.52588419926E+01 0.52233593488E+01 0.51199940002E+01
 0.49574840637E+01 0.47487612185E+01 0.45090488942E+01 0.48635074013E+01 0.44966166375E+01
 0.41510281259E+01 0.38371799383E+01 0.35607097707E+01 0.33232547023E+01 0.31237971663E+01
 0.29601826322E+01 0.28303765636E+01 0.27331488685E+01 0.26681419683E+01 0.26355246761E+01
 0.26355314362E+01 0.26681523575E+01 0.27331359958E+01 0.28303125881E+01 0.29600677974E+01
 0.31236718752E+01 0.33231728270E+01 0.35606981333E+01 0.38372266401E+01 0.41511037157E+01
 0.44966957362E+01 0.48635727026E+01 0.52364805588E+01 0.55961746808E+01 0.59210053827E+01
 0.61890434133E+01 0.63805257409E+01 0.64803738789E+01 0.64803867389E+01 0.63805577243E+01
 0.61890784186E+01 0.59210256192E+01 0.55961671375E+01 0.52364412625E+01 0.54499948907E+01
 0.49574540362E+01 0.45026074855E+01 0.40967295831E+01 0.37446211093E+01 0.34462107660E+01
 0.31987294152E+01 0.29988180770E+01 0.28439899941E+01 0.27331584178E+01 0.26663483892E+01
 0.26440032542E+01 0.26663471408E+01 0.27331359958E+01 0.28439206139E+01 0.29986991519E+01
 0.31986005501E+01 0.34461311222E+01 0.37446202549E+01 0.40967863588E+01 0.45026776791E+01
 0.49575075512E+01 0.54500236343E+01 0.59619644058E+01 0.64688547102E+01 0.69419888568E+01
 0.73511860850E+01 0.76679125675E+01 0.78685093227E+01 0.79372299146E+01 0.78685325680E+01
 0.76679516210E+01 0.73512295452E+01 0.69420246765E+01 0.64688729694E+01 0.59619600013E+01
 0.59703064920E+01 0.53446735747E+01 0.47790275413E+01 0.42839977254E+01 0.38621594446E+01
 0.35107124419E+01 0.32245490045E+01 0.29988215239E+01 0.28303886080E+01 0.27180106899E+01
 0.26616729270E+01 0.26616655885E+01 0.27179787880E+01 0.28303125881E+01 0.29986991519E+01
 0.32244174959E+01 0.35106322628E+01 0.38621629292E+01 0.42840582721E+01 0.47790876991E+01
 0.53446967154E+01 0.59702936830E+01 0.66357990583E+01 0.73120580235E+01 0.79630534751E+01
 0.85492912154E+01 0.90316685861E+01 0.93754929107E+01 0.95545151402E+01 0.95545133407E+01
 0.93754924619E+01 0.90316795972E+01 0.85493187522E+01 0.79630922642E+01 0.73120981224E+01
 0.66358315124E+01 0.63809179432E+01 0.56248734358E+01 0.49559524374E+01 0.43822292360E+01
 0.39026083024E+01 0.35107123854E+01 0.31987309232E+01 0.29601898978E+01 0.27911385249E+01
 0.26899147706E+01 0.26561619628E+01 0.26898805242E+01 0.27910597177E+01 0.29600677974E+01
 0.31986005501E+01 0.35106322628E+01 0.39026125653E+01 0.43822909386E+01 0.49560066103E+01
 0.56248763297E+01 0.63808747968E+01 0.72041198432E+01 0.80624457811E+01 0.89134731110E+01
 0.97083987897E+01 0.10396460813E+02 0.10929628938E+02 0.11267686562E+02 0.11383549622E+02
 0.11267630421E+02 0.10929551835E+02 0.10396406563E+02 0.97083897098E+01 0.89135033790E+01
 0.80624988304E+01 0.72041795684E+01 0.66443275539E+01 0.57720813197E+01 0.50168776001E+01
 0.43822314843E+01 0.38621604377E+01 0.34462091281E+01 0.31237961187E+01 0.28868622929E+01
 0.27306038063E+01 0.26528204979E+01 0.26527964181E+01 0.27305302208E+01 0.28867464333E+01
 0.31236718752E+01 0.34461311222E+01 0.38621629292E+01 0.43822909386E+01 0.50169288442E+01
 0.57720764350E+01 0.66442714391E+01 0.76164052765E+01 0.86560239626E+01 0.97167684753E+01
 0.10742152952E+02 0.11670203559E+02 0.12438298625E+02 0.12988881045E+02 0.13276728361E+02
 0.13276661973E+02 0.12988715621E+02 0.12438113266E+02 0.11670071775E+02 0.10742102384E+02
 0.97167839166E+01 0.86560788108E+01 0.76164764095E+01 0.67351236011E+01 0.57720814247E+01
 0.49559587370E+01 0.42840051704E+01 0.37446216923E+01 0.33232472692E+01 0.30068039550E+01
 0.27859073193E+01 0.26550503476E+01 0.26116500886E+01 0.26549924495E+01 0.27858041309E+01
 0.30066898263E+01 0.33231728270E+01 0.37446202549E+01 0.42840582721E+01 0.49560066103E+01
 0.57720764350E+01 0.67350691007E+01 0.78333246678E+01 0.90374548342E+01 0.10300702387E+02
 0.11562263384E+02 0.12751589379E+02 0.13792516299E+02 0.14608414121E+02 0.15130062088E+02
 0.15309378284E+02 0.15129890620E+02 0.14608142228E+02 0.13792248586E+02 0.12751405934E+02
 0.11562183332E+02 0.10300699906E+02 0.90374989276E+01 0.78333909411E+01 0.66443154651E+01
 0.56248771620E+01 0.47790435788E+01 0.40967416987E+01 0.35607045021E+01 0.31527774659E+01
 0.28580126240E+01 0.26661998303E+01 0.25715254782E+01 0.25714939242E+01 0.26661165698E+01
 0.28579120587E+01 0.31527075709E+01 0.35606981333E+01 0.40967863588E+01 0.47790876991E+01
 0.56248763297E+01 0.66442714391E+01 0.78333246678E+01 0.91690586611E+01 0.10608405082E+02
 0.12090757568E+02 0.13541660240E+02 0.14875498378E+02 0.15994820558E+02 0.16801105955E+02
 0.17222823286E+02 0.17222736076E+02 0.16800871836E+02 0.15994515538E+02 0.14875217659E+02
 0.13541468707E+02 0.12090663168E+02 0.10608381351E+02 0.91690816685E+01 0.78333749970E+01
 0.63809053446E+01 0.53446914068E+01 0.45026370037E+01 0.38371905588E+01 0.33261361755E+01
 0.29487570193E+01 0.26891609996E+01 0.25370236839E+01 0.24868508562E+01 0.25369674171E+01
 0.26890782244E+01 0.29486934869E+01 0.33261253768E+01 0.38372266401E+01 0.45026776791E+01
 0.53446967154E+01 0.63808747968E+01 0.76164052765E+01 0.90374548342E+01 0.10608405082E+02
 0.12273421437E+02 0.13959644584E+02 0.15577836235E+02 0.17010216759E+02 0.18133082496E+02
 0.18849172021E+02 0.19095225909E+02 0.18849058482E+02 0.18132872695E+02 0.17009958853E+02
 0.15577597605E+02 0.13959471432E+02 0.12273319456E+02 0.10608359727E+02 0.90374554164E+01
 0.76164374771E+01 0.59703144605E+01 0.49574983395E+01 0.41510675127E+01 0.35268542459E+01
 0.30591352694E+01 0.27260460638E+01 0.25118503437E+01 0.24069434265E+01 0.24069173411E+01
 0.25117896096E+01 0.27259913301E+01 0.30591212410E+01 0.35268819213E+01 0.41511037157E+01
 0.49575075512E+01 0.59702936830E+01 0.72041198432E+01 0.86560239626E+01 0.10300702387E+02
 0.12090757568E+02 0.13959644584E+02 0.15821211654E+02 0.17547307236E+02 0.18993386090E+02
 0.20036580683E+02 0.20583914620E+02 0.20583896197E+02 0.20036511214E+02 0.18993248101E+02
 0.17547118448E+02 0.15821020269E+02 0.13959489592E+02 0.12090651286E+02 0.10300644003E+02
 0.86560118278E+01 0.72041406680E+01 0.54500436489E+01 0.44966877220E+01 0.37525752917E+01
 0.31887390057E+01 0.27778929961E+01 0.24985851686E+01 0.23363341861E+01 0.22830844638E+01
 0.23362978234E+01 0.24985420017E+01 0.27778768967E+01 0.31887581338E+01 0.37526050587E+01
 0.44966957362E+01 0.54500236343E+01 0.66357990583E+01 0.80624457811E+01 0.97167684753E+01
 0.11562263384E+02 0.13541660240E+02 0.15577836235E+02 0.17547307236E+02 0.19291064422E+02
 0.20664526645E+02 0.21546014819E+02 0.21850259546E+02 0.21546035653E+02 0.20664515940E+02
 0.19290978044E+02 0.17547156125E+02 0.15577669232E+02 0.13541517155E+02 0.11562160748E+02
 0.97167116636E+01 0.80624360099E+01 0.66358209178E+01 0.48635993707E+01 0.39978948588E+01
 0.33352551421E+01 0.28443965791E+01 0.24985582025E+01 0.22781285305E+01 0.21708070353E+01
 0.21707928867E+01 0.22780996939E+01 0.24985424387E+01 0.28444077671E+01 0.33352779330E+01
 0.39978990517E+01 0.48635727026E+01 0.59619644058E+01 0.73120580235E+01 0.89134731110E+01
 0.10742152952E+02 0.12751589379E+02 0.14875498378E+02 0.17010216759E+02 0.18993386090E+02
 0.20664526645E+02 0.21879293740E+02 0.22520649614E+02 0.22520687253E+02 0.21879362481E+02
 0.20664542077E+02 0.18993306907E+02 0.17010072620E+02 0.14875344395E+02 0.12751460310E+02
 0.10742063048E+02 0.89134313626E+01 0.73120659391E+01 0.59620002129E+01 0.42540623900E+01
 0.34941569885E+01 0.29237085937E+01 0.25117846439E+01 0.22339797370E+01 0.20735892440E+01
 0.20211340365E+01 0.20735751354E+01 0.22339681216E+01 0.25117905895E+01 0.29237260819E+01
 0.34941599813E+01 0.42540301379E+01 0.52364805588E+01 0.64688547102E+01 0.79630534751E+01
 0.97083987897E+01 0.11670203559E+02 0.13792516299E+02 0.15994820558E+02 0.18133082496E+02
 0.20036580683E+02 0.21546014819E+02 0.22520649614E+02 0.22858255944E+02 0.22520735777E+02
 0.21546101845E+02 0.20036585594E+02 0.18132994810E+02 0.15994687178E+02 0.13792382571E+02
 0.11670093277E+02 0.97083295149E+01 0.79630411042E+01 0.64688942711E+01 0.52365364733E+01
 0.36586563407E+01 0.30123587334E+01 0.25369541160E+01 0.22041704560E+01 0.19932236216E+01
 0.18909114145E+01 0.18909080231E+01 0.19932188759E+01 0.22041748058E+01 0.25369684245E+01
 0.30123649161E+01 0.36586279028E+01 0.45091079140E+01 0.55961746808E+01 0.69419888568E+01
 0.85492912154E+01 0.10396460813E+02 0.12438298625E+02 0.14608414121E+02 0.16801105955E+02
 0.18849172021E+02 0.20583914620E+02 0.21850259546E+02 0.22520687253E+02 0.22520735777E+02
 0.21850361828E+02 0.20583986226E+02 0.18849165810E+02 0.16801035174E+02 0.14608312607E+02
 0.12438191713E+02 0.10396374980E+02 0.85492583325E+01 0.69420238179E+01 0.55962516077E+01
 0.45091767264E+01 0.31053168649E+01 0.25714832686E+01 0.21877391958E+01 0.19300108728E+01
 0.17817193119E+01 0.17333229566E+01 0.17817204227E+01 0.19300165347E+01 0.21877520294E+01
 0.25714948123E+01 0.31053029314E+01 0.38198767449E+01 0.47487904625E+01 0.59210053827E+01
 0.73511860850E+01 0.90316685861E+01 0.10929628938E+02 0.12988881045E+02 0.15130062088E+02
 0.17222823286E+02 0.19095225909E+02 0.20583896197E+02 0.21546035653E+02 0.21879362481E+02
 0.21546101845E+02 0.20583986226E+02 0.19095292903E+02 0.17222844945E+02 0.15130036020E+02
 0.12988814446E+02 0.10929549516E+02 0.90316236837E+01 0.73512129436E+01 0.59210949059E+01
 0.47488906405E+01 0.38199387529E+01 0.26116454519E+01 0.21826379926E+01 0.18830194641E+01
 0.16935372391E+01 0.16018114811E+01 0.16018138252E+01 0.16935440460E+01 0.18830315088E+01
 0.21826540578E+01 0.26116507929E+01 0.31961912986E+01 0.39676302757E+01 0.49574867492E+01
 0.61890434133E+01 0.76679125675E+01 0.93754929107E+01 0.11267686562E+02 0.13276728361E+02
 0.15309378284E+02 0.17222736076E+02 0.18849058482E+02 0.20036511214E+02 0.20664515940E+02
 0.20664542077E+02 0.20036585594E+02 0.18849165810E+02 0.17222844945E+02 0.15309447800E+02
 0.13276731079E+02 0.11267637922E+02 0.93754492392E+01 0.76679312430E+01 0.61891357847E+01
 0.49576076676E+01 0.39677204791E+01 0.31962253778E+01 0.21859357503E+01 0.18503545570E+01
 0.16251328391E+01 0.14956955933E+01 0.14534924759E+01 0.14957005345E+01 0.16251423799E+01
 0.18503710211E+01 0.21859558811E+01 0.26528206953E+01 0.32778147264E+01 0.40910644085E+01
 0.51199830315E+01 0.63805257409E+01 0.78685093227E+01 0.95545151402E+01 0.11383549622E+02
 0.13276661973E+02 0.15129890620E+02 0.16800871836E+02 0.18132872695E+02 0.18993248101E+02
 0.19290978044E+02 0.18993306907E+02 0.18132994810E+02 0.16801035174E+02 0.15130036020E+02
 0.13276731079E+02 0.11383538088E+02 0.95544792010E+01 0.78685192552E+01 0.63806103565E+01
 0.51201092445E+01 0.40911707897E+01 0.32778631101E+01 0.26528188900E+01 0.18294439024E+01
 0.15744441373E+01 0.14131699714E+01 0.13351431849E+01 0.13351443929E+01 0.14131739081E+01
 0.15744547862E+01 0.18294669378E+01 0.21941324734E+01 0.26899143098E+01 0.33428419588E+01
 0.41800785744E+01 0.52233493122E+01 0.64803738789E+01 0.79372299146E+01 0.95545133407E+01
 0.11267630421E+02 0.12988715621E+02 0.14608142228E+02 0.15994515538E+02 0.17009958853E+02
 0.17547118448E+02 0.17547156125E+02 0.17010072620E+02 0.15994687178E+02 0.14608312607E+02
 0.12988814446E+02 0.11267637922E+02 0.95544792010E+01 0.79372286660E+01 0.64804441623E+01
 0.52234683933E+01 0.41801885143E+01 0.33428974357E+01 0.26899128778E+01 0.21941051961E+01
 0.15389422374E+01 0.13517813251E+01 0.12441995479E+01 0.12091306793E+01 0.12441972175E+01
 0.13517817472E+01 0.15389561715E+01 0.18174025804E+01 0.22034736551E+01 0.27180099578E+01
 0.33848384314E+01 0.42267658497E+01 0.52588419926E+01 0.64803867389E+01 0.78685325680E+01
 0.93754924619E+01 0.10929551835E+02 0.12438113266E+02 0.13792248586E+02 0.14875217659E+02
 0.15577597605E+02 0.15821020269E+02 0.15577669232E+02 0.14875344395E+02 0.13792382571E+02
 0.12438191713E+02 0.10929549516E+02 0.93754492392E+01 0.78685192552E+01 0.64804441623E+01
 0.52589524083E+01 0.42268749993E+01 0.33848984299E+01 0.27180097645E+01 0.22034393860E+01
 0.18173699774E+01 0.13088524696E+01 0.11776892129E+01 0.11142290433E+01 0.11142246600E+01
 0.11776804608E+01 0.13088520983E+01 0.15160249835E+01 0.18113254915E+01 0.22106457298E+01
 0.27331578306E+01 0.33993609779E+01 0.42267624435E+01 0.52233593488E+01 0.63805577243E+01
 0.76679516210E+01 0.90316795972E+01 0.10396406563E+02 0.11670071775E+02 0.12751405934E+02
 0.13541468707E+02 0.13959471432E+02 0.13959489592E+02 0.13541517155E+02 0.12751460310E+02
 0.11670093277E+02 0.10396374980E+02 0.90316236837E+01 0.76679312430E+01 0.63806103565E+01
 0.52234683933E+01 0.42268749993E+01 0.33994282741E+01 0.27331635539E+01 0.22106095131E+01
 0.18112836199E+01 0.15160033618E+01 0.11327006105E+01 0.10469059534E+01 0.10189388850E+01
 0.10468941624E+01 0.11326886800E+01 0.12818875430E+01 0.15033449800E+01 0.18089325622E+01
 0.22133124863E+01 0.27331483731E+01 0.33848210475E+01 0.41800674279E+01 0.51199940002E+01
 0.61890784186E+01 0.73512295452E+01 0.85493187522E+01 0.97083897098E+01 0.10742102384E+02
 0.11562183332E+02 0.12090663168E+02 0.12273319456E+02 0.12090651286E+02 0.11562160748E+02
 0.10742063048E+02 0.97083295149E+01 0.85492583325E+01 0.73512129436E+01 0.61891357847E+01
 0.51201092445E+01 0.41801885143E+01 0.33848984299E+01 0.27331635539E+01 0.22132805537E+01
 0.18088863355E+01 0.15033140507E+01 0.12818826178E+01 0.10040136745E+01 0.95427859406E+00
 0.95427087951E+00 0.10039973941E+01 0.11067857877E+01 0.12689426673E+01 0.14993113338E+01
 0.18089305894E+01 0.22106344102E+01 0.27179862012E+01 0.33428117635E+01 0.40910417494E+01
 0.49574840637E+01 0.59210256192E+01 0.69420246765E+01 0.79630922642E+01 0.89135033790E+01
 0.97167839166E+01 0.10300699906E+02 0.10608381351E+02 0.10608359727E+02 0.10300644003E+02
 0.97167116636E+01 0.89134313626E+01 0.79630411042E+01 0.69420238179E+01 0.59210949059E+01
 0.49576076676E+01 0.40911707897E+01 0.33428974357E+01 0.27180097645E+01 0.22106095131E+01
 0.18088863355E+01 0.14992751944E+01 0.12689297256E+01 0.11067945491E+01 0.91693207959E+00
 0.89532772029E+00 0.91691939407E+00 0.98318279287E+00 0.10983465334E+01 0.12689473311E+01
 0.15033490919E+01 0.18113230031E+01 0.22034599542E+01 0.26898874154E+01 0.32777771979E+01
 0.39675906149E+01 0.47487612185E+01 0.55961671375E+01 0.64688729694E+01 0.73120981224E+01
 0.80624988304E+01 0.86560788108E+01 0.90374989276E+01 0.91690816685E+01 0.90374554164E+01
 0.86560118278E+01 0.80624360099E+01 0.73120659391E+01 0.64688942711E+01 0.55962516077E+01
 0.47488906405E+01 0.39677204791E+01 0.32778631101E+01 0.26899128778E+01 0.22034393860E+01
 0.18112836199E+01 0.15033140507E+01 0.12689297256E+01 0.10983488557E+01 0.98319724354E+00
 0.86674219152E+00 0.86673736725E+00 0.90472351569E+00 0.98318907035E+00 0.11067969668E+01
 0.12818999478E+01 0.15160351568E+01 0.18174081292E+01 0.21941300422E+01 0.26528035700E+01
 0.31961529546E+01 0.38198199638E+01 0.45090488942E+01 0.52364412625E+01 0.59619600013E+01
 0.66358315124E+01 0.72041795684E+01 0.76164764095E+01 0.78333909411E+01 0.78333749970E+01
 0.76164374771E+01 0.72041406680E+01 0.66358209178E+01 0.59620002129E+01 0.52365364733E+01
 0.45091767264E+01 0.38199387529E+01 0.31962253778E+01 0.26528188900E+01 0.21941051961E+01
 0.18173699774E+01 0.15160033618E+01 0.12818826178E+01 0.11067945491E+01 0.98319724354E+00
 0.90473426071E+00 0.86673986112E+00 0.89533199642E+00 0.95427943937E+00 0.10469020981E+01
 0.11776870345E+01 0.13517920641E+01 0.15744763788E+01 0.18504070422E+01 0.21826961982E+01
 0.25715224981E+01 0.30123559166E+01 0.34941070910E+01 0.39978179948E+01 0.44966161344E+01
 0.49574532696E+01 0.53446726616E+01 0.56248725185E+01 0.57720807066E+01 0.57720814499E+01
 0.56248778404E+01 0.53446923913E+01 0.49574992063E+01 0.44966881327E+01 0.39978945423E+01
 0.34941558788E+01 0.30123571750E+01 0.25714818607E+01 0.21826371707E+01 0.18503544444E+01
 0.15744447081E+01 0.13517824458E+01 0.11776905442E+01 0.10469070912E+01 0.95427937618E+00
 0.89532823352E+00 0.86673768415E+00 0.89533199642E+00 0.93205415971E+00 0.99556385594E+00
 0.10890664443E+01 0.12165451566E+01 0.13822940902E+01 0.15903347947E+01 0.18436651138E+01
 0.21432663986E+01 0.24868550510E+01 0.28675229383E+01 0.32726094864E+01 0.36832793406E+01
 0.40752487732E+01 0.44208774970E+01 0.46924698388E+01 0.48662319081E+01 0.49260542011E+01
 0.48662372363E+01 0.46924847161E+01 0.44209075874E+01 0.40752932384E+01 0.36833238751E+01
 0.32726317012E+01 0.28675085127E+01 0.24868086201E+01 0.21432071247E+01 0.18436138495E+01
 0.15903045517E+01 0.13822867696E+01 0.12165523866E+01 0.10890746802E+01 0.99556334208E+00
 0.93204535383E+00 0.89532354440E+00 0.88332595968E+00 0.95427943937E+00 0.99556385594E+00
 0.10602272432E+01 0.11512498424E+01 0.12720858445E+01 0.14262055619E+01 0.16164915010E+01
 0.18444603181E+01 0.21093160827E+01 0.24069255316E+01 0.27289189109E+01 0.30622058843E+01
 0.33892052757E+01 0.36889980985E+01 0.39394285157E+01 0.41199227998E+01 0.42145325952E+01
 0.42145338215E+01 0.41199281967E+01 0.39394407578E+01 0.36890155067E+01 0.33892187769E+01
 0.30622030652E+01 0.27288929597E+01 0.24068809356E+01 0.21092660790E+01 0.18444195627E+01
 0.16164699884E+01 0.14262053042E+01 0.12720997469E+01 0.11512646626E+01 0.10602315700E+01
 0.99555575695E+00 0.95426703239E+00 0.93419758690E+00 0.93420336067E+00 0.10469020981E+01
 0.10890664443E+01 0.11512498424E+01 0.12362116762E+01 0.13469283324E+01 0.14861308476E+01
 0.16556925956E+01 0.18558777003E+01 0.20845240776E+01 0.23363069150E+01 0.26022763150E+01
 0.28698621110E+01 0.31234900543E+01 0.33458706608E+01 0.35199025056E+01 0.36309610197E+01
 0.36691482975E+01 0.36309603708E+01 0.35199025652E+01 0.33458700673E+01 0.31234834289E+01
 0.28698446066E+01 0.26022485275E+01 0.23362747342E+01 0.20844951223E+01 0.18558588671E+01
 0.16556889439E+01 0.14861431906E+01 0.13469506410E+01 0.12362326800E+01 0.11512596241E+01
 0.10890627154E+01 0.10468909678E+01 0.10225412880E+01 0.10145921862E+01 0.10225502303E+01
 0.11776870345E+01 0.12165451566E+01 0.12720858445E+01 0.13469283324E+01 0.14436646297E+01
 0.15643947732E+01 0.17101405867E+01 0.18801876086E+01 0.20714657137E+01 0.22781130688E+01
 0.24913613522E+01 0.26998398622E+01 0.28903469153E+01 0.30490899730E+01 0.31633203654E+01
 0.32231470667E+01 0.32231461783E+01 0.31633176412E+01 0.30490840009E+01 0.28903346781E+01
 0.26998208380E+01 0.24913407050E+01 0.22780984439E+01 0.20714615830E+01 0.18801944056E+01
 0.17101574449E+01 0.15644195915E+01 0.14436917276E+01 0.13469494352E+01 0.12720951890E+01
 0.12165430994E+01 0.11776788326E+01 0.11532085068E+01 0.11414294613E+01 0.11414326708E+01
 0.11532165084E+01 0.13517920641E+01 0.13822940902E+01 0.14262055619E+01 0.14861308476E+01
 0.15643947732E+01 0.16625989449E+01 0.17811126540E+01 0.19185680140E+01 0.20714656952E+01
 0.22339948733E+01 0.23981400606E+01 0.25541133059E+01 0.26911307940E+01 0.27985309330E+01
 0.28671556812E+01 0.28907698994E+01 0.28671559048E+01 0.27985286345E+01 0.26911229014E+01
 0.25541005837E+01 0.23981288478E+01 0.22339931598E+01 0.20714771596E+01 0.19185906407E+01
 0.17811416727E+01 0.16626285996E+01 0.15644182761E+01 0.14861425782E+01 0.14262051399E+01
 0.13822867343E+01 0.13517840406E+01 0.13321782859E+01 0.13213607193E+01 0.13179213305E+01
 0.13213632726E+01 0.13321837635E+01 0.15744763788E+01 0.15903347947E+01 0.16164915010E+01
 0.16556925956E+01 0.17101405867E+01 0.17811126540E+01 0.18685779721E+01 0.19708753840E+01
 0.20845240571E+01 0.22042189544E+01 0.23230402383E+01 0.24329029680E+01 0.25252789881E+01
 0.25921919448E+01 0.26273813602E+01 0.26273835013E+01 0.25921956522E+01 0.25252792366E+01
 0.24328983361E+01 0.23230350012E+01 0.22042196567E+01 0.20845347211E+01 0.19708956555E+01
 0.18686035780E+01 0.17811360472E+01 0.17101529762E+01 0.16556890057E+01 0.16164753997E+01
 0.15903162824E+01 0.15744644371E+01 0.15659886208E+01 0.15621551986E+01 0.15608272741E+01
 0.15608262714E+01 0.15621540707E+01 0.15659920672E+01 0.18504070422E+01 0.18436651138E+01
 0.18444603181E+01 0.18558777003E+01 0.18801876086E+01 0.19185680140E+01 0.19708753840E+01
 0.20354970102E+01 0.21093161101E+01 0.21878041090E+01 0.22652585738E+01 0.23352312828E+01
 0.23911945934E+01 0.24274286795E+01 0.24399817694E+01 0.24274355720E+01 0.23912025690E+01
 0.23352346617E+01 0.22652562425E+01 0.21877988830E+01 0.21093122646E+01 0.20354985197E+01
 0.19708830445E+01 0.19185763046E+01 0.18801866190E+01 0.18558611695E+01 0.18444322288E+01
 0.18436373708E+01 0.18503905378E+01 0.18611102449E+01 0.18721365814E+01 0.18802483579E+01
 0.18832160061E+01 0.18802421651E+01 0.18721303521E+01 0.18611126866E+01 0.21826961982E+01
 0.21432663986E+01 0.21093160827E+01 0.20845240776E+01 0.20714657137E+01 0.20714656952E+01
 0.20845240571E+01 0.21093161101E+01 0.21432664697E+01 0.21826962692E+01 0.22230717686E+01
 0.22594170761E+01 0.22869340145E+01 0.23017740556E+01 0.23017794957E+01 0.22869463529E+01
 0.22594274070E+01 0.22230719684E+01 0.21826829362E+01 0.21432426555E+01 0.21092906477E+01
 0.20845057798E+01 0.20714553248E+01 0.20714548881E+01 0.20845046367E+01 0.21092892586E+01
 0.21432416038E+01 0.21826826470E+01 0.22230725200E+01 0.22594285807E+01 0.22869478011E+01
 0.23017808600E+01 0.23017750547E+01 0.22869345490E+01 0.22594172492E+01 0.22230717589E+01
 0.25715224981E+01 0.24868550510E+01 0.24069255316E+01 0.23363069150E+01 0.22781130688E+01
 0.22339948733E+01 0.22042189544E+01 0.21878041090E+01 0.21826962692E+01 0.21859755337E+01