unknown system                          
   1.00000000000000     
     0.000000    2.715000    2.715000
     2.715000    0.000000    2.715000
     2.715000    2.715000    0.000000
   Si
     2
Direct
  0.500000  0.500000  0.500000
  0.750000  0.750000  0.750000
 
   24   24   24
 0.87149078014E+00 0.90891732976E+00 0.10262097005E+01 0.12377536971E+01 0.15647856417E+01
 0.20300181408E+01 0.26487058525E+01 0.34160586929E+01 0.42927039494E+01 0.51941446261E+01
 0.59943971023E+01 0.65517020892E+01 0.67520940776E+01 0.65517056691E+01 0.59944005346E+01
 0.51941468120E+01 0.42927088234E+01 0.34160696501E+01 0.26487203651E+01 0.20300298106E+01
 0.15647901846E+01 0.12377516734E+01 0.10262048144E+01 0.90891363484E+00 0.90891732976E+00
 0.96980693253E+00 0.10993556201E+01 0.13115552716E+01 0.16231104945E+01 0.20476053456E+01
 0.25874400616E+01 0.32241701667E+01 0.39096542593E+01 0.45635880639E+01 0.50842899228E+01
 0.53746355477E+01 0.53746318603E+01 0.50843035493E+01 0.45636534852E+01 0.39097541653E+01
 0.32242403325E+01 0.25874357650E+01 0.20475446032E+01 0.16230479566E+01 0.13115282766E+01
 0.10993624265E+01 0.96982442737E+00 0.90892548273E+00 0.10262097005E+01 0.10993556201E+01
 0.12312072948E+01 0.14338566757E+01 0.17186137013E+01 0.20906641595E+01 0.25427944012E+01
 0.30490235614E+01 0.35605901226E+01 0.40087528293E+01 0.43181622245E+01 0.44289520700E+01
 0.43181792965E+01 0.40087787766E+01 0.35606111107E+01 0.30490279372E+01 0.25427804878E+01
 0.20906393746E+01 0.17185876682E+01 0.14338376461E+01 0.12312012793E+01 0.10993620306E+01
 0.10262185214E+01 0.10029051278E+01 0.12377536971E+01 0.13115552716E+01 0.14338566757E+01
 0.16142313016E+01 0.18590673528E+01 0.21673795283E+01 0.25265018443E+01 0.29084559690E+01
 0.32692955461E+01 0.35547299272E+01 0.37133271677E+01 0.37133454678E+01 0.35547543601E+01
 0.32692713239E+01 0.29083710864E+01 0.25264070297E+01 0.21673393224E+01 0.18590988380E+01
 0.16142953772E+01 0.14339023062E+01 0.13115631311E+01 0.12377401575E+01 0.12034949811E+01
 0.12035034213E+01 0.15647856417E+01 0.16231104945E+01 0.17186137013E+01 0.18590673528E+01
 0.20477518702E+01 0.22804590812E+01 0.25428006048E+01 0.28086569561E+01 0.30418262714E+01
 0.32028855320E+01 0.32605594287E+01 0.32028652670E+01 0.30417939573E+01 0.28086235941E+01
 0.25427766449E+01 0.22804536238E+01 0.20477684110E+01 0.18590986546E+01 0.17186453121E+01
 0.16231317217E+01 0.15647955031E+01 0.15345977163E+01 0.15254272646E+01 0.15345946172E+01
 0.20300181408E+01 0.20476053456E+01 0.20906641595E+01 0.21673795283E+01 0.22804590812E+01
 0.24250299584E+01 0.25874371613E+01 0.27457298120E+01 0.28730644341E+01 0.29443697617E+01
 0.29443473750E+01 0.28730212643E+01 0.27457142883E+01 0.25874773753E+01 0.24251102319E+01
 0.22805310474E+01 0.21673967664E+01 0.20906211518E+01 0.20475472945E+01 0.20299980545E+01
 0.20270902436E+01 0.20286735109E+01 0.20286569232E+01 0.20270692896E+01 0.26487058525E+01
 0.25874400616E+01 0.25427944012E+01 0.25265018443E+01 0.25428006048E+01 0.25874371613E+01
 0.26486920684E+01 0.27102675411E+01 0.27555392765E+01 0.27721482852E+01 0.27555414856E+01
 0.27102836115E+01 0.26487199687E+01 0.25874610453E+01 0.25428148428E+01 0.25265100697E+01
 0.25427884107E+01 0.25874083958E+01 0.26486615188E+01 0.27102493425E+01 0.27555363818E+01
 0.27721530329E+01 0.27555441488E+01 0.27102785696E+01 0.34160586929E+01 0.32241701667E+01
 0.30490235614E+01 0.29084559690E+01 0.28086569561E+01 0.27457298120E+01 0.27102675411E+01
 0.26924161298E+01 0.26851550427E+01 0.26851601029E+01 0.26924396452E+01 0.27103016266E+01
 0.27457274459E+01 0.28085919579E+01 0.29083755905E+01 0.30489945210E+01 0.32241953881E+01
 0.34160884498E+01 0.35979345000E+01 0.37403295611E+01 0.38185354516E+01 0.38185412485E+01
 0.37403402164E+01 0.35979304866E+01 0.42927039494E+01 0.39096542593E+01 0.35605901226E+01
 0.32692955461E+01 0.30418262714E+01 0.28730644341E+01 0.27555392765E+01 0.26851550427E+01
 0.26615324674E+01 0.26851331579E+01 0.27555257040E+01 0.28730609594E+01 0.30418057604E+01
 0.32692603869E+01 0.35605734347E+01 0.39096620595E+01 0.42927123728E+01 0.46686281782E+01
 0.49870421443E+01 0.52004440925E+01 0.52755225996E+01 0.52004100528E+01 0.49870138171E+01
 0.46686197508E+01 0.51941446261E+01 0.45635880639E+01 0.40087528293E+01 0.35547299272E+01
 0.32028855320E+01 0.29443697617E+01 0.27721482852E+01 0.26851601029E+01 0.26851331579E+01
 0.27721000495E+01 0.29443487976E+01 0.32028964967E+01 0.35547571865E+01 0.40087964127E+01
 0.45636359417E+01 0.51941570571E+01 0.58456598189E+01 0.64406575802E+01 0.68959845516E+01
 0.71428757736E+01 0.71428673279E+01 0.68959854233E+01 0.64406926049E+01 0.58456940109E+01
 0.59943971023E+01 0.50842899228E+01 0.43181622245E+01 0.37133271677E+01 0.32605594287E+01
 0.29443473750E+01 0.27555414856E+01 0.26924396452E+01 0.27555257040E+01 0.29443487976E+01
 0.32605849353E+01 0.37133498846E+01 0.43181731345E+01 0.50843050010E+01 0.59944114241E+01
 0.69885369352E+01 0.79636179217E+01 0.87913602446E+01 0.93478694891E+01 0.95441313092E+01
 0.93478772430E+01 0.87913897459E+01 0.79636556941E+01 0.69885497580E+01 0.65517020892E+01
 0.53746355477E+01 0.44289520700E+01 0.37133454678E+01 0.32028652670E+01 0.28730212643E+01
 0.27102836115E+01 0.27103016266E+01 0.28730609594E+01 0.32028964967E+01 0.37133498846E+01
 0.44289357139E+01 0.53746092021E+01 0.65516609305E+01 0.79105259360E+01 0.93365417007E+01
 0.10659445849E+02 0.11686426462E+02 0.12249063989E+02 0.12249029380E+02 0.11686364470E+02
 0.10659427128E+02 0.93365811997E+01 0.79105828094E+01 0.67520940776E+01 0.53746318603E+01
 0.43181792965E+01 0.35547543601E+01 0.30417939573E+01 0.27457142883E+01 0.26487199687E+01
 0.27457274459E+01 0.30418057604E+01 0.35547571865E+01 0.43181731345E+01 0.53746092021E+01
 0.67520508038E+01 0.84288272569E+01 0.10303155469E+02 0.12184620249E+02 0.13817420045E+02
 0.14934776323E+02 0.15331824406E+02 0.14934767782E+02 0.13817398235E+02 0.12184600959E+02
 0.10303166611E+02 0.84288695182E+01 0.65517056691E+01 0.50843035493E+01 0.40087787766E+01
 0.32692713239E+01 0.28086235941E+01 0.25874773753E+01 0.25874610453E+01 0.28085919579E+01
 0.32692603869E+01 0.40087964127E+01 0.50843050010E+01 0.65516609305E+01 0.84288272569E+01
 0.10652759283E+02 0.13048704011E+02 0.15329838488E+02 0.17123717723E+02 0.18099048054E+02
 0.18099120952E+02 0.17123828312E+02 0.15329827518E+02 0.13048592077E+02 0.10652692003E+02
 0.84288561728E+01 0.59944005346E+01 0.45636534852E+01 0.35606111107E+01 0.29083710864E+01
 0.25427766449E+01 0.24251102319E+01 0.25428148428E+01 0.29083755905E+01 0.35605734347E+01
 0.45636359417E+01 0.59944114241E+01 0.79105259360E+01 0.10303155469E+02 0.13048704011E+02
 0.15878247258E+02 0.18346331096E+02 0.19994350830E+02 0.20568269802E+02 0.19994367134E+02
 0.18346295102E+02 0.15878164879E+02 0.13048659984E+02 0.10303169003E+02 0.79105343977E+01
 0.51941468120E+01 0.39097541653E+01 0.30490279372E+01 0.25264070297E+01 0.22804536238E+01
 0.22805310474E+01 0.25265100697E+01 0.30489945210E+01 0.39096620595E+01 0.51941570571E+01
 0.69885369352E+01 0.93365417007E+01 0.12184620249E+02 0.15329838488E+02 0.18346331096E+02
 0.20664767119E+02 0.21904675685E+02 0.21904613348E+02 0.20664625500E+02 0.18346232243E+02
 0.15329878740E+02 0.12184732256E+02 0.93365661774E+01 0.69884659098E+01 0.42927088234E+01
 0.32242403325E+01 0.25427804878E+01 0.21673393224E+01 0.20477684110E+01 0.21673967664E+01
 0.25427884107E+01 0.32241953881E+01 0.42927123728E+01 0.58456598189E+01 0.79636179217E+01
 0.10659445849E+02 0.13817420045E+02 0.17123717723E+02 0.19994350830E+02 0.21904675685E+02
 0.22569373346E+02 0.21904731042E+02 0.19994356128E+02 0.17123672957E+02 0.13817430242E+02
 0.10659509432E+02 0.79636264314E+01 0.58456100749E+01 0.34160696501E+01 0.25874357650E+01
 0.20906393746E+01 0.18590988380E+01 0.18590986546E+01 0.20906211518E+01 0.25874083958E+01
 0.34160884498E+01 0.46686281782E+01 0.64406575802E+01 0.87913602446E+01 0.11686426462E+02
 0.14934776323E+02 0.18099048054E+02 0.20568269802E+02 0.21904613348E+02 0.21904731042E+02
 0.20568442712E+02 0.18099028935E+02 0.14934627596E+02 0.11686367484E+02 0.87914092319E+01
 0.64406724950E+01 0.46685813910E+01 0.26487203651E+01 0.20475446032E+01 0.17185876682E+01
 0.16142953772E+01 0.17186453121E+01 0.20475472945E+01 0.26486615188E+01 0.35979345000E+01
 0.49870421443E+01 0.68959845516E+01 0.93478694891E+01 0.12249063989E+02 0.15331824406E+02
 0.18099120952E+02 0.19994367134E+02 0.20664625500E+02 0.19994356128E+02 0.18099028935E+02
 0.15331692254E+02 0.12249016789E+02 0.93479050714E+01 0.68959875622E+01 0.49870028003E+01
 0.35979483365E+01 0.20300298106E+01 0.16230479566E+01 0.14338376461E+01 0.14339023062E+01
 0.16231317217E+01 0.20299980545E+01 0.27102493425E+01 0.37403295611E+01 0.52004440925E+01
 0.71428757736E+01 0.95441313092E+01 0.12249029380E+02 0.14934767782E+02 0.17123828312E+02
 0.18346295102E+02 0.18346232243E+02 0.17123672957E+02 0.14934627596E+02 0.12249016789E+02
 0.95442161072E+01 0.71429121428E+01 0.52003956931E+01 0.37403200144E+01 0.27103257264E+01
 0.15647901846E+01 0.13115282766E+01 0.12312012793E+01 0.13115631311E+01 0.15647955031E+01
 0.20270902436E+01 0.27555363818E+01 0.38185354516E+01 0.52755225996E+01 0.71428673279E+01
 0.93478772430E+01 0.11686364470E+02 0.13817398235E+02 0.15329827518E+02 0.15878164879E+02
 0.15329878740E+02 0.13817430242E+02 0.11686367484E+02 0.93479050714E+01 0.71429121428E+01
 0.52755190590E+01 0.38184902781E+01 0.27555229732E+01 0.20271132533E+01 0.12377516734E+01
 0.10993624265E+01 0.10993620306E+01 0.12377401575E+01 0.15345977163E+01 0.20286735109E+01
 0.27721530329E+01 0.38185412485E+01 0.52004100528E+01 0.68959854233E+01 0.87913897459E+01
 0.10659427128E+02 0.12184600959E+02 0.13048592077E+02 0.13048659984E+02 0.12184732256E+02
 0.10659509432E+02 0.87914092319E+01 0.68959875622E+01 0.52003956931E+01 0.38184902781E+01
 0.27720971922E+01 0.20286599166E+01 0.15346160393E+01 0.10262048144E+01 0.96982442737E+00
 0.10262185214E+01 0.12034949811E+01 0.15254272646E+01 0.20286569232E+01 0.27555441488E+01
 0.37403402164E+01 0.49870138171E+01 0.64406926049E+01 0.79636556941E+01 0.93365811997E+01
 0.10303166611E+02 0.10652692003E+02 0.10303169003E+02 0.93365661774E+01 0.79636264314E+01
 0.64406724950E+01 0.49870028003E+01 0.37403200144E+01 0.27555229732E+01 0.20286599166E+01
 0.15254460026E+01 0.12034971219E+01 0.90891363484E+00 0.90892548273E+00 0.10029051278E+01
 0.12035034213E+01 0.15345946172E+01 0.20270692896E+01 0.27102785696E+01 0.35979304866E+01
 0.46686197508E+01 0.58456940109E+01 0.69885497580E+01 0.79105828094E+01 0.84288695182E+01
 0.84288561728E+01 0.79105343977E+01 0.69884659098E+01 0.58456100749E+01 0.46685813910E+01
 0.35979483365E+01 0.27103257264E+01 0.20271132533E+01 0.15346160393E+01 0.12034971219E+01
 0.10028834208E+01 0.90891182989E+00 0.96980438912E+00 0.10993568121E+01 0.13115555320E+01
 0.16231085616E+01 0.20476057289E+01 0.25874453609E+01 0.32241786142E+01 0.39096656834E+01
 0.45636033899E+01 0.50843027049E+01 0.53746328787E+01 0.53746075287E+01 0.50842645111E+01
 0.45636124095E+01 0.39097225637E+01 0.32242285180E+01 0.25874489202E+01 0.20475750546E+01
 0.16230789241E+01 0.13115486506E+01 0.10993725226E+01 0.96982755924E+00 0.90892269892E+00
 0.96980438912E+00 0.10381078036E+01 0.11623596163E+01 0.13552046060E+01 0.16284251528E+01
 0.19874330685E+01 0.24250301026E+01 0.29153810862E+01 0.34105586656E+01 0.38437506129E+01
 0.41423945085E+01 0.42492274501E+01 0.41424063308E+01 0.38438136970E+01 0.34106725310E+01
 0.29154749255E+01 0.24250361963E+01 0.19873634916E+01 0.16283512625E+01 0.13551772674E+01
 0.11623726849E+01 0.10381292278E+01 0.96981574547E+00 0.94816394932E+00 0.10993568121E+01
 0.11623596163E+01 0.12698712825E+01 0.14325734975E+01 0.16576441211E+01 0.19444366767E+01
 0.22804539061E+01 0.26384074664E+01 0.29762862007E+01 0.32430887633E+01 0.33911042564E+01
 0.33911196819E+01 0.32431322952E+01 0.29763429059E+01 0.26384473591E+01 0.22804518465E+01
 0.19443962439E+01 0.16575941208E+01 0.14325410560E+01 0.12698632263E+01 0.11623665961E+01
 0.10993664090E+01 0.10708467494E+01 0.10708426680E+01 0.13115555320E+01 0.13552046060E+01
 0.14325734975E+01 0.15526480734E+01 0.17193891255E+01 0.19289209816E+01 0.21673797229E+01
 0.24100046889E+01 0.26230689285E+01 0.27702749413E+01 0.28230026923E+01 0.27702975701E+01
 0.26230807803E+01 0.24099741189E+01 0.21673120149E+01 0.19288571817E+01 0.17193688463E+01
 0.15526744724E+01 0.14326152318E+01 0.13552286006E+01 0.13115544402E+01 0.12910448041E+01
 0.12852835890E+01 0.12910543623E+01 0.16231085616E+01 0.16284251528E+01 0.16576441211E+01
 0.17193891255E+01 0.18164796107E+01 0.19444397883E+01 0.20906683037E+01 0.22348142553E+01
 0.23516993441E+01 0.24174914477E+01 0.24174912449E+01 0.23516964515E+01 0.22348006449E+01
 0.20906355245E+01 0.19443948999E+01 0.18164502704E+01 0.17194010639E+01 0.16576931627E+01
 0.16284793834E+01 0.16231394570E+01 0.16297345598E+01 0.16366431208E+01 0.16366445490E+01
 0.16297285305E+01 0.20476057289E+01 0.19874330685E+01 0.19444366767E+01 0.19289209816E+01
 0.19444397883E+01 0.19874330533E+01 0.20476025631E+01 0.21094643703E+01 0.21558397911E+01
 0.21730468013E+01 0.21558416205E+01 0.21094719171E+01 0.20476142491E+01 0.19874434832E+01
 0.19444500352E+01 0.19289358995E+01 0.19444532909E+01 0.19874437464E+01 0.20476114772E+01
 0.21094722823E+01 0.21558450732E+01 0.21730470798E+01 0.21558368764E+01 0.21094644874E+01
 0.25874453609E+01 0.24250301026E+01 0.22804539061E+01 0.21673797229E+01 0.20906683037E+01
 0.20476025631E+01 0.20300093468E+01 0.20270663644E+01 0.20286629562E+01 0.20286833943E+01
 0.20271074684E+01 0.20300291591E+01 0.20475810400E+01 0.20906345504E+01 0.21673822476E+01
 0.22804999369E+01 0.24250726464E+01 0.25874385804E+01 0.27456870564E+01 0.28730187324E+01
 0.29443632025E+01 0.29443848751E+01 0.28730725648E+01 0.27457381182E+01 0.32241786142E+01
 0.29153810862E+01 0.26384074664E+01 0.24100046889E+01 0.22348142553E+01 0.21094643703E+01
 0.20270663644E+01 0.19807796598E+01 0.19659160362E+01 0.19808192706E+01 0.20270882588E+01
 0.21094151853E+01 0.22347115155E+01 0.24099328173E+01 0.26384316111E+01 0.29154722676E+01
 0.32242430412E+01 0.35341995343E+01 0.38038006755E+01 0.39888481850E+01 0.40549149210E+01
 0.39889175155E+01 0.38038836087E+01 0.35342217876E+01 0.39096656834E+01 0.34105586656E+01
 0.29762862007E+01 0.26230689285E+01 0.23516993441E+01 0.21558397911E+01 0.20286629562E+01
 0.19659160362E+01 0.19659160466E+01 0.20286395818E+01 0.21557626127E+01 0.23515946264E+01
 0.26230133190E+01 0.29763259814E+01 0.34106537587E+01 0.39097323609E+01 0.44356544271E+01
 0.49286355621E+01 0.53160015453E+01 0.55302268906E+01 0.55302378557E+01 0.53160352085E+01
 0.49286756258E+01 0.44356557422E+01 0.45636033899E+01 0.38437506129E+01 0.32430887633E+01
 0.27702749413E+01 0.24174914477E+01 0.21730468013E+01 0.20286833943E+01 0.19808192706E+01
 0.20286395818E+01 0.21729391197E+01 0.24173665737E+01 0.27702471098E+01 0.32432086424E+01
 0.38439218735E+01 0.45636811986E+01 0.53641611812E+01 0.61699514989E+01 0.68738353458E+01
 0.73587355966E+01 0.75321363388E+01 0.73587250939E+01 0.68738688645E+01 0.61700375138E+01
 0.53642112355E+01 0.50843027049E+01 0.41423945085E+01 0.33911042564E+01 0.28230026923E+01
 0.24174912449E+01 0.21558416205E+01 0.20271074684E+01 0.20270882588E+01 0.21557626127E+01
 0.24173665737E+01 0.28229514716E+01 0.33912258470E+01 0.41426102289E+01 0.50844229782E+01
 0.61901867327E+01 0.73808196308E+01 0.85188923785E+01 0.94271892789E+01 0.99345656172E+01
 0.99345613003E+01 0.94272114724E+01 0.85189931794E+01 0.73809659551E+01 0.61902462752E+01
 0.53746328787E+01 0.42492274501E+01 0.33911196819E+01 0.27702975701E+01 0.23516964515E+01
 0.21094719171E+01 0.20300291591E+01 0.21094151853E+01 0.23515946264E+01 0.27702471098E+01
 0.33912258470E+01 0.42494302426E+01 0.53747382995E+01 0.67664122352E+01 0.83618950857E+01
 0.10013069444E+02 0.11489247832E+02 0.12523365231E+02 0.12896457657E+02 0.12523368343E+02
 0.11489284764E+02 0.10013185757E+02 0.83620645302E+01 0.67664963265E+01 0.53746075287E+01
 0.41424063308E+01 0.32431322952E+01 0.26230807803E+01 0.22348006449E+01 0.20476142491E+01
 0.20475810400E+01 0.22347115155E+01 0.26230133190E+01 0.32432086424E+01 0.41426102289E+01
 0.53747382995E+01 0.69737770917E+01 0.89149351999E+01 0.11070998066E+02 0.13188317354E+02
 0.14914026546E+02 0.15890951166E+02 0.15890957365E+02 0.14914026818E+02 0.13188329358E+02
 0.11071102597E+02 0.89151151149E+01 0.69738556467E+01 0.50842645111E+01 0.38438136970E+01
 0.29763429059E+01 0.24099741189E+01 0.20906355245E+01 0.19874434832E+01 0.20906345504E+01
 0.24099328173E+01 0.29763259814E+01 0.38439218735E+01 0.50844229782E+01 0.67664122352E+01
 0.89149351999E+01 0.11454696469E+02 0.14156370996E+02 0.16626678362E+02 0.18384909828E+02
 0.19024474894E+02 0.18384921848E+02 0.16626651329E+02 0.14156354095E+02 0.11454781087E+02
 0.89150489085E+01 0.67663856496E+01 0.45636124095E+01 0.34106725310E+01 0.26384473591E+01
 0.21673120149E+01 0.19443948999E+01 0.19444500352E+01 0.21673822476E+01 0.26384316111E+01
 0.34106537587E+01 0.45636811986E+01 0.61901867327E+01 0.83618950857E+01 0.11070998066E+02
 0.14156370996E+02 0.17251639509E+02 0.19815249694E+02 0.21277328701E+02 0.21277342055E+02
 0.19815231928E+02 0.17251556324E+02 0.14156327258E+02 0.11071054588E+02 0.83619355863E+01
 0.61901223220E+01 0.39097225637E+01 0.29154749255E+01 0.22804518465E+01 0.19288571817E+01
 0.18164502704E+01 0.19289358995E+01 0.22804999369E+01 0.29154722676E+01 0.39097323609E+01
 0.53641611812E+01 0.73808196308E+01 0.10013069444E+02 0.13188317354E+02 0.16626678362E+02
 0.19815249694E+02 0.22097846359E+02 0.22926687727E+02 0.22097931018E+02 0.19815228636E+02
 0.16626528141E+02 0.13188235352E+02 0.10013139616E+02 0.73809045090E+01 0.53641672141E+01
 0.32242285180E+01 0.24250361963E+01 0.19443962439E+01 0.17193688463E+01 0.17194010639E+01
 0.19444532909E+01 0.24250726464E+01 0.32242430412E+01 0.44356544271E+01 0.61699514989E+01
 0.85188923785E+01 0.11489247832E+02 0.14914026546E+02 0.18384909828E+02 0.21277328701E+02
 0.22926687727E+02 0.22926827815E+02 0.21277520543E+02 0.18384838303E+02 0.14913780237E+02
 0.11489147201E+02 0.85190097473E+01 0.61700932734E+01 0.44356983281E+01 0.25874489202E+01
 0.19873634916E+01 0.16575941208E+01 0.15526744724E+01 0.16576931627E+01 0.19874437464E+01
 0.25874385804E+01 0.35341995343E+01 0.49286355621E+01 0.68738353458E+01 0.94271892789E+01
 0.12523365231E+02 0.15890951166E+02 0.19024474894E+02 0.21277342055E+02 0.22097931018E+02
 0.21277520543E+02 0.19024519694E+02 0.15890730097E+02 0.12523112033E+02 0.94271426845E+01
 0.68739599224E+01 0.49287771935E+01 0.35342870379E+01 0.20475750546E+01 0.16283512625E+01
 0.14325410560E+01 0.14326152318E+01 0.16284793834E+01 0.20476114772E+01 0.27456870564E+01
 0.38038006755E+01 0.53160015453E+01 0.73587355966E+01 0.99345656172E+01 0.12896457657E+02
 0.15890957365E+02 0.18384921848E+02 0.19815231928E+02 0.19815228636E+02 0.18384838303E+02
 0.15890730097E+02 0.12896210940E+02 0.99344753337E+01 0.73588132520E+01 0.53161396920E+01
 0.38039285667E+01 0.27457625610E+01 0.16230789241E+01 0.13551772674E+01 0.12698632263E+01
 0.13552286006E+01 0.16231394570E+01 0.21094722823E+01 0.28730187324E+01 0.39888481850E+01
 0.55302268906E+01 0.75321363388E+01 0.99345613003E+01 0.12523368343E+02 0.14914026818E+02
 0.16626651329E+02 0.17251556324E+02 0.16626528141E+02 0.14913780237E+02 0.12523112033E+02
 0.99344753337E+01 0.75322607929E+01 0.55304155853E+01 0.39889556317E+01 0.28730299518E+01
 0.21094338357E+01 0.13115486506E+01 0.11623726849E+01 0.11623665961E+01 0.13115544402E+01
 0.16297345598E+01 0.21558450732E+01 0.29443632025E+01 0.40549149210E+01 0.55302378557E+01
 0.73587250939E+01 0.94272114724E+01 0.11489284764E+02 0.13188329358E+02 0.14156354095E+02
 0.14156327258E+02 0.13188235352E+02 0.11489147201E+02 0.94271426845E+01 0.73588132520E+01
 0.55304155853E+01 0.40550246428E+01 0.29443377107E+01 0.21557565405E+01 0.16296781852E+01
 0.10993725226E+01 0.10381292278E+01 0.10993664090E+01 0.12910448041E+01 0.16366431208E+01
 0.21730470798E+01 0.29443848751E+01 0.39889175155E+01 0.53160352085E+01 0.68738688645E+01
 0.85189931794E+01 0.10013185757E+02 0.11071102597E+02 0.11454781087E+02 0.11071054588E+02
 0.10013139616E+02 0.85190097473E+01 0.68739599224E+01 0.53161396920E+01 0.39889556317E+01
 0.29443377107E+01 0.21729673083E+01 0.16365907687E+01 0.12910336035E+01 0.96982755924E+00
 0.96981574547E+00 0.10708467494E+01 0.12852835890E+01 0.16366445490E+01 0.21558368764E+01
 0.28730725648E+01 0.38038836087E+01 0.49286756258E+01 0.61700375138E+01 0.73809659551E+01
 0.83620645302E+01 0.89151151149E+01 0.89150489085E+01 0.83619355863E+01 0.73809045090E+01
 0.61700932734E+01 0.49287771935E+01 0.38039285667E+01 0.28730299518E+01 0.21557565405E+01
 0.16365907687E+01 0.12852781942E+01 0.10708670842E+01 0.90892269892E+00 0.94816394932E+00
 0.10708426680E+01 0.12910543623E+01 0.16297285305E+01 0.21094644874E+01 0.27457381182E+01
 0.35342217876E+01 0.44356557422E+01 0.53642112355E+01 0.61902462752E+01 0.67664963265E+01
 0.69738556467E+01 0.67663856496E+01 0.61901223220E+01 0.53641672141E+01 0.44356983281E+01
 0.35342870379E+01 0.27457625610E+01 0.21094338357E+01 0.16296781852E+01 0.12910336035E+01
 0.10708670842E+01 0.94819867100E+00 0.10261999670E+01 0.10993527052E+01 0.12312096491E+01
 0.14338568926E+01 0.17186115717E+01 0.20906671224E+01 0.25428044745E+01 0.30490349844E+01
 0.35605992386E+01 0.40087577417E+01 0.43181533899E+01 0.44289180195E+01 0.43181247573E+01
 0.40087258377E+01 0.35605804383E+01 0.30490276735E+01 0.25428104565E+01 0.20906915291E+01
 0.17186418676E+01 0.14338718246E+01 0.12312102291E+01 0.10993571650E+01 0.10262097694E+01
 0.10028943132E+01 0.10993527052E+01 0.11623594079E+01 0.12698725939E+01 0.14325735757E+01
 0.16576440495E+01 0.19444393943E+01 0.22804588074E+01 0.26384105609E+01 0.29762840346E+01
 0.32430785083E+01 0.33910827647E+01 0.33910883657E+01 0.32431021027E+01 0.29763289580E+01
 0.26384576168E+01 0.22804829470E+01 0.19444377533E+01 0.16576328463E+01 0.14325645349E+01
 0.12698662023E+01 0.11623550265E+01 0.10993514045E+01 0.10708348891E+01 0.10708347077E+01
 0.12312096491E+01 0.12698725939E+01 0.13410797279E+01 0.14543660648E+01 0.16140758117E+01
 0.18164776546E+01 0.20477477993E+01 0.22833607422E+01 0.24902469921E+01 0.26331058169E+01
 0.26842505920E+01 0.26331227145E+01 0.24902771124E+01 0.22833935803E+01 0.20477693255E+01
 0.18164797969E+01 0.16140606085E+01 0.14543410938E+01 0.13410532032E+01 0.12698518571E+01
 0.12311986540E+01 0.12139679374E+01 0.12093415941E+01 0.12139712173E+01 0.14338568926E+01
 0.14325735757E+01 0.14543660648E+01 0.15085484105E+01 0.15983498356E+01 0.17193890844E+01
 0.18590674244E+01 0.19972851380E+01 0.21095025985E+01 0.21726895097E+01 0.21726927570E+01
 0.21095027636E+01 0.19972669334E+01 0.18590325317E+01 0.17193579930E+01 0.15983397142E+01
 0.15085552088E+01 0.14543727799E+01 0.14325714229E+01 0.14338511999E+01 0.14454633753E+01
 0.14550802117E+01 0.14550802728E+01 0.14454658598E+01 0.17186115717E+01 0.16576440495E+01
 0.16140758117E+01 0.15983498356E+01 0.16140775782E+01 0.16576470271E+01 0.17186175476E+01
 0.17813106505E+01 0.18283228929E+01 0.18457659588E+01 0.18283077018E+01 0.17812859922E+01
 0.17185897164E+01 0.16576216229E+01 0.16140623553E+01 0.15983524998E+01 0.16140966110E+01
 0.16576740667E+01 0.17186399583E+01 0.17813199521E+01 0.18283204294E+01 0.18457609284E+01
 0.18283098505E+01 0.17812994414E+01 0.20906671224E+01 0.19444393943E+01 0.18164776546E+01
 0.17193890844E+01 0.16576470271E+01 0.16284276848E+01 0.16231101435E+01 0.16297314302E+01
 0.16366453093E+01 0.16366327066E+01 0.16297098937E+01 0.16231082244E+01 0.16284525103E+01
 0.16576795116E+01 0.17194085920E+01 0.18164818085E+01 0.19444399248E+01 0.20906745467E+01
 0.22348211982E+01 0.23516995112E+01 0.24174827459E+01 0.24174762841E+01 0.23516841653E+01
 0.22348061002E+01 0.25428044745E+01 0.22804588074E+01 0.20477477993E+01 0.18590674244E+01
 0.17186175476E+01 0.16231101435E+01 0.15647814322E+01 0.15345945111E+01 0.15254309413E+01
 0.15345972631E+01 0.15647913137E+01 0.16231317916E+01 0.17186493216E+01 0.18590986555E+01
 0.20477647311E+01 0.22804541759E+01 0.25427810286E+01 0.28086238006E+01 0.30417902876E+01
 0.32028656461E+01 0.32605635029E+01 0.32028853616E+01 0.30418222308E+01 0.28086570306E+01
 0.30490349844E+01 0.26384105609E+01 0.22833607422E+01 0.19972851380E+01 0.17813106505E+01
 0.16297314302E+01 0.15345945111E+01 0.14889847011E+01 0.14889955532E+01 0.15346158043E+01
 0.16297444018E+01 0.17813093644E+01 0.19972741306E+01 0.22833455075E+01 0.26383986101E+01
 0.30490313747E+01 0.34846361823E+01 0.38960395671E+01 0.42216626214E+01 0.44027047096E+01
 0.44027266308E+01 0.42217060449E+01 0.38960678958E+01 0.34846427113E+01 0.35605992386E+01
 0.29762840346E+01 0.24902469921E+01 0.21095025985E+01 0.18283228929E+01 0.16366453093E+01
 0.15254309413E+01 0.14889955532E+01 0.15254467589E+01 0.16366496642E+01 0.18283077199E+01
 0.21094836304E+01 0.24902260221E+01 0.29762525691E+01 0.35605759916E+01 0.42135360138E+01
 0.48753325593E+01 0.54578755923E+01 0.58618227847E+01 0.60068269024E+01 0.58618152408E+01
 0.54578425587E+01 0.48752875905E+01 0.42135203063E+01 0.40087577417E+01 0.32430785083E+01
 0.26331058169E+01 0.21726895097E+01 0.18457659588E+01 0.16366327066E+01 0.15345972631E+01
 0.15346158043E+01 0.16366496642E+01 0.18457400720E+01 0.21726571416E+01 0.26331134506E+01
 0.32430991349E+01 0.40087497485E+01 0.49110143105E+01 0.58890221969E+01 0.68316214312E+01
 0.75897717067E+01 0.80155747123E+01 0.80155588583E+01 0.75897185971E+01 0.68315480115E+01
 0.58889811909E+01 0.49110223896E+01 0.43181533899E+01 0.33910827647E+01 0.26842505920E+01
 0.21726927570E+01 0.18283077018E+01 0.16297098937E+01 0.15647913137E+01 0.16297444018E+01
 0.18283077199E+01 0.21726571416E+01 0.26842496554E+01 0.33911240101E+01 0.43181750254E+01
 0.54682752929E+01 0.67957832316E+01 0.81820813578E+01 0.94326489794E+01 0.10314872003E+02
 0.10634389492E+02 0.10314910515E+02 0.94326494157E+01 0.81820339332E+01 0.67957550990E+01
 0.54682775447E+01 0.44289180195E+01 0.33910883657E+01 0.26331227145E+01 0.21095027636E+01
 0.17812859922E+01 0.16231082244E+01 0.16231317916E+01 0.17813093644E+01 0.21094836304E+01
 0.26331134506E+01 0.33911240101E+01 0.44289353661E+01 0.57797337856E+01 0.74312469167E+01
 0.92837789437E+01 0.11121652290E+02 0.12632271608E+02 0.13492098785E+02 0.13492162774E+02
 0.12632365056E+02 0.11121650001E+02 0.92837290419E+01 0.74312526040E+01 0.57797662511E+01
 0.43181247573E+01 0.32431021027E+01 0.24902771124E+01 0.19972669334E+01 0.17185897164E+01
 0.16284525103E+01 0.17186493216E+01 0.19972741306E+01 0.24902260221E+01 0.32430991349E+01
 0.43181750254E+01 0.57797337856E+01 0.76605100517E+01 0.99076715167E+01 0.12325538214E+02
 0.14558169417E+02 0.16158248645E+02 0.16742341681E+02 0.16158296172E+02 0.14558167063E+02
 0.12325490124E+02 0.99076781361E+01 0.76605657246E+01 0.57797344748E+01 0.40087258377E+01
 0.29763289580E+01 0.22833935803E+01 0.18590325317E+01 0.16576216229E+01 0.16576795116E+01
 0.18590986555E+01 0.22833455075E+01 0.29762525691E+01 0.40087497485E+01 0.54682752929E+01
 0.74312469167E+01 0.99076715167E+01 0.12763684853E+02 0.15661291392E+02 0.18081639617E+02
 0.19472508449E+02 0.19472507757E+02 0.18081601058E+02 0.15661206511E+02 0.12763642493E+02
 0.99077035794E+01 0.74312513488E+01 0.54682083240E+01 0.35605804383E+01 0.26384576168E+01
 0.20477693255E+01 0.17193579930E+01 0.16140623553E+01 0.17194085920E+01 0.20477647311E+01
 0.26383986101E+01 0.35605759916E+01 0.49110143105E+01 0.67957832316E+01 0.92837789437E+01
 0.12325538214E+02 0.15661291392E+02 0.18785911874E+02 0.21046405509E+02 0.21875372854E+02
 0.21046417540E+02 0.18785851408E+02 0.15661181832E+02 0.12325496046E+02 0.92838045526E+01
 0.67957692650E+01 0.49109588430E+01 0.30490276735E+01 0.22804829470E+01 0.18164797969E+01
 0.15983397142E+01 0.15983524998E+01 0.18164818085E+01 0.22804541759E+01 0.30490313747E+01
 0.42135360138E+01 0.58890221969E+01 0.81820813578E+01 0.11121652290E+02 0.14558169417E+02
 0.18081639617E+02 0.21046405509E+02 0.22757418365E+02 0.22757456060E+02 0.21046439768E+02
 0.18081587408E+02 0.14558107483E+02 0.11121676277E+02 0.81821307484E+01 0.58889983590E+01
 0.42134782364E+01 0.25428104565E+01 0.19444377533E+01 0.16140606085E+01 0.15085552088E+01
 0.16140966110E+01 0.19444399248E+01 0.25427810286E+01 0.34846361823E+01 0.48753325593E+01
 0.68316214312E+01 0.94326489794E+01 0.12632271608E+02 0.16158248645E+02 0.19472508449E+02
 0.21875372854E+02 0.22757456060E+02 0.21875429796E+02 0.19472549547E+02 0.16158260070E+02
 0.12632301609E+02 0.94326855677E+01 0.68316026896E+01 0.48752762092E+01 0.34846229208E+01
 0.20906915291E+01 0.16576328463E+01 0.14543410938E+01 0.14543727799E+01 0.16576740667E+01
 0.20906745467E+01 0.28086238006E+01 0.38960395671E+01 0.54578755923E+01 0.75897717067E+01
 0.10314872003E+02 0.13492098785E+02 0.16742341681E+02 0.19472507757E+02 0.21046417540E+02
 0.21046439768E+02 0.19472549547E+02 0.16742369935E+02 0.13492113130E+02 0.10314871214E+02
 0.75897374902E+01 0.54578265503E+01 0.38960339439E+01 0.28086659618E+01 0.17186418676E+01
 0.14325645349E+01 0.13410532032E+01 0.14325714229E+01 0.17186399583E+01 0.22348211982E+01
 0.30417902876E+01 0.42216626214E+01 0.58618227847E+01 0.80155747123E+01 0.10634389492E+02
 0.13492162774E+02 0.16158296172E+02 0.18081601058E+02 0.18785851408E+02 0.18081587408E+02
 0.16158260070E+02 0.13492113130E+02 0.10634351601E+02 0.80155593244E+01 0.58618199536E+01
 0.42216660061E+01 0.30418024185E+01 0.22348350255E+01 0.14338718246E+01 0.12698662023E+01
 0.12698518571E+01 0.14338511999E+01 0.17813199521E+01 0.23516995112E+01 0.32028656461E+01
 0.44027047096E+01 0.60068269024E+01 0.80155588583E+01 0.10314910515E+02 0.12632365056E+02
 0.14558167063E+02 0.15661206511E+02 0.15661181832E+02 0.14558107483E+02 0.12632301609E+02
 0.10314871214E+02 0.80155593244E+01 0.60068615820E+01 0.44027422211E+01 0.32028739299E+01