unknown system                          
   1.00000000000000     
    -2.620155    2.620155    1.495165
     2.620155   -2.620155    1.495165
     2.620155    2.620155   -1.495165
   Si
     2
Direct
  0.000000  0.000000  0.000000
  0.250000  0.750000  0.500000
 
   36   36   36
 -6.5465     -5.1431     -1.3492      3.7538      8.8275      12.724      14.793      14.984      13.748      11.816    
  9.8298      8.0295      6.5191      5.3297      4.4414      3.8112      3.3944      3.1571      3.0800      3.1571    
  3.3944      3.8113      4.4414      5.3297      6.5191      8.0296      9.8298      11.816      13.748      14.984    
  14.793      12.724      8.8275      3.7538     -1.3492     -5.1432     -5.1432     -5.7619     -3.6770     0.48958    
  5.5627      10.246      13.536      14.965      14.643      13.121      11.140      9.2088      7.5009      6.0966    
  5.0090      4.2091      3.6517      3.2949      3.1094      3.0802      3.2047      3.4928      3.9676      4.6665    
  5.6354      6.9134      8.5093      10.374      12.385      14.217      15.163      14.547      12.037      7.8435    
  2.7584     -2.0000     -1.3492     -3.6771     -3.5405     -.99225      3.2016      7.8624      11.821      14.270    
  14.944      14.100      12.350      10.381      8.5361      6.9448      5.6624      4.6853      3.9774      3.4940    
  3.1973      3.0630      3.0805      3.2509      3.5870      4.1154      4.8761      5.9140      7.2629      8.9202    
  10.821      12.824      14.533      15.237      14.342      11.646      7.4918      2.7584      3.7538     0.48957    
 -.99226     -.24963      2.4716      6.3398      10.260      13.253      14.740      14.646      13.347      11.472    
  9.5675      7.8383      6.3831      5.2327      4.3695      3.7535      3.3425      3.1040      3.0190      3.0810    
  3.2939      3.6736      4.2493      5.0617      6.1538      7.5527      9.2448      11.153      13.121      14.713    
  15.258      14.263      11.646      7.8435      8.8275      5.5627      3.2016      2.4716      3.5892      6.1772    
  9.4199      12.374      14.289      14.811      14.039      12.418      10.535      8.7316      7.1429      5.8366    
  4.8218      4.0710      3.5434      3.2011      3.0174      2.9785      3.0812      3.3323      3.7496      4.3640    
  5.2156      6.3440      7.7696      9.4694      11.358      13.271      14.771      15.258      14.342      12.037    
  12.724      10.246      7.8624      6.3398      6.1772      7.4097      9.5993      12.015      13.908      14.765    
  14.438      13.155      11.387      9.5766      7.9065      6.4758      5.3235      4.4420      3.7979      3.3524    
  3.0732      2.9397      2.9425      3.0813      3.3646      3.8121      4.4546      5.3308      6.4761      7.9040    
  9.5841      11.427      13.271      14.713      15.237      14.547      14.793      13.536      11.821      10.260    
  9.4199      9.5993      10.710      12.320      13.829      14.699      14.636      13.664      12.087      10.330    
  8.6359      7.1233      5.8591      4.8586      4.1026      3.5561      3.1845      2.9619      2.8729      2.9120    
  3.0810      3.3898      3.8585      4.5173      5.4022      6.5437      7.9494      9.5841      11.358      13.121    
  14.533      15.163      14.984      14.965      14.270      13.253      12.374      12.015      12.320      13.138    
  14.090      14.734      14.732      13.975      12.608      10.958      9.2952      7.7499      6.4086      5.3100    
  4.4524      3.8102      3.3501      3.0432      2.8696      2.8188      2.8880      3.0806      3.4070      3.8871    
  4.5494      5.4264      6.5437      7.9040      9.4694      11.153      12.824      14.217      13.748      14.643    
  14.945      14.740      14.289      13.908      13.829      14.090      14.528      14.851      14.770      14.123    
  12.941      11.436      9.8536      8.3258      6.9495      5.7819      4.8402      4.1116      3.5688      3.1829    
  2.9309      2.7985      2.7790      2.8715      3.0802      3.4157      3.8968      4.5494      5.4022      6.4761    
  7.7696      9.2448      10.821      12.385      11.816      13.121      14.100      14.646      14.811      14.765    
  14.699      14.734      14.851      14.909      14.713      14.115      13.086      11.747      10.286      8.8236    
  7.4577      6.2572      5.2557      4.4556      3.8391      3.3806      3.0564      2.8495      2.7502      2.7546    
  2.8630      3.0801      3.4157      3.8871      4.5173      5.3308      6.3440      7.5527      8.9202      10.374    
  9.8298      11.140      12.350      13.347      14.039      14.438      14.636      14.732      14.770      14.713    
  14.462      13.914      13.030      11.873      10.570      9.2188      7.9096      6.7167      5.6865      4.8359    
  4.1585      3.6358      3.2462      2.9716      2.8001      2.7257      2.7463      2.8630      3.0802      3.4070    
  3.8585      4.4546      5.2156      6.1538      7.2629      8.5093      8.0296      9.2089      10.381      11.472    
  12.418      13.155      13.664      13.975      14.123      14.115      13.914      13.469      12.754      11.803    
  10.691      9.4904      8.2829      7.1410      6.1183      5.2438      4.5235      3.9482      3.5011      3.1656    
  2.9291      2.7836      2.7257      2.7546      2.8715      3.0806      3.3898      3.8121      4.3640      5.0617    
  5.9140      6.9134      6.5191      7.5009      8.5361      9.5675      10.535      11.387      12.087      12.608    
  12.941      13.086      13.030      12.754      12.247      11.528      10.634      9.6219      8.5584      7.5110    
  6.5356      5.6694      4.9297      4.3173      3.8230      3.4340      3.1388      2.9291      2.8001      2.7502    
  2.7790      2.8880      3.0810      3.3646      3.7496      4.2493      4.8761      5.6354      5.3297      6.0965    
  6.9448      7.8383      8.7316      9.5766      10.330      10.958      11.436      11.747      11.873      11.803    
  11.528      11.052      10.397      9.6024      8.7207      7.8098      6.9231      6.1017      5.3713      4.7426    
  4.2148      3.7814      3.4340      3.1656      2.9716      2.8495      2.7985      2.8188      2.9120      3.0813    
  3.3323      3.6736      4.1154      4.6665      4.4414      5.0090      5.6624      6.3831      7.1429      7.9065    
  8.6359      9.2952      9.8536      10.286      10.570      10.691      10.634      10.397      9.9880      9.4300    
  8.7600      8.0233      7.2661      6.5288      5.8417      5.2230      4.6805      4.2148      3.8230      3.5011    
  3.2462      3.0564      2.9309      2.8696      2.8729      2.9425      3.0812      3.2939      3.5870      3.9676    
  3.8113      4.2091      4.6853      5.2326      5.8366      6.4758      7.1233      7.7499      8.3258      8.8236    
  9.2188      9.4904      9.6219      9.6024      9.4299      9.1136      8.6739      8.1412      7.5506      6.9373    
  6.3313      5.7551      5.2230      4.7426      4.3173      3.9482      3.6358      3.3806      3.1829      3.0432    
  2.9619      2.9397      2.9785      3.0810      3.2509      3.4928      3.3944      3.6517      3.9774      4.3695    
  4.8218      5.3235      5.8591      6.4086      6.9495      7.4577      7.9096      8.2829      8.5584      8.7207    
  8.7600      8.6739      8.4684      8.1581      7.7645      7.3125      6.8275      6.3313      5.8417      5.3713    
  4.9297      4.5235      4.1585      3.8391      3.5688      3.3501      3.1845      3.0732      3.0174      3.0190    
  3.0805      3.2047      3.1571      3.2949      3.4940      3.7535      4.0710      4.4420      4.8586      5.3100    
  5.7819      6.2572      6.7167      7.1410      7.5110      7.8098      8.0233      8.1412      8.1581      8.0746    
  7.8973      7.6381      7.3125      6.9373      6.5288      6.1017      5.6694      5.2438      4.8359      4.4556    
  4.1116      3.8102      3.5561      3.3524      3.2011      3.1040      3.0630      3.0802      3.0800      3.1094    
  3.1972      3.3424      3.5434      3.7979      4.1026      4.4524      4.8401      5.2557      5.6866      6.1183    
  6.5356      6.9231      7.2661      7.5506      7.7645      7.8973      7.9424      7.8973      7.7645      7.5506    
  7.2661      6.9231      6.5356      6.1183      5.6865      5.2557      4.8402      4.4524      4.1026      3.7979    
  3.5434      3.3425      3.1973      3.1094      3.1571      3.0801      3.0630      3.1039      3.2010      3.3524    
  3.5561      3.8102      4.1115      4.4556      4.8358      5.2438      5.6694      6.1017      6.5288      6.9373    
  7.3125      7.6381      7.8973      8.0746      8.1581      8.1412      8.0233      7.8098      7.5110      7.1410    
  6.7167      6.2572      5.7819      5.3100      4.8586      4.4420      4.0710      3.7535      3.4940      3.2949    
  3.3944      3.2047      3.0805      3.0190      3.0173      3.0732      3.1845      3.3501      3.5688      3.8391    
  4.1585      4.5235      4.9297      5.3714      5.8417      6.3313      6.8275      7.3125      7.7645      8.1581    
  8.4684      8.6739      8.7600      8.7207      8.5584      8.2829      7.9096      7.4577      6.9495      6.4086    
  5.8591      5.3235      4.8218      4.3695      3.9774      3.6517      3.8112      3.4928      3.2508      3.0809    
  2.9785      2.9397      2.9618      3.0432      3.1829      3.3806      3.6358      3.9482      4.3172      4.7426    
  5.2230      5.7551      6.3313      6.9373      7.5506      8.1412      8.6739      9.1136      9.4300      9.6024    
  9.6219      9.4904      9.2188      8.8236      8.3258      7.7499      7.1233      6.4758      5.8366      5.2327    
  4.6853      4.2091      4.4414      3.9676      3.5869      3.2939      3.0812      2.9425      2.8729      2.8696    
  2.9309      3.0564      3.2462      3.5011      3.8230      4.2148      4.6805      5.2230      5.8417      6.5288    
  7.2661      8.0233      8.7600      9.4299      9.9880      10.397      10.634      10.691      10.570      10.286    
  9.8536      9.2952      8.6359      7.9065      7.1429      6.3831      5.6624      5.0090      5.3297      4.6665    
  4.1154      3.6736      3.3323      3.0812      2.9120      2.8188      2.7985      2.8495      2.9716      3.1656    
  3.4340      3.7814      4.2148      4.7426      5.3714      6.1017      6.9231      7.8098      8.7207      9.6024    
  10.397      11.052      11.528      11.803      11.873      11.747      11.436      10.958      10.330      9.5766    
  8.7316      7.8383      6.9448      6.0966      6.5191      5.6354      4.8761      4.2493      3.7496      3.3646    
  3.0810      2.8881      2.7790      2.7502      2.8002      2.9291      3.1388      3.4340      3.8230      4.3172    
  4.9297      5.6694      6.5356      7.5110      8.5584      9.6219      10.634      11.528      12.247      12.754    
  13.030      13.086      12.941      12.608      12.087      11.387      10.535      9.5675      8.5361      7.5009    
  8.0295      6.9134      5.9140      5.0617      4.3640      3.8121      3.3898      3.0806      2.8716      2.7546    
  2.7258      2.7837      2.9291      3.1656      3.5011      3.9482      4.5235      5.2438      6.1183      7.1410    
  8.2829      9.4904      10.691      11.803      12.754      13.469      13.914      14.115      14.123      13.975    
  13.664      13.155      12.418      11.472      10.381      9.2088      9.8298      8.5093      7.2629      6.1538    
  5.2156      4.4546      3.8586      3.4071      3.0803      2.8631      2.7464      2.7258      2.8002      2.9716    
  3.2462      3.6358      4.1585      4.8358      5.6866      6.7167      7.9096      9.2188      10.570      11.873    
  13.030      13.914      14.462      14.713      14.770      14.732      14.636      14.438      14.039      13.347    
  12.350      11.140      11.816      10.374      8.9201      7.5526      6.3440      5.3308      4.5174      3.8872    
  3.4158      3.0801      2.8631      2.7546      2.7502      2.8495      3.0564      3.3806      3.8391      4.4556    
  5.2557      6.2572      7.4577      8.8236      10.286      11.747      13.086      14.115      14.713      14.909    
  14.851      14.734      14.699      14.765      14.811      14.646      14.100      13.121      13.748      12.385    
  10.821      9.2448      7.7696      6.4761      5.4022      4.5495      3.8969      3.4158      3.0803      2.8716    
  2.7790      2.7985      2.9309      3.1829      3.5688      4.1115      4.8401      5.7819      6.9495      8.3258    
  9.8536      11.436      12.941      14.123      14.770      14.851      14.528      14.090      13.829      13.908    
  14.289      14.740      14.944      14.643      14.984      14.217      12.824      11.153      9.4694      7.9040    
  6.5437      5.4264      4.5495      3.8872      3.4071      3.0806      2.8881      2.8188      2.8696      3.0432    
  3.3501      3.8102      4.4524      5.3100      6.4086      7.7499      9.2952      10.958      12.608      13.975    
  14.732      14.734      14.090      13.138      12.320      12.015      12.374      13.253      14.270      14.965    
  14.793      15.163      14.533      13.121      11.358      9.5842      7.9495      6.5437      5.4022      4.5174    
  3.8586      3.3898      3.0810      2.9120      2.8729      2.9618      3.1845      3.5561      4.1026      4.8586    
  5.8591      7.1233      8.6359      10.330      12.087      13.664      14.636      14.699      13.829      12.320    
  10.710      9.5993      9.4199      10.260      11.821      13.536      12.724      14.547      15.237      14.713    
  13.271      11.427      9.5842      7.9040      6.4761      5.3308      4.4546      3.8121      3.3646      3.0812    
  2.9425      2.9397      3.0732      3.3524      3.7979      4.4420      5.3235      6.4758      7.9065      9.5766    
  11.387      13.155      14.438      14.765      13.908      12.015      9.5993      7.4097      6.1772      6.3398    
  7.8624      10.246      8.8275      12.037      14.342      15.258      14.771      13.271      11.358      9.4694    
  7.7696      6.3440      5.2156      4.3640      3.7496      3.3323      3.0812      2.9785      3.0173      3.2010    
  3.5434      4.0710      4.8218      5.8366      7.1429      8.7316      10.535      12.418      14.039      14.811    
  14.289      12.374      9.4199      6.1772      3.5892      2.4716      3.2016      5.5627      3.7538      7.8435    
  11.646      14.263      15.258      14.713      13.121      11.153      9.2448      7.5526      6.1538      5.0617    
  4.2493      3.6736      3.2939      3.0809      3.0190      3.1039      3.3424      3.7535      4.3695      5.2326    
  6.3831      7.8383      9.5675      11.472      13.347      14.646      14.740      13.253      10.260      6.3398    
  2.4716     -.24963     -.99225     0.48958     -1.3492      2.7584      7.4918      11.646      14.342      15.237    
  14.533      12.824      10.821      8.9201      7.2629      5.9140      4.8761      4.1154      3.5869      3.2508    
  3.0805      3.0630      3.1972      3.4940      3.9774      4.6853      5.6624      6.9448      8.5361      10.381    
  12.350      14.100      14.945      14.270      11.821      7.8624      3.2016     -.99226     -3.5405     -3.6770    
 -5.1431     -2.0000      2.7584      7.8435      12.037      14.547      15.163      14.217      12.385      10.374    
  8.5093      6.9134      5.6354      4.6665      3.9676      3.4928      3.2047      3.0801      3.1094      3.2949    
  3.6517      4.2091      5.0090      6.0965      7.5009      9.2089      11.140      13.121      14.643      14.965    
  13.536      10.246      5.5627     0.48957     -3.6771     -5.7619     -5.1430     -4.1648     -.85397      3.8380    
  8.6550      12.462      14.568      14.849      13.694      11.794      9.8024      7.9827      6.4453      5.2276    
  4.3133      3.6599      3.2218      2.9632      2.8630      2.9131      3.1178      3.4940      4.0732      4.8988    
  6.0160      7.4512      9.1847      11.127      13.086      14.509      14.673      13.084      9.7109      5.0939    
 0.26915     -3.5015     -4.1648     -5.1430     -3.5015     0.26918      5.0940      9.7109      13.084      14.673    
  14.509      13.086      11.127      9.1847      7.4511      6.0160      4.8988      4.0732      3.4940      3.1178    
  2.9131      2.8630      2.9632      3.2218      3.6599      4.3133      5.2276      6.4453      7.9827      9.8024    
  11.794      13.694      14.849      14.568      12.462      8.6550      3.8380     -.85401     -.75826     -3.3981    
 -3.6769     -1.5233      2.4112      7.0061      11.078      13.750      14.667      14.008      12.346      10.383    
  8.5186      6.8956      5.5794      4.5723      3.8398      3.3366      3.0228      2.8719      2.8714      3.0210    
  3.3319      3.8295      4.5525      5.5471      6.8510      8.4695      10.349      12.360      14.166      15.075    
  14.463      12.064      8.1354      3.4756      4.0801     0.54260     -1.3315     -.99219      1.4353      5.2024    
  9.2264      12.473      14.269      14.449      13.323      11.502      9.5876      7.8291      6.3369      5.1510    
  4.2586      3.6200      3.1918      2.9390      2.8405      2.8880      3.0846      3.4450      3.9973      4.7822    
  5.8447      7.2166      8.8918      10.802      12.805      14.507      15.234      14.450      12.007      8.2698    
  9.0405      5.5452      2.8248      1.6898      2.4716      4.8937      8.1842      11.372      13.622      14.481    
  13.961      12.465      10.595      8.7682      7.1416      5.7948      4.7446      3.9666      3.4193      3.0628    
  2.8681      2.8193      2.9120      3.1522      3.5571      4.1572      4.9935      6.1082      7.5263      9.2317    
  11.146      13.115      14.727      15.359      14.574      12.325      12.955      10.300      7.6095      5.7048    
  5.1806      6.1772      8.3268      10.904      13.104      14.313      14.292      13.199      11.487      9.6619    
  7.9556      6.4806      5.2867      4.3716      3.7035      3.2419      2.9523      2.8116      2.8087      2.9425    
  3.2214      3.6645      4.3033      5.1777      6.3260      7.7664      9.4743      11.365      13.282      14.828    
  15.456      14.821      15.124      13.753      11.803      9.9146      8.7220      8.6184      9.5992      11.269    
  13.003      14.190      14.440      13.698      12.224      10.465      8.7380      7.1792      5.8676      4.8269    
  4.0409      3.4747      3.0914      2.8624      2.7704      2.8087      2.9785      3.2900      3.7633      4.4296    
  5.3267      6.4883      7.9259      9.6083      11.448      13.297      14.803      15.498      15.437      15.374    
  14.531      13.265      12.081      11.433      11.544      12.320      13.391      14.270      14.542      14.015    
  12.778      11.144      9.4507      7.8584      6.4653      5.3199      4.4259      3.7588      3.2840      2.9701    
  2.7947      2.7456      2.8193      3.0190      3.3557      3.8498      4.5311      5.4341      6.5875      7.9969    
  9.6272      11.392      13.156      14.632      14.298      15.215      15.456      15.098      14.419      13.785    
  13.491      13.637      14.090      14.546      14.663      14.209      13.153      11.675      10.062      8.4863    
  7.0546      5.8345      4.8497      4.0905      3.5289      3.1339      2.8800      2.7505      2.7378      2.8405    
  3.0630      3.4166      3.9209      4.6035      5.4950      6.6190      7.9761      9.5292      11.196      12.857    
  12.405      13.787      14.784      15.273      15.303      15.070      14.812      14.700      14.757      14.851    
  14.763      14.293      13.359      12.040      10.545      9.0334      7.6091      6.3510      5.3006      4.4640    
  3.8239      3.3532      3.0258      2.8222      2.7310      2.7474      2.8720      3.1094      3.4707      3.9740    
  4.6439      5.5069      6.5813      7.8641      9.3180      10.867      10.418      11.819      13.104      14.125    
  14.774      15.071      15.129      15.088      15.030      14.940      14.713      14.221      13.383      12.224    
  10.879      9.4736      8.1026      6.8481      5.7637      4.8711      4.1654      3.6271      3.2323      2.9605    
  2.7977      2.7365      2.7746      2.9132      3.1571      3.5164      4.0072      4.6508      5.4693      6.4764    
  7.6660      9.0024      8.5960      9.8653      11.120      12.278      13.256      13.971      14.409      14.623    
  14.677      14.600      14.366      13.914      13.192      12.208      11.044      9.7837      8.5106      7.3034    
  6.2223      5.3011      4.5482      3.9538      3.4995      3.1659      2.9382      2.8068      2.7674      2.8190    
  2.9632      3.2047      3.5522      4.0193      4.6242      5.3843      6.3092      7.3909      7.0512      8.1166    
  9.2335      10.337      11.359      12.240      12.934      13.411      13.678      13.752      13.635      13.309    
  12.754      11.977      11.022      9.9436      8.8109      7.6952      6.6580      5.7414      4.9654      4.3311    
  3.8277      3.4400      3.1538      2.9590      2.8496      2.8232      2.8797      3.0209      3.2509      3.5768    
  4.0101      4.5654      5.2559      6.0877      5.8216      6.6619      7.5849      8.5489      9.5015      10.388    
  11.159      11.780      12.226      12.486      12.550      12.414      12.071      11.528      10.805      9.9391    
  8.9850      8.0035      7.0526      6.1782      5.4088      4.7560      4.2179      3.7855      3.4479      3.1957    
  3.0227      2.9254      2.9029      2.9554      3.0846      3.2939      3.5893      3.9800      4.4771      5.0900    
  4.8938      5.5227      6.2399      7.0237      7.8405      8.6496      9.4075      10.075      10.619      11.016    
  11.250      11.310      11.186      10.879      10.397      9.7652      9.0208      8.2118      7.3888      6.5967    
  5.8687      5.2244      4.6709      4.2067      3.8262      3.5228      3.2914      3.1288      3.0334      3.0050    
  3.0440      3.1521      3.3323      3.5894      3.9303      4.3630      4.2280      4.6752      5.2030      5.8024    
  6.4558      7.1374      7.8161      8.4585      9.0324      9.5094      9.8666      10.086      10.155      10.067    
  9.8216      9.4300      8.9147      8.3088      7.6515      6.9819      6.3335      5.7304      5.1870      4.7091    
  4.2974      3.9501      3.6650      3.4408      3.2765      3.1719      3.1271      3.1431      3.2214      3.3646    
  3.5768      3.8629      3.7804      4.0769      4.4427      4.8750      5.3662      5.9029      6.4660      7.0326    
  7.5771      8.0737      8.4981      8.8291      9.0498      9.1477      9.1161      8.9553      8.6739      8.2899    
  7.8284      7.3186      6.7893      6.2649      5.7635      5.2966      4.8712      4.4909      4.1584      3.8754    
  3.6436      3.4644      3.3383      3.2664      3.2497      3.2900      3.3898      3.5522      3.5165      3.6856    
  3.9152      4.2044      4.5502      4.9465      5.3837      5.8484      6.3241      6.7915      7.2303      7.6203    
  7.9431      8.1834      8.3298      8.3747      8.3161      8.1581      7.9113      7.5919      7.2194      6.8135    
  6.3919      5.9686      5.5548      5.1593      4.7896      4.4527      4.1543      3.8990      3.6900      3.5295    
  3.4191      3.3605      3.3557      3.4070      3.4157      3.4708      3.5819      3.7483      3.9682      4.2389    
  4.5560      4.9130      5.3009      5.7083      6.1209      6.5232      6.8992      7.2339      7.5140      7.7280    
  7.8669      7.9242      7.8973      7.7885      7.6046      7.3562      7.0555      6.7151      6.3472      5.9635    
  5.5756      5.1954      4.8340      4.5011      4.2045      3.9499      3.7412      3.5813      3.4724      3.4166    
  3.4708      3.4157      3.4166      3.4724      3.5813      3.7412      3.9499      4.2045      4.5011      4.8340    
  5.1954      5.5756      5.9635      6.3472      6.7151      7.0555      7.3562      7.6046      7.7885      7.8973    
  7.9242      7.8669      7.7280      7.5140      7.2339      6.8992      6.5232      6.1209      5.7083      5.3009    
  4.9130      4.5560      4.2389      3.9682      3.7483      3.5819      3.6856      3.5165      3.4070      3.3557    
  3.3605      3.4191      3.5295      3.6900      3.8990      4.1543      4.4527      4.7896      5.1593      5.5548    
  5.9686      6.3919      6.8135      7.2194      7.5919      7.9113      8.1581      8.3161      8.3747      8.3298    
  8.1834      7.9431      7.6203      7.2303      6.7915      6.3241      5.8484      5.3837      4.9465      4.5502    
  4.2044      3.9152      4.0769      3.7804      3.5522      3.3898      3.2899      3.2496      3.2663      3.3383    
  3.4643      3.6436      3.8754      4.1584      4.4909      4.8712      5.2967      5.7635      6.2649      6.7893    
  7.3186      7.8284      8.2899      8.6739      8.9553      9.1161      9.1477      9.0498      8.8291      8.4981    
  8.0737      7.5771      7.0326      6.4660      5.9029      5.3662      4.8750      4.4427      4.6752      4.2279    
  3.8629      3.5768      3.3646      3.2213      3.1430      3.1271      3.1719      3.2765      3.4408      3.6650    
  3.9500      4.2974      4.7091      5.1870      5.7304      6.3335      6.9819      7.6515      8.3088      8.9147    
  9.4300      9.8216      10.067      10.155      10.086      9.8666      9.5094      9.0324      8.4585      7.8161    
  7.1374      6.4558      5.8025      5.2031      5.5227      4.8938      4.3630      3.9302      3.5893      3.3323    
  3.1521      3.0440      3.0050      3.0334      3.1288      3.2914      3.5228      3.8262      4.2067      4.6709    
  5.2244      5.8687      6.5967      7.3888      8.2118      9.0208      9.7652      10.397      10.879      11.186    
  11.310      11.251      11.016      10.619      10.075      9.4075      8.6496      7.8405      7.0237      6.2400    
  6.6620      5.8217      5.0900      4.4770      3.9800      3.5893      3.2939      3.0846      2.9554      2.9029    
  2.9254      3.0227      3.1957      3.4479      3.7855      4.2178      4.7560      5.4089      6.1782      7.0526    
  8.0035      8.9850      9.9391      10.805      11.528      12.071      12.414      12.550      12.486      12.226    
  11.780      11.159      10.388      9.5015      8.5489      7.5849      8.1166      7.0512      6.0877      5.2559    
  4.5653      4.0101      3.5767      3.2508      3.0209      2.8797      2.8232      2.8496      2.9590      3.1539    
  3.4400      3.8277      4.3311      4.9654      5.7414      6.6580      7.6952      8.8109      9.9436      11.022    
  11.977      12.754      13.309      13.635      13.752      13.678      13.411      12.934      12.240      11.359    
  10.337      9.2335      9.8653      8.5960      7.3909      6.3092      5.3843      4.6241      4.0193      3.5522    
  3.2047      2.9632      2.8190      2.7674      2.8068      2.9382      3.1660      3.4995      3.9538      4.5482    
  5.3011      6.2223      7.3034      8.5106      9.7837      11.044      12.208      13.192      13.914      14.366    
  14.600      14.677      14.623      14.409      13.971      13.256      12.278      11.120      11.819      10.418    
  9.0024      7.6660      6.4763      5.4693      4.6508      4.0072      3.5164      3.1571      2.9132      2.7746    
  2.7366      2.7977      2.9605      3.2323      3.6271      4.1654      4.8711      5.7638      6.8481      8.1026    
  9.4737      10.879      12.224      13.383      14.221      14.713      14.940      15.030      15.088      15.129    
  15.071      14.774      14.125      13.104      13.787      12.405      10.867      9.3180      7.8641      6.5813    
  5.5068      4.6439      3.9740      3.4708      3.1095      2.8720      2.7475      2.7310      2.8223      3.0259    
  3.3532      3.8239      4.4640      5.3006      6.3510      7.6091      9.0334      10.545      12.040      13.359    
  14.293      14.763      14.851      14.757      14.700      14.812      15.070      15.303      15.273      14.784    
  15.215      14.298      12.857      11.196      9.5292      7.9761      6.6189      5.4950      4.6035      3.9210    
  3.4167      3.0631      2.8405      2.7379      2.7506      2.8800      3.1339      3.5289      4.0904      4.8497    
  5.8345      7.0546      8.4863      10.062      11.675      13.153      14.209      14.663      14.546      14.090    
  13.637      13.491      13.785      14.419      15.098      15.456      15.374      15.437      14.632      13.156    
  11.392      9.6272      7.9969      6.5875      5.4341      4.5311      3.8499      3.3558      3.0191      2.8194    
  2.7457      2.7947      2.9701      3.2840      3.7588      4.4259      5.3199      6.4653      7.8584      9.4507    
  11.144      12.778      14.015      14.542      14.270      13.391      12.320      11.544      11.433      12.081    
  13.266      14.531      13.753      15.124      15.498      14.802      13.297      11.448      9.6084      7.9259    
  6.4883      5.3268      4.4297      3.7634      3.2900      2.9786      2.8087      2.7705      2.8624      3.0914    
  3.4747      4.0409      4.8269      5.8676      7.1792      8.7380      10.465      12.224      13.698      14.440    
  14.190      13.003      11.269      9.5992      8.6184      8.7220      9.9146      11.803      10.300      12.955    