   2   2   0   0
  0.2052925E+02  0.3995741E-09  0.3995741E-09  0.3995741E-09  0.5000000E-15
  1.000000000000000E-004
  CAR 
 unknown system                          
     17.16857476     -7.52963839  301      5.81111789      1.00000000
     -7.530  0.0000E+00  0.0000E+00
     -7.447  0.0000E+00  0.0000E+00
     -7.365  0.0000E+00  0.0000E+00
     -7.283  0.0000E+00  0.0000E+00
     -7.200  0.0000E+00  0.0000E+00
     -7.118  0.0000E+00  0.0000E+00
     -7.036  0.0000E+00  0.0000E+00
     -6.953  0.0000E+00  0.0000E+00
     -6.871  0.0000E+00  0.0000E+00
     -6.789  0.0000E+00  0.0000E+00
     -6.706  0.7024E-18  0.5782E-19
     -6.624  0.6321E-16  0.5262E-17
     -6.542  0.5175E-14  0.4313E-15
     -6.459  0.3041E-12  0.2547E-13
     -6.377  0.1280E-10  0.1079E-11
     -6.295  0.3858E-09  0.3284E-10
     -6.212  0.8339E-08  0.7194E-09
     -6.130  0.1293E-06  0.1137E-07
     -6.048  0.1440E-05  0.1299E-06
     -5.965  0.1153E-04  0.1079E-05
     -5.883  0.6648E-04  0.6553E-05
     -5.801  0.2772E-03  0.2937E-04
     -5.718  0.8422E-03  0.9871E-04
     -5.636  0.1900E-02  0.2552E-03
     -5.554  0.3332E-02  0.5295E-03
     -5.471  0.4999E-02  0.9411E-03
     -5.389  0.7280E-02  0.1540E-02
     -5.307  0.1065E-01  0.2417E-02
     -5.224  0.1432E-01  0.3596E-02
     -5.142  0.1635E-01  0.4942E-02
     -5.060  0.1570E-01  0.6235E-02
     -4.977  0.1351E-01  0.7347E-02
     -4.895  0.1196E-01  0.8332E-02
     -4.813  0.1301E-01  0.9403E-02
     -4.731  0.1741E-01  0.1084E-01
     -4.648  0.2364E-01  0.1278E-01
     -4.566  0.2781E-01  0.1507E-01
     -4.484  0.2720E-01  0.1731E-01
     -4.401  0.2402E-01  0.1929E-01
     -4.319  0.2266E-01  0.2116E-01
     -4.237  0.2361E-01  0.2310E-01
     -4.154  0.2402E-01  0.2508E-01
     -4.072  0.2312E-01  0.2698E-01
     -3.990  0.2288E-01  0.2886E-01
     -3.907  0.2453E-01  0.3088E-01
     -3.825  0.2742E-01  0.3314E-01
     -3.743  0.3037E-01  0.3564E-01
     -3.660  0.3215E-01  0.3829E-01
     -3.578  0.3222E-01  0.4094E-01
     -3.496  0.3263E-01  0.4363E-01
     -3.413  0.3612E-01  0.4660E-01
     -3.331  0.4050E-01  0.4993E-01
     -3.249  0.3949E-01  0.5318E-01
     -3.166  0.3120E-01  0.5575E-01
     -3.084  0.2131E-01  0.5751E-01
     -3.002  0.1738E-01  0.5894E-01
     -2.919  0.2335E-01  0.6086E-01
     -2.837  0.3768E-01  0.6396E-01
     -2.755  0.5292E-01  0.6832E-01
     -2.672  0.5944E-01  0.7321E-01
     -2.590  0.5421E-01  0.7768E-01
     -2.508  0.4447E-01  0.8134E-01
     -2.425  0.3904E-01  0.8455E-01
     -2.343  0.3863E-01  0.8773E-01
     -2.261  0.3852E-01  0.9090E-01
     -2.178  0.3678E-01  0.9393E-01
     -2.096  0.3565E-01  0.9686E-01
     -2.014  0.3707E-01  0.9992E-01
     -1.931  0.4018E-01  0.1032E+00
     -1.849  0.4341E-01  0.1068E+00
     -1.767  0.4720E-01  0.1107E+00
     -1.684  0.5275E-01  0.1150E+00
     -1.602  0.5878E-01  0.1199E+00
     -1.520  0.6232E-01  0.1250E+00
     -1.437  0.6261E-01  0.1302E+00
     -1.355  0.6215E-01  0.1353E+00
     -1.273  0.6416E-01  0.1406E+00
     -1.190  0.6873E-01  0.1462E+00
     -1.108  0.7204E-01  0.1521E+00
     -1.026  0.7076E-01  0.1580E+00
     -0.943  0.6606E-01  0.1634E+00
     -0.861  0.6109E-01  0.1684E+00
     -0.779  0.5601E-01  0.1730E+00
     -0.696  0.4820E-01  0.1770E+00
     -0.614  0.3712E-01  0.1801E+00
     -0.532  0.2586E-01  0.1822E+00
     -0.449  0.1747E-01  0.1836E+00
     -0.367  0.1237E-01  0.1847E+00
     -0.285  0.9819E-02  0.1855E+00
     -0.203  0.1062E-01  0.1863E+00
     -0.120  0.1719E-01  0.1878E+00
     -0.038  0.3074E-01  0.1903E+00
      0.044  0.4917E-01  0.1943E+00
      0.127  0.6753E-01  0.1999E+00
      0.209  0.7931E-01  0.2064E+00
      0.291  0.7900E-01  0.2129E+00
      0.374  0.6676E-01  0.2184E+00
      0.456  0.4990E-01  0.2225E+00
      0.538  0.3672E-01  0.2256E+00
      0.621  0.2929E-01  0.2280E+00
      0.703  0.2465E-01  0.2300E+00
      0.785  0.2055E-01  0.2317E+00
      0.868  0.1735E-01  0.2331E+00
      0.950  0.1597E-01  0.2344E+00
      1.032  0.1680E-01  0.2358E+00
      1.115  0.1975E-01  0.2374E+00
      1.197  0.2443E-01  0.2394E+00
      1.279  0.2984E-01  0.2419E+00
      1.362  0.3491E-01  0.2448E+00
      1.444  0.3975E-01  0.2481E+00
      1.526  0.4491E-01  0.2517E+00
      1.609  0.4977E-01  0.2558E+00
      1.691  0.5293E-01  0.2602E+00
      1.773  0.5384E-01  0.2646E+00
      1.856  0.5333E-01  0.2690E+00
      1.938  0.5228E-01  0.2733E+00
      2.020  0.5078E-01  0.2775E+00
      2.103  0.4985E-01  0.2816E+00
      2.185  0.5221E-01  0.2859E+00
      2.267  0.5846E-01  0.2907E+00
      2.350  0.6492E-01  0.2961E+00
      2.432  0.6864E-01  0.3017E+00
      2.514  0.7024E-01  0.3075E+00
      2.597  0.6897E-01  0.3132E+00
      2.679  0.6184E-01  0.3183E+00
      2.761  0.5014E-01  0.3224E+00
      2.844  0.4048E-01  0.3257E+00
      2.926  0.3799E-01  0.3289E+00
      3.008  0.4220E-01  0.3323E+00
      3.091  0.4987E-01  0.3364E+00
      3.173  0.6001E-01  0.3414E+00
      3.255  0.7438E-01  0.3475E+00
      3.338  0.9084E-01  0.3550E+00
      3.420  0.9979E-01  0.3632E+00
      3.502  0.9396E-01  0.3709E+00
      3.585  0.7888E-01  0.3774E+00
      3.667  0.6601E-01  0.3829E+00
      3.749  0.5945E-01  0.3878E+00
      3.832  0.5540E-01  0.3923E+00
      3.914  0.5173E-01  0.3966E+00
      3.996  0.5142E-01  0.4008E+00
      4.079  0.5614E-01  0.4054E+00
      4.161  0.6237E-01  0.4106E+00
      4.243  0.6685E-01  0.4161E+00
      4.326  0.7177E-01  0.4220E+00
      4.408  0.8130E-01  0.4287E+00
      4.490  0.9518E-01  0.4365E+00
      4.572  0.1087E+00  0.4455E+00
      4.655  0.1175E+00  0.4551E+00
      4.737  0.1191E+00  0.4649E+00
      4.819  0.1125E+00  0.4742E+00
      4.902  0.9884E-01  0.4823E+00
      4.984  0.8153E-01  0.4891E+00
      5.066  0.6514E-01  0.4944E+00
      5.149  0.5424E-01  0.4989E+00
      5.231  0.5075E-01  0.5031E+00
      5.313  0.5229E-01  0.5074E+00
      5.396  0.5441E-01  0.5118E+00
      5.478  0.5364E-01  0.5163E+00
      5.560  0.4949E-01  0.5203E+00
      5.643  0.4600E-01  0.5241E+00
      5.725  0.4921E-01  0.5282E+00
      5.807  0.5963E-01  0.5331E+00
      5.890  0.6961E-01  0.5388E+00
      5.972  0.7207E-01  0.5448E+00
      6.054  0.6878E-01  0.5504E+00
      6.137  0.6571E-01  0.5558E+00
      6.219  0.6349E-01  0.5611E+00
      6.301  0.5836E-01  0.5659E+00
      6.384  0.5017E-01  0.5700E+00
      6.466  0.4401E-01  0.5736E+00
      6.548  0.4433E-01  0.5773E+00
      6.631  0.5028E-01  0.5814E+00
      6.713  0.5739E-01  0.5861E+00
      6.795  0.6317E-01  0.5913E+00
      6.878  0.6863E-01  0.5970E+00
      6.960  0.7397E-01  0.6031E+00
      7.042  0.7596E-01  0.6093E+00
      7.125  0.7105E-01  0.6152E+00
      7.207  0.6061E-01  0.6202E+00
      7.289  0.5281E-01  0.6245E+00
      7.372  0.5597E-01  0.6291E+00
      7.454  0.6834E-01  0.6347E+00
      7.536  0.7853E-01  0.6412E+00
      7.619  0.7790E-01  0.6476E+00
      7.701  0.6916E-01  0.6533E+00
      7.783  0.6136E-01  0.6584E+00
      7.866  0.6117E-01  0.6634E+00
      7.948  0.7094E-01  0.6692E+00
      8.030  0.8798E-01  0.6765E+00
      8.113  0.1017E+00  0.6849E+00
      8.195  0.1003E+00  0.6931E+00
      8.277  0.8446E-01  0.7001E+00
      8.360  0.6674E-01  0.7056E+00
      8.442  0.5625E-01  0.7102E+00
      8.524  0.5203E-01  0.7145E+00
      8.607  0.5188E-01  0.7187E+00
      8.689  0.5781E-01  0.7235E+00
      8.771  0.6965E-01  0.7292E+00
      8.854  0.8095E-01  0.7359E+00
      8.936  0.8597E-01  0.7430E+00
      9.018  0.8541E-01  0.7500E+00
      9.100  0.8235E-01  0.7568E+00
      9.183  0.7861E-01  0.7633E+00
      9.265  0.7670E-01  0.7696E+00
      9.347  0.7899E-01  0.7761E+00
      9.430  0.8380E-01  0.7830E+00
      9.512  0.8713E-01  0.7902E+00
      9.594  0.8772E-01  0.7974E+00
      9.677  0.8702E-01  0.8045E+00
      9.759  0.8660E-01  0.8117E+00
      9.841  0.8768E-01  0.8189E+00
      9.924  0.9101E-01  0.8264E+00
     10.006  0.9666E-01  0.8343E+00
     10.088  0.1050E+00  0.8430E+00
     10.171  0.1158E+00  0.8525E+00
     10.253  0.1259E+00  0.8629E+00
     10.335  0.1289E+00  0.8735E+00
     10.418  0.1217E+00  0.8835E+00
     10.500  0.1079E+00  0.8924E+00
     10.582  0.9498E-01  0.9002E+00
     10.665  0.8712E-01  0.9074E+00
     10.747  0.8458E-01  0.9144E+00
     10.829  0.8521E-01  0.9214E+00
     10.912  0.8484E-01  0.9284E+00
     10.994  0.8094E-01  0.9350E+00
     11.076  0.7636E-01  0.9413E+00
     11.159  0.7561E-01  0.9475E+00
     11.241  0.7833E-01  0.9540E+00
     11.323  0.7951E-01  0.9605E+00
     11.406  0.7618E-01  0.9668E+00
     11.488  0.7038E-01  0.9726E+00
     11.570  0.6533E-01  0.9780E+00
     11.653  0.6299E-01  0.9832E+00
     11.735  0.6537E-01  0.9885E+00
     11.817  0.7282E-01  0.9945E+00
     11.900  0.8058E-01  0.1001E+01
     11.982  0.8095E-01  0.1008E+01
     12.064  0.7033E-01  0.1014E+01
     12.147  0.5275E-01  0.1018E+01
     12.229  0.3640E-01  0.1021E+01
     12.311  0.2725E-01  0.1023E+01
     12.394  0.2616E-01  0.1025E+01
     12.476  0.2984E-01  0.1028E+01
     12.558  0.3332E-01  0.1031E+01
     12.641  0.3290E-01  0.1033E+01
     12.723  0.2835E-01  0.1036E+01
     12.805  0.2292E-01  0.1037E+01
     12.888  0.2062E-01  0.1039E+01
     12.970  0.2269E-01  0.1041E+01
     13.052  0.2685E-01  0.1043E+01
     13.135  0.2981E-01  0.1046E+01
     13.217  0.2978E-01  0.1048E+01
     13.299  0.2657E-01  0.1050E+01
     13.382  0.2077E-01  0.1052E+01
     13.464  0.1373E-01  0.1053E+01
     13.546  0.7434E-02  0.1054E+01
     13.628  0.3417E-02  0.1054E+01
     13.711  0.2162E-02  0.1054E+01
     13.793  0.3559E-02  0.1055E+01
     13.875  0.7193E-02  0.1055E+01
     13.958  0.1181E-01  0.1056E+01
     14.040  0.1544E-01  0.1057E+01
     14.122  0.1681E-01  0.1059E+01
     14.205  0.1614E-01  0.1060E+01
     14.287  0.1421E-01  0.1061E+01
     14.369  0.1154E-01  0.1062E+01
     14.452  0.8499E-02  0.1063E+01
     14.534  0.5904E-02  0.1063E+01
     14.616  0.4742E-02  0.1064E+01
     14.699  0.5030E-02  0.1064E+01
     14.781  0.5577E-02  0.1065E+01
     14.863  0.5236E-02  0.1065E+01
     14.946  0.4108E-02  0.1065E+01
     15.028  0.3191E-02  0.1066E+01
     15.110  0.3024E-02  0.1066E+01
     15.193  0.3093E-02  0.1066E+01
     15.275  0.2658E-02  0.1066E+01
     15.357  0.1713E-02  0.1067E+01
     15.440  0.8021E-03  0.1067E+01
     15.522  0.2707E-03  0.1067E+01
     15.604  0.6570E-04  0.1067E+01
     15.687  0.1146E-04  0.1067E+01
     15.769  0.1436E-05  0.1067E+01
     15.851  0.1291E-06  0.1067E+01
     15.934  0.8332E-08  0.1067E+01
     16.016  0.3856E-09  0.1067E+01
     16.098  0.1279E-10  0.1067E+01
     16.181  0.3040E-12  0.1067E+01
     16.263  0.5175E-14  0.1067E+01
     16.345  0.6462E-16  0.1067E+01
     16.428  0.0000E+00  0.1067E+01
     16.510  0.0000E+00  0.1067E+01
     16.592  0.0000E+00  0.1067E+01
     16.675  0.0000E+00  0.1067E+01
     16.757  0.0000E+00  0.1067E+01
     16.839  0.0000E+00  0.1067E+01
     16.922  0.0000E+00  0.1067E+01
     17.004  0.0000E+00  0.1067E+01
     17.086  0.0000E+00  0.1067E+01
     17.169  0.0000E+00  0.1067E+01
