    2    2   15    1
  0.2052925E+02  0.3995741E-09  0.3995741E-09  0.3995741E-09  0.5000000E-15
  1.000000000000000E-004
  CAR 
 unknown system                          
      8     56      8
 
  0.6250000E-01  0.6250000E-01  0.6250000E-01  0.1562500E-01
    1       -5.206930   1.000000
    2        1.929814   1.000000
    3        4.367722   1.000000
    4        5.216949   0.999987
    5        9.376806   0.000000
    6        9.683403   0.000000
    7        9.979411   0.000000
    8       11.824580   0.000000
 
  0.1875000E+00  0.6250000E-01  0.6250000E-01  0.3125000E-01
    1       -4.249591   1.000000
    2        1.649442   1.000000
    3        4.479865   1.000000
    4        6.223507   0.001773
    5        6.835363   0.000000
    6        7.535834   0.000000
    7       10.354097   0.000000
    8       10.588246   0.000000
 
  0.3125000E+00  0.6250000E-01  0.6250000E-01  0.3125000E-01
    1       -2.712448   1.000000
    2        1.501220   1.000000
    3        3.337281   1.000000
    4        4.724058   1.000000
    5        5.479656   0.990456
    6        8.842092   0.000000
    7        8.908306   0.000000
    8       10.016487   0.000000
 
  0.4375000E+00  0.6250000E-01  0.6250000E-01  0.1562500E-01
    1       -1.230827   1.000000
    2        0.307297   1.000000
    3        2.987393   1.000000
    4        3.975586   1.000000
    5        5.366417   0.999168
    6        8.154174   0.000000
    7        9.126682   0.000000
    8       10.308427   0.000000
 
 -0.6250000E-01  0.6250000E-01  0.6250000E-01  0.7812500E-02
    1       -5.529638   1.000000
    2        2.312578   1.000000
    3        3.786709   1.000000
    4        4.955371   1.000000
    5        8.950679   0.000000
    6       10.919949   0.000000
    7       12.018611   0.000000
    8       12.483343   0.000000
 
  0.1875000E+00  0.1875000E+00  0.6250000E-01  0.1562500E-01
    1       -2.859151   1.000000
    2        1.633088   1.000000
    3        3.735474   1.000000
    4        4.221019   1.000000
    5        6.628412   0.000000
    6        7.510093   0.000000
    7        9.765209   0.000000
    8        9.873213   0.000000
 
  0.3125000E+00  0.1875000E+00  0.6250000E-01  0.3125000E-01
    1       -1.175866   1.000000
    2        0.613841   1.000000
    3        2.079981   1.000000
    4        3.597268   1.000000
    5        6.623911   0.000000
    6        8.116391   0.000000
    7        9.475335   0.000000
    8       10.821532   0.000000
 
  0.4375000E+00  0.1875000E+00  0.6250000E-01  0.3125000E-01
    1       -1.972723   1.000000
    2        0.250907   1.000000
    3        2.672676   1.000000
    4        4.593685   1.000000
    5        6.151340   0.008070
    6        8.472939   0.000000
    7       10.175325   0.000000
    8       10.330596   0.000000
 
 -0.4375000E+00  0.1875000E+00  0.6250000E-01  0.3125000E-01
    1       -3.623209   1.000000
    2       -0.001769   1.000000
    3        4.773041   1.000000
    4        5.911968   0.237886
    5        6.898001   0.000000
    6        8.103715   0.000000
    7        9.340949   0.000000
    8       11.029646   0.000000
 
 -0.3125000E+00  0.1875000E+00  0.6250000E-01  0.1562500E-01
    1       -4.730322   1.000000
    2        0.151372   1.000000
    3        4.788160   1.000000
    4        6.161847   0.006569
    5        8.503523   0.000000
    6        9.637308   0.000000
    7       10.828405   0.000000
    8       10.847144   0.000000
 
 -0.1875000E+00  0.1875000E+00  0.6250000E-01  0.1562500E-01
    1       -5.210786   1.000000
    2        0.799631   1.000000
    3        3.823259   1.000000
    4        6.093035   0.023106
    5        9.399926   0.000000
    6       10.414075   0.000000
    7       11.711078   0.000000
    8       11.834035   0.000000
 
 -0.6250000E-01  0.1875000E+00  0.6250000E-01  0.1562500E-01
    1       -5.048175   1.000000
    2        1.553731   1.000000
    3        3.406872   1.000000
    4        6.486953   0.000001
    5        8.791638   0.000000
    6        9.955487   0.000000
    7       10.156223   0.000000
    8       11.012491   0.000000
 
  0.3125000E+00  0.3125000E+00  0.6250000E-01  0.1562500E-01
    1       -1.075419   1.000000
    2       -0.846835   1.000000
    3        2.468360   1.000000
    4        4.509612   1.000000
    5        6.991134   0.000000
    6        7.396362   0.000000
    7       10.832458   0.000000
    8       11.257187   0.000000
 
  0.4375000E+00  0.3125000E+00  0.6250000E-01  0.3125000E-01
    1       -2.693560   1.000000
    2       -1.475487   1.000000
    3        4.950142   1.000000
    4        5.801192   0.527976
    5        7.131372   0.000000
    6        8.077649   0.000000
    7        9.055617   0.000000
    8       10.166121   0.000000
 
 -0.4375000E+00  0.3125000E+00  0.6250000E-01  0.1562500E-01
    1       -3.941311   1.000000
    2       -1.472884   1.000000
    3        5.472404   0.991691
    4        7.096678   0.000000
    5        7.444360   0.000000
    6        9.412721   0.000000
    7        9.510258   0.000000
    8        9.962751   0.000000
 
 -0.3125000E+00  0.3125000E+00  0.6250000E-01  0.1562500E-01
    1       -4.576213   1.000000
    2       -0.891911   1.000000
    3        4.379765   1.000000
    4        7.019105   0.000000
    5        7.817983   0.000000
    6       10.480930   0.000000
    7       11.618677   0.000000
    8       12.020654   0.000000
 
 -0.1875000E+00  0.3125000E+00  0.6250000E-01  0.3125000E-01
    1       -4.573677   1.000000
    2        0.191898   1.000000
    3        3.391179   1.000000
    4        7.425426   0.000000
    5        7.811419   0.000000
    6        9.206656   0.000000
    7       10.623167   0.000000
    8       11.877734   0.000000
 
 -0.6250000E-01  0.3125000E+00  0.6250000E-01  0.1562500E-01
    1       -3.937856   1.000000
    2        1.306769   1.000000
    3        3.377667   1.000000
    4        5.466832   0.992543
    5        7.618624   0.000000
    6        8.773828   0.000000
    7        9.381662   0.000000
    8       10.293303   0.000000
 
  0.4375000E+00  0.4375000E+00  0.6250000E-01  0.7812500E-02
    1       -2.849493   1.000000
    2       -2.849493   1.000000
    3        6.383673   0.000026
    4        6.383674   0.000026
    5        8.203049   0.000000
    6        8.203049   0.000000
    7        9.514010   0.000000
    8        9.514011   0.000000
 
 -0.4375000E+00  0.4375000E+00  0.6250000E-01  0.1562500E-01
    1       -3.633089   1.000000
    2       -2.395327   1.000000
    3        5.255343   0.999958
    4        6.412920   0.000010
    5        8.018395   0.000000
    6        9.186691   0.000000
    7       11.544160   0.000000
    8       11.669987   0.000000
 
 -0.3125000E+00  0.4375000E+00  0.6250000E-01  0.3125000E-01
    1       -3.789146   1.000000
    2       -1.353312   1.000000
    3        4.031491   1.000000
    4        6.243377   0.001120
    5        8.151047   0.000000
    6        9.072163   0.000000
    7       10.369792   0.000000
    8       11.529637   0.000000
 
 -0.1875000E+00  0.4375000E+00  0.6250000E-01  0.3125000E-01
    1       -3.319277   1.000000
    2        0.136798   1.000000
    3        3.359820   1.000000
    4        4.920582   1.000000
    5        6.946459   0.000000
    6        8.466188   0.000000
    7       10.178707   0.000000
    8       11.240402   0.000000
 
 -0.6250000E-01  0.4375000E+00  0.6250000E-01  0.1562500E-01
    1       -2.279346   1.000000
    2        1.051630   1.000000
    3        3.136535   1.000000
    4        3.766777   1.000000
    5        5.913953   0.233565
    6        8.354358   0.000000
    7        8.742779   0.000000
    8       10.696636   0.000000
 
 -0.4375000E+00 -0.4375000E+00  0.6250000E-01  0.1562500E-01
    1       -2.718547   1.000000
    2       -2.694817   1.000000
    3        4.934497   1.000000
    4        5.097125   1.000000
    5        8.134116   0.000000
    6        9.450220   0.000000
    7       10.310469   0.000000
    8       10.863667   0.000000
 
 -0.3125000E+00 -0.4375000E+00  0.6250000E-01  0.3125000E-01
    1       -2.407054   1.000000
    2       -1.222162   1.000000
    3        3.801116   1.000000
    4        4.741154   1.000000
    5        5.875524   0.324403
    6        8.194920   0.000000
    7       11.243404   0.000000
    8       12.016885   0.000000
 
 -0.1875000E+00 -0.4375000E+00  0.6250000E-01  0.3125000E-01
    1       -1.591360   1.000000
    2        0.336121   1.000000
    3        2.292375   1.000000
    4        4.112386   1.000000
    5        5.851234   0.388333
    6        7.145655   0.000000
    7        9.791351   0.000000
    8       11.916520   0.000000
 
 -0.6250000E-01 -0.4375000E+00  0.6250000E-01  0.1562500E-01
    1       -1.450082   1.000000
    2        0.565672   1.000000
    3        3.473989   1.000000
    4        4.363159   1.000000
    5        4.706694   1.000000
    6        7.858232   0.000000
    7        7.996200   0.000000
    8       11.229033   0.000000
 
 -0.3125000E+00 -0.3125000E+00  0.6250000E-01  0.1562500E-01
    1       -0.917214   1.000000
    2       -0.369182   1.000000
    3        1.948638   1.000000
    4        4.780618   1.000000
    5        5.238532   0.999974
    6        6.751135   0.000000
    7       11.286486   0.000000
    8       11.509271   0.000000
 
 -0.1875000E+00 -0.3125000E+00  0.6250000E-01  0.3125000E-01
    1       -1.634788   1.000000
    2        1.242587   1.000000
    3        2.564133   1.000000
    4        4.628111   1.000000
    5        5.352618   0.999407
    6        6.688248   0.000000
    7        8.831657   0.000000
    8       10.499700   0.000000
 
 -0.6250000E-01 -0.3125000E+00  0.6250000E-01  0.1562500E-01
    1       -3.164601   1.000000
    2        2.559672   1.000000
    3        4.460246   1.000000
    4        4.601283   1.000000
    5        5.180023   0.999996
    6        7.521887   0.000000
    7        8.365188   0.000000
    8       10.147189   0.000000
 
 -0.1875000E+00 -0.1875000E+00  0.6250000E-01  0.1562500E-01
    1       -3.316456   1.000000
    2        3.112957   1.000000
    3        4.287988   1.000000
    4        4.985637   1.000000
    5        5.792510   0.552342
    6        6.280539   0.000451
    7        8.976575   0.000000
    8        9.081913   0.000000
 
 -0.6250000E-01 -0.1875000E+00  0.6250000E-01  0.1562500E-01
    1       -4.564552   1.000000
    2        3.138312   1.000000
    3        4.476635   1.000000
    4        5.598912   0.933260
    5        7.049675   0.000000
    6        7.502130   0.000000
    7        9.655306   0.000000
    8       10.586214   0.000000
 
 -0.6250000E-01 -0.6250000E-01  0.6250000E-01  0.3906250E-02
    1       -5.366299   1.000000
    2        3.317002   1.000000
    3        4.226213   1.000000
    4        4.226214   1.000000
    5        8.791720   0.000000
    6        9.940562   0.000000
    7       10.175229   0.000000
    8       12.072160   0.000000
 
  0.1875000E+00  0.1875000E+00  0.1875000E+00  0.1562500E-01
    1       -2.106540   1.000000
    2        0.193457   1.000000
    3        3.417835   1.000000
    4        3.644900   1.000000
    5        7.583721   0.000000
    6        8.614617   0.000000
    7       10.033273   0.000000
    8       10.326949   0.000000
 
  0.3125000E+00  0.1875000E+00  0.1875000E+00  0.1562500E-01
    1       -0.665935   1.000000
    2        0.182131   1.000000
    3        1.902406   1.000000
    4        2.643717   1.000000
    5        8.087065   0.000000
    6        9.670906   0.000000
    7        9.861618   0.000000
    8       10.343319   0.000000
 
 -0.1875000E+00  0.1875000E+00  0.1875000E+00  0.7812500E-02
    1       -4.894579   1.000000
    2        0.477390   1.000000
    3        2.554336   1.000000
    4        7.677903   0.000000
    5        7.828530   0.000000
    6       11.371255   0.000000
    7       11.582663   0.000000
    8       11.585410   0.000000
 
  0.3125000E+00  0.3125000E+00  0.1875000E+00  0.7812500E-02
    1       -1.076941   1.000000
    2       -1.076941   1.000000
    3        3.378936   1.000000
    4        3.378937   1.000000
    5        8.713362   0.000000
    6        8.713363   0.000000
    7        9.688372   0.000000
    8        9.688372   0.000000
 
 -0.3125000E+00  0.3125000E+00  0.1875000E+00  0.1562500E-01
    1       -4.266389   1.000000
    2       -0.731412   1.000000
    3        2.594414   1.000000
    4        5.990137   0.102782
    5        9.081122   0.000000
    6       11.055032   0.000000
    7       11.353671   0.000000
    8       12.875271   0.000000
 
 -0.1875000E+00  0.3125000E+00  0.1875000E+00  0.1562500E-01
    1       -4.106379   1.000000
    2       -0.013227   1.000000
    3        2.181584   1.000000
    4        6.010478   0.079316
    5        8.003363   0.000000
    6        9.877216   0.000000
    7       11.354741   0.000000
    8       12.557710   0.000000
 
 -0.4375000E+00  0.4375000E+00  0.1875000E+00  0.1562500E-01
    1       -3.336875   1.000000
    2       -2.131603   1.000000
    3        3.374117   1.000000
    4        4.534027   1.000000
    5        9.973652   0.000000
    6       10.577853   0.000000
    7       11.415458   0.000000
    8       12.001094   0.000000
 
 -0.3125000E+00  0.4375000E+00  0.1875000E+00  0.3125000E-01
    1       -3.338042   1.000000
    2       -1.055495   1.000000
    3        2.321811   1.000000
    4        4.496802   1.000000
    5        7.579500   0.000000
    6       10.906481   0.000000
    7       11.806510   0.000000
    8       13.206835   0.000000
 
 -0.1875000E+00  0.4375000E+00  0.1875000E+00  0.1562500E-01
    1       -2.720842   1.000000
    2        0.047790   1.000000
    3        2.358638   1.000000
    4        4.155435   1.000000
    5        5.569151   0.956456
    6        9.300790   0.000000
    7       11.393218   0.000000
    8       12.011464   0.000000
 
 -0.4375000E+00 -0.4375000E+00  0.1875000E+00  0.1562500E-01
    1       -2.319085   1.000000
    2       -2.267485   1.000000
    3        3.171406   1.000000
    4        3.274927   1.000000
    5        7.429909   0.000000
    6       11.100450   0.000000
    7       12.608733   0.000000
    8       12.661464   0.000000
 
 -0.3125000E+00 -0.4375000E+00  0.1875000E+00  0.3125000E-01
    1       -1.859252   1.000000
    2       -0.792808   1.000000
    3        2.544625   1.000000
    4        3.428600   1.000000
    5        4.659357   1.000000
    6        9.580198   0.000000
    7       12.447423   0.000000
    8       13.057677   0.000000
 
 -0.1875000E+00 -0.4375000E+00  0.1875000E+00  0.1562500E-01
    1       -1.062341   1.000000
    2        0.320932   1.000000
    3        2.306440   1.000000
    4        3.070696   1.000000
    5        4.829962   1.000000
    6        7.742080   0.000000
    7        9.881093   0.000000
    8       12.246632   0.000000
 
 -0.3125000E+00 -0.3125000E+00  0.1875000E+00  0.1562500E-01
    1       -0.748423   1.000000
    2        0.297493   1.000000
    3        1.958774   1.000000
    4        3.530596   1.000000
    5        3.756928   1.000000
    6        8.046431   0.000000
    7       10.919211   0.000000
    8       11.172266   0.000000
 
 -0.1875000E+00 -0.3125000E+00  0.1875000E+00  0.1562500E-01
    1       -1.886330   1.000000
    2        2.015637   1.000000
    3        2.995690   1.000000
    4        4.165642   1.000000
    5        4.794870   1.000000
    6        6.665978   0.000000
    7        8.831496   0.000000
    8        9.684741   0.000000
 
 -0.1875000E+00 -0.1875000E+00  0.1875000E+00  0.3906250E-02
    1       -3.469748   1.000000
    2        4.211191   1.000000
    3        4.967525   1.000000
    4        4.967526   1.000000
    5        5.040096   1.000000
    6        5.745049   0.679814
    7        8.758567   0.000000
    8        8.758568   0.000000
 
 -0.3125000E+00  0.3125000E+00  0.3125000E+00  0.7812500E-02
    1       -3.654565   1.000000
    2       -0.793198   1.000000
    3        1.475703   1.000000
    4        4.259226   1.000000
    5       10.218479   0.000000
    6       10.649508   0.000000
    7       11.851284   0.000000
    8       14.130401   0.000000
 
 -0.4375000E+00  0.4375000E+00  0.3125000E+00  0.1562500E-01
    1       -2.764608   1.000000
    2       -1.679806   1.000000
    3        1.748253   1.000000
    4        2.807650   1.000000
    5       10.273297   0.000000
    6       10.362749   0.000000
    7       13.023503   0.000000
    8       13.950057   0.000000
 
 -0.3125000E+00  0.4375000E+00  0.3125000E+00  0.1562500E-01
    1       -2.611163   1.000000
    2       -0.970527   1.000000
    3        1.346379   1.000000
    4        2.938810   1.000000
    5        7.132295   0.000000
    6       11.963940   0.000000
    7       13.380902   0.000000
    8       14.024970   0.000000
 
 -0.4375000E+00 -0.4375000E+00  0.3125000E+00  0.1562500E-01
    1       -1.735917   1.000000
    2       -1.645398   1.000000
    3        1.728828   1.000000
    4        1.772505   1.000000
    5        6.981159   0.000000
    6       12.170442   0.000000
    7       14.201524   0.000000
    8       14.364517   0.000000
 
 -0.3125000E+00 -0.4375000E+00  0.3125000E+00  0.1562500E-01
    1       -1.160822   1.000000
    2       -0.542861   1.000000
    3        1.806169   1.000000
    4        2.291494   1.000000
    5        4.126131   1.000000
    6       10.720348   0.000000
    7       12.665402   0.000000
    8       13.293216   0.000000
 
 -0.3125000E+00 -0.3125000E+00  0.3125000E+00  0.3906250E-02
    1       -0.687510   1.000000
    2        0.753814   1.000000
    3        2.399288   1.000000
    4        2.816703   1.000000
    5        2.816703   1.000000
    6        8.957887   0.000000
    7       10.778631   0.000000
    8       10.778635   0.000000
 
 -0.4375000E+00  0.4375000E+00  0.4375000E+00  0.7812500E-02
    1       -1.999123   1.000000
    2       -1.436118   1.000000
    3        0.902225   1.000000
    4        1.456968   1.000000
    5       10.107688   0.000000
    6       10.128406   0.000000
    7       14.711248   0.000000
    8       15.168575   0.000000
 
 -0.4375000E+00 -0.4375000E+00  0.4375000E+00  0.3906250E-02
    1       -1.356413   1.000000
    2       -1.228820   1.000000
    3        1.058489   1.000000
    4        1.058489   1.000000
    5        6.829939   0.000000
    6       12.469560   0.000000
    7       14.816792   0.000000
    8       14.816793   0.000000
