 running on    8 total cores
 distrk:  each k-point on    8 cores,    1 groups
 distr:  one band on    1 cores,    8 groups
 using from now: INCAR     
 vasp.5.4.4.18Apr17-6-g9f103f2a35 (build Dec 09 2018 21:25:21) complex          
  
 POSCAR found type information on POSCAR  Si
 POSCAR found :  1 types and       2 ions
 scaLAPACK will be used

 ----------------------------------------------------------------------------- 
|                                                                             |
|           W    W    AA    RRRRR   N    N  II  N    N   GGGG   !!!           |
|           W    W   A  A   R    R  NN   N  II  NN   N  G    G  !!!           |
|           W    W  A    A  R    R  N N  N  II  N N  N  G       !!!           |
|           W WW W  AAAAAA  RRRRR   N  N N  II  N  N N  G  GGG   !            |
|           WW  WW  A    A  R   R   N   NN  II  N   NN  G    G                |
|           W    W  A    A  R    R  N    N  II  N    N   GGGG   !!!           |
|                                                                             |
|      For optimal performance we recommend to set                            |
|        NCORE= 4 - approx SQRT( number of cores)                             |
|      NCORE specifies how many cores store one orbital (NPAR=cpu/NCORE).     |
|      This setting can  greatly improve the performance of VASP for DFT.     |
|      The default,   NCORE=1            might be grossly inefficient         |
|      on modern multi-core architectures or massively parallel machines.     |
|      Do your own testing !!!!                                               |
|      Unfortunately you need to use the default for GW and RPA calculations. |
|      (for HF NCORE is supported but not extensively tested yet)             |
|                                                                             |
 ----------------------------------------------------------------------------- 

 LDA part: xc-table for Pade appr. of Perdew
 POSCAR, INCAR and KPOINTS ok, starting setup
 FFT: planning ...
 WAVECAR not read
 entering main loop
       N       E                     dE             d eps       ncg     rms          rms(c)
DAV:   1     0.179489403695E+01    0.17949E+01   -0.25304E+03   896   0.560E+02
DAV:   2    -0.946539349254E+01   -0.11260E+02   -0.10735E+02  1328   0.625E+01
DAV:   3    -0.963407750289E+01   -0.16868E+00   -0.16674E+00  1240   0.909E+00
DAV:   4    -0.963470041277E+01   -0.62291E-03   -0.62210E-03  1240   0.534E-01
DAV:   5    -0.963470181925E+01   -0.14065E-05   -0.14063E-05  1240   0.209E-02    0.132E+00
DAV:   6    -0.962754253008E+01    0.71593E-02   -0.80699E-03  1120   0.537E-01    0.811E-01
DAV:   7    -0.962391339430E+01    0.36291E-02   -0.18502E-02  1080   0.817E-01    0.615E-02
DAV:   8    -0.962387579824E+01    0.37596E-04   -0.47245E-04   728   0.160E-01
   1 F= -.96238758E+01 E0= -.96139768E+01  d E =-.962388E+01
 curvature:   0.00 expect dE= 0.000E+00 dE for cont linesearch  0.000E+00
 trial: gam= 0.00000 g(F)=  0.216E-48 g(S)=  0.000E+00 ort = 0.000E+00 (trialstep = 0.100E+01)
 search vector abs. value=  0.100E-09
 reached required accuracy - stopping structural energy minimisation
 writing wavefunctions
