unknown system                          
           1
    -2.620155    2.620155    1.495165
     2.620155   -2.620155    1.495165
     2.620155    2.620155   -1.495165
   Si
   2
Direct configuration=     1
   0.00000000  0.00000000  0.00000000
   0.25000000  0.75000000  0.50000000
