<?xml version="1.0" encoding="ISO-8859-1"?>
<modeling>
 <generator>
  <i name="program" type="string">vasp </i>
  <i name="version" type="string">5.4.4.18Apr17-6-g9f103f2a35  </i>
  <i name="subversion" type="string">(build Dec 09 2018 21:25:21) complex            parallel </i>
  <i name="platform" type="string">IFC18.0.1.163_CrayMPICH7.7.0_MKL18.0.1.163 </i>
  <i name="date" type="string">2019 03 19 </i>
  <i name="time" type="string">13:39:09 </i>
 </generator>
 <incar>
  <i type="string" name="PREC">normal</i>
  <i type="int" name="IBRION">     2</i>
  <i name="EDIFF">      0.00040000</i>
  <i name="EDIFFG">     -0.01000000</i>
  <i type="int" name="NSW">    15</i>
  <i type="int" name="ISIF">     2</i>
  <i name="ENCUT">    300.00000000</i>
  <i type="int" name="NBANDS">     8</i>
  <i type="logical" name="LREAL"> F  </i>
  <i type="int" name="ISMEAR">     0</i>
  <i name="SIGMA">      0.20000000</i>
  <v type="int" name="KPOINT_BSE">    -1     0     0     0</v>
 </incar>
 <structure name="primitive_cell" >
  <crystal>
   <varray name="basis" >
    <v>       0.00000000       2.71500000       2.71500000 </v>
    <v>       2.71500000       0.00000000       2.71500000 </v>
    <v>       2.71500000       2.71500000       0.00000000 </v>
   </varray>
   <i name="volume">     40.02575175 </i>
   <varray name="rec_basis" >
    <v>      -0.18416206       0.18416206       0.18416206 </v>
    <v>       0.18416206      -0.18416206       0.18416206 </v>
    <v>       0.18416206       0.18416206      -0.18416206 </v>
   </varray>
  </crystal>
  <varray name="positions" >
   <v>      -0.50000000      -0.50000000      -0.50000000 </v>
   <v>      -0.25000000      -0.25000000      -0.25000000 </v>
  </varray>
 </structure>
 <varray name="primitive_index" >
  <v type="int" >        1 </v>
  <v type="int" >        2 </v>
 </varray>
 <kpoints>
  <generation param="Monkhorst-Pack">
   <v type="int" name="divisions">       5        5        5 </v>
   <v name="usershift">      0.00000000       0.00000000       0.00000000 </v>
   <v name="genvec1">      0.20000000       0.00000000      -0.00000000 </v>
   <v name="genvec2">      0.00000000       0.20000000       0.00000000 </v>
   <v name="genvec3">     -0.00000000      -0.00000000       0.20000000 </v>
   <v name="shift">      0.00000000       0.00000000       0.00000000 </v>
  </generation>
  <varray name="kpointlist" >
   <v>       0.00000000       0.00000000       0.00000000 </v>
   <v>       0.20000000       0.00000000       0.00000000 </v>
   <v>       0.40000000       0.00000000       0.00000000 </v>
   <v>       0.20000000       0.20000000       0.00000000 </v>
   <v>       0.40000000       0.20000000       0.00000000 </v>
   <v>      -0.40000000       0.20000000       0.00000000 </v>
   <v>      -0.20000000       0.20000000       0.00000000 </v>
   <v>       0.40000000       0.40000000       0.00000000 </v>
   <v>      -0.40000000       0.40000000       0.00000000 </v>
   <v>      -0.40000000       0.40000000       0.20000000 </v>
  </varray>
  <varray name="weights" >
   <v>       0.00800000 </v>
   <v>       0.06400000 </v>
   <v>       0.06400000 </v>
   <v>       0.04800000 </v>
   <v>       0.19200000 </v>
   <v>       0.19200000 </v>
   <v>       0.09600000 </v>
   <v>       0.04800000 </v>
   <v>       0.09600000 </v>
   <v>       0.19200000 </v>
  </varray>
 </kpoints>
 <parameters>
  <separator name="general" >
   <i type="string" name="SYSTEM">unknown system</i>
   <i type="logical" name="LCOMPAT"> F  </i>
  </separator>
  <separator name="electronic" >
   <i type="string" name="PREC">normal</i>
   <i name="ENMAX">    300.00000000</i>
   <i name="ENAUG">    322.06900000</i>
   <i name="EDIFF">      0.00040000</i>
   <i type="int" name="IALGO">    38</i>
   <i type="int" name="IWAVPR">    11</i>
   <i type="int" name="NBANDS">     8</i>
   <i name="NELECT">      8.00000000</i>
   <i type="int" name="TURBO">     0</i>
   <i type="int" name="IRESTART">     0</i>
   <i type="int" name="NREBOOT">     0</i>
   <i type="int" name="NMIN">     0</i>
   <i name="EREF">      0.00000000</i>
   <separator name="electronic smearing" >
    <i type="int" name="ISMEAR">     0</i>
    <i name="SIGMA">      0.20000000</i>
    <i name="KSPACING">      0.50000000</i>
    <i type="logical" name="KGAMMA"> T  </i>
   </separator>
   <separator name="electronic projectors" >
    <i type="logical" name="LREAL"> F  </i>
    <v name="ROPT">      0.00000000</v>
    <i type="int" name="LMAXPAW">  -100</i>
    <i type="int" name="LMAXMIX">     2</i>
    <i type="logical" name="NLSPLINE"> F  </i>
   </separator>
   <separator name="electronic startup" >
    <i type="int" name="ISTART">     0</i>
    <i type="int" name="ICHARG">     2</i>
    <i type="int" name="INIWAV">     1</i>
   </separator>
   <separator name="electronic spin" >
    <i type="int" name="ISPIN">     1</i>
    <i type="logical" name="LNONCOLLINEAR"> F  </i>
    <v name="MAGMOM">      1.00000000      1.00000000</v>
    <i name="NUPDOWN">     -1.00000000</i>
    <i type="logical" name="LSORBIT"> F  </i>
    <v name="SAXIS">      0.00000000      0.00000000      1.00000000</v>
    <i type="logical" name="LSPIRAL"> F  </i>
    <v name="QSPIRAL">      0.00000000      0.00000000      0.00000000</v>
    <i type="logical" name="LZEROZ"> F  </i>
   </separator>
   <separator name="electronic exchange-correlation" >
    <i type="logical" name="LASPH"> F  </i>
    <i type="logical" name="LMETAGGA"> F  </i>
   </separator>
   <separator name="electronic convergence" >
    <i type="int" name="NELM">    60</i>
    <i type="int" name="NELMDL">    -5</i>
    <i type="int" name="NELMIN">     2</i>
    <i name="ENINI">    300.00000000</i>
    <separator name="electronic convergence detail" >
     <i type="logical" name="LDIAG"> T  </i>
     <i type="logical" name="LSUBROT"> F  </i>
     <i name="WEIMIN">      0.00100000</i>
     <i name="EBREAK">      0.00001250</i>
     <i name="DEPER">      0.30000000</i>
     <i type="int" name="NRMM">     4</i>
     <i name="TIME">      0.40000000</i>
    </separator>
   </separator>
   <separator name="electronic mixer" >
    <i name="AMIX">      0.40000000</i>
    <i name="BMIX">      1.00000000</i>
    <i name="AMIN">      0.10000000</i>
    <i name="AMIX_MAG">      1.60000000</i>
    <i name="BMIX_MAG">      1.00000000</i>
    <separator name="electronic mixer details" >
     <i type="int" name="IMIX">     4</i>
     <i type="logical" name="MIXFIRST"> F  </i>
     <i type="int" name="MAXMIX">   -45</i>
     <i name="WC">    100.00000000</i>
     <i type="int" name="INIMIX">     1</i>
     <i type="int" name="MIXPRE">     1</i>
     <i type="int" name="MREMOVE">     5</i>
    </separator>
   </separator>
   <separator name="electronic dipolcorrection" >
    <i type="logical" name="LDIPOL"> F  </i>
    <i type="logical" name="LMONO"> F  </i>
    <i type="int" name="IDIPOL">     0</i>
    <i name="EPSILON">      1.00000000</i>
    <v name="DIPOL">   -100.00000000   -100.00000000   -100.00000000</v>
    <i name="EFIELD">      0.00000000</i>
   </separator>
  </separator>
  <separator name="grids" >
   <i type="int" name="NGX">    16</i>
   <i type="int" name="NGY">    16</i>
   <i type="int" name="NGZ">    16</i>
   <i type="int" name="NGXF">    32</i>
   <i type="int" name="NGYF">    32</i>
   <i type="int" name="NGZF">    32</i>
   <i type="logical" name="ADDGRID"> F  </i>
  </separator>
  <separator name="ionic" >
   <i type="int" name="NSW">    15</i>
   <i type="int" name="IBRION">     2</i>
   <i type="int" name="MDALGO">     0</i>
   <i type="int" name="ISIF">     2</i>
   <i name="PSTRESS">      0.00000000</i>
   <i name="EDIFFG">     -0.01000000</i>
   <i type="int" name="NFREE">     1</i>
   <i name="POTIM">      0.50000000</i>
   <i name="SMASS">     -3.00000000</i>
   <i name="SCALEE">      1.00000000</i>
  </separator>
  <separator name="ionic md" >
   <i name="TEBEG">      0.00010000</i>
   <i name="TEEND">      0.00010000</i>
   <i type="int" name="NBLOCK">     1</i>
   <i type="int" name="KBLOCK">    15</i>
   <i type="int" name="NPACO">   256</i>
   <i name="APACO">     16.00000000</i>
  </separator>
  <separator name="symmetry" >
   <i type="int" name="ISYM">     2</i>
   <i name="SYMPREC">      0.00001000</i>
  </separator>
  <separator name="dos" >
   <i type="int" name="LORBIT">     0</i>
   <v name="RWIGS">     -1.00000000</v>
   <i type="int" name="NEDOS">   301</i>
   <i name="EMIN">     10.00000000</i>
   <i name="EMAX">    -10.00000000</i>
   <i name="EFERMI">      0.00000000</i>
  </separator>
  <separator name="writing" >
   <i type="int" name="NWRITE">     2</i>
   <i type="logical" name="LWAVE"> T  </i>
   <i type="logical" name="LDOWNSAMPLE"> F  </i>
   <i type="logical" name="LCHARG"> T  </i>
   <i type="logical" name="LPARD"> F  </i>
   <i type="logical" name="LVTOT"> F  </i>
   <i type="logical" name="LVHAR"> F  </i>
   <i type="logical" name="LELF"> F  </i>
   <i type="logical" name="LOPTICS"> F  </i>
   <v name="STM">      0.00000000      0.00000000      0.00000000      0.00000000      0.00000000      0.00000000      0.00000000</v>
  </separator>
  <separator name="performance" >
   <i type="int" name="NPAR">     8</i>
   <i type="int" name="NSIM">     4</i>
   <i type="int" name="NBLK">    -1</i>
   <i type="logical" name="LPLANE"> T  </i>
   <i type="logical" name="LSCALAPACK"> T  </i>
   <i type="logical" name="LSCAAWARE"> F  </i>
   <i type="logical" name="LSCALU"> F  </i>
   <i type="logical" name="LASYNC"> F  </i>
   <i type="logical" name="LORBITALREAL"> F  </i>
  </separator>
  <separator name="miscellaneous" >
   <i type="int" name="IDIOT">     3</i>
   <i type="int" name="ISPECIAL">     0</i>
   <i type="logical" name="LMUSIC"> F  </i>
   <v name="POMASS">     28.08500000</v>
   <v name="DARWINR">      0.00000000</v>
   <v name="DARWINV">      1.00000000</v>
   <i type="logical" name="LCORR"> T  </i>
  </separator>
  <i type="logical" name="GGA_COMPAT"> T  </i>
  <i type="logical" name="LBERRY"> F  </i>
  <i type="int" name="ICORELEVEL">     0</i>
  <i type="logical" name="LDAU"> F  </i>
  <i type="int" name="I_CONSTRAINED_M">     0</i>
  <separator name="electronic exchange-correlation" >
   <i type="string" name="GGA">--</i>
   <i type="int" name="VOSKOWN">     0</i>
   <i type="logical" name="LHFCALC"> F  </i>
   <i type="string" name="PRECFOCK"></i>
   <i type="logical" name="LSYMGRAD"> F  </i>
   <i type="logical" name="LHFONE"> F  </i>
   <i type="logical" name="LRHFCALC"> F  </i>
   <i type="logical" name="LTHOMAS"> F  </i>
   <i type="logical" name="LMODELHF"> F  </i>
   <i name="ENCUT4O">     -1.00000000</i>
   <i type="int" name="EXXOEP">     0</i>
   <i type="int" name="FOURORBIT">     0</i>
   <i name="AEXX">      0.00000000</i>
   <i name="HFALPHA">      0.00000000</i>
   <i name="MCALPHA">      0.00000000</i>
   <i name="ALDAX">      1.00000000</i>
   <i name="AGGAX">      1.00000000</i>
   <i name="ALDAC">      1.00000000</i>
   <i name="AGGAC">      1.00000000</i>
   <i type="int" name="NKREDX">     1</i>
   <i type="int" name="NKREDY">     1</i>
   <i type="int" name="NKREDZ">     1</i>
   <i type="logical" name="SHIFTRED"> F  </i>
   <i type="logical" name="ODDONLY"> F  </i>
   <i type="logical" name="EVENONLY"> F  </i>
   <i type="int" name="LMAXFOCK">     0</i>
   <i type="int" name="NMAXFOCKAE">     0</i>
   <i type="logical" name="LFOCKAEDFT"> F  </i>
   <i name="HFSCREEN">      0.00000000</i>
   <i name="HFSCREENC">      0.00000000</i>
   <i type="int" name="NBANDSGWLOW">     0</i>
  </separator>
  <separator name="vdW DFT" >
   <i type="logical" name="LUSE_VDW"> F  </i>
   <i name="Zab_VDW">     -0.84910000</i>
   <i name="PARAM1">      0.12340000</i>
   <i name="PARAM2">      1.00000000</i>
   <i name="PARAM3">      0.00000000</i>
  </separator>
  <separator name="model GW" >
   <i type="int" name="MODEL_GW">     0</i>
   <i name="MODEL_EPS0">     12.00772552</i>
   <i name="MODEL_ALPHA">      1.00000000</i>
  </separator>
  <separator name="linear response parameters" >
   <i type="logical" name="LEPSILON"> F  </i>
   <i type="logical" name="LRPA"> F  </i>
   <i type="logical" name="LNABLA"> F  </i>
   <i type="logical" name="LVEL"> F  </i>
   <i type="int" name="KINTER">     0</i>
   <i name="CSHIFT">      0.10000000</i>
   <i name="OMEGAMAX">     -1.00000000</i>
   <i name="DEG_THRESHOLD">      0.00200000</i>
   <i name="RTIME">     -0.10000000</i>
   <i name="WPLASMAI">      0.00000000</i>
   <v name="DFIELD">      0.00000000      0.00000000      0.00000000</v>
   <v name="WPLASMA">      0.00000000      0.00000000      0.00000000      0.00000000      0.00000000      0.00000000      0.00000000      0.00000000      0.00000000</v>
  </separator>
  <separator name="orbital magnetization" >
   <i type="logical" name="NUCIND"> F  </i>
   <v name="MAGPOS">      0.00000000      0.00000000      0.00000000</v>
   <i type="logical" name="LNICSALL"> T  </i>
   <i type="logical" name="ORBITALMAG"> F  </i>
   <i type="logical" name="LMAGBLOCH"> F  </i>
   <i type="logical" name="LCHIMAG"> F  </i>
   <i type="logical" name="LGAUGE"> T  </i>
   <i type="int" name="MAGATOM">     0</i>
   <v name="MAGDIPOL">      0.00000000      0.00000000      0.00000000</v>
   <v name="AVECCONST">      0.00000000      0.00000000      0.00000000</v>
  </separator>
  <separator name="response functions" >
   <i type="logical" name="LADDER"> F  </i>
   <i type="logical" name="LRPAFORCE"> F  </i>
   <i type="logical" name="LFXC"> F  </i>
   <i type="logical" name="LHARTREE"> T  </i>
   <i type="int" name="IBSE">     0</i>
   <v type="int" name="KPOINT">    -1     0     0     0</v>
   <i type="logical" name="LTCTE"> F  </i>
   <i type="logical" name="LTETE"> F  </i>
   <i type="logical" name="LTRIPLET"> F  </i>
   <i type="logical" name="LFXCEPS"> F  </i>
   <i type="logical" name="LFXHEG"> F  </i>
   <i type="int" name="NATURALO">     2</i>
   <i type="logical" name="L2ORDER"> F  </i>
   <i type="logical" name="LMP2LT"> F  </i>
   <i type="logical" name="LUSEW"> F  </i>
   <i name="ENCUTGW">     -2.00000000</i>
   <i name="ENCUTGWSOFT">     -2.00000000</i>
   <i name="ENCUTLF">     -1.00000000</i>
   <i type="int" name="LMAXMP2">    -1</i>
   <i name="SCISSOR">      0.00000000</i>
   <i type="int" name="NOMEGA">     0</i>
   <i type="int" name="NOMEGAR">     0</i>
   <i type="int" name="NBANDSGW">    -1</i>
   <i type="int" name="NBANDSO">    -1</i>
   <i type="int" name="NBANDSV">    -1</i>
   <i type="int" name="NELM">     1</i>
   <i type="int" name="NELMHF">     1</i>
   <i type="int" name="DIM">     3</i>
   <i type="int" name="ANTIRES">     0</i>
   <i name="OMEGAMAX">    -30.00000000</i>
   <i name="OMEGAMIN">    -30.00000000</i>
   <i name="OMEGATL">   -200.00000000</i>
   <i type="int" name="OMEGAGRID">   140</i>
   <i name="CSHIFT">     -0.10000000</i>
   <i type="logical" name="SELFENERGY"> F  </i>
   <i type="logical" name="LSPECTRAL"> F  </i>
   <i type="logical" name="LSPECTRALGW"> F  </i>
   <i type="logical" name="LSINGLES"> F  </i>
   <i type="logical" name="LFERMIGW"> F  </i>
   <i type="logical" name="ODDONLYGW"> F  </i>
   <i type="logical" name="EVENONLYGW"> F  </i>
   <i type="int" name="NKREDLFX">     1</i>
   <i type="int" name="NKREDLFY">     1</i>
   <i type="int" name="NKREDLFZ">     1</i>
   <i type="int" name="MAXMEM">  2800</i>
   <i type="int" name="TELESCOPE">     0</i>
   <i type="int" name="TAUPAR">     1</i>
   <i type="int" name="OMEGAPAR">    -1</i>
   <i name="LAMBDA">      1.00000000</i>
  </separator>
  <separator name="External order field" >
   <i name="OFIELD_KAPPA">      0.00000000</i>
   <v name="OFIELD_K">      0.00000000      0.00000000      0.00000000</v>
   <i name="OFIELD_Q6_NEAR">      0.00000000</i>
   <i name="OFIELD_Q6_FAR">      0.00000000</i>
   <i name="OFIELD_A">      0.00000000</i>
  </separator>
 </parameters>
 <atominfo>
  <atoms>       2 </atoms>
  <types>       1 </types>
  <array name="atoms" >
   <dimension dim="1">ion</dimension>
   <field type="string">element</field>
   <field type="int">atomtype</field>
   <set>
    <rc><c>Si</c><c>   1</c></rc>
    <rc><c>Si</c><c>   1</c></rc>
   </set>
  </array>
  <array name="atomtypes" >
   <dimension dim="1">type</dimension>
   <field type="int">atomspertype</field>
   <field type="string">element</field>
   <field>mass</field>
   <field>valence</field>
   <field type="string">pseudopotential</field>
   <set>
    <rc><c>   2</c><c>Si</c><c>     28.08500000</c><c>      4.00000000</c><c> PAW_PBE Si 05Jan2001                   </c></rc>
   </set>
  </array>
 </atominfo>
 <structure name="initialpos" >
  <crystal>
   <varray name="basis" >
    <v>       0.00000000       2.71500000       2.71500000 </v>
    <v>       2.71500000       0.00000000       2.71500000 </v>
    <v>       2.71500000       2.71500000       0.00000000 </v>
   </varray>
   <i name="volume">     40.02575175 </i>
   <varray name="rec_basis" >
    <v>      -0.18416206       0.18416206       0.18416206 </v>
    <v>       0.18416206      -0.18416206       0.18416206 </v>
    <v>       0.18416206       0.18416206      -0.18416206 </v>
   </varray>
  </crystal>
  <varray name="positions" >
   <v>       0.50000000       0.50000000       0.50000000 </v>
   <v>       0.75000000       0.75000000       0.75000000 </v>
  </varray>
 </structure>
 <calculation>
  <scstep>
   <time name="dav">    0.09    0.10</time>
   <time name="total">    0.13    0.15</time>
   <energy>
    <i name="alphaZ">      3.36414203 </i>
    <i name="ewald">   -228.56352493 </i>
    <i name="hartreedc">    -11.00108243 </i>
    <i name="XCdc">    -18.60181216 </i>
    <i name="pawpsdc">     65.95520812 </i>
    <i name="pawaedc">    -30.76852678 </i>
    <i name="eentropy">     -0.01259110 </i>
    <i name="bandstr">     15.76713218 </i>
    <i name="atom">    206.12968587 </i>
    <i name="e_fr_energy">      2.26863079 </i>
    <i name="e_wo_entrp">      2.28122189 </i>
    <i name="e_0_energy">      2.27492634 </i>
   </energy>
  </scstep>
  <scstep>
   <time name="dav">    0.15    0.16</time>
   <time name="total">    0.15    0.16</time>
   <energy>
    <i name="e_fr_energy">    -10.79358117 </i>
    <i name="e_wo_entrp">    -10.79350401 </i>
    <i name="e_0_energy">    -10.79354259 </i>
   </energy>
  </scstep>
  <scstep>
   <time name="dav">    0.11    0.11</time>
   <time name="total">    0.11    0.11</time>
   <energy>
    <i name="e_fr_energy">    -10.96245306 </i>
    <i name="e_wo_entrp">    -10.96239745 </i>
    <i name="e_0_energy">    -10.96242525 </i>
   </energy>
  </scstep>
  <scstep>
   <time name="dav">    0.16    0.17</time>
   <time name="total">    0.16    0.17</time>
   <energy>
    <i name="e_fr_energy">    -10.96312673 </i>
    <i name="e_wo_entrp">    -10.96307125 </i>
    <i name="e_0_energy">    -10.96309899 </i>
   </energy>
  </scstep>
  <scstep>
   <time name="dav">    0.10    0.11</time>
   <time name="total">    0.12    0.12</time>
   <energy>
    <i name="e_fr_energy">    -10.96312721 </i>
    <i name="e_wo_entrp">    -10.96307173 </i>
    <i name="e_0_energy">    -10.96309947 </i>
   </energy>
  </scstep>
  <scstep>
   <time name="dav">    0.10    0.10</time>
   <time name="total">    0.15    0.15</time>
   <energy>
    <i name="e_fr_energy">    -10.83203455 </i>
    <i name="e_wo_entrp">    -10.83178379 </i>
    <i name="e_0_energy">    -10.83190917 </i>
   </energy>
  </scstep>
  <scstep>
   <time name="dav">    0.10    0.10</time>
   <time name="total">    0.14    0.15</time>
   <energy>
    <i name="e_fr_energy">    -10.77225809 </i>
    <i name="e_wo_entrp">    -10.77109666 </i>
    <i name="e_0_energy">    -10.77167738 </i>
   </energy>
  </scstep>
  <scstep>
   <time name="dav">    0.08    0.09</time>
   <time name="total">    0.13    0.14</time>
   <energy>
    <i name="e_fr_energy">    -10.77378125 </i>
    <i name="e_wo_entrp">    -10.77280991 </i>
    <i name="e_0_energy">    -10.77329558 </i>
   </energy>
  </scstep>
  <scstep>
   <time name="dav">    0.09    0.10</time>
   <time name="total">    0.12    0.13</time>
   <energy>
    <i name="alphaZ">      3.36414203 </i>
    <i name="ewald">   -228.56352493 </i>
    <i name="hartreedc">    -15.03892999 </i>
    <i name="XCdc">    -17.94322464 </i>
    <i name="pawpsdc">     74.59494268 </i>
    <i name="pawaedc">    -39.63783305 </i>
    <i name="eentropy">     -0.00097034 </i>
    <i name="bandstr">      6.32183106 </i>
    <i name="atom">    206.12968587 </i>
    <i name="e_fr_energy">    -10.77388131 </i>
    <i name="e_wo_entrp">    -10.77291097 </i>
    <i name="e_0_energy">    -10.77339614 </i>
   </energy>
  </scstep>
  <structure>
   <crystal>
    <varray name="basis" >
     <v>       0.00000000       2.71500000       2.71500000 </v>
     <v>       2.71500000       0.00000000       2.71500000 </v>
     <v>       2.71500000       2.71500000       0.00000000 </v>
    </varray>
    <i name="volume">     40.02575175 </i>
    <varray name="rec_basis" >
     <v>      -0.18416206       0.18416206       0.18416206 </v>
     <v>       0.18416206      -0.18416206       0.18416206 </v>
     <v>       0.18416206       0.18416206      -0.18416206 </v>
    </varray>
   </crystal>
   <varray name="positions" >
    <v>       0.50000000       0.50000000       0.50000000 </v>
    <v>       0.75000000       0.75000000       0.75000000 </v>
   </varray>
  </structure>
  <varray name="forces" >
   <v>       0.00000000       0.00000000       0.00000000 </v>
   <v>      -0.00000000      -0.00000000      -0.00000000 </v>
  </varray>
  <varray name="stress" >
   <v>      20.97673986      -0.00000000       0.00000000 </v>
   <v>      -0.00000000      20.97673986       0.00000000 </v>
   <v>       0.00000000       0.00000000      20.97673986 </v>
  </varray>
  <energy>
   <i name="e_fr_energy">    -10.77388131 </i>
   <i name="e_wo_entrp">    -10.77339614 </i>
   <i name="e_0_energy">     -0.00097034 </i>
  </energy>
  <time name="totalsc">    2.08    2.72</time>
  <eigenvalues>
   <array>
    <dimension dim="1">band</dimension>
    <dimension dim="2">kpoint</dimension>
    <dimension dim="3">spin</dimension>
    <field>eigene</field>
    <field>occ</field>
    <set>
     <set comment="spin 1">
      <set comment="kpoint 1">
       <r>   -6.1173    1.0000 </r>
       <r>    5.8500    0.9702 </r>
       <r>    5.8500    0.9702 </r>
       <r>    5.8500    0.9702 </r>
       <r>    8.4116    0.0000 </r>
       <r>    8.4116    0.0000 </r>
       <r>    8.4116    0.0000 </r>
       <r>    9.2254    0.0000 </r>
      </set>
      <set comment="kpoint 2">
       <r>   -5.5994    1.0000 </r>
       <r>    2.8389    1.0000 </r>
       <r>    5.2687    1.0000 </r>
       <r>    5.2687    1.0000 </r>
       <r>    8.0708    0.0000 </r>
       <r>    9.2120    0.0000 </r>
       <r>    9.2121    0.0000 </r>
       <r>   11.9088    0.0000 </r>
      </set>
      <set comment="kpoint 3">
       <r>   -4.2355    1.0000 </r>
       <r>   -0.4264    1.0000 </r>
       <r>    4.7209    1.0000 </r>
       <r>    4.7209    1.0000 </r>
       <r>    7.4705    0.0000 </r>
       <r>    9.2633    0.0000 </r>
       <r>    9.2634    0.0000 </r>
       <r>   13.6821    0.0000 </r>
      </set>
      <set comment="kpoint 4">
       <r>   -5.4212    1.0000 </r>
       <r>    3.2272    1.0000 </r>
       <r>    4.3584    1.0000 </r>
       <r>    4.3584    1.0000 </r>
       <r>    7.3062    0.0000 </r>
       <r>    9.7371    0.0000 </r>
       <r>   10.7473    0.0000 </r>
       <r>   10.7474    0.0000 </r>
      </set>
      <set comment="kpoint 5">
       <r>   -4.2789    1.0000 </r>
       <r>    0.5395    1.0000 </r>
       <r>    3.2222    1.0000 </r>
       <r>    3.8501    1.0000 </r>
       <r>    7.6202    0.0000 </r>
       <r>    9.9356    0.0000 </r>
       <r>   10.7890    0.0000 </r>
       <r>   11.2900    0.0000 </r>
      </set>
      <set comment="kpoint 6">
       <r>   -3.3935    1.0000 </r>
       <r>   -0.8557    1.0000 </r>
       <r>    2.4123    1.0000 </r>
       <r>    4.1331    1.0000 </r>
       <r>    7.9036    0.0000 </r>
       <r>   10.4579    0.0000 </r>
       <r>   10.6531    0.0000 </r>
       <r>   13.4254    0.0000 </r>
      </set>
      <set comment="kpoint 7">
       <r>   -4.7672    1.0000 </r>
       <r>    1.3730    1.0000 </r>
       <r>    2.8438    1.0000 </r>
       <r>    5.0030    1.0000 </r>
       <r>    8.7431    0.0000 </r>
       <r>    9.8425    0.0000 </r>
       <r>   10.1639    0.0000 </r>
       <r>   11.5933    0.0000 </r>
      </set>
      <set comment="kpoint 8">
       <r>   -3.4027    1.0000 </r>
       <r>   -0.3292    1.0000 </r>
       <r>    3.1510    1.0000 </r>
       <r>    3.1510    1.0000 </r>
       <r>    6.4237    0.0149 </r>
       <r>    7.1531    0.0000 </r>
       <r>   14.3766    0.0000 </r>
       <r>   14.3767    0.0000 </r>
      </set>
      <set comment="kpoint 9">
       <r>   -2.1963    1.0000 </r>
       <r>   -1.5914    1.0000 </r>
       <r>    1.7787    1.0000 </r>
       <r>    3.2700    1.0000 </r>
       <r>    6.8727    0.0000 </r>
       <r>    8.9982    0.0000 </r>
       <r>   13.9553    0.0000 </r>
       <r>   14.5337    0.0000 </r>
      </set>
      <set comment="kpoint 10">
       <r>   -2.9628    1.0000 </r>
       <r>   -0.7130    1.0000 </r>
       <r>    1.8638    1.0000 </r>
       <r>    2.8520    1.0000 </r>
       <r>    9.2436    0.0000 </r>
       <r>    9.6172    0.0000 </r>
       <r>   10.2870    0.0000 </r>
       <r>   13.6450    0.0000 </r>
      </set>
     </set>
    </set>
   </array>
  </eigenvalues>
  <separator name="orbital magnetization" >
   <v name="MAGDIPOLOUT">      0.00000000      0.00000000      0.00000000</v>
  </separator>
  <dos>
   <i name="efermi">      6.11640954 </i>
   <total>
    <array>
     <dimension dim="1">gridpoints</dimension>
     <dimension dim="2">spin</dimension>
     <field>energy</field>
     <field>total</field>
     <field>integrated</field>
     <set>
      <set comment="spin 1">
       <r>    -8.1173     0.0000     0.0000 </r>
       <r>    -8.0351     0.0000     0.0000 </r>
       <r>    -7.9529     0.0000     0.0000 </r>
       <r>    -7.8708     0.0000     0.0000 </r>
       <r>    -7.7886     0.0000     0.0000 </r>
       <r>    -7.7064     0.0000     0.0000 </r>
       <r>    -7.6242     0.0000     0.0000 </r>
       <r>    -7.5421     0.0000     0.0000 </r>
       <r>    -7.4599     0.0000     0.0000 </r>
       <r>    -7.3777     0.0000     0.0000 </r>
       <r>    -7.2956     0.0000     0.0000 </r>
       <r>    -7.2134     0.0000     0.0000 </r>
       <r>    -7.1312     0.0000     0.0000 </r>
       <r>    -7.0491     0.0000     0.0000 </r>
       <r>    -6.9669     0.0000     0.0000 </r>
       <r>    -6.8847     0.0000     0.0000 </r>
       <r>    -6.8025     0.0000     0.0000 </r>
       <r>    -6.7204     0.0000     0.0000 </r>
       <r>    -6.6382     0.0000     0.0000 </r>
       <r>    -6.5560     0.0002     0.0000 </r>
       <r>    -6.4739     0.0010     0.0001 </r>
       <r>    -6.3917     0.0040     0.0004 </r>
       <r>    -6.3095     0.0118     0.0014 </r>
       <r>    -6.2274     0.0255     0.0035 </r>
       <r>    -6.1452     0.0397     0.0068 </r>
       <r>    -6.0630     0.0450     0.0105 </r>
       <r>    -5.9808     0.0404     0.0138 </r>
       <r>    -5.8987     0.0424     0.0173 </r>
       <r>    -5.8165     0.0817     0.0240 </r>
       <r>    -5.7343     0.1829     0.0390 </r>
       <r>    -5.6522     0.3322     0.0663 </r>
       <r>    -5.5700     0.4661     0.1046 </r>
       <r>    -5.4878     0.5170     0.1471 </r>
       <r>    -5.4057     0.4650     0.1853 </r>
       <r>    -5.3235     0.3403     0.2132 </r>
       <r>    -5.2413     0.1990     0.2296 </r>
       <r>    -5.1591     0.0945     0.2374 </r>
       <r>    -5.0770     0.0566     0.2420 </r>
       <r>    -4.9948     0.0997     0.2502 </r>
       <r>    -4.9126     0.2307     0.2692 </r>
       <r>    -4.8305     0.4103     0.3029 </r>
       <r>    -4.7483     0.5299     0.3464 </r>
       <r>    -4.6661     0.5033     0.3878 </r>
       <r>    -4.5840     0.3937     0.4201 </r>
       <r>    -4.5018     0.3893     0.4521 </r>
       <r>    -4.4196     0.6367     0.5044 </r>
       <r>    -4.3375     1.0695     0.5923 </r>
       <r>    -4.2553     1.3882     0.7064 </r>
       <r>    -4.1731     1.3172     0.8146 </r>
       <r>    -4.0909     0.9066     0.8891 </r>
       <r>    -4.0088     0.4524     0.9263 </r>
       <r>    -3.9266     0.1640     0.9397 </r>
       <r>    -3.8444     0.0468     0.9436 </r>
       <r>    -3.7623     0.0315     0.9462 </r>
       <r>    -3.6801     0.1023     0.9546 </r>
       <r>    -3.5979     0.3157     0.9805 </r>
       <r>    -3.5158     0.7087     1.0388 </r>
       <r>    -3.4336     1.1475     1.1331 </r>
       <r>    -3.3514     1.3465     1.2437 </r>
       <r>    -3.2692     1.1765     1.3404 </r>
       <r>    -3.1871     0.8697     1.4118 </r>
       <r>    -3.1049     0.7672     1.4749 </r>
       <r>    -3.0227     0.9260     1.5510 </r>
       <r>    -2.9406     1.0799     1.6397 </r>
       <r>    -2.8584     0.9723     1.7196 </r>
       <r>    -2.7762     0.6389     1.7721 </r>
       <r>    -2.6941     0.3034     1.7970 </r>
       <r>    -2.6119     0.1068     1.8058 </r>
       <r>    -2.5297     0.0431     1.8093 </r>
       <r>    -2.4475     0.0713     1.8152 </r>
       <r>    -2.3654     0.1830     1.8302 </r>
       <r>    -2.2832     0.3586     1.8597 </r>
       <r>    -2.2010     0.5075     1.9014 </r>
       <r>    -2.1189     0.5175     1.9439 </r>
       <r>    -2.0367     0.3814     1.9753 </r>
       <r>    -1.9545     0.2108     1.9926 </r>
       <r>    -1.8724     0.1193     2.0024 </r>
       <r>    -1.7902     0.1529     2.0150 </r>
       <r>    -1.7080     0.2960     2.0393 </r>
       <r>    -1.6258     0.4656     2.0775 </r>
       <r>    -1.5437     0.5336     2.1214 </r>
       <r>    -1.4615     0.4409     2.1576 </r>
       <r>    -1.3793     0.2628     2.1792 </r>
       <r>    -1.2972     0.1162     2.1888 </r>
       <r>    -1.2150     0.0572     2.1935 </r>
       <r>    -1.1328     0.1049     2.2021 </r>
       <r>    -1.0507     0.3097     2.2275 </r>
       <r>    -0.9685     0.7270     2.2873 </r>
       <r>    -0.8863     1.2932     2.3935 </r>
       <r>    -0.8042     1.7692     2.5389 </r>
       <r>    -0.7220     1.8975     2.6948 </r>
       <r>    -0.6398     1.6368     2.8293 </r>
       <r>    -0.5576     1.2106     2.9288 </r>
       <r>    -0.4755     0.8891     3.0018 </r>
       <r>    -0.3933     0.7356     3.0623 </r>
       <r>    -0.3111     0.6225     3.1134 </r>
       <r>    -0.2290     0.4511     3.1505 </r>
       <r>    -0.1468     0.2550     3.1715 </r>
       <r>    -0.0646     0.1087     3.1804 </r>
       <r>     0.0175     0.0349     3.1833 </r>
       <r>     0.0997     0.0119     3.1842 </r>
       <r>     0.1819     0.0238     3.1862 </r>
       <r>     0.2641     0.0937     3.1939 </r>
       <r>     0.3462     0.2811     3.2170 </r>
       <r>     0.4284     0.6085     3.2670 </r>
       <r>     0.5106     0.9483     3.3449 </r>
       <r>     0.5927     1.0644     3.4324 </r>
       <r>     0.6749     0.8604     3.5031 </r>
       <r>     0.7571     0.5009     3.5442 </r>
       <r>     0.8392     0.2101     3.5615 </r>
       <r>     0.9214     0.0648     3.5668 </r>
       <r>     1.0036     0.0226     3.5687 </r>
       <r>     1.0858     0.0410     3.5720 </r>
       <r>     1.1679     0.1227     3.5821 </r>
       <r>     1.2501     0.2781     3.6050 </r>
       <r>     1.3323     0.4559     3.6424 </r>
       <r>     1.4144     0.5470     3.6874 </r>
       <r>     1.4966     0.5133     3.7296 </r>
       <r>     1.5788     0.4868     3.7696 </r>
       <r>     1.6609     0.6621     3.8240 </r>
       <r>     1.7431     1.0668     3.9116 </r>
       <r>     1.8253     1.4582     4.0314 </r>
       <r>     1.9075     1.5133     4.1558 </r>
       <r>     1.9896     1.1679     4.2518 </r>
       <r>     2.0718     0.6878     4.3083 </r>
       <r>     2.1540     0.3926     4.3405 </r>
       <r>     2.2361     0.4213     4.3751 </r>
       <r>     2.3183     0.7043     4.4330 </r>
       <r>     2.4005     1.0069     4.5158 </r>
       <r>     2.4826     1.0823     4.6047 </r>
       <r>     2.5648     0.9437     4.6822 </r>
       <r>     2.6470     0.9049     4.7566 </r>
       <r>     2.7292     1.2291     4.8576 </r>
       <r>     2.8113     1.7670     5.0028 </r>
       <r>     2.8935     2.0814     5.1738 </r>
       <r>     2.9757     2.0106     5.3390 </r>
       <r>     3.0578     1.9064     5.4957 </r>
       <r>     3.1400     2.1008     5.6683 </r>
       <r>     3.2222     2.3731     5.8633 </r>
       <r>     3.3043     2.2405     6.0474 </r>
       <r>     3.3865     1.6139     6.1800 </r>
       <r>     3.4687     0.8734     6.2518 </r>
       <r>     3.5508     0.4008     6.2847 </r>
       <r>     3.6330     0.3088     6.3101 </r>
       <r>     3.7152     0.5296     6.3536 </r>
       <r>     3.7974     0.8993     6.4275 </r>
       <r>     3.8795     1.1951     6.5257 </r>
       <r>     3.9617     1.3081     6.6332 </r>
       <r>     4.0439     1.3377     6.7431 </r>
       <r>     4.1260     1.3759     6.8561 </r>
       <r>     4.2082     1.3513     6.9672 </r>
       <r>     4.2904     1.1948     7.0654 </r>
       <r>     4.3725     0.9570     7.1440 </r>
       <r>     4.4547     0.7260     7.2037 </r>
       <r>     4.5369     0.5901     7.2521 </r>
       <r>     4.6191     0.6143     7.3026 </r>
       <r>     4.7012     0.7414     7.3635 </r>
       <r>     4.7834     0.8224     7.4311 </r>
       <r>     4.8656     0.8034     7.4971 </r>
       <r>     4.9477     0.7638     7.5599 </r>
       <r>     5.0299     0.7619     7.6225 </r>
       <r>     5.1121     0.7889     7.6873 </r>
       <r>     5.1942     0.8312     7.7556 </r>
       <r>     5.2764     0.8381     7.8245 </r>
       <r>     5.3586     0.7205     7.8837 </r>
       <r>     5.4408     0.4818     7.9233 </r>
       <r>     5.5229     0.2429     7.9432 </r>
       <r>     5.6051     0.1039     7.9518 </r>
       <r>     5.6873     0.0709     7.9576 </r>
       <r>     5.7694     0.0974     7.9656 </r>
       <r>     5.8516     0.1292     7.9762 </r>
       <r>     5.9338     0.1281     7.9867 </r>
       <r>     6.0159     0.0934     7.9944 </r>
       <r>     6.0981     0.0573     7.9991 </r>
       <r>     6.1803     0.0548     8.0036 </r>
       <r>     6.2625     0.1034     8.0121 </r>
       <r>     6.3446     0.1891     8.0277 </r>
       <r>     6.4268     0.2596     8.0490 </r>
       <r>     6.5090     0.2646     8.0707 </r>
       <r>     6.5911     0.2237     8.0891 </r>
       <r>     6.6733     0.2241     8.1075 </r>
       <r>     6.7555     0.3272     8.1344 </r>
       <r>     6.8376     0.4857     8.1743 </r>
       <r>     6.9198     0.5814     8.2221 </r>
       <r>     7.0020     0.5665     8.2687 </r>
       <r>     7.0842     0.5168     8.3111 </r>
       <r>     7.1663     0.5182     8.3537 </r>
       <r>     7.2485     0.5773     8.4011 </r>
       <r>     7.3307     0.6785     8.4569 </r>
       <r>     7.4128     0.8455     8.5264 </r>
       <r>     7.4950     1.0937     8.6162 </r>
       <r>     7.5772     1.3419     8.7265 </r>
       <r>     7.6593     1.4539     8.8460 </r>
       <r>     7.7415     1.4226     8.9629 </r>
       <r>     7.8237     1.3927     9.0773 </r>
       <r>     7.9058     1.4145     9.1935 </r>
       <r>     7.9880     1.3476     9.3043 </r>
       <r>     8.0702     1.0921     9.3940 </r>
       <r>     8.1524     0.7347     9.4544 </r>
       <r>     8.2345     0.4284     9.4896 </r>
       <r>     8.3167     0.2532     9.5104 </r>
       <r>     8.3989     0.1941     9.5263 </r>
       <r>     8.4810     0.2023     9.5429 </r>
       <r>     8.5632     0.2670     9.5649 </r>
       <r>     8.6454     0.4013     9.5979 </r>
       <r>     8.7275     0.5673     9.6445 </r>
       <r>     8.8097     0.6926     9.7014 </r>
       <r>     8.8919     0.7868     9.7660 </r>
       <r>     8.9741     0.9694     9.8457 </r>
       <r>     9.0562     1.3713     9.9584 </r>
       <r>     9.1384     1.9939    10.1222 </r>
       <r>     9.2206     2.5590    10.3325 </r>
       <r>     9.3027     2.6359    10.5491 </r>
       <r>     9.3849     2.1542    10.7261 </r>
       <r>     9.4671     1.5814    10.8560 </r>
       <r>     9.5492     1.3749    10.9690 </r>
       <r>     9.6314     1.5146    11.0935 </r>
       <r>     9.7136     1.7263    11.2353 </r>
       <r>     9.7958     1.8791    11.3897 </r>
       <r>     9.8779     1.9647    11.5511 </r>
       <r>     9.9601     1.9256    11.7094 </r>
       <r>    10.0423     1.7647    11.8544 </r>
       <r>    10.1244     1.6606    11.9908 </r>
       <r>    10.2066     1.7592    12.1354 </r>
       <r>    10.2888     1.9762    12.2978 </r>
       <r>    10.3709     2.1365    12.4733 </r>
       <r>    10.4531     2.1980    12.6539 </r>
       <r>    10.5353     2.2687    12.8403 </r>
       <r>    10.6175     2.4517    13.0418 </r>
       <r>    10.6996     2.6549    13.2600 </r>
       <r>    10.7818     2.5902    13.4728 </r>
       <r>    10.8640     2.0820    13.6439 </r>
       <r>    10.9461     1.3274    13.7529 </r>
       <r>    11.0283     0.7297    13.8129 </r>
       <r>    11.1105     0.5446    13.8577 </r>
       <r>    11.1926     0.7313    13.9177 </r>
       <r>    11.2748     1.0228    14.0018 </r>
       <r>    11.3570     1.1348    14.0950 </r>
       <r>    11.4392     1.0165    14.1786 </r>
       <r>    11.5213     0.8388    14.2475 </r>
       <r>    11.6035     0.7170    14.3064 </r>
       <r>    11.6857     0.6165    14.3571 </r>
       <r>    11.7678     0.5158    14.3994 </r>
       <r>    11.8500     0.4534    14.4367 </r>
       <r>    11.9322     0.4153    14.4708 </r>
       <r>    12.0143     0.3378    14.4986 </r>
       <r>    12.0965     0.2141    14.5162 </r>
       <r>    12.1787     0.1001    14.5244 </r>
       <r>    12.2608     0.0339    14.5272 </r>
       <r>    12.3430     0.0083    14.5279 </r>
       <r>    12.4252     0.0015    14.5280 </r>
       <r>    12.5074     0.0002    14.5280 </r>
       <r>    12.5895     0.0000    14.5280 </r>
       <r>    12.6717     0.0000    14.5280 </r>
       <r>    12.7539     0.0000    14.5280 </r>
       <r>    12.8360     0.0001    14.5280 </r>
       <r>    12.9182     0.0007    14.5281 </r>
       <r>    13.0004     0.0054    14.5285 </r>
       <r>    13.0825     0.0298    14.5310 </r>
       <r>    13.1647     0.1184    14.5407 </r>
       <r>    13.2469     0.3422    14.5688 </r>
       <r>    13.3291     0.7315    14.6289 </r>
       <r>    13.4112     1.1957    14.7272 </r>
       <r>    13.4934     1.5826    14.8572 </r>
       <r>    13.5756     1.8105    15.0060 </r>
       <r>    13.6577     1.8402    15.1572 </r>
       <r>    13.7399     1.6305    15.2912 </r>
       <r>    13.8221     1.2667    15.3953 </r>
       <r>    13.9042     0.9418    15.4726 </r>
       <r>    13.9864     0.7254    15.5322 </r>
       <r>    14.0686     0.5493    15.5774 </r>
       <r>    14.1508     0.4102    15.6111 </r>
       <r>    14.2329     0.4024    15.6441 </r>
       <r>    14.3151     0.5624    15.6904 </r>
       <r>    14.3973     0.7877    15.7551 </r>
       <r>    14.4794     0.9170    15.8304 </r>
       <r>    14.5616     0.8550    15.9007 </r>
       <r>    14.6438     0.6300    15.9525 </r>
       <r>    14.7259     0.3595    15.9820 </r>
       <r>    14.8081     0.1553    15.9948 </r>
       <r>    14.8903     0.0498    15.9989 </r>
       <r>    14.9725     0.0117    15.9998 </r>
       <r>    15.0546     0.0020    16.0000 </r>
       <r>    15.1368     0.0002    16.0000 </r>
       <r>    15.2190     0.0000    16.0000 </r>
       <r>    15.3011     0.0000    16.0000 </r>
       <r>    15.3833     0.0000    16.0000 </r>
       <r>    15.4655     0.0000    16.0000 </r>
       <r>    15.5476     0.0000    16.0000 </r>
       <r>    15.6298     0.0000    16.0000 </r>
       <r>    15.7120     0.0000    16.0000 </r>
       <r>    15.7941     0.0000    16.0000 </r>
       <r>    15.8763     0.0000    16.0000 </r>
       <r>    15.9585     0.0000    16.0000 </r>
       <r>    16.0407     0.0000    16.0000 </r>
       <r>    16.1228     0.0000    16.0000 </r>
       <r>    16.2050     0.0000    16.0000 </r>
       <r>    16.2872     0.0000    16.0000 </r>
       <r>    16.3693     0.0000    16.0000 </r>
       <r>    16.4515     0.0000    16.0000 </r>
       <r>    16.5337     0.0000    16.0000 </r>
      </set>
     </set>
    </array>
   </total>
  </dos>
 </calculation>
 <structure name="finalpos" >
  <crystal>
   <varray name="basis" >
    <v>       0.00000000       2.71500000       2.71500000 </v>
    <v>       2.71500000       0.00000000       2.71500000 </v>
    <v>       2.71500000       2.71500000       0.00000000 </v>
   </varray>
   <i name="volume">     40.02575175 </i>
   <varray name="rec_basis" >
    <v>      -0.18416206       0.18416206       0.18416206 </v>
    <v>       0.18416206      -0.18416206       0.18416206 </v>
    <v>       0.18416206       0.18416206      -0.18416206 </v>
   </varray>
  </crystal>
  <varray name="positions" >
   <v>       0.50000000       0.50000000       0.50000000 </v>
   <v>       0.75000000       0.75000000       0.75000000 </v>
  </varray>
 </structure>
</modeling>
