unknown system                          
   1.00000000000000     
     0.000000    2.733552    2.733552
     2.733552   -0.000000    2.733552
     2.733552    2.733552    0.000000
   Si
     2
Direct
  0.500000  0.500000  0.500000
  0.750000  0.750000  0.750000
 
   28   28   28
 0.86312911785E+00 0.88965350901E+00 0.97154351995E+00 0.11159466830E+01 0.13349108624E+01
 0.16441739655E+01 0.20595674956E+01 0.25908724922E+01 0.32342948381E+01 0.39656203874E+01
 0.47362820274E+01 0.54745135041E+01 0.60936218636E+01 0.65080263781E+01 0.66540363076E+01
 0.65080147606E+01 0.60936320627E+01 0.54745598724E+01 0.47363316109E+01 0.39656291386E+01
 0.32342576777E+01 0.25908241060E+01 0.20595417684E+01 0.16441756870E+01 0.13349236348E+01
 0.11159552088E+01 0.97154437170E+00 0.88965146607E+00 0.88965350901E+00 0.93437413064E+00
 0.10273172795E+01 0.11756500591E+01 0.13898939671E+01 0.16822088092E+01 0.20626639017E+01
 0.25337425461E+01 0.30843506155E+01 0.36852814526E+01 0.42881815109E+01 0.48296748890E+01
 0.52413519436E+01 0.54643357264E+01 0.54643375177E+01 0.52413650110E+01 0.48297026671E+01
 0.42882011848E+01 0.36852656552E+01 0.30843058185E+01 0.25337056153E+01 0.20626602130E+01
 0.16822292294E+01 0.13899145401E+01 0.11756596901E+01 0.10273202754E+01 0.93437615922E+00
 0.88965460536E+00 0.97154351995E+00 0.10273172795E+01 0.11248743117E+01 0.12709918405E+01
 0.14742916558E+01 0.17432367897E+01 0.20826542620E+01 0.24891920415E+01 0.29469627056E+01
 0.34251680181E+01 0.38793746868E+01 0.42573186209E+01 0.45087515490E+01 0.45970474969E+01
 0.45087576090E+01 0.42573257361E+01 0.38793698240E+01 0.34251424577E+01 0.29469298908E+01
 0.24891789186E+01 0.20826703281E+01 0.17432633953E+01 0.14743061818E+01 0.12709913756E+01
 0.11248703776E+01 0.10273174332E+01 0.97154576135E+00 0.95341125999E+00 0.11159466830E+01
 0.11756500591E+01 0.12709918405E+01 0.14081350483E+01 0.15936689380E+01 0.18326205643E+01
 0.21255175641E+01 0.24649386784E+01 0.28327197163E+01 0.31993482715E+01 0.35267155276E+01
 0.37743712133E+01 0.39080604516E+01 0.39080608791E+01 0.37743711458E+01 0.35267114283E+01
 0.31993391865E+01 0.28327133458E+01 0.24649453228E+01 0.21255346393E+01 0.18326318157E+01
 0.15936641777E+01 0.14081222189E+01 0.12709839135E+01 0.11756489621E+01 0.11159470087E+01
 0.10872993794E+01 0.10872995250E+01 0.13349108624E+01 0.13898939671E+01 0.14742916558E+01
 0.15936689380E+01 0.17527944825E+01 0.19539127481E+01 0.21945043947E+01 0.24649371860E+01
 0.27470087566E+01 0.30145711638E+01 0.32369341141E+01 0.33847061367E+01 0.34365646700E+01
 0.33847073244E+01 0.32369404332E+01 0.30145832966E+01 0.27470217340E+01 0.24649449426E+01
 0.21945028562E+01 0.19539009586E+01 0.17527781302E+01 0.15936595415E+01 0.14742950675E+01
 0.13899022285E+01 0.13349128237E+01 0.13042800763E+01 0.12944919686E+01 0.13042834414E+01
 0.16441739655E+01 0.16822088092E+01 0.17432367897E+01 0.18326205643E+01 0.19539127481E+01
 0.21075455713E+01 0.22893470245E+01 0.24891911226E+01 0.26905536732E+01 0.28718300293E+01
 0.30097787172E+01 0.30845131126E+01 0.30845153718E+01 0.30097873065E+01 0.28718437733E+01
 0.26905615994E+01 0.24891814483E+01 0.22893220978E+01 0.21075218759E+01 0.19539057819E+01
 0.18326325802E+01 0.17432574920E+01 0.16822243150E+01 0.16441766978E+01 0.16232085642E+01
 0.16142172142E+01 0.16142211945E+01 0.16232146427E+01 0.20595674956E+01 0.20626639017E+01
 0.20826542620E+01 0.21255175641E+01 0.21945043947E+01 0.22893470245E+01 0.24055238573E+01
 0.25337457411E+01 0.26602051067E+01 0.27681884364E+01 0.28412210563E+01 0.28670785319E+01
 0.28412283404E+01 0.27681938056E+01 0.26601954861E+01 0.25337165991E+01 0.24054892335E+01
 0.22893315439E+01 0.21945199850E+01 0.21255502053E+01 0.20826779190E+01 0.20626660345E+01
 0.20595568068E+01 0.20657019642E+01 0.20733426323E+01 0.20766197419E+01 0.20733455066E+01
 0.20657109882E+01 0.25908724922E+01 0.25337425461E+01 0.24891920415E+01 0.24649386784E+01
 0.24649371860E+01 0.24891911226E+01 0.25337457411E+01 0.25908761350E+01 0.26498145651E+01
 0.26984370132E+01 0.27259620071E+01 0.27259677152E+01 0.26984420626E+01 0.26497991985E+01
 0.25908414131E+01 0.25337181288E+01 0.24891965815E+01 0.24649735043E+01 0.24649756951E+01
 0.24891995672E+01 0.25337182070E+01 0.25908417998E+01 0.26498029494E+01 0.26984451108E+01
 0.27259661603E+01 0.27259593572E+01 0.26984371034E+01 0.26498143280E+01 0.32342948381E+01
 0.30843506155E+01 0.29469627056E+01 0.28327197163E+01 0.27470087566E+01 0.26905536732E+01
 0.26602051067E+01 0.26498145651E+01 0.26513532778E+01 0.26565605009E+01 0.26590996682E+01
 0.26565658199E+01 0.26513426614E+01 0.26497846712E+01 0.26601860829E+01 0.26905734040E+01
 0.27470547643E+01 0.28327504423E+01 0.29469518591E+01 0.30843108070E+01 0.32342602796E+01
 0.33812275157E+01 0.35063221586E+01 0.35908062716E+01 0.36206924111E+01 0.35907867971E+01
 0.35063037666E+01 0.33812335368E+01 0.39656203874E+01 0.36852814526E+01 0.34251680181E+01
 0.31993482715E+01 0.30145711638E+01 0.28718300293E+01 0.27681884364E+01 0.26984370132E+01
 0.26565605009E+01 0.26372161000E+01 0.26372143915E+01 0.26565463400E+01 0.26984060758E+01
 0.27681663764E+01 0.28718467402E+01 0.30146163954E+01 0.31993779434E+01 0.34251561775E+01
 0.36852470587E+01 0.39655988953E+01 0.42442913027E+01 0.44930664759E+01 0.46814980098E+01
 0.47833615766E+01 0.47833565067E+01 0.46814832876E+01 0.44930485991E+01 0.42442867435E+01
 0.47362820274E+01 0.42881815109E+01 0.38793746868E+01 0.35267155276E+01 0.32369341141E+01
 0.30097787172E+01 0.28412210563E+01 0.27259620071E+01 0.26590996682E+01 0.26372143915E+01
 0.26590759497E+01 0.27259202578E+01 0.28411872114E+01 0.30097845528E+01 0.32369778573E+01
 0.35267570146E+01 0.38793808629E+01 0.42881613973E+01 0.47362666527E+01 0.51948815349E+01
 0.56241519884E+01 0.59778809745E+01 0.62118300492E+01 0.62937623672E+01 0.62118324680E+01
 0.59778784668E+01 0.56241432163E+01 0.51948790885E+01 0.54745135041E+01 0.48296748890E+01
 0.42573186209E+01 0.37743712133E+01 0.33847061367E+01 0.30845131126E+01 0.28670785319E+01
 0.27259677152E+01 0.26565658199E+01 0.26565463400E+01 0.27259202578E+01 0.28670355666E+01
 0.30845123227E+01 0.33847546697E+01 0.37744320026E+01 0.42573461507E+01 0.48296594401E+01
 0.54744808857E+01 0.61577375386E+01 0.68275244045E+01 0.74185943541E+01 0.78623840723E+01
 0.81009597645E+01 0.81009519068E+01 0.78623669380E+01 0.74185812637E+01 0.68275266138E+01
 0.61577596555E+01 0.60936218636E+01 0.52413519436E+01 0.45087515490E+01 0.39080604516E+01
 0.34365646700E+01 0.30845153718E+01 0.28412283404E+01 0.26984420626E+01 0.26513426614E+01
 0.26984060758E+01 0.28411872114E+01 0.30845123227E+01 0.34366174017E+01 0.39081356848E+01
 0.45087904875E+01 0.52413263343E+01 0.60935573131E+01 0.70309014330E+01 0.79925354795E+01
 0.88939316675E+01 0.96372658933E+01 0.10129066508E+02 0.10301305779E+02 0.10129016568E+02
 0.96371994982E+01 0.88938900955E+01 0.79925432444E+01 0.70309548731E+01 0.65080263781E+01
 0.54643357264E+01 0.45970474969E+01 0.39080608791E+01 0.33847073244E+01 0.30097873065E+01
 0.27681938056E+01 0.26497991985E+01 0.26497846712E+01 0.27681663764E+01 0.30097845528E+01
 0.33847546697E+01 0.39081356848E+01 0.45970872695E+01 0.54642985002E+01 0.65079387970E+01
 0.77004171256E+01 0.89797745986E+01 0.10247694655E+02 0.11377227987E+02 0.12231774432E+02
 0.12693481424E+02 0.12693457224E+02 0.12231707849E+02 0.11377140839E+02 0.10247627513E+02
 0.89797704120E+01 0.77004835070E+01 0.66540363076E+01 0.54643375177E+01 0.45087576090E+01
 0.37743711458E+01 0.32369404332E+01 0.28718437733E+01 0.26601954861E+01 0.25908414131E+01
 0.26601860829E+01 0.28718467402E+01 0.32369778573E+01 0.37744320026E+01 0.45087904875E+01
 0.54642985002E+01 0.66539489870E+01 0.80652081084E+01 0.96461660953E+01 0.11296835222E+02
 0.12870130730E+02 0.14186978127E+02 0.15068140603E+02 0.15378266953E+02 0.15068164177E+02
 0.14186971046E+02 0.12870058647E+02 0.11296740004E+02 0.96461297728E+01 0.80652618341E+01
 0.65080147606E+01 0.52413650110E+01 0.42573257361E+01 0.35267114283E+01 0.30145832966E+01
 0.26905615994E+01 0.25337165991E+01 0.25337181288E+01 0.26905734040E+01 0.30146163954E+01
 0.35267570146E+01 0.42573461507E+01 0.52413263343E+01 0.65079387970E+01 0.80652081084E+01
 0.98820788965E+01 0.11872727105E+02 0.13887966290E+02 0.15719610783E+02 0.17117103969E+02
 0.17869355548E+02 0.17869419271E+02 0.17117227010E+02 0.15719662232E+02 0.13887891171E+02
 0.11872598222E+02 0.98820117299E+01 0.80652422081E+01 0.60936320627E+01 0.48297026671E+01
 0.38793698240E+01 0.31993391865E+01 0.27470217340E+01 0.24891814483E+01 0.24054892335E+01
 0.24891965815E+01 0.27470547643E+01 0.31993779434E+01 0.38793808629E+01 0.48296594401E+01
 0.60935573131E+01 0.77004171256E+01 0.96461660953E+01 0.11872727105E+02 0.14250302752E+02
 0.16564578325E+02 0.18503589348E+02 0.19782302006E+02 0.20227594368E+02 0.19782445752E+02
 0.18503746848E+02 0.16564613671E+02 0.14250196912E+02 0.11872581337E+02 0.96460953678E+01
 0.77004495661E+01 0.54745598724E+01 0.42882011848E+01 0.34251424577E+01 0.28327133458E+01
 0.24649449426E+01 0.22893220978E+01 0.22893315439E+01 0.24649735043E+01 0.28327504423E+01
 0.34251561775E+01 0.42881613973E+01 0.54744808857E+01 0.70309014330E+01 0.89797745986E+01
 0.11296835222E+02 0.13887966290E+02 0.16564578325E+02 0.18993396710E+02 0.20818970299E+02
 0.21793565657E+02 0.21793643045E+02 0.20819137366E+02 0.18993516018E+02 0.16564559121E+02
 0.13887835500E+02 0.11296702099E+02 0.89797311405E+01 0.70309526013E+01 0.47363316109E+01
 0.36852656552E+01 0.29469298908E+01 0.24649453228E+01 0.21945028562E+01 0.21075218759E+01
 0.21945199850E+01 0.24649756951E+01 0.29469518591E+01 0.36852470587E+01 0.47362666527E+01
 0.61577375386E+01 0.79925354795E+01 0.10247694655E+02 0.12870130730E+02 0.15719610783E+02
 0.18503589348E+02 0.20818970299E+02 0.22341568209E+02 0.22871511749E+02 0.22341710384E+02
 0.20819139273E+02 0.18503656887E+02 0.15719540906E+02 0.12869995116E+02 0.10247599459E+02
 0.79925346851E+01 0.61578037486E+01 0.39656291386E+01 0.30843058185E+01 0.24891789186E+01
 0.21255346393E+01 0.19539009586E+01 0.19539057819E+01 0.21255502053E+01 0.24891995672E+01
 0.30843108070E+01 0.39655988953E+01 0.51948815349E+01 0.68275244045E+01 0.88939316675E+01
 0.11377227987E+02 0.14186978127E+02 0.17117103969E+02 0.19782302006E+02 0.21793565657E+02
 0.22871511749E+02 0.22871597458E+02 0.21793749151E+02 0.19782435305E+02 0.17117101762E+02
 0.14186876400E+02 0.11377125966E+02 0.88938989706E+01 0.68275598479E+01 0.51949369877E+01
 0.32342576777E+01 0.25337056153E+01 0.20826703281E+01 0.18326318157E+01 0.17527781302E+01
 0.18326325802E+01 0.20826779190E+01 0.25337182070E+01 0.32342602796E+01 0.42442913027E+01
 0.56241519884E+01 0.74185943541E+01 0.96372658933E+01 0.12231774432E+02 0.15068140603E+02
 0.17869355548E+02 0.20227594368E+02 0.21793643045E+02 0.22341710384E+02 0.21793749151E+02
 0.20227704592E+02 0.17869378592E+02 0.15068082566E+02 0.12231709550E+02 0.96372503505E+01
 0.74186257011E+01 0.56241936795E+01 0.42443132412E+01 0.25908241060E+01 0.20626602130E+01
 0.17432633953E+01 0.15936641777E+01 0.15936595415E+01 0.17432574920E+01 0.20626660345E+01
 0.25908417998E+01 0.33812275157E+01 0.44930664759E+01 0.59778809745E+01 0.78623840723E+01
 0.10129066508E+02 0.12693481424E+02 0.15378266953E+02 0.17869419271E+02 0.19782445752E+02
 0.20819137366E+02 0.20819139273E+02 0.19782435305E+02 0.17869378592E+02 0.15378217880E+02
 0.12693469019E+02 0.10129106596E+02 0.78624473499E+01 0.59779269893E+01 0.44930779905E+01
 0.33812139419E+01 0.20595417684E+01 0.16822292294E+01 0.14743061818E+01 0.14081222189E+01
 0.14742950675E+01 0.16822243150E+01 0.20595568068E+01 0.26498029494E+01 0.35063221586E+01
 0.46814980098E+01 0.62118300492E+01 0.81009597645E+01 0.10301305779E+02 0.12693457224E+02
 0.15068164177E+02 0.17117227010E+02 0.18503746848E+02 0.18993516018E+02 0.18503656887E+02
 0.17117101762E+02 0.15068082566E+02 0.12693469019E+02 0.10301394222E+02 0.81010606210E+01
 0.62118885730E+01 0.46815032553E+01 0.35062954988E+01 0.26497721636E+01 0.16441756870E+01
 0.13899145401E+01 0.12709913756E+01 0.12709839135E+01 0.13899022285E+01 0.16441766978E+01
 0.20657019642E+01 0.26984451108E+01 0.35908062716E+01 0.47833615766E+01 0.62937623672E+01
 0.81009519068E+01 0.10129016568E+02 0.12231707849E+02 0.14186971046E+02 0.15719662232E+02
 0.16564613671E+02 0.16564559121E+02 0.15719540906E+02 0.14186876400E+02 0.12231709550E+02
 0.10129106596E+02 0.81010606210E+01 0.62938249349E+01 0.47833639698E+01 0.35907740725E+01
 0.26984086005E+01 0.20656798766E+01 0.13349236348E+01 0.11756596901E+01 0.11248703776E+01
 0.11756489621E+01 0.13349128237E+01 0.16232085642E+01 0.20733426323E+01 0.27259661603E+01
 0.36206924111E+01 0.47833565067E+01 0.62118324680E+01 0.78623669380E+01 0.96371994982E+01
 0.11377140839E+02 0.12870058647E+02 0.13887891171E+02 0.14250196912E+02 0.13887835500E+02
 0.12869995116E+02 0.11377125966E+02 0.96372503505E+01 0.78624473499E+01 0.62118885730E+01
 0.47833639698E+01 0.36206667858E+01 0.27259362006E+01 0.20733257163E+01 0.16232081285E+01
 0.11159552088E+01 0.10273202754E+01 0.10273174332E+01 0.11159470087E+01 0.13042800763E+01
 0.16142172142E+01 0.20766197419E+01 0.27259593572E+01 0.35907867971E+01 0.46814832876E+01
 0.59778784668E+01 0.74185812637E+01 0.88938900955E+01 0.10247627513E+02 0.11296740004E+02
 0.11872598222E+02 0.11872581337E+02 0.11296702099E+02 0.10247599459E+02 0.88938989706E+01
 0.74186257011E+01 0.59779269893E+01 0.46815032553E+01 0.35907740725E+01 0.27259362006E+01
 0.20766081635E+01 0.16142211217E+01 0.13042904619E+01 0.97154437170E+00 0.93437615922E+00
 0.97154576135E+00 0.10872993794E+01 0.12944919686E+01 0.16142211945E+01 0.20733455066E+01
 0.26984371034E+01 0.35063037666E+01 0.44930485991E+01 0.56241432163E+01 0.68275266138E+01
 0.79925432444E+01 0.89797704120E+01 0.96461297728E+01 0.98820117299E+01 0.96460953678E+01
 0.89797311405E+01 0.79925346851E+01 0.68275598479E+01 0.56241936795E+01 0.44930779905E+01
 0.35062954988E+01 0.26984086005E+01 0.20733257163E+01 0.16142211217E+01 0.12945005535E+01
 0.10873032169E+01 0.88965146607E+00 0.88965460536E+00 0.95341125999E+00 0.10872995250E+01
 0.13042834414E+01 0.16232146427E+01 0.20657109882E+01 0.26498143280E+01 0.33812335368E+01
 0.42442867435E+01 0.51948790885E+01 0.61577596555E+01 0.70309548731E+01 0.77004835070E+01
 0.80652618341E+01 0.80652422081E+01 0.77004495661E+01 0.70309526013E+01 0.61578037486E+01
 0.51949369877E+01 0.42443132412E+01 0.33812139419E+01 0.26497721636E+01 0.20656798766E+01
 0.16232081285E+01 0.13042904619E+01 0.10873032169E+01 0.95340746850E+00 0.88965375280E+00
 0.93437558796E+00 0.10273187026E+01 0.11756510399E+01 0.13898953681E+01 0.16822107130E+01
 0.20626651095E+01 0.25337425597E+01 0.30843501693E+01 0.36852806889E+01 0.42881796556E+01
 0.48296722063E+01 0.52413500025E+01 0.54643352040E+01 0.54643376149E+01 0.52413654193E+01
 0.48297041066E+01 0.42882035530E+01 0.36852676549E+01 0.30843069220E+01 0.25337064822E+01
 0.20626607726E+01 0.16822283799E+01 0.13899122379E+01 0.11756573727E+01 0.10273187339E+01
 0.93437488952E+00 0.88965362287E+00 0.93437558796E+00 0.98869326283E+00 0.10834940155E+01
 0.12252060885E+01 0.14221615189E+01 0.16826591275E+01 0.20115104478E+01 0.24055223434E+01
 0.28492154259E+01 0.33125746200E+01 0.37524245213E+01 0.41181734548E+01 0.43613515397E+01
 0.44467210154E+01 0.43613614323E+01 0.41181886579E+01 0.37524274470E+01 0.33125478055E+01
 0.28491691794E+01 0.24054920963E+01 0.20115183142E+01 0.16826906864E+01 0.14221874499E+01
 0.12252146359E+01 0.10834937747E+01 0.98869407066E+00 0.93437786072E+00 0.91669065029E+00
 0.10273187026E+01 0.10834940155E+01 0.11727824126E+01 0.13008358552E+01 0.14739698434E+01
 0.16972116844E+01 0.19713214113E+01 0.22893494535E+01 0.26339925410E+01 0.29772360192E+01
 0.32832377787E+01 0.35143442422E+01 0.36389472667E+01 0.36389501628E+01 0.35143469726E+01
 0.32832273511E+01 0.29772068192E+01 0.26339591091E+01 0.22893372719E+01 0.19713395632E+01
 0.16972418590E+01 0.14739880415E+01 0.13008372344E+01 0.11727783167E+01 0.10834930589E+01
 0.10273202139E+01 0.10002476272E+01 0.10002467711E+01 0.11756510399E+01 0.12252060885E+01
 0.13008358552E+01 0.14076685641E+01 0.15504362484E+01 0.17316697894E+01 0.19493350323E+01
 0.21945068701E+01 0.24501664864E+01 0.26921610557E+01 0.28926717601E+01 0.30255542102E+01
 0.30721130788E+01 0.30255545272E+01 0.28926653128E+01 0.26921461580E+01 0.24501545875E+01
 0.21945118396E+01 0.19493548086E+01 0.17316860029E+01 0.15504356037E+01 0.14076576653E+01
 0.13008292344E+01 0.12252067838E+01 0.11756519021E+01 0.11478242320E+01 0.11388785855E+01
 0.11478257489E+01 0.13898953681E+01 0.14221615189E+01 0.14739698434E+01 0.15504362484E+01
 0.16553124347E+01 0.17894815586E+01 0.19493339777E+01 0.21255174937E+01 0.23028352149E+01
 0.24618840448E+01 0.25823899546E+01 0.26474529005E+01 0.26474536614E+01 0.25823902518E+01
 0.24618822275E+01 0.23028350385E+01 0.21255234697E+01 0.19493424833E+01 0.17894826940E+01
 0.16553030347E+01 0.15504258628E+01 0.14739691584E+01 0.14221684383E+01 0.13898989240E+01
 0.13719628681E+01 0.13641679202E+01 0.13641710161E+01 0.13719664556E+01 0.16822107130E+01
 0.16826591275E+01 0.16972116844E+01 0.17316697894E+01 0.17894815586E+01 0.18707288878E+01
 0.19713208696E+01 0.20826552161E+01 0.21921955189E+01 0.22852661685E+01 0.23478956615E+01
 0.23699999158E+01 0.23478966928E+01 0.22852648223E+01 0.21921903172E+01 0.20826482769E+01
 0.19713142791E+01 0.18707234239E+01 0.17894793274E+01 0.17316736345E+01 0.16972202774E+01
 0.16826660884E+01 0.16822108254E+01 0.16889201926E+01 0.16961711987E+01 0.16991740622E+01
 0.16961763296E+01 0.16889256477E+01 0.20626651095E+01 0.20115104478E+01 0.19713214113E+01
 0.19493350323E+01 0.19493339777E+01 0.19713208696E+01 0.20115130343E+01 0.20626681247E+01
 0.21149852575E+01 0.21577918707E+01 0.21818800496E+01 0.21818802265E+01 0.21577878277E+01
 0.21149716687E+01 0.20626502297E+01 0.20115028316E+01 0.19713246221E+01 0.19493477880E+01
 0.19493494894E+01 0.19713270859E+01 0.20115033091E+01 0.20626510120E+01 0.21149748887E+01
 0.21577903792E+01 0.21818791641E+01 0.21818779439E+01 0.21577916089E+01 0.21149846988E+01
 0.25337425597E+01 0.24055223434E+01 0.22893494535E+01 0.21945068701E+01 0.21255174937E+01
 0.20826552161E+01 0.20626681247E+01 0.20595709228E+01 0.20657106440E+01 0.20733445655E+01
 0.20766204034E+01 0.20733414084E+01 0.20656970276E+01 0.20595526486E+01 0.20626657889E+01
 0.20826782738E+01 0.21255487583E+01 0.21945202472E+01 0.22893356840E+01 0.24054932135E+01
 0.25337175011E+01 0.26601964000E+01 0.27681965935E+01 0.28412289873E+01 0.28670747057E+01
 0.28412169904E+01 0.27681873443E+01 0.26602039951E+01 0.30843501693E+01 0.28492154259E+01
 0.26339925410E+01 0.24501664864E+01 0.23028352149E+01 0.21921955189E+01 0.21149852575E+01
 0.20657106440E+01 0.20379191874E+01 0.20257767914E+01 0.20257740694E+01 0.20379082098E+01
 0.20656963677E+01 0.21149897523E+01 0.21922311854E+01 0.23028773734E+01 0.24501746951E+01
 0.26339578097E+01 0.28491696671E+01 0.30843289945E+01 0.33207710562E+01 0.35337505064E+01
 0.36961262566E+01 0.37842477578E+01 0.37842402843E+01 0.36961057571E+01 0.35337258772E+01
 0.33207608015E+01 0.36852806889E+01 0.33125746200E+01 0.29772360192E+01 0.26921610557E+01
 0.24618840448E+01 0.22852661685E+01 0.21577918707E+01 0.20733445655E+01 0.20257767914E+01
 0.20104881924E+01 0.20257649224E+01 0.20733301748E+01 0.21577965890E+01 0.22853028985E+01
 0.24619287261E+01 0.26921686076E+01 0.29771943803E+01 0.33125245814E+01 0.36852700434E+01
 0.40719560348E+01 0.44384968129E+01 0.47437912270E+01 0.49472901587E+01 0.50188526433E+01
 0.49472890223E+01 0.47437729129E+01 0.44384577515E+01 0.40719241395E+01 0.42881796556E+01
 0.37524245213E+01 0.32832377787E+01 0.28926717601E+01 0.25823899546E+01 0.23478956615E+01
 0.21818800496E+01 0.20766204034E+01 0.20257740694E+01 0.20257649224E+01 0.20766040583E+01
 0.21818819861E+01 0.23479306805E+01 0.25824368035E+01 0.28926860274E+01 0.32832027091E+01
 0.37523773186E+01 0.42881716746E+01 0.48639769305E+01 0.54366180258E+01 0.59488254008E+01
 0.63376914374E+01 0.65482789238E+01 0.65482878097E+01 0.63377021816E+01 0.59488093544E+01
 0.54365723448E+01 0.48639383050E+01 0.48296722063E+01 0.41181734548E+01 0.35143442422E+01
 0.30255542102E+01 0.26474529005E+01 0.23699999158E+01 0.21818802265E+01 0.20733414084E+01
 0.20379082098E+01 0.20733301748E+01 0.21818819861E+01 0.23700340365E+01 0.26475037652E+01
 0.30255785534E+01 0.35143181946E+01 0.41181253878E+01 0.48296545130E+01 0.56231164179E+01
 0.64492572885E+01 0.72351387080E+01 0.78917500785E+01 0.83304606611E+01 0.84849383866E+01
 0.83304752608E+01 0.78917563026E+01 0.72351138529E+01 0.64492091851E+01 0.56230854431E+01
 0.52413500025E+01 0.43613515397E+01 0.36389472667E+01 0.30721130788E+01 0.26474536614E+01
 0.23478966928E+01 0.21577878277E+01 0.20656970276E+01 0.20656963677E+01 0.21577965890E+01
 0.23479306805E+01 0.26475037652E+01 0.30721414509E+01 0.36389244994E+01 0.43612961221E+01
 0.52413170151E+01 0.62601238345E+01 0.73689164335E+01 0.84841322669E+01 0.94913721423E+01
 0.10261917836E+02 0.10681259879E+02 0.10681273272E+02 0.10261940873E+02 0.94913692836E+01
 0.84840867788E+01 0.73688558265E+01 0.62600993861E+01 0.54643352040E+01 0.44467210154E+01
 0.36389501628E+01 0.30255545272E+01 0.25823902518E+01 0.22852648223E+01 0.21149716687E+01
 0.20595526486E+01 0.21149897523E+01 0.22853028985E+01 0.25824368035E+01 0.30255785534E+01
 0.36389244994E+01 0.44466584888E+01 0.54642922804E+01 0.66867106826E+01 0.80749048474E+01
 0.95450312135E+01 0.10965295473E+02 0.12167636771E+02 0.12978813423E+02 0.13265943429E+02
 0.12978883046E+02 0.12167706096E+02 0.10965292467E+02 0.95449516191E+01 0.80748152050E+01
 0.66866823182E+01 0.54643376149E+01 0.43613614323E+01 0.35143469726E+01 0.28926653128E+01
 0.24618822275E+01 0.21921903172E+01 0.20626502297E+01 0.20626657889E+01 0.21922311854E+01
 0.24619287261E+01 0.28926860274E+01 0.35143181946E+01 0.43612961221E+01 0.54642922804E+01
 0.68370610571E+01 0.84598545049E+01 0.10262295552E+02 0.12110936041E+02 0.13810469442E+02
 0.15129497904E+02 0.15854176152E+02 0.15854256085E+02 0.15129669218E+02 0.13810590489E+02
 0.12110919092E+02 0.10262173849E+02 0.84597354260E+01 0.68370253932E+01 0.52413654193E+01
 0.41181886579E+01 0.32832273511E+01 0.26921461580E+01 0.23028350385E+01 0.20826482769E+01
 0.20115028316E+01 0.20826782738E+01 0.23028773734E+01 0.26921686076E+01 0.32832027091E+01
 0.41181253878E+01 0.52413170151E+01 0.66867106826E+01 0.84598545049E+01 0.10516423561E+02
 0.12740884945E+02 0.14933826261E+02 0.16823338359E+02 0.18114965809E+02 0.18575388014E+02
 0.18115138774E+02 0.16823553973E+02 0.14933934843E+02 0.12740833996E+02 0.10516280504E+02
 0.84597335511E+01 0.66866809367E+01 0.48297041066E+01 0.37524274470E+01 0.29772068192E+01
 0.24501545875E+01 0.21255234697E+01 0.19713142791E+01 0.19713246221E+01 0.21255487583E+01
 0.24501746951E+01 0.29771943803E+01 0.37523773186E+01 0.48296545130E+01 0.62601238345E+01
 0.80749048474E+01 0.10262295552E+02 0.12740884945E+02 0.15334280786E+02 0.17762863630E+02
 0.19675486951E+02 0.20733348820E+02 0.20733419144E+02 0.19675650885E+02 0.17763015395E+02
 0.15334331948E+02 0.12740821502E+02 0.10262178425E+02 0.80748192457E+01 0.62601159754E+01
 0.42882035530E+01 0.33125478055E+01 0.26339591091E+01 0.21945118396E+01 0.19493424833E+01
 0.18707234239E+01 0.19493477880E+01 0.21945202472E+01 0.26339578097E+01 0.33125245814E+01
 0.42881716746E+01 0.56231164179E+01 0.73689164335E+01 0.95450312135E+01 0.12110936041E+02
 0.14933826261E+02 0.17762863630E+02 0.20233681949E+02 0.21930020122E+02 0.22534193343E+02
 0.21930067790E+02 0.20233757022E+02 0.17762931334E+02 0.14933851742E+02 0.12110907263E+02
 0.95449740250E+01 0.73688777316E+01 0.56231218453E+01 0.36852676549E+01 0.28491691794E+01
 0.22893372719E+01 0.19493548086E+01 0.17894826940E+01 0.17894793274E+01 0.19493494894E+01
 0.22893356840E+01 0.28491696671E+01 0.36852700434E+01 0.48639769305E+01 0.64492572885E+01
 0.84841322669E+01 0.10965295473E+02 0.13810469442E+02 0.16823338359E+02 0.19675486951E+02
 0.21930020122E+02 0.23176259002E+02 0.23176250470E+02 0.21930007143E+02 0.19675494869E+02
 0.16823377464E+02 0.13810519275E+02 0.10965323297E+02 0.84841276272E+01 0.64492390803E+01
 0.48639658278E+01 0.30843069220E+01 0.24054920963E+01 0.19713395632E+01 0.17316860029E+01
 0.16553030347E+01 0.17316736345E+01 0.19713270859E+01 0.24054932135E+01 0.30843289945E+01
 0.40719560348E+01 0.54366180258E+01 0.72351387080E+01 0.94913721423E+01 0.12167636771E+02
 0.15129497904E+02 0.18114965809E+02 0.20733348820E+02 0.22534193343E+02 0.23176250470E+02
 0.22534136493E+02 0.20733281448E+02 0.18114948244E+02 0.15129554770E+02 0.12167732184E+02
 0.94914419948E+01 0.72351489884E+01 0.54365852159E+01 0.40719169661E+01 0.25337064822E+01
 0.20115183142E+01 0.16972418590E+01 0.15504356037E+01 0.15504258628E+01 0.16972202774E+01
 0.20115033091E+01 0.25337175011E+01 0.33207710562E+01 0.44384968129E+01 0.59488254008E+01
 0.78917500785E+01 0.10261917836E+02 0.12978813423E+02 0.15854176152E+02 0.18575388014E+02
 0.20733419144E+02 0.21930067790E+02 0.21930007143E+02 0.20733281448E+02 0.18575275607E+02
 0.15854173823E+02 0.12978920216E+02 0.10262050499E+02 0.78918202358E+01 0.59488114574E+01
 0.44384416203E+01 0.33207268815E+01 0.20626607726E+01 0.16826906864E+01 0.14739880415E+01
 0.14076576653E+01 0.14739691584E+01 0.16826660884E+01 0.20626510120E+01 0.26601964000E+01
 0.35337505064E+01 0.47437912270E+01 0.63376914374E+01 0.83304606611E+01 0.10681259879E+02
 0.13265943429E+02 0.15854256085E+02 0.18115138774E+02 0.19675650885E+02 0.20233757022E+02
 0.19675494869E+02 0.18114948244E+02 0.15854173823E+02 0.13266017702E+02 0.10681415020E+02
 0.83305769470E+01 0.63377094005E+01 0.47437399280E+01 0.35336937063E+01 0.26601726307E+01
 0.16822283799E+01 0.14221874499E+01 0.13008372344E+01 0.13008292344E+01 0.14221684383E+01
 0.16822108254E+01 0.21149748887E+01 0.27681965935E+01 0.36961262566E+01 0.49472901587E+01
 0.65482789238E+01 0.84849383866E+01 0.10681273272E+02 0.12978883046E+02 0.15129669218E+02
 0.16823553973E+02 0.17763015395E+02 0.17762931334E+02 0.16823377464E+02 0.15129554770E+02
 0.12978920216E+02 0.10681415020E+02 0.84850634941E+01 0.65483094218E+01 0.49472417874E+01
 0.36960628056E+01 0.27681623366E+01 0.21149742865E+01 0.13899122379E+01 0.12252146359E+01
 0.11727783167E+01 0.12252067838E+01 0.13898989240E+01 0.16889201926E+01 0.21577903792E+01
 0.28412289873E+01 0.37842477578E+01 0.50188526433E+01 0.65482878097E+01 0.83304752608E+01
 0.10261940873E+02 0.12167706096E+02 0.13810590489E+02 0.14933934843E+02 0.15334331948E+02
 0.14933851742E+02 0.13810519275E+02 0.12167732184E+02 0.10262050499E+02 0.83305769470E+01
 0.65483094218E+01 0.50188016439E+01 0.37841823306E+01 0.28411932483E+01 0.21577876600E+01
 0.16889327134E+01 0.11756573727E+01 0.10834937747E+01 0.10834930589E+01 0.11756519021E+01
 0.13719628681E+01 0.16961711987E+01 0.21818791641E+01 0.28670747057E+01 0.37842402843E+01
 0.49472890223E+01 0.63377021816E+01 0.78917563026E+01 0.94913692836E+01 0.10965292467E+02
 0.12110919092E+02 0.12740833996E+02 0.12740821502E+02 0.12110907263E+02 0.10965323297E+02
 0.94914419948E+01 0.78918202358E+01 0.63377094005E+01 0.49472417874E+01 0.37841823306E+01
 0.28670454566E+01 0.21818841294E+01 0.16961907521E+01 0.13719778485E+01 0.10273187339E+01
 0.98869407066E+00 0.10273202139E+01 0.11478242320E+01 0.13641679202E+01 0.16991740622E+01
 0.21818779439E+01 0.28412169904E+01 0.36961057571E+01 0.47437729129E+01 0.59488093544E+01
 0.72351138529E+01 0.84840867788E+01 0.95449516191E+01 0.10262173849E+02 0.10516280504E+02
 0.10262178425E+02 0.95449740250E+01 0.84841276272E+01 0.72351489884E+01 0.59488114574E+01
 0.47437399280E+01 0.36960628056E+01 0.28411932483E+01 0.21818841294E+01 0.16991983117E+01
 0.13641893923E+01 0.11478316428E+01 0.93437488952E+00 0.93437786072E+00 0.10002476272E+01
 0.11388785855E+01 0.13641710161E+01 0.16961763296E+01 0.21577916089E+01 0.27681873443E+01
 0.35337258772E+01 0.44384577515E+01 0.54365723448E+01 0.64492091851E+01 0.73688558265E+01
 0.80748152050E+01 0.84597354260E+01 0.84597335511E+01 0.80748192457E+01 0.73688777316E+01
 0.64492390803E+01 0.54365852159E+01 0.44384416203E+01 0.35336937063E+01 0.27681623366E+01
 0.21577876600E+01 0.16961907521E+01 0.13641893923E+01 0.11388871589E+01 0.10002452914E+01
 0.88965362287E+00 0.91669065029E+00 0.10002467711E+01 0.11478257489E+01 0.13719664556E+01
 0.16889256477E+01 0.21149846988E+01 0.26602039951E+01 0.33207608015E+01 0.40719241395E+01
 0.48639383050E+01 0.56230854431E+01 0.62600993861E+01 0.66866823182E+01 0.68370253932E+01
 0.66866809367E+01 0.62601159754E+01 0.56231218453E+01 0.48639658278E+01 0.40719169661E+01
 0.33207268815E+01 0.26601726307E+01 0.21149742865E+01 0.16889327134E+01 0.13719778485E+01
 0.11478316428E+01 0.10002452914E+01 0.91668686745E+00 0.97154565667E+00 0.10273205536E+01
 0.11248765181E+01 0.12709927328E+01 0.14742929446E+01 0.17432383638E+01 0.20826540673E+01
 0.24891898511E+01 0.29469603930E+01 0.34251660187E+01 0.38793718614E+01 0.42573156969E+01
 0.45087509129E+01 0.45970493164E+01 0.45087597326E+01 0.42573275422E+01 0.38793725517E+01
 0.34251456799E+01 0.29469314204E+01 0.24891784272E+01 0.20826694645E+01 0.17432622395E+01
 0.14743032694E+01 0.12709873463E+01 0.11248678683E+01 0.10273171118E+01 0.97154600260E+00
 0.95341178343E+00 0.10273205536E+01 0.10834957885E+01 0.11727831658E+01 0.13008357534E+01
 0.14739697287E+01 0.16972113653E+01 0.19713200386E+01 0.22893472909E+01 0.26339907121E+01
 0.29772348129E+01 0.32832368341E+01 0.35143440175E+01 0.36389485700E+01 0.36389524895E+01
 0.35143489834E+01 0.32832287353E+01 0.29772080913E+01 0.26339599507E+01 0.22893368043E+01
 0.19713379832E+01 0.16972401446E+01 0.14739863421E+01 0.13008351915E+01 0.11727766064E+01
 0.10834928672E+01 0.10273214175E+01 0.10002491142E+01 0.10002482461E+01 0.11248765181E+01
 0.11727831658E+01 0.12456607137E+01 0.13484664126E+01 0.14859105797E+01 0.16606212734E+01