 vasp.5.4.4.18Apr17-6-g9f103f2a35 (build Dec 09 2018 21:25:21) complex          
  
 executed on IFC18.0.1.163_CrayMP date 2019.03.20  09:49:32
 running on    8 total cores
 distrk:  each k-point on    8 cores,    1 groups
 distr:  one band on NCORES_PER_BAND=   1 cores,    8 groups


--------------------------------------------------------------------------------------------------------


 INCAR:
 POTCAR:   PAW_PBE Si 05Jan2001                   

 ----------------------------------------------------------------------------- 
|                                                                             |
|           W    W    AA    RRRRR   N    N  II  N    N   GGGG   !!!           |
|           W    W   A  A   R    R  NN   N  II  NN   N  G    G  !!!           |
|           W    W  A    A  R    R  N N  N  II  N N  N  G       !!!           |
|           W WW W  AAAAAA  RRRRR   N  N N  II  N  N N  G  GGG   !            |
|           WW  WW  A    A  R   R   N   NN  II  N   NN  G    G                |
|           W    W  A    A  R    R  N    N  II  N    N   GGGG   !!!           |
|                                                                             |
|      For optimal performance we recommend to set                            |
|        NCORE= 4 - approx SQRT( number of cores)                             |
|      NCORE specifies how many cores store one orbital (NPAR=cpu/NCORE).     |
|      This setting can  greatly improve the performance of VASP for DFT.     |
|      The default,   NCORE=1            might be grossly inefficient         |
|      on modern multi-core architectures or massively parallel machines.     |
|      Do your own testing !!!!                                               |
|      Unfortunately you need to use the default for GW and RPA calculations. |
|      (for HF NCORE is supported but not extensively tested yet)             |
|                                                                             |
 ----------------------------------------------------------------------------- 

 POTCAR:   PAW_PBE Si 05Jan2001                   
   VRHFIN =Si: s2p2                                                             
   LEXCH  = PE                                                                  
   EATOM  =   103.0669 eV,    7.5752 Ry                                         
                                                                                
   TITEL  = PAW_PBE Si 05Jan2001                                                
   LULTRA =        F    use ultrasoft PP ?                                      
   IUNSCR =        1    unscreen: 0-lin 1-nonlin 2-no                           
   RPACOR =    1.500    partial core radius                                     
   POMASS =   28.085; ZVAL   =    4.000    mass and valenz                      
   RCORE  =    1.900    outmost cutoff radius                                   
   RWIGS  =    2.480; RWIGS  =    1.312    wigner-seitz radius (au A)           
   ENMAX  =  245.345; ENMIN  =  184.009 eV                                      
   ICORE  =        2    local potential                                         
   LCOR   =        T    correct aug charges                                     
   LPAW   =        T    paw PP                                                  
   EAUG   =  322.069                                                            
   DEXC   =    -.007                                                            
   RMAX   =    2.944    core radius for proj-oper                               
   RAUG   =    1.300    factor for augmentation sphere                          
   RDEP   =    1.993    radius for radial grids                                 
   QCUT   =   -4.246; QGAM   =    8.493    optimization parameters              
                                                                                
   Description                                                                  
     l     E      TYP  RCUT    TYP  RCUT                                        
     0   .000     23  1.900                                                     
     0   .000     23  1.900                                                     
     1   .000     23  1.900                                                     
     1   .000     23  1.900                                                     
     2   .000      7  1.900                                                     
  local pseudopotential read in
  partial core-charges read in
  atomic valenz-charges read in
  non local Contribution for L=           0  read in
    real space projection operators read in
  non local Contribution for L=           0  read in
    real space projection operators read in
  non local Contribution for L=           1  read in
    real space projection operators read in
  non local Contribution for L=           1  read in
    real space projection operators read in
    PAW grid and wavefunctions read in
 
   number of l-projection  operators is LMAX  =           4
   number of lm-projection operators is LMMAX =           8
 
 PAW_PBE Si 05Jan2001                   :
 energy of atom  1       EATOM= -103.0669
 kinetic energy error for atom=    0.0107 (will be added to EATOM!!)
 
 
 POSCAR: Si2                                     
  positions in direct lattice
  No initial velocities read in
 exchange correlation table for  LEXCH =        8
   RHO(1)=    0.500       N(1)  =     2000
   RHO(2)=  100.500       N(2)  =     4000
 


--------------------------------------------------------------------------------------------------------


 ion  position               nearest neighbor table
   1  0.500  0.500  0.500-   2 2.35   2 2.35   2 2.35   2 2.35
   2  0.750  0.750  0.750-   1 2.35   1 2.35   1 2.35   1 2.35
 
  LATTYP: Found a face centered cubic cell.
 ALAT       =     5.4300000000
  
  Lattice vectors:
  
 A1 = (   0.0000000000,   2.7150000000,   2.7150000000)
 A2 = (   2.7150000000,   0.0000000000,   2.7150000000)
 A3 = (   2.7150000000,   2.7150000000,   0.0000000000)


Analysis of symmetry for initial positions (statically):
=====================================================================
 Subroutine PRICEL returns:
 Original cell was already a primitive cell.
 

 Routine SETGRP: Setting up the symmetry group for a 
 face centered cubic supercell.


 Subroutine GETGRP returns: Found 48 space group operations
 (whereof 24 operations were pure point group operations)
 out of a pool of 48 trial point group operations.


The static configuration has the point symmetry T_d .
 The point group associated with its full space group is O_h .


Analysis of symmetry for dynamics (positions and initial velocities):
=====================================================================
 Subroutine PRICEL returns:
 Original cell was already a primitive cell.
 

 Routine SETGRP: Setting up the symmetry group for a 
 face centered cubic supercell.


 Subroutine GETGRP returns: Found 48 space group operations
 (whereof 24 operations were pure point group operations)
 out of a pool of 48 trial point group operations.


The dynamic configuration has the point symmetry T_d .
 The point group associated with its full space group is O_h .


 Subroutine INISYM returns: Found 48 space group operations
 (whereof 24 operations are pure point group operations),
 and found     1 'primitive' translations

 
 
 KPOINTS: Automatic kpoint scheme                 

Automatic generation of k-mesh.
Space group operators:
 irot       det(A)        alpha          n_x          n_y          n_z        tau_x        tau_y        tau_z
    1     1.000000     0.000001     1.000000     0.000000     0.000000     0.000000     0.000000     0.000000
    2     1.000000   120.000000    -0.577350    -0.577350    -0.577350     0.000000     0.000000     0.000000
    3     1.000000   120.000000     0.577350     0.577350     0.577350     0.000000     0.000000     0.000000
    4    -1.000000    90.000000    -0.000000    -0.000000    -1.000000     0.000000     0.000000     0.000000
    5    -1.000000   180.000000    -0.000000     0.707107     0.707107     0.000000     0.000000     0.000000
    6    -1.000000    90.000000    -0.000000     1.000000    -0.000000     0.000000     0.000000     0.000000
    7     1.000000   180.000000     0.000000     0.000000    -1.000000     0.000000     0.000000     0.000000
    8     1.000000   120.000000    -0.577350     0.577350     0.577350     0.000000     0.000000     0.000000
    9     1.000000   120.000000    -0.577350     0.577350    -0.577350     0.000000     0.000000     0.000000
   10    -1.000000    90.000000     0.000000     0.000000     1.000000     0.000000     0.000000     0.000000
   11    -1.000000    90.000000    -1.000000     0.000000    -0.000000     0.000000     0.000000     0.000000
   12    -1.000000   180.000000     0.707107     0.000000     0.707107     0.000000     0.000000     0.000000
   13     1.000000   120.000000     0.577350    -0.577350     0.577350     0.000000     0.000000     0.000000
   14     1.000000   120.000000    -0.577350    -0.577350     0.577350     0.000000     0.000000     0.000000
   15     1.000000   180.000000     1.000000     0.000000     0.000000     0.000000     0.000000     0.000000
   16    -1.000000    90.000000     0.000000    -1.000000     0.000000     0.000000     0.000000     0.000000
   17    -1.000000   180.000000     0.707107     0.707107    -0.000000     0.000000     0.000000     0.000000
   18    -1.000000    90.000000     1.000000     0.000000     0.000000     0.000000     0.000000     0.000000
   19     1.000000   120.000000     0.577350    -0.577350    -0.577350     0.000000     0.000000     0.000000
   20     1.000000   180.000000     0.000000    -1.000000     0.000000     0.000000     0.000000     0.000000
   21     1.000000   120.000000     0.577350     0.577350    -0.577350     0.000000     0.000000     0.000000
   22    -1.000000   180.000000    -0.000000    -0.707107     0.707107     0.000000     0.000000     0.000000
   23    -1.000000   180.000000     0.707107    -0.707107    -0.000000     0.000000     0.000000     0.000000
   24    -1.000000   180.000000    -0.707107     0.000000     0.707107     0.000000     0.000000     0.000000
   25    -1.000000     0.000001     1.000000     0.000000     0.000000     0.250000     0.250000     0.250000
   26    -1.000000   120.000000    -0.577350    -0.577350    -0.577350     0.250000     0.250000     0.250000
   27    -1.000000   120.000000     0.577350     0.577350     0.577350     0.250000     0.250000     0.250000
   28     1.000000    90.000000    -0.000000    -0.000000    -1.000000     0.250000     0.250000     0.250000
   29     1.000000   180.000000    -0.000000     0.707107     0.707107     0.250000     0.250000     0.250000
   30     1.000000    90.000000    -0.000000     1.000000    -0.000000     0.250000     0.250000     0.250000
   31    -1.000000   180.000000     0.000000     0.000000    -1.000000     0.250000     0.250000     0.250000
   32    -1.000000   120.000000    -0.577350     0.577350     0.577350     0.250000     0.250000     0.250000
   33    -1.000000   120.000000    -0.577350     0.577350    -0.577350     0.250000     0.250000     0.250000
   34     1.000000    90.000000     0.000000     0.000000     1.000000     0.250000     0.250000     0.250000
   35     1.000000    90.000000    -1.000000     0.000000    -0.000000     0.250000     0.250000     0.250000
   36     1.000000   180.000000     0.707107     0.000000     0.707107     0.250000     0.250000     0.250000
   37    -1.000000   120.000000     0.577350    -0.577350     0.577350     0.250000     0.250000     0.250000
   38    -1.000000   120.000000    -0.577350    -0.577350     0.577350     0.250000     0.250000     0.250000
   39    -1.000000   180.000000     1.000000     0.000000     0.000000     0.250000     0.250000     0.250000
   40     1.000000    90.000000     0.000000    -1.000000     0.000000     0.250000     0.250000     0.250000
   41     1.000000   180.000000     0.707107     0.707107    -0.000000     0.250000     0.250000     0.250000
   42     1.000000    90.000000     1.000000     0.000000     0.000000     0.250000     0.250000     0.250000
   43    -1.000000   120.000000     0.577350    -0.577350    -0.577350     0.250000     0.250000     0.250000
   44    -1.000000   180.000000     0.000000    -1.000000     0.000000     0.250000     0.250000     0.250000
   45    -1.000000   120.000000     0.577350     0.577350    -0.577350     0.250000     0.250000     0.250000
   46     1.000000   180.000000    -0.000000    -0.707107     0.707107     0.250000     0.250000     0.250000
   47     1.000000   180.000000     0.707107    -0.707107    -0.000000     0.250000     0.250000     0.250000
   48     1.000000   180.000000    -0.707107     0.000000     0.707107     0.250000     0.250000     0.250000
 
 Subroutine IBZKPT returns following result:
 ===========================================
 
 Found     35 irreducible k-points:
 
 Following reciprocal coordinates:
            Coordinates               Weight
  0.000000  0.000000  0.000000      1.000000
  0.111111  0.000000  0.000000      8.000000
  0.222222 -0.000000  0.000000      8.000000
  0.333333  0.000000  0.000000      8.000000
  0.444444 -0.000000  0.000000      8.000000
  0.111111  0.111111  0.000000      6.000000
  0.222222  0.111111  0.000000     24.000000
  0.333333  0.111111  0.000000     24.000000
  0.444444  0.111111  0.000000     24.000000
 -0.444444  0.111111  0.000000     24.000000
 -0.333333  0.111111 -0.000000     24.000000
 -0.222222  0.111111  0.000000     24.000000
 -0.111111  0.111111 -0.000000     12.000000
  0.222222  0.222222  0.000000      6.000000
  0.333333  0.222222  0.000000     24.000000
  0.444444  0.222222  0.000000     24.000000
 -0.444444  0.222222  0.000000     24.000000
 -0.333333  0.222222  0.000000     24.000000
 -0.222222  0.222222 -0.000000     12.000000
  0.333333  0.333333  0.000000      6.000000
  0.444444  0.333333  0.000000     24.000000
 -0.444444  0.333333 -0.000000     24.000000
 -0.333333  0.333333  0.000000     12.000000
  0.444444  0.444444  0.000000      6.000000
 -0.444444  0.444444 -0.000000     12.000000
  0.333333  0.222222  0.111111     24.000000
  0.444444  0.222222  0.111111     48.000000
 -0.444444  0.222222  0.111111     48.000000
  0.444444  0.333333  0.111111     24.000000
 -0.444444  0.333333  0.111111     48.000000
 -0.333333  0.333333  0.111111     48.000000
 -0.222222  0.333333  0.111111     24.000000
 -0.444444  0.444444  0.111111     24.000000
 -0.333333  0.444444  0.111111     24.000000
 -0.333333  0.444444  0.222222     24.000000
 
 Following cartesian coordinates:
            Coordinates               Weight
  0.000000  0.000000  0.000000      1.000000
 -0.020462  0.020462  0.020462      8.000000
 -0.040925  0.040925  0.040925      8.000000
 -0.061387  0.061387  0.061387      8.000000
 -0.081850  0.081850  0.081850      8.000000
  0.000000  0.000000  0.040925      6.000000
 -0.020462  0.020462  0.061387     24.000000
 -0.040925  0.040925  0.081850     24.000000
 -0.061387  0.061387  0.102312     24.000000
  0.102312 -0.102312 -0.061387     24.000000
  0.081850 -0.081850 -0.040925     24.000000
  0.061387 -0.061387 -0.020462     24.000000
  0.040925 -0.040925  0.000000     12.000000
  0.000000 -0.000000  0.081850      6.000000
 -0.020462  0.020462  0.102312     24.000000
 -0.040925  0.040925  0.122775     24.000000
  0.122775 -0.122775 -0.040925     24.000000
  0.102312 -0.102312 -0.020462     24.000000
  0.081850 -0.081850  0.000000     12.000000
  0.000000  0.000000  0.122775      6.000000
 -0.020462  0.020462  0.143237     24.000000
  0.143237 -0.143237 -0.020462     24.000000
  0.122775 -0.122775  0.000000     12.000000
  0.000000 -0.000000  0.163700      6.000000
  0.163700 -0.163700  0.000000     12.000000
  0.000000  0.040925  0.081850     24.000000
 -0.020462  0.061387  0.102312     48.000000
  0.143237 -0.102312 -0.061387     48.000000
 -0.000000  0.040925  0.122775     24.000000
  0.163700 -0.122775 -0.040925     48.000000
  0.143237 -0.102312 -0.020462     48.000000
  0.122775 -0.081850 -0.000000     24.000000
  0.184162 -0.143237 -0.020462     24.000000
  0.163700 -0.122775 -0.000000     24.000000
  0.184162 -0.102312 -0.020462     24.000000
 


--------------------------------------------------------------------------------------------------------




 Dimension of arrays:
   k-points           NKPTS =     35   k-points in BZ     NKDIM =     35   number of bands    NBANDS=      8
   number of dos      NEDOS =    301   number of ions     NIONS =      2
   non local maximal  LDIM  =      4   non local SUM 2l+1 LMDIM =      8
   total plane-waves  NPLWV =   2744
   max r-space proj   IRMAX =      1   max aug-charges    IRDMAX=   2491
   dimension x,y,z NGX =    14 NGY =   14 NGZ =   14
   dimension x,y,z NGXF=    28 NGYF=   28 NGZF=   28
   support grid    NGXF=    28 NGYF=   28 NGZF=   28
   ions per type =               2
   NGX,Y,Z   is equivalent  to a cutoff of   6.06,  6.06,  6.06 a.u.
   NGXF,Y,Z  is equivalent  to a cutoff of  12.12, 12.12, 12.12 a.u.

 SYSTEM =  unknown system                          
 POSCAR =  Si2                                     

 Startparameter for this run:
   NWRITE =      2    write-flag & timer
   PREC   = normal    normal or accurate (medium, high low for compatibility)
   ISTART =      0    job   : 0-new  1-cont  2-samecut
   ICHARG =      2    charge: 1-file 2-atom 10-const
   ISPIN  =      1    spin polarized calculation?
   LNONCOLLINEAR =      F non collinear calculations
   LSORBIT =      F    spin-orbit coupling
   INIWAV =      1    electr: 0-lowe 1-rand  2-diag
   LASPH  =      F    aspherical Exc in radial PAW
   METAGGA=      F    non-selfconsistent MetaGGA calc.

 Electronic Relaxation 1
   ENCUT  =  200.0 eV  14.70 Ry    3.83 a.u.   4.43  4.43  4.43*2*pi/ulx,y,z
   ENINI  =  200.0     initial cutoff
   ENAUG  =  322.1 eV  augmentation charge cutoff
   NELM   =     60;   NELMIN=  2; NELMDL= -5     # of ELM steps 
   EDIFF  = 0.4E-03   stopping-criterion for ELM
   LREAL  =      F    real-space projection
   NLSPLINE    = F    spline interpolate recip. space projectors
   LCOMPAT=      F    compatible to vasp.4.4
   GGA_COMPAT  = T    GGA compatible to vasp.4.4-vasp.4.6
   LMAXPAW     = -100 max onsite density
   LMAXMIX     =    2 max onsite mixed and CHGCAR
   VOSKOWN=      0    Vosko Wilk Nusair interpolation
   ROPT   =    0.00000
 Ionic relaxation
   EDIFFG = -.1E-01   stopping-criterion for IOM
   NSW    =     15    number of steps for IOM
   NBLOCK =      1;   KBLOCK =     15    inner block; outer block 
   IBRION =      2    ionic relax: 0-MD 1-quasi-New 2-CG
   NFREE  =      1    steps in history (QN), initial steepest desc. (CG)
   ISIF   =      3    stress and relaxation
   IWAVPR =     11    prediction:  0-non 1-charg 2-wave 3-comb
   ISYM   =      2    0-nonsym 1-usesym 2-fastsym
   LCORR  =      T    Harris-Foulkes like correction to forces

   POTIM  = 0.5000    time-step for ionic-motion
   TEIN   =    0.0    initial temperature
   TEBEG  =    0.0;   TEEND  =   0.0 temperature during run
   SMASS  =  -3.00    Nose mass-parameter (am)
   estimated Nose-frequenzy (Omega)   =  0.10E-29 period in steps =****** mass=  -0.337E-27a.u.
   SCALEE = 1.0000    scale energy and forces
   NPACO  =    256;   APACO  = 16.0  distance and # of slots for P.C.
   PSTRESS=    0.0 pullay stress

  Mass of Ions in am
   POMASS =  28.09
  Ionic Valenz
   ZVAL   =   4.00
  Atomic Wigner-Seitz radii
   RWIGS  =  -1.00
  virtual crystal weights 
   VCA    =   1.00
   NELECT =       8.0000    total number of electrons
   NUPDOWN=      -1.0000    fix difference up-down

 DOS related values:
   EMIN   =  10.00;   EMAX   =-10.00  energy-range for DOS
   EFERMI =   0.00
   ISMEAR =     0;   SIGMA  =   0.20  broadening in eV -4-tet -1-fermi 0-gaus

 Electronic relaxation 2 (details)
   IALGO  =     38    algorithm
   LDIAG  =      T    sub-space diagonalisation (order eigenvalues)
   LSUBROT=      F    optimize rotation matrix (better conditioning)
   TURBO    =      0    0=normal 1=particle mesh
   IRESTART =      0    0=no restart 2=restart with 2 vectors
   NREBOOT  =      0    no. of reboots
   NMIN     =      0    reboot dimension
   EREF     =   0.00    reference energy to select bands
   IMIX   =      4    mixing-type and parameters
     AMIX     =   0.40;   BMIX     =  1.00
     AMIX_MAG =   1.60;   BMIX_MAG =  1.00
     AMIN     =   0.10
     WC   =   100.;   INIMIX=   1;  MIXPRE=   1;  MAXMIX= -45

 Intra band minimization:
   WEIMIN = 0.0010     energy-eigenvalue tresh-hold
   EBREAK =  0.13E-04  absolut break condition
   DEPER  =   0.30     relativ break condition  

   TIME   =   0.40     timestep for ELM

  volume/ion in A,a.u.               =      20.01       135.05
  Fermi-wavevector in a.u.,A,eV,Ry     =   0.957176  1.808800 12.465458  0.916185
  Thomas-Fermi vector in A             =   2.086170
 
 Write flags
   LWAVE        =      T    write WAVECAR
   LDOWNSAMPLE  =      F    k-point downsampling of WAVECAR
   LCHARG       =      T    write CHGCAR
   LVTOT        =      F    write LOCPOT, total local potential
   LVHAR        =      F    write LOCPOT, Hartree potential only
   LELF         =      F    write electronic localiz. function (ELF)
   LORBIT       =      0    0 simple, 1 ext, 2 COOP (PROOUT), +10 PAW based schemes


 Dipole corrections
   LMONO  =      F    monopole corrections only (constant potential shift)
   LDIPOL =      F    correct potential (dipole corrections)
   IDIPOL =      0    1-x, 2-y, 3-z, 4-all directions 
   EPSILON=  1.0000000 bulk dielectric constant

 Exchange correlation treatment:
   GGA     =    --    GGA type
   LEXCH   =     8    internal setting for exchange type
   VOSKOWN=      0    Vosko Wilk Nusair interpolation
   LHFCALC =     F    Hartree Fock is set to
   LHFONE  =     F    Hartree Fock one center treatment
   AEXX    =    0.0000 exact exchange contribution

 Linear response parameters
   LEPSILON=     F    determine dielectric tensor
   LRPA    =     F    only Hartree local field effects (RPA)
   LNABLA  =     F    use nabla operator in PAW spheres
   LVEL    =     F    velocity operator in full k-point grid
   LINTERFAST=   F  fast interpolation
   KINTER  =     0    interpolate to denser k-point grid
   CSHIFT  =0.1000    complex shift for real part using Kramers Kronig
   OMEGAMAX=  -1.0    maximum frequency
   DEG_THRESHOLD= 0.2000000E-02 threshold for treating states as degnerate
   RTIME   =   -0.100 relaxation time in fs
  (WPLASMAI=    0.000 imaginary part of plasma frequency in eV, 0.658/RTIME)
   DFIELD  = 0.0000000 0.0000000 0.0000000 field for delta impulse in time
 
 Orbital magnetization related:
   ORBITALMAG=     F  switch on orbital magnetization
   LCHIMAG   =     F  perturbation theory with respect to B field
   DQ        =  0.001000  dq finite difference perturbation B field
   LLRAUG    =     F  two centre corrections for induced B field



--------------------------------------------------------------------------------------------------------


 conjugate gradient relaxation of ions
 charge density and potential will be updated during run
 non-spin polarized calculation
 Variant of blocked Davidson
 Davidson routine will perform the subspace rotation
 perform sub-space diagonalisation
    after iterative eigenvector-optimisation
 modified Broyden-mixing scheme, WC =      100.0
 initial mixing is a Kerker type mixing with AMIX =  0.4000 and BMIX =      1.0000
 Hartree-type preconditioning will be used
 using additional bands            4
 reciprocal scheme for non local part
 use partial core corrections
 calculate Harris-corrections to forces 
   (improved forces if not selfconsistent)
 use gradient corrections 
 use of overlap-Matrix (Vanderbilt PP)
 Gauss-broadening in eV      SIGMA  =   0.20


--------------------------------------------------------------------------------------------------------


  energy-cutoff  :      200.00
  volume of cell :       40.03
      direct lattice vectors                 reciprocal lattice vectors
     0.000000000  2.715000000  2.715000000    -0.184162063  0.184162063  0.184162063
     2.715000000  0.000000000  2.715000000     0.184162063 -0.184162063  0.184162063
     2.715000000  2.715000000  0.000000000     0.184162063  0.184162063 -0.184162063

  length of vectors
     3.839589822  3.839589822  3.839589822     0.318978049  0.318978049  0.318978049


 
 k-points in units of 2pi/SCALE and weight: Automatic kpoint scheme                 
   0.00000000  0.00000000  0.00000000       0.001
  -0.02046245  0.02046245  0.02046245       0.011
  -0.04092490  0.04092490  0.04092490       0.011
  -0.06138735  0.06138735  0.06138735       0.011
  -0.08184981  0.08184981  0.08184981       0.011
  -0.00000000  0.00000000  0.04092490       0.008
  -0.02046245  0.02046245  0.06138735       0.033
  -0.04092490  0.04092490  0.08184981       0.033
  -0.06138735  0.06138735  0.10231226       0.033
   0.10231226 -0.10231226 -0.06138735       0.033
   0.08184981 -0.08184981 -0.04092490       0.033
   0.06138735 -0.06138735 -0.02046245       0.033
   0.04092490 -0.04092490  0.00000000       0.016
   0.00000000 -0.00000000  0.08184981       0.008
  -0.02046245  0.02046245  0.10231226       0.033
  -0.04092490  0.04092490  0.12277471       0.033
   0.12277471 -0.12277471 -0.04092490       0.033
   0.10231226 -0.10231226 -0.02046245       0.033
   0.08184981 -0.08184981 -0.00000000       0.016
   0.00000000  0.00000000  0.12277471       0.008
  -0.02046245  0.02046245  0.14323716       0.033
   0.14323716 -0.14323716 -0.02046245       0.033
   0.12277471 -0.12277471 -0.00000000       0.016
   0.00000000 -0.00000000  0.16369961       0.008
   0.16369961 -0.16369961 -0.00000000       0.016
   0.00000000  0.04092490  0.08184981       0.033
  -0.02046245  0.06138735  0.10231226       0.066
   0.14323716 -0.10231226 -0.06138735       0.066
  -0.00000000  0.04092490  0.12277471       0.033
   0.16369961 -0.12277471 -0.04092490       0.066
   0.14323716 -0.10231226 -0.02046245       0.066
   0.12277471 -0.08184981 -0.00000000       0.033
   0.18416206 -0.14323716 -0.02046245       0.033
   0.16369961 -0.12277471 -0.00000000       0.033
   0.18416206 -0.10231226 -0.02046245       0.033
 
 k-points in reciprocal lattice and weights: Automatic kpoint scheme                 
   0.00000000  0.00000000  0.00000000       0.001
   0.11111111  0.00000000  0.00000000       0.011
   0.22222222 -0.00000000  0.00000000       0.011
   0.33333333  0.00000000  0.00000000       0.011
   0.44444444 -0.00000000  0.00000000       0.011
   0.11111111  0.11111111  0.00000000       0.008
   0.22222222  0.11111111  0.00000000       0.033
   0.33333333  0.11111111  0.00000000       0.033
   0.44444444  0.11111111  0.00000000       0.033
  -0.44444444  0.11111111  0.00000000       0.033
  -0.33333333  0.11111111 -0.00000000       0.033
  -0.22222222  0.11111111  0.00000000       0.033
  -0.11111111  0.11111111 -0.00000000       0.016
   0.22222222  0.22222222  0.00000000       0.008
   0.33333333  0.22222222  0.00000000       0.033
   0.44444444  0.22222222  0.00000000       0.033
  -0.44444444  0.22222222  0.00000000       0.033
  -0.33333333  0.22222222  0.00000000       0.033
  -0.22222222  0.22222222 -0.00000000       0.016
   0.33333333  0.33333333  0.00000000       0.008
   0.44444444  0.33333333  0.00000000       0.033
  -0.44444444  0.33333333 -0.00000000       0.033
  -0.33333333  0.33333333  0.00000000       0.016
   0.44444444  0.44444444  0.00000000       0.008
  -0.44444444  0.44444444 -0.00000000       0.016
   0.33333333  0.22222222  0.11111111       0.033
   0.44444444  0.22222222  0.11111111       0.066
  -0.44444444  0.22222222  0.11111111       0.066
   0.44444444  0.33333333  0.11111111       0.033
  -0.44444444  0.33333333  0.11111111       0.066
  -0.33333333  0.33333333  0.11111111       0.066
  -0.22222222  0.33333333  0.11111111       0.033
  -0.44444444  0.44444444  0.11111111       0.033
  -0.33333333  0.44444444  0.11111111       0.033
  -0.33333333  0.44444444  0.22222222       0.033
 
 position of ions in fractional coordinates (direct lattice) 
   0.50000000  0.50000000  0.50000000
   0.75000000  0.75000000  0.75000000
 
 position of ions in cartesian coordinates  (Angst):
   2.71500000  2.71500000  2.71500000
   4.07250000  4.07250000  4.07250000
 


--------------------------------------------------------------------------------------------------------


 k-point  1 :   0.0000 0.0000 0.0000  plane waves:     259
 k-point  2 :   0.1111 0.0000 0.0000  plane waves:     271
 k-point  3 :   0.2222-0.0000 0.0000  plane waves:     271
 k-point  4 :   0.3333 0.0000 0.0000  plane waves:     256
 k-point  5 :   0.4444-0.0000 0.0000  plane waves:     260
 k-point  6 :   0.1111 0.1111 0.0000  plane waves:     267
 k-point  7 :   0.2222 0.1111 0.0000  plane waves:     260
 k-point  8 :   0.3333 0.1111 0.0000  plane waves:     263
 k-point  9 :   0.4444 0.1111 0.0000  plane waves:     257
 k-point 10 :  -0.4444 0.1111 0.0000  plane waves:     256
 k-point 11 :  -0.3333 0.1111-0.0000  plane waves:     254
 k-point 12 :  -0.2222 0.1111 0.0000  plane waves:     262
 k-point 13 :  -0.1111 0.1111-0.0000  plane waves:     265
 k-point 14 :   0.2222 0.2222 0.0000  plane waves:     258
 k-point 15 :   0.3333 0.2222 0.0000  plane waves:     255
 k-point 16 :   0.4444 0.2222 0.0000  plane waves:     252
 k-point 17 :  -0.4444 0.2222 0.0000  plane waves:     255
 k-point 18 :  -0.3333 0.2222 0.0000  plane waves:     256
 k-point 19 :  -0.2222 0.2222-0.0000  plane waves:     264
 k-point 20 :   0.3333 0.3333 0.0000  plane waves:     250
 k-point 21 :   0.4444 0.3333 0.0000  plane waves:     253
 k-point 22 :  -0.4444 0.3333-0.0000  plane waves:     253
 k-point 23 :  -0.3333 0.3333 0.0000  plane waves:     256
 k-point 24 :   0.4444 0.4444 0.0000  plane waves:     250
 k-point 25 :  -0.4444 0.4444-0.0000  plane waves:     250
 k-point 26 :   0.3333 0.2222 0.1111  plane waves:     259
 k-point 27 :   0.4444 0.2222 0.1111  plane waves:     255
 k-point 28 :  -0.4444 0.2222 0.1111  plane waves:     251
 k-point 29 :   0.4444 0.3333 0.1111  plane waves:     258
 k-point 30 :  -0.4444 0.3333 0.1111  plane waves:     255
 k-point 31 :  -0.3333 0.3333 0.1111  plane waves:     258
 k-point 32 :  -0.2222 0.3333 0.1111  plane waves:     256
 k-point 33 :  -0.4444 0.4444 0.1111  plane waves:     253
 k-point 34 :  -0.3333 0.4444 0.1111  plane waves:     260
 k-point 35 :  -0.3333 0.4444 0.2222  plane waves:     256

 maximum and minimum number of plane-waves per node :       271      250

 maximum number of plane-waves:       271
 maximum index in each direction: 
   IXMAX=    4   IYMAX=    4   IZMAX=    4
   IXMIN=   -4   IYMIN=   -4   IZMIN=   -4


 serial   3D FFT for wavefunctions
 parallel 3D FFT for charge:
    minimum data exchange during FFTs selected (reduces bandwidth)


 total amount of memory used by VASP MPI-rank0    31173. kBytes
=======================================================================

   base      :      30000. kBytes
   nonl-proj :        617. kBytes
   fftplans  :        119. kBytes
   grid      :        270. kBytes
   one-center:          6. kBytes
   wavefun   :        161. kBytes
 
     INWAV:  cpu time    0.0000: real time    0.0011
 Broyden mixing: mesh for mixing (old mesh)
   NGX =  9   NGY =  9   NGZ =  9
  (NGX  = 28   NGY  = 28   NGZ  = 28)
  gives a total of    729 points

 initial charge density was supplied:
 charge density of overlapping atoms calculated
 number of electron       8.0000000 magnetization 
 keeping initial charge density in first step


--------------------------------------------------------------------------------------------------------


 Maximum index for augmentation-charges          361 (set IRDMAX)


--------------------------------------------------------------------------------------------------------


 First call to EWALD:  gamma=   0.518
 Maximum number of real-space cells 3x 3x 3
 Maximum number of reciprocal cells 3x 3x 3

    FEWALD:  cpu time    0.0040: real time    0.0079


--------------------------------------- Iteration      1(   1)  ---------------------------------------


    POTLOK:  cpu time    0.0240: real time    0.0431
    SETDIJ:  cpu time    0.0120: real time    0.0086
     EDDAV:  cpu time    0.2960: real time    0.3017
       DOS:  cpu time    0.0000: real time    0.0028
    --------------------------------------------
      LOOP:  cpu time    0.3320: real time    0.3570

 eigenvalue-minimisations  :   592
 total energy-change (2. order) :-0.2084764E+01  (-0.2102708E+03)
 number of electron       8.0000000 magnetization 
 augmentation part        8.0000000 magnetization 

 Free energy of the ion-electron system (eV)
  ---------------------------------------------------
  alpha Z        PSCENC =         3.36414203
  Ewald energy   TEWEN  =      -228.56352493
  -Hartree energ DENC   =       -11.00108243
  -exchange      EXHF   =         0.00000000
  -V(xc)+E(xc)   XCENC  =       -18.60172597
  PAW double counting   =        65.95520812      -30.76852678
  entropy T*S    EENTRO =        -0.00852298
  eigenvalues    EBANDS =        11.42679673
  atomic energy  EATOM  =       206.11247263
  Solvation  Ediel_sol  =         0.00000000
  ---------------------------------------------------
  free energy    TOTEN  =        -2.08476359 eV

  energy without entropy =       -2.07624061  energy(sigma->0) =       -2.08050210


--------------------------------------------------------------------------------------------------------




--------------------------------------- Iteration      1(   2)  ---------------------------------------


     EDDAV:  cpu time    0.4640: real time    0.4851
       DOS:  cpu time    0.0000: real time    0.0028
    --------------------------------------------
      LOOP:  cpu time    0.4640: real time    0.4878

 eigenvalue-minimisations  :   888
 total energy-change (2. order) :-0.8809393E+01  (-0.8314669E+01)
 number of electron       8.0000000 magnetization 
 augmentation part        8.0000000 magnetization 

 Free energy of the ion-electron system (eV)
  ---------------------------------------------------
  alpha Z        PSCENC =         3.36414203
  Ewald energy   TEWEN  =      -228.56352493
  -Hartree energ DENC   =       -11.00108243
  -exchange      EXHF   =         0.00000000
  -V(xc)+E(xc)   XCENC  =       -18.60172597
  PAW double counting   =        65.95520812      -30.76852678
  entropy T*S    EENTRO =        -0.00001027
  eigenvalues    EBANDS =         2.60889121
  atomic energy  EATOM  =       206.11247263
  Solvation  Ediel_sol  =         0.00000000
  ---------------------------------------------------
  free energy    TOTEN  =       -10.89415640 eV

  energy without entropy =      -10.89414613  energy(sigma->0) =      -10.89415127


--------------------------------------------------------------------------------------------------------




--------------------------------------- Iteration      1(   3)  ---------------------------------------


     EDDAV:  cpu time    0.3480: real time    0.3533
       DOS:  cpu time    0.0000: real time    0.0026
    --------------------------------------------
      LOOP:  cpu time    0.3480: real time    0.3560

 eigenvalue-minimisations  :   680
 total energy-change (2. order) :-0.8066692E-01  (-0.8066684E-01)
 number of electron       8.0000000 magnetization 
 augmentation part        8.0000000 magnetization 

 Free energy of the ion-electron system (eV)
  ---------------------------------------------------
  alpha Z        PSCENC =         3.36414203
  Ewald energy   TEWEN  =      -228.56352493
  -Hartree energ DENC   =       -11.00108243
  -exchange      EXHF   =         0.00000000
  -V(xc)+E(xc)   XCENC  =       -18.60172597
  PAW double counting   =        65.95520812      -30.76852678
  entropy T*S    EENTRO =        -0.00000841
  eigenvalues    EBANDS =         2.52822243
  atomic energy  EATOM  =       206.11247263
  Solvation  Ediel_sol  =         0.00000000
  ---------------------------------------------------
  free energy    TOTEN  =       -10.97482332 eV

  energy without entropy =      -10.97481491  energy(sigma->0) =      -10.97481911


--------------------------------------------------------------------------------------------------------




--------------------------------------- Iteration      1(   4)  ---------------------------------------


     EDDAV:  cpu time    0.4960: real time    0.5107
       DOS:  cpu time    0.0040: real time    0.0024
    --------------------------------------------
      LOOP:  cpu time    0.5000: real time    0.5133

 eigenvalue-minimisations  :   944
 total energy-change (2. order) :-0.2342703E-03  (-0.2342706E-03)
 number of electron       8.0000000 magnetization 
 augmentation part        8.0000000 magnetization 

 Free energy of the ion-electron system (eV)
  ---------------------------------------------------
  alpha Z        PSCENC =         3.36414203
  Ewald energy   TEWEN  =      -228.56352493
  -Hartree energ DENC   =       -11.00108243
  -exchange      EXHF   =         0.00000000
  -V(xc)+E(xc)   XCENC  =       -18.60172597
  PAW double counting   =        65.95520812      -30.76852678
  entropy T*S    EENTRO =        -0.00000841
  eigenvalues    EBANDS =         2.52798815
  atomic energy  EATOM  =       206.11247263
  Solvation  Ediel_sol  =         0.00000000
  ---------------------------------------------------
  free energy    TOTEN  =       -10.97505759 eV

  energy without entropy =      -10.97504918  energy(sigma->0) =      -10.97505339


--------------------------------------------------------------------------------------------------------




--------------------------------------- Iteration      1(   5)  ---------------------------------------


     EDDAV:  cpu time    0.3240: real time    0.3360
       DOS:  cpu time    0.0040: real time    0.0042
    CHARGE:  cpu time    0.0120: real time    0.0142
    MIXING:  cpu time    0.0040: real time    0.0019
    --------------------------------------------
      LOOP:  cpu time    0.3440: real time    0.3561

 eigenvalue-minimisations  :   648
 total energy-change (2. order) :-0.1163700E-06  (-0.1159489E-06)
 number of electron       8.0000014 magnetization 
 augmentation part       -0.4669289 magnetization 

 Broyden mixing:
  rms(total) = 0.29932E+00    rms(broyden)= 0.29930E+00
  rms(prec ) = 0.86845E+00
  weight for this iteration     100.00

 Free energy of the ion-electron system (eV)
  ---------------------------------------------------
  alpha Z        PSCENC =         3.36414203
  Ewald energy   TEWEN  =      -228.56352493
  -Hartree energ DENC   =       -11.00108243
  -exchange      EXHF   =         0.00000000
  -V(xc)+E(xc)   XCENC  =       -18.60172597
  PAW double counting   =        65.95520812      -30.76852678
  entropy T*S    EENTRO =        -0.00000841
  eigenvalues    EBANDS =         2.52798804
  atomic energy  EATOM  =       206.11247263
  Solvation  Ediel_sol  =         0.00000000
  ---------------------------------------------------
  free energy    TOTEN  =       -10.97505771 eV

  energy without entropy =      -10.97504930  energy(sigma->0) =      -10.97505350


--------------------------------------------------------------------------------------------------------




--------------------------------------- Iteration      1(   6)  ---------------------------------------


    POTLOK:  cpu time    0.0160: real time    0.0240
    SETDIJ:  cpu time    0.0080: real time    0.0081
     EDDAV:  cpu time    0.3280: real time    0.3267
       DOS:  cpu time    0.0040: real time    0.0032
    CHARGE:  cpu time    0.0120: real time    0.0133
    MIXING:  cpu time    0.0000: real time    0.0015
    --------------------------------------------
      LOOP:  cpu time    0.3680: real time    0.3768

 eigenvalue-minimisations  :   656
 total energy-change (2. order) : 0.1242539E+00  (-0.8054081E-02)
 number of electron       8.0000014 magnetization 
 augmentation part       -0.4611533 magnetization 

 Broyden mixing:
  rms(total) = 0.17731E+00    rms(broyden)= 0.17731E+00
  rms(prec ) = 0.51127E+00
  weight for this iteration     100.00

 eigenvalues of (default mixing * dielectric matrix)
  average eigenvalue GAMMA=   2.4330
  2.4330

 Free energy of the ion-electron system (eV)
  ---------------------------------------------------
  alpha Z        PSCENC =         3.36414203
  Ewald energy   TEWEN  =      -228.56352493
  -Hartree energ DENC   =       -12.49260483
  -exchange      EXHF   =         0.00000000
  -V(xc)+E(xc)   XCENC  =       -18.35509699
  PAW double counting   =        70.55880428      -35.48757923
  entropy T*S    EENTRO =        -0.00003921
  eigenvalues    EBANDS =         4.01262241
  atomic energy  EATOM  =       206.11247263
  Solvation  Ediel_sol  =         0.00000000
  ---------------------------------------------------
  free energy    TOTEN  =       -10.85080386 eV

  energy without entropy =      -10.85076464  energy(sigma->0) =      -10.85078425


--------------------------------------------------------------------------------------------------------




--------------------------------------- Iteration      1(   7)  ---------------------------------------


    POTLOK:  cpu time    0.0200: real time    0.0264
    SETDIJ:  cpu time    0.0080: real time    0.0081
     EDDAV:  cpu time    0.3440: real time    0.3434
       DOS:  cpu time    0.0000: real time    0.0026
    CHARGE:  cpu time    0.0120: real time    0.0129
    MIXING:  cpu time    0.0040: real time    0.0017
    --------------------------------------------
      LOOP:  cpu time    0.3880: real time    0.3950

 eigenvalue-minimisations  :   688
 total energy-change (2. order) : 0.5671909E-01  (-0.1481570E-01)
 number of electron       8.0000014 magnetization 
 augmentation part       -0.4542699 magnetization 

 Broyden mixing:
  rms(total) = 0.15144E-01    rms(broyden)= 0.15143E-01
  rms(prec ) = 0.39596E-01
  weight for this iteration     100.00

 eigenvalues of (default mixing * dielectric matrix)
  average eigenvalue GAMMA=   2.4623
  2.4623  2.4623

 Free energy of the ion-electron system (eV)
  ---------------------------------------------------
  alpha Z        PSCENC =         3.36414203
  Ewald energy   TEWEN  =      -228.56352493
  -Hartree energ DENC   =       -14.89103026
  -exchange      EXHF   =         0.00000000
  -V(xc)+E(xc)   XCENC  =       -17.95508217
  PAW double counting   =        76.79862299      -41.87668496
  entropy T*S    EENTRO =        -0.00019403
  eigenvalues    EBANDS =         6.21719393
  atomic energy  EATOM  =       206.11247263
  Solvation  Ediel_sol  =         0.00000000
  ---------------------------------------------------
  free energy    TOTEN  =       -10.79408477 eV

  energy without entropy =      -10.79389074  energy(sigma->0) =      -10.79398776


--------------------------------------------------------------------------------------------------------




--------------------------------------- Iteration      1(   8)  ---------------------------------------


    POTLOK:  cpu time    0.0160: real time    0.0300
    SETDIJ:  cpu time    0.0080: real time    0.0081
     EDDAV:  cpu time    0.3000: real time    0.3000
       DOS:  cpu time    0.0040: real time    0.0026
    CHARGE:  cpu time    0.0120: real time    0.0130
    MIXING:  cpu time    0.0000: real time    0.0014
    --------------------------------------------
      LOOP:  cpu time    0.3400: real time    0.3553

 eigenvalue-minimisations  :   608
 total energy-change (2. order) :-0.1297821E-02  (-0.3705682E-03)
 number of electron       8.0000014 magnetization 
 augmentation part       -0.4552413 magnetization 

 Broyden mixing:
  rms(total) = 0.24400E-02    rms(broyden)= 0.24393E-02
  rms(prec ) = 0.81084E-02
  weight for this iteration     100.00

 eigenvalues of (default mixing * dielectric matrix)
  average eigenvalue GAMMA=   2.1294
  1.3951  2.8039  2.1892

 Free energy of the ion-electron system (eV)
  ---------------------------------------------------
  alpha Z        PSCENC =         3.36414203
  Ewald energy   TEWEN  =      -228.56352493
  -Hartree energ DENC   =       -14.86050702
  -exchange      EXHF   =         0.00000000
  -V(xc)+E(xc)   XCENC  =       -17.94613414
  PAW double counting   =        75.93180785      -40.98209962
  entropy T*S    EENTRO =        -0.00016159
  eigenvalues    EBANDS =         6.14862221
  atomic energy  EATOM  =       206.11247263
  Solvation  Ediel_sol  =         0.00000000
  ---------------------------------------------------
  free energy    TOTEN  =       -10.79538259 eV

  energy without entropy =      -10.79522100  energy(sigma->0) =      -10.79530179


--------------------------------------------------------------------------------------------------------




--------------------------------------- Iteration      1(   9)  ---------------------------------------


    POTLOK:  cpu time    0.0200: real time    0.0257
    SETDIJ:  cpu time    0.0080: real time    0.0081
     EDDAV:  cpu time    0.2360: real time    0.2362
       DOS:  cpu time    0.0000: real time    0.0027
    --------------------------------------------
      LOOP:  cpu time    0.2640: real time    0.2726

 eigenvalue-minimisations  :   432
 total energy-change (2. order) :-0.9121264E-04  (-0.8644750E-05)
 number of electron       8.0000014 magnetization 
 augmentation part       -0.4552413 magnetization 

 Free energy of the ion-electron system (eV)
  ---------------------------------------------------
  alpha Z        PSCENC =         3.36414203
  Ewald energy   TEWEN  =      -228.56352493
  -Hartree energ DENC   =       -14.89807417
  -exchange      EXHF   =         0.00000000
  -V(xc)+E(xc)   XCENC  =       -17.93978857
  PAW double counting   =        75.92901722      -40.97942088
  entropy T*S    EENTRO =        -0.00016065
  eigenvalues    EBANDS =         6.17986351
  atomic energy  EATOM  =       206.11247263
  Solvation  Ediel_sol  =         0.00000000
  ---------------------------------------------------
  free energy    TOTEN  =       -10.79547380 eV

  energy without entropy =      -10.79531316  energy(sigma->0) =      -10.79539348


--------------------------------------------------------------------------------------------------------




 average (electrostatic) potential at core
  the test charge radii are     0.9892
  (the norm of the test charge is              1.0000)
       1 -83.2536       2 -83.2536
 
 
 
 E-fermi :   6.1286     XC(G=0):  -9.4144     alpha+bet :-11.9845


 k-point     1 :       0.0000    0.0000    0.0000
  band No.  band energies     occupation 
      1      -6.1316      2.00000
      2       5.8538      1.94807
      3       5.8538      1.94805
      4       5.8538      1.94805
      5       8.4254      0.00000
      6       8.4254      0.00000
      7       8.4254      0.00000
      8       9.2047      0.00000

 k-point     2 :       0.1111    0.0000    0.0000
  band No.  band energies     occupation 
      1      -5.9701      2.00000
      2       4.5020      2.00000
      3       5.6121      1.99974
      4       5.6121      1.99974
      5       8.4028      0.00000
      6       8.7774      0.00000
      7       8.7774      0.00000
      8      10.3195      0.00000

 k-point     3 :       0.2222   -0.0000    0.0000
  band No.  band energies     occupation 
      1      -5.4954      2.00000
      2       2.4165      2.00000
      3       5.1845      2.00000
      4       5.1846      2.00000
      5       7.9920      0.00000
      6       9.3120      0.00000
      7       9.3120      0.00000
      8      12.2965      0.00000

 k-point     4 :       0.3333    0.0000    0.0000
  band No.  band energies     occupation 
      1      -4.7538      2.00000
      2       0.5008      2.00000
      3       4.8438      2.00000
      4       4.8438      2.00000
      5       7.6209      0.00000
      6       9.3885      0.00000
      7       9.3885      0.00000
      8      13.7194      0.00000

 k-point     5 :       0.4444   -0.0000    0.0000
  band No.  band energies     occupation 
      1      -3.9610      2.00000
      2      -0.8978      2.00000
      3       4.6644      2.00000
      4       4.6644      2.00000
      5       7.4197      0.00000
      6       9.2461      0.00000
      7       9.2461      0.00000
      8      13.6166      0.00000

 k-point     6 :       0.1111    0.1111    0.0000
  band No.  band energies     occupation 
      1      -5.9158      2.00000
      2       4.7382      2.00000
      3       5.1699      2.00000
      4       5.1699      2.00000
      5       7.9698      0.00000
      6       9.3730      0.00000
      7       9.3730      0.00000
      8      10.1443      0.00000

 k-point     7 :       0.2222    0.1111    0.0000
  band No.  band energies     occupation 
      1      -5.5433      2.00000
      2       3.0444      2.00000
      3       4.6940      2.00000
      4       4.8339      2.00000
      5       8.0651      0.00000
      6       9.4052      0.00000
      7      10.0974      0.00000
      8      10.7984      0.00000

 k-point     8 :       0.3333    0.1111    0.0000
  band No.  band energies     occupation 
      1      -4.8819      2.00000
      2       1.1296      2.00000
      3       4.3235      2.00000
      4       4.3853      2.00000
      5       8.1897      0.00000
      6       9.3718      0.00000
      7      10.2641      0.00000
      8      11.2340      0.00000

 k-point     9 :       0.4444    0.1111    0.0000
  band No.  band energies     occupation 
      1      -4.0541      2.00000
      2      -0.4643      2.00000
      3       3.8855      2.00000
      4       4.3013      2.00000
      5       8.0697      0.00000
      6       9.2781      0.00000
      7       9.9909      0.00000
      8      12.6859      0.00000

 k-point    10 :      -0.4444    0.1111    0.0000
  band No.  band energies     occupation 
      1      -3.6743      2.00000
      2      -1.0380      2.00000
      3       3.6255      2.00000
      4       4.4419      2.00000
      5       8.0770      0.00000
      6       9.2984      0.00000
      7       9.7250      0.00000
      8      14.0398      0.00000

 k-point    11 :      -0.3333    0.1111   -0.0000
  band No.  band energies     occupation 
      1      -4.3330      2.00000
      2       0.0135      2.00000
      3       3.5912      2.00000
      4       4.7752      2.00000
      5       8.2669      0.00000
      6       9.5263      0.00000
      7       9.5998      0.00000
      8      13.2867      0.00000

 k-point    12 :      -0.2222    0.1111    0.0000
  band No.  band energies     occupation 
      1      -5.1332      2.00000
      2       1.7468      2.00000
      3       3.8241      2.00000
      4       5.2282      2.00000
      5       8.5931      0.00000
      6       9.3797      0.00000
      7       9.6705      0.00000
      8      11.9680      0.00000

 k-point    13 :      -0.1111    0.1111   -0.0000
  band No.  band energies     occupation 
      1      -5.7032      2.00000
      2       3.5213      2.00000
      3       4.4793      2.00000
      4       5.6259      1.99962
      5       8.8712      0.00000
      6       8.8747      0.00000
      7       9.0861      0.00000
      8      11.2510      0.00000

 k-point    14 :       0.2222    0.2222    0.0000
  band No.  band energies     occupation 
      1      -5.2740      2.00000
      2       2.8224      2.00000
      3       4.1685      2.00000
      4       4.1685      2.00000
      5       7.1681      0.00000
      6       9.4326      0.00000
      7      11.1621      0.00000
      8      11.1621      0.00000

 k-point    15 :       0.3333    0.2222    0.0000
  band No.  band energies     occupation 
      1      -4.7041      2.00000
      2       1.4835      2.00000
      3       3.5405      2.00000
      4       3.8247      2.00000
      5       7.3257      0.00000
      6       9.0458      0.00000
      7      11.4122      0.00000
      8      11.7431      0.00000

 k-point    16 :       0.4444    0.2222    0.0000
  band No.  band energies     occupation 
      1      -3.9037      2.00000
      2       0.0075      2.00000
      3       2.7976      2.00000
      4       3.7254      2.00000
      5       7.5133      0.00000
      6      10.0778      0.00000
      7      11.1645      0.00000
      8      11.5536      0.00000

 k-point    17 :      -0.4444    0.2222    0.0000
  band No.  band energies     occupation 
      1      -3.2472      2.00000
      2      -0.9377      2.00000
      3       2.2763      2.00000
      4       3.8813      2.00000
      5       7.6629      0.00000
      6      10.9090      0.00000
      7      11.1620      0.00000
      8      12.0784      0.00000

 k-point    18 :      -0.3333    0.2222    0.0000
  band No.  band energies     occupation 
      1      -3.6606      2.00000
      2      -0.3576      2.00000
      3       2.0937      2.00000
      4       4.2647      2.00000
      5       8.0536      0.00000
      6      10.8160      0.00000
      7      10.8502      0.00000
      8      13.0993      0.00000

 k-point    19 :      -0.2222    0.2222   -0.0000
  band No.  band energies     occupation 
      1      -4.4846      2.00000
      2       0.8936      2.00000
      3       2.4785      2.00000
      4       4.7890      2.00000
      5       8.5892      0.00000
      6      10.2008      0.00000
      7      10.5431      0.00000
      8      11.7390      0.00000

 k-point    20 :       0.3333    0.3333    0.0000
  band No.  band energies     occupation 
      1      -4.2261      2.00000
      2       0.8267      2.00000
      3       3.4212      2.00000
      4       3.4212      2.00000
      5       6.5881      0.00116
      6       7.8656      0.00000
      7      13.1733      0.00000
      8      13.1733      0.00000

 k-point    21 :       0.4444    0.3333    0.0000
  band No.  band energies     occupation 
      1      -3.4863      2.00000
      2      -0.2269      2.00000
      3       2.6927      2.00000
      4       3.2623      2.00000
      5       6.8333      0.00000
      6       7.9097      0.00000
      7      13.4760      0.00000
      8      13.5259      0.00000

 k-point    22 :      -0.4444    0.3333   -0.0000
  band No.  band energies     occupation 
      1      -2.6905      2.00000
      2      -1.1269      2.00000
      3       1.7857      2.00000
      4       3.3707      2.00000
      5       7.0304      0.00000
      6       9.5263      0.00000
      7      13.1409      0.00000
      8      13.2624      0.00000

 k-point    23 :      -0.3333    0.3333    0.0000
  band No.  band energies     occupation 
      1      -2.8647      2.00000
      2      -0.9365      2.00000
      3       1.4213      2.00000
      4       3.7281      2.00000
      5       7.4353      0.00000
      6      11.7051      0.00000
      7      12.3706      0.00000
      8      12.9714      0.00000

 k-point    24 :       0.4444    0.4444    0.0000
  band No.  band energies     occupation 
      1      -2.8105      2.00000
      2      -1.0927      2.00000
      3       3.0323      2.00000
      4       3.0323      2.00000
      5       6.4435      0.02600
      6       6.8469      0.00000
      7      15.2687      0.00000
      8      15.2687      0.00000

 k-point    25 :      -0.4444    0.4444   -0.0000
  band No.  band energies     occupation 
      1      -2.0363      2.00000
      2      -1.8672      2.00000
      3       2.4164      2.00000
      4       3.0699      2.00000
      5       6.6695      0.00013
      6       7.5119      0.00000
      7      15.1268      0.00000
      8      15.4451      0.00000

 k-point    26 :       0.3333    0.2222    0.1111
  band No.  band energies     occupation 
      1      -5.0732      2.00000
      2       2.0496      2.00000
      3       3.4708      2.00000
      4       4.6793      2.00000
      5       8.2458      0.00000
      6       9.6948      0.00000
      7      10.2863      0.00000
      8      10.9120      0.00000

 k-point    27 :       0.4444    0.2222    0.1111
  band No.  band energies     occupation 
      1      -4.3368      2.00000
      2       0.5552      2.00000
      3       2.8623      2.00000
      4       4.2384      2.00000
      5       8.6399      0.00000
      6       9.4841      0.00000
      7      10.6751      0.00000
      8      11.3638      0.00000

 k-point    28 :      -0.4444    0.2222    0.1111
  band No.  band energies     occupation 
      1      -3.5388      2.00000
      2      -0.7373      2.00000
      3       2.6701      2.00000
      4       3.9129      2.00000
      5       8.7402      0.00000
      6       9.0777      0.00000
      7      11.3047      0.00000
      8      12.4363      0.00000

 k-point    29 :       0.4444    0.3333    0.1111
  band No.  band energies     occupation 
      1      -4.0516      2.00000
      2       0.5212      2.00000
      3       2.7553      2.00000
      4       3.4478      2.00000
      5       7.6880      0.00000
      6       8.7029      0.00000
      7      11.3389      0.00000
      8      13.0820      0.00000

 k-point    30 :      -0.4444    0.3333    0.1111
  band No.  band energies     occupation 
      1      -3.2234      2.00000
      2      -0.5653      2.00000
      3       2.0895      2.00000
      4       3.1408      2.00000
      5       8.0977      0.00000
      6       9.8104      0.00000
      7      10.8935      0.00000
      8      13.4857      0.00000

 k-point    31 :      -0.3333    0.3333    0.1111
  band No.  band energies     occupation 
      1      -2.8572      2.00000
      2      -0.9923      2.00000
      3       1.7017      2.00000
      4       3.2539      2.00000
      5       8.3882      0.00000
      6      10.4068      0.00000
      7      11.9597      0.00000
      8      12.5105      0.00000

 k-point    32 :      -0.2222    0.3333    0.1111
  band No.  band energies     occupation 
      1      -3.5594      2.00000
      2      -0.1886      2.00000
      3       1.8494      2.00000
      4       3.6932      2.00000
      5       8.9049      0.00000
      6       9.9047      0.00000
      7      10.7712      0.00000
      8      12.8380      0.00000

 k-point    33 :      -0.4444    0.4444    0.1111
  band No.  band energies     occupation 
      1      -2.6938      2.00000
      2      -1.1086      2.00000
      3       2.4667      2.00000
      4       2.6767      2.00000
      5       7.5149      0.00000
      6       7.8298      0.00000
      7      13.1266      0.00000
      8      15.0085      0.00000

 k-point    34 :      -0.3333    0.4444    0.1111
  band No.  band energies     occupation 
      1      -2.1700      2.00000
      2      -1.5710      2.00000
      3       1.7404      2.00000
      4       2.7654      2.00000
      5       7.8855      0.00000
      6       9.5404      0.00000
      7      12.5680      0.00000
      8      12.8282      0.00000

 k-point    35 :      -0.3333    0.4444    0.2222
  band No.  band energies     occupation 
      1      -2.4163      2.00000
      2      -1.2550      2.00000
      3       1.7799      2.00000
      4       2.4238      2.00000
      5       9.7324      0.00000
      6       9.8303      0.00000
      7      10.5127      0.00000
      8      12.2701      0.00000


--------------------------------------------------------------------------------------------------------


 soft charge-density along one line, spin component           1
         0         1         2         3         4         5         6         7         8         9
 total charge-density along one line
 
 pseudopotential strength for first ion, spin component:           1
 18.418  -0.001  -0.000  -0.000  -0.000   0.000   0.000   0.000
 -0.001   0.006   0.000   0.000   0.000  -0.000  -0.000  -0.000
 -0.000   0.000   4.180  -0.000  -0.000  -0.005   0.000   0.000
 -0.000   0.000  -0.000   4.180  -0.000   0.000  -0.005   0.000
 -0.000   0.000  -0.000  -0.000   4.180   0.000   0.000  -0.005
  0.000  -0.000  -0.005   0.000   0.000   0.005  -0.000  -0.000
  0.000  -0.000   0.000  -0.005   0.000  -0.000   0.005  -0.000
  0.000  -0.000   0.000   0.000  -0.005  -0.000  -0.000   0.005
 total augmentation occupancy for first ion, spin component:           1
  1.489  -0.984  -0.000  -0.000   0.000   0.000   0.000  -0.000
 -0.984   1.033  -0.000   0.000   0.000   0.000   0.000   0.000
 -0.000   0.000   1.023  -0.000   0.000  -0.770   0.000  -0.000
 -0.000   0.000  -0.000   1.023   0.000   0.000  -0.770  -0.000
  0.000   0.000   0.000   0.000   1.023  -0.000  -0.000  -0.770
  0.000   0.000  -0.770   0.000  -0.000   0.632  -0.000   0.000
  0.000   0.000   0.000  -0.770  -0.000  -0.000   0.632   0.000
 -0.000   0.000  -0.000  -0.000  -0.770   0.000   0.000   0.632


------------------------ aborting loop because EDIFF is reached ----------------------------------------


    CHARGE:  cpu time    0.0120: real time    0.0125
    FORLOC:  cpu time    0.0000: real time    0.0005
    FORNL :  cpu time    0.0080: real time    0.0086
    STRESS:  cpu time    0.0800: real time    0.0783
    FORCOR:  cpu time    0.0120: real time    0.0130
    FORHAR:  cpu time    0.0040: real time    0.0034
    MIXING:  cpu time    0.0000: real time    0.0010
    OFIELD:  cpu time    0.0000: real time    0.0005

  FORCE on cell =-STRESS in cart. coord.  units (eV):
  Direction    XX          YY          ZZ          XY          YZ          ZX
  --------------------------------------------------------------------------------------
  Alpha Z     3.36414     3.36414     3.36414
  Ewald     -76.18788   -76.18788   -76.18788    -0.00000    -0.00000     0.00000
  Hartree     4.96915     4.96915     4.96915    -0.00000    -0.00000    -0.00000
  E(xc)     -25.40102   -25.40102   -25.40102    -0.00000    -0.00000    -0.00000
  Local     -29.45260   -29.45260   -29.45260     0.00008     0.00008     0.00008
  n-local    79.23578    80.45937    74.78240     2.25100    -1.26626     0.59300
  augment   -11.56088   -11.56088   -11.56088    -0.00008    -0.00008    -0.00008
  Kinetic    58.66874    56.08566    54.97896     3.54929    -0.67937     1.01116
  Fock        0.00000     0.00000     0.00000     0.00000     0.00000     0.00000
  -------------------------------------------------------------------------------------
  Total       0.46790     0.46790     0.46790    -0.00000     0.00000     0.00000
  in kB      18.72922    18.72922    18.72922    -0.00000     0.00000     0.00000
  external pressure =       18.73 kB  Pullay stress =        0.00 kB


 VOLUME and BASIS-vectors are now :
 -----------------------------------------------------------------------------
  energy-cutoff  :      200.00
  volume of cell :       40.03
      direct lattice vectors                 reciprocal lattice vectors
     0.000000000  2.715000000  2.715000000    -0.184162063  0.184162063  0.184162063
     2.715000000  0.000000000  2.715000000     0.184162063 -0.184162063  0.184162063
     2.715000000  2.715000000  0.000000000     0.184162063  0.184162063 -0.184162063

  length of vectors
     3.839589822  3.839589822  3.839589822     0.318978049  0.318978049  0.318978049


 FORCES acting on ions
    electron-ion (+dipol)            ewald-force                    non-local-force                 convergence-correction
 -----------------------------------------------------------------------------------------------
   0.785E-05 0.785E-05 0.844E-05   -.476E-15 -.149E-14 0.391E-14   -.480E-17 0.214E-17 0.119E-16   -.998E-06 -.998E-06 -.998E-06
   -.785E-05 -.785E-05 -.844E-05   0.623E-15 0.106E-14 -.375E-14   0.180E-16 -.278E-17 -.148E-17   0.998E-06 0.998E-06 0.998E-06
 -----------------------------------------------------------------------------------------------
   -.330E-13 -.354E-14 -.508E-13   0.147E-15 -.426E-15 0.164E-15   0.132E-16 -.642E-18 0.104E-16   0.213E-15 -.241E-15 0.837E-15
 
 
 POSITION                                       TOTAL-FORCE (eV/Angst)
 -----------------------------------------------------------------------------------
      2.71500      2.71500      2.71500         0.000000      0.000000      0.000000
      4.07250      4.07250      4.07250        -0.000000     -0.000000     -0.000000
 -----------------------------------------------------------------------------------
    total drift:                               -0.000000     -0.000000     -0.000000


--------------------------------------------------------------------------------------------------------



  FREE ENERGIE OF THE ION-ELECTRON SYSTEM (eV)
  ---------------------------------------------------
  free  energy   TOTEN  =       -10.79547380 eV

  energy  without entropy=      -10.79531316  energy(sigma->0) =      -10.79539348
 


--------------------------------------------------------------------------------------------------------


    POTLOK:  cpu time    0.0320: real time    0.0451


--------------------------------------------------------------------------------------------------------




--------------------------------------------------------------------------------------------------------


    WAVPRE:  cpu time    0.4600: real time    0.7179
    FEWALD:  cpu time    0.0000: real time    0.0007
    GENKIN:  cpu time    0.0120: real time    0.0114
    ORTHCH:  cpu time    0.0240: real time    0.0226
     LOOP+:  cpu time    4.0600: real time    4.5462


--------------------------------------- Iteration      2(   1)  ---------------------------------------


    POTLOK:  cpu time    0.0200: real time    0.0230
    SETDIJ:  cpu time    0.0080: real time    0.0082
     EDDAV:  cpu time    0.3480: real time    0.3480
       DOS:  cpu time    0.0000: real time    0.0025
    CHARGE:  cpu time    0.0160: real time    0.0129
    MIXING:  cpu time    0.0000: real time    0.0011
    --------------------------------------------
      LOOP:  cpu time    0.3920: real time    0.3963

 eigenvalue-minimisations  :   704
 total energy-change (2. order) :-0.8760861E-02  (-0.2406271E-01)
 number of electron       8.0000023 magnetization 
 augmentation part       -0.4573111 magnetization 

 Broyden mixing:
  rms(total) = 0.31165E-01    rms(broyden)= 0.31107E-01
  rms(prec ) = 0.11289E+00
  weight for this iteration     100.00

 Free energy of the ion-electron system (eV)
  ---------------------------------------------------
  alpha Z        PSCENC =         3.25275995
  Ewald energy   TEWEN  =      -226.01268903
  -Hartree energ DENC   =       -14.74371343
  -exchange      EXHF   =         0.00000000
  -V(xc)+E(xc)   XCENC  =       -18.10422410
  PAW double counting   =        75.91975703      -40.97110203
  entropy T*S    EENTRO =        -0.00006160
  eigenvalues    EBANDS =         3.74265713
  atomic energy  EATOM  =       206.11247263
  Solvation  Ediel_sol  =         0.00000000
  ---------------------------------------------------
  free energy    TOTEN  =       -10.80414345 eV

  energy without entropy =      -10.80408185  energy(sigma->0) =      -10.80411265


--------------------------------------------------------------------------------------------------------




--------------------------------------- Iteration      2(   2)  ---------------------------------------


    POTLOK:  cpu time    0.0160: real time    0.0264
    SETDIJ:  cpu time    0.0080: real time    0.0080
     EDDAV:  cpu time    0.3240: real time    0.3206
       DOS:  cpu time    0.0000: real time    0.0026
    CHARGE:  cpu time    0.0120: real time    0.0131
    MIXING:  cpu time    0.0040: real time    0.0011
    --------------------------------------------
      LOOP:  cpu time    0.3640: real time    0.3718

 eigenvalue-minimisations  :   648
 total energy-change (2. order) : 0.4124674E-02  (-0.3192312E-03)
 number of electron       8.0000023 magnetization 
 augmentation part       -0.4562791 magnetization 

 Broyden mixing:
  rms(total) = 0.17857E-01    rms(broyden)= 0.17854E-01
  rms(prec ) = 0.64659E-01
  weight for this iteration     100.00

 eigenvalues of (default mixing * dielectric matrix)
  average eigenvalue GAMMA=   2.2980
  2.2980

 Free energy of the ion-electron system (eV)
  ---------------------------------------------------
  alpha Z        PSCENC =         3.25275995
  Ewald energy   TEWEN  =      -226.01268903
  -Hartree energ DENC   =       -14.98810425
  -exchange      EXHF   =         0.00000000
  -V(xc)+E(xc)   XCENC  =       -18.09672241
  PAW double counting   =        75.61834372      -40.66215586
  entropy T*S    EENTRO =        -0.00007646
  eigenvalues    EBANDS =         3.97615294
  atomic energy  EATOM  =       206.11247263
  Solvation  Ediel_sol  =         0.00000000
  ---------------------------------------------------
  free energy    TOTEN  =       -10.80001878 eV

  energy without entropy =      -10.79994231  energy(sigma->0) =      -10.79998054


--------------------------------------------------------------------------------------------------------




--------------------------------------- Iteration      2(   3)  ---------------------------------------


    POTLOK:  cpu time    0.0160: real time    0.0293
    SETDIJ:  cpu time    0.0080: real time    0.0081
     EDDAV:  cpu time    0.3240: real time    0.3230
       DOS:  cpu time    0.0000: real time    0.0025
    CHARGE:  cpu time    0.0160: real time    0.0131
    MIXING:  cpu time    0.0000: real time    0.0012
    --------------------------------------------
      LOOP:  cpu time    0.3640: real time    0.3772

 eigenvalue-minimisations  :   656
 total energy-change (2. order) : 0.2112101E-02  (-0.4299290E-03)
 number of electron       8.0000023 magnetization 
 augmentation part       -0.4543547 magnetization 

 Broyden mixing:
  rms(total) = 0.22260E-02    rms(broyden)= 0.22257E-02
  rms(prec ) = 0.50685E-02
  weight for this iteration     100.00

 eigenvalues of (default mixing * dielectric matrix)
  average eigenvalue GAMMA=   2.1900
  2.1125  2.2674

 Free energy of the ion-electron system (eV)
  ---------------------------------------------------
  alpha Z        PSCENC =         3.25275995
  Ewald energy   TEWEN  =      -226.01268903
  -Hartree energ DENC   =       -15.31031951
  -exchange      EXHF   =         0.00000000
  -V(xc)+E(xc)   XCENC  =       -18.08916070
  PAW double counting   =        75.05714065      -40.08611173
  entropy T*S    EENTRO =        -0.00009935
  eigenvalues    EBANDS =         4.27810042
  atomic energy  EATOM  =       206.11247263
  Solvation  Ediel_sol  =         0.00000000
  ---------------------------------------------------
  free energy    TOTEN  =       -10.79790668 eV

  energy without entropy =      -10.79780732  energy(sigma->0) =      -10.79785700


--------------------------------------------------------------------------------------------------------




--------------------------------------- Iteration      2(   4)  ---------------------------------------


    POTLOK:  cpu time    0.0160: real time    0.0415
    SETDIJ:  cpu time    0.0080: real time    0.0082
     EDDAV:  cpu time    0.1640: real time    0.1605
       DOS:  cpu time    0.0000: real time    0.0025
    --------------------------------------------
      LOOP:  cpu time    0.1880: real time    0.2126

 eigenvalue-minimisations  :   280
 total energy-change (2. order) : 0.1189876E-04  (-0.3928697E-05)
 number of electron       8.0000023 magnetization 
 augmentation part       -0.4543547 magnetization 

 Free energy of the ion-electron system (eV)
  ---------------------------------------------------
  alpha Z        PSCENC =         3.25275995
  Ewald energy   TEWEN  =      -226.01268903
  -Hartree energ DENC   =       -15.30669938
  -exchange      EXHF   =         0.00000000
  -V(xc)+E(xc)   XCENC  =       -18.09251524
  PAW double counting   =        74.88888339      -39.91149005
  entropy T*S    EENTRO =        -0.00009792
  eigenvalues    EBANDS =         4.27148087
  atomic energy  EATOM  =       206.11247263
  Solvation  Ediel_sol  =         0.00000000
  ---------------------------------------------------
  free energy    TOTEN  =       -10.79789478 eV

  energy without entropy =      -10.79779686  energy(sigma->0) =      -10.79784582


--------------------------------------------------------------------------------------------------------




 average (electrostatic) potential at core
  the test charge radii are     0.9892
  (the norm of the test charge is              1.0000)
       1 -83.6249       2 -83.6249
 
 
 
 E-fermi :   5.8269     XC(G=0):  -9.2811     alpha+bet :-11.5877


 k-point     1 :       0.0000    0.0000    0.0000
  band No.  band energies     occupation 
      1      -6.2380      2.00000
      2       5.5194      1.97030
      3       5.5195      1.97028
      4       5.5195      1.97028
      5       8.0762      0.00000
      6       8.0762      0.00000
      7       8.0762      0.00000
      8       8.4860      0.00000

 k-point     2 :       0.1111    0.0000    0.0000
  band No.  band energies     occupation 
      1      -6.0812      2.00000
      2       4.1721      2.00000
      3       5.2858      1.99987
      4       5.2859      1.99987
      5       7.9696      0.00000
      6       8.4165      0.00000
      7       8.4166      0.00000
      8       9.6913      0.00000

 k-point     3 :       0.2222   -0.0000    0.0000
  band No.  band energies     occupation 
      1      -5.6205      2.00000
      2       2.1291      2.00000
      3       4.8695      2.00000
      4       4.8695      2.00000
      5       7.5400      0.00000
      6       8.9450      0.00000
      7       8.9450      0.00000
      8      11.6819      0.00000

 k-point     4 :       0.3333    0.0000    0.0000
  band No.  band energies     occupation 
      1      -4.9030      2.00000
      2       0.2637      2.00000
      3       4.5356      2.00000
      4       4.5356      2.00000
      5       7.1674      0.00000
      6       9.0459      0.00000
      7       9.0459      0.00000
      8      13.2428      0.00000

 k-point     5 :       0.4444   -0.0000    0.0000
  band No.  band energies     occupation 
      1      -4.1428      2.00000
      2      -1.0881      2.00000
      3       4.3591      2.00000
      4       4.3591      2.00000
      5       6.9663      0.00000
      6       8.9227      0.00000
      7       8.9228      0.00000
      8      13.2374      0.00000

 k-point     6 :       0.1111    0.1111    0.0000
  band No.  band energies     occupation 
      1      -6.0284      2.00000
      2       4.3707      2.00000
      3       4.8616      2.00000
      4       4.8616      2.00000
      5       7.6349      0.00000
      6       8.9907      0.00000
      7       8.9908      0.00000
      8       9.4862      0.00000

 k-point     7 :       0.2222    0.1111    0.0000
  band No.  band energies     occupation 
      1      -5.6668      2.00000
      2       2.7260      2.00000
      3       4.3993      2.00000
      4       4.5182      2.00000
      5       7.7212      0.00000
      6       8.9374      0.00000
      7       9.6993      0.00000
      8      10.3923      0.00000

 k-point     8 :       0.3333    0.1111    0.0000
  band No.  band energies     occupation 
      1      -5.0260      2.00000
      2       0.8653      2.00000
      3       4.0178      2.00000
      4       4.0967      2.00000
      5       7.8084      0.00000
      6       8.9548      0.00000
      7       9.8857      0.00000
      8      10.8649      0.00000

 k-point     9 :       0.4444    0.1111    0.0000
  band No.  band energies     occupation 
      1      -4.2288      2.00000
      2      -0.6776      2.00000
      3       3.5915      2.00000
      4       4.0119      2.00000
      5       7.6677      0.00000
      6       8.9099      0.00000
      7       9.6402      0.00000
      8      12.2650      0.00000

 k-point    10 :      -0.4444    0.1111    0.0000
  band No.  band energies     occupation 
      1      -3.8676      2.00000
      2      -1.2276      2.00000
      3       3.3416      2.00000
      4       4.1458      2.00000
      5       7.6567      0.00000
      6       8.9501      0.00000
      7       9.3868      0.00000
      8      13.5985      0.00000

 k-point    11 :      -0.3333    0.1111   -0.0000
  band No.  band energies     occupation 
      1      -4.4966      2.00000
      2      -0.2162      2.00000
      3       3.3140      2.00000
      4       4.4677      2.00000
      5       7.8278      0.00000
      6       9.1786      0.00000
      7       9.2547      0.00000
      8      12.8058      0.00000

 k-point    12 :      -0.2222    0.1111    0.0000
  band No.  band energies     occupation 
      1      -5.2693      2.00000
      2       1.4641      2.00000
      3       3.5495      2.00000
      4       4.9070      2.00000
      5       8.1420      0.00000
      6       9.0154      0.00000
      7       9.2977      0.00000
      8      11.4855      0.00000

 k-point    13 :      -0.1111    0.1111   -0.0000
  band No.  band energies     occupation 
      1      -5.8221      2.00000
      2       3.1915      2.00000
      3       4.1962      2.00000
      4       5.2939      1.99984
      5       8.4111      0.00000
      6       8.5114      0.00000
      7       8.7092      0.00000
      8      10.6889      0.00000

 k-point    14 :       0.2222    0.2222    0.0000
  band No.  band energies     occupation 
      1      -5.4051      2.00000
      2       2.4709      2.00000
      3       3.8902      2.00000
      4       3.8902      2.00000
      5       6.8593      0.00000
      6       9.0667      0.00000
      7      10.7302      0.00000
      8      10.7302      0.00000

 k-point    15 :       0.3333    0.2222    0.0000
  band No.  band energies     occupation 
      1      -4.8523      2.00000
      2       1.1729      2.00000
      3       3.2761      2.00000
      4       3.5550      2.00000
      5       7.0143      0.00000
      6       8.7102      0.00000
      7      10.9521      0.00000
      8      11.3117      0.00000

 k-point    16 :       0.4444    0.2222    0.0000
  band No.  band energies     occupation 
      1      -4.0789      2.00000
      2      -0.2508      2.00000
      3       2.5512      2.00000
      4       3.4567      2.00000
      5       7.2046      0.00000
      6       9.7170      0.00000
      7      10.6892      0.00000
      8      11.1530      0.00000

 k-point    17 :      -0.4444    0.2222    0.0000
  band No.  band energies     occupation 
      1      -3.4517      2.00000
      2      -1.1554      2.00000
      3       2.0453      2.00000
      4       3.6061      2.00000
      5       7.3459      0.00000
      6      10.4709      0.00000
      7      10.7791      0.00000
      8      11.6392      0.00000

 k-point    18 :      -0.3333    0.2222    0.0000
  band No.  band energies     occupation 
      1      -3.8470      2.00000
      2      -0.6003      2.00000
      3       1.8755      2.00000
      4       3.9763      2.00000
      5       7.7119      0.00000
      6      10.4186      0.00000
      7      10.4287      0.00000
      8      12.5959      0.00000

 k-point    19 :      -0.2222    0.2222   -0.0000
  band No.  band energies     occupation 
      1      -4.6413      2.00000
      2       0.6080      2.00000
      3       2.2587      2.00000
      4       4.4827      2.00000
      5       8.2031      0.00000
      6       9.8086      0.00000
      7      10.1368      0.00000
      8      11.2506      0.00000

 k-point    20 :       0.3333    0.3333    0.0000
  band No.  band energies     occupation 
      1      -4.3878      2.00000
      2       0.5192      2.00000
      3       3.1630      2.00000
      4       3.1631      2.00000
[...]


 k-point     1 :       0.0000    0.0000    0.0000
  band No.  band energies     occupation 
      1      -6.1960      2.00000
      2       5.6500      1.96348
      3       5.6500      1.96345
      4       5.6500      1.96345
      5       8.2121      0.00000
      6       8.2121      0.00000
      7       8.2121      0.00000
      8       8.7672      0.00000

 k-point     2 :       0.1111    0.0000    0.0000
  band No.  band energies     occupation 
      1      -6.0374      2.00000
      2       4.3014      2.00000
      3       5.4131      1.99983
      4       5.4132      1.99983
      5       8.1410      0.00000
      6       8.5570      0.00000
      7       8.5571      0.00000
      8       9.9345      0.00000

 k-point     3 :       0.2222   -0.0000    0.0000
  band No.  band energies     occupation 
      1      -5.5713      2.00000
      2       2.2419      2.00000
      3       4.9923      2.00000
      4       4.9924      2.00000
      5       7.7179      0.00000
      6       9.0881      0.00000
      7       9.0881      0.00000
      8      11.9223      0.00000

 k-point     4 :       0.3333    0.0000    0.0000
  band No.  band energies     occupation 
      1      -4.8444      2.00000
      2       0.3569      2.00000
      3       4.6557      2.00000
      4       4.6557      2.00000
      5       7.3458      0.00000
      6       9.1797      0.00000
      7       9.1798      0.00000
      8      13.4351      0.00000

 k-point     5 :       0.4444   -0.0000    0.0000
  band No.  band energies     occupation 
      1      -4.0717      2.00000
      2      -1.0131      2.00000
      3       4.4780      2.00000
      4       4.4780      2.00000
      5       7.1446      0.00000
      6       9.0492      0.00000
      7       9.0492      0.00000
      8      13.3904      0.00000

 k-point     6 :       0.1111    0.1111    0.0000
  band No.  band energies     occupation 
      1      -5.9840      2.00000
      2       4.5148      2.00000
      3       4.9819      2.00000
      4       4.9819      2.00000
      5       7.7659      0.00000
      6       9.1397      0.00000
      7       9.1397      0.00000
      8       9.7441      0.00000

 k-point     7 :       0.2222    0.1111    0.0000
  band No.  band energies     occupation 
      1      -5.6182      2.00000
      2       2.8509      2.00000
      3       4.5142      2.00000
      4       4.6413      2.00000
      5       7.8563      0.00000
      6       9.1211      0.00000
      7       9.8546      0.00000
      8      10.5538      0.00000

 k-point     8 :       0.3333    0.1111    0.0000
  band No.  band energies     occupation 
      1      -4.9694      2.00000
      2       0.9691      2.00000
      3       4.1371      2.00000
      4       4.2092      2.00000
      5       7.9593      0.00000
      6       9.1173      0.00000
      7      10.0336      0.00000
      8      11.0106      0.00000

 k-point     9 :       0.4444    0.1111    0.0000
  band No.  band energies     occupation 
      1      -4.1604      2.00000
      2      -0.5937      2.00000
      3       3.7063      2.00000
      4       4.1246      2.00000
      5       7.8268      0.00000
      6       9.0534      0.00000
      7       9.7773      0.00000
      8      12.4308      0.00000

 k-point    10 :      -0.4444    0.1111    0.0000
  band No.  band energies     occupation 
      1      -3.7920      2.00000
      2      -1.1527      2.00000
      3       3.4524      2.00000
      4       4.2611      2.00000
      5       7.8226      0.00000
      6       9.0862      0.00000
      7       9.5190      0.00000
      8      13.7744      0.00000

 k-point    11 :      -0.3333    0.1111   -0.0000
  band No.  band energies     occupation 
      1      -4.4325      2.00000
      2      -0.1258      2.00000
      3       3.4222      2.00000
      4       4.5875      2.00000
      5       8.0006      0.00000
      6       9.3150      0.00000
      7       9.3896      0.00000
      8      12.9960      0.00000

 k-point    12 :      -0.2222    0.1111    0.0000
  band No.  band energies     occupation 
      1      -5.2158      2.00000
      2       1.5750      2.00000
      3       3.6567      2.00000
      4       5.0322      2.00000
      5       8.3193      0.00000
      6       9.1574      0.00000
      7       9.4441      0.00000
      8      11.6759      0.00000

 k-point    13 :      -0.1111    0.1111   -0.0000
  band No.  band energies     occupation 
      1      -5.7753      2.00000
      2       3.3208      2.00000
      3       4.3068      2.00000
      4       5.4234      1.99978
      5       8.5934      0.00000
      6       8.6515      0.00000
      7       8.8571      0.00000
      8      10.9084      0.00000

 k-point    14 :       0.2222    0.2222    0.0000
  band No.  band energies     occupation 
      1      -5.3536      2.00000
      2       2.6085      2.00000
      3       3.9987      2.00000
      4       3.9987      2.00000
      5       6.9809      0.00000
      6       9.2128      0.00000
      7      10.8988      0.00000
      8      10.8988      0.00000

 k-point    15 :       0.3333    0.2222    0.0000
  band No.  band energies     occupation 
      1      -4.7941      2.00000
      2       1.2946      2.00000
      3       3.3793      2.00000
      4       3.6601      2.00000
      5       7.1371      0.00000
      6       8.8438      0.00000
      7      11.1316      0.00000
      8      11.4803      0.00000

 k-point    16 :       0.4444    0.2222    0.0000
  band No.  band energies     occupation 
      1      -4.0102      2.00000
      2      -0.1495      2.00000
      3       2.6474      2.00000
      4       3.5614      2.00000
      5       7.3268      0.00000
      6       9.8604      0.00000
      7      10.8741      0.00000
      8      11.3097      0.00000

 k-point    17 :      -0.4444    0.2222    0.0000
  band No.  band energies     occupation 
      1      -3.3718      2.00000
      2      -1.0697      2.00000
      3       2.1356      2.00000
      4       3.7133      2.00000
      5       7.4714      0.00000
      6      10.6442      0.00000
      7      10.9288      0.00000
      8      11.8105      0.00000

 k-point    18 :      -0.3333    0.2222    0.0000
  band No.  band energies     occupation 
      1      -3.7740      2.00000
      2      -0.5050      2.00000
      3       1.9609      2.00000
      4       4.0886      2.00000
      5       7.8470      0.00000
      6      10.5800      0.00000
      7      10.5887      0.00000
      8      12.7940      0.00000

 k-point    19 :      -0.2222    0.2222   -0.0000
  band No.  band energies     occupation 
      1      -4.5798      2.00000
      2       0.7198      2.00000
      3       2.3448      2.00000
      4       4.6020      2.00000
      5       8.3553      0.00000
      6       9.9614      0.00000
      7      10.2972      0.00000
      8      11.4421      0.00000

 k-point    20 :       0.3333    0.3333    0.0000
  band No.  band energies     occupation 
      1      -4.3243      2.00000
      2       0.6395      2.00000
      3       3.2636      2.00000
      4       3.2636      2.00000
      5       6.4152      0.00090
      6       7.6919      0.00000
      7      12.8791      0.00000
      8      12.8791      0.00000

 k-point    21 :       0.4444    0.3333    0.0000
  band No.  band energies     occupation 
      1      -3.5987      2.00000
      2      -0.3968      2.00000
      3       2.5539      2.00000
      4       3.1069      2.00000
      5       6.6611      0.00000
      6       7.7274      0.00000
      7      13.1614      0.00000
      8      13.2414      0.00000

 k-point    22 :      -0.4444    0.3333   -0.0000
  band No.  band energies     occupation 
      1      -2.8219      2.00000
      2      -1.2785      2.00000
      3       1.6699      2.00000
      4       3.2127      2.00000
      5       6.8580      0.00000
      6       9.3142      0.00000
      7      12.8680      0.00000
      8      12.9448      0.00000

 k-point    23 :      -0.3333    0.3333    0.0000
  band No.  band energies     occupation 
      1      -2.9953      2.00000
      2      -1.0884      2.00000
      3       1.3142      2.00000
      4       3.5631      2.00000
      5       7.2520      0.00000
      6      11.4815      0.00000
      7      12.0959      0.00000
      8      12.6636      0.00000

 k-point    24 :       0.4444    0.4444    0.0000
  band No.  band energies     occupation 
      1      -2.9343      2.00000
      2      -1.2474      2.00000
      3       2.8807      2.00000
      4       2.8808      2.00000
      5       6.2799      0.01810
      6       6.6849      0.00000
      7      14.9326      0.00000
      8      14.9326      0.00000

 k-point    25 :      -0.4444    0.4444   -0.0000
  band No.  band energies     occupation 
      1      -2.1770      2.00000
      2      -2.0074      2.00000
      3       2.2839      2.00000
      4       2.9175      2.00000
      5       6.5056      0.00008
      6       7.3302      0.00000
      7      14.7883      0.00000
      8      15.0691      0.00000

 k-point    26 :       0.3333    0.2222    0.1111
  band No.  band energies     occupation 
      1      -5.1567      2.00000
      2       1.8583      2.00000
      3       3.3171      2.00000
      4       4.4936      2.00000
      5       8.0377      0.00000
      6       9.4040      0.00000
      7      10.0928      0.00000
      8      10.6551      0.00000

 k-point    27 :       0.4444    0.2222    0.1111
  band No.  band energies     occupation 
      1      -4.4348      2.00000
      2       0.3925      2.00000
      3       2.7125      2.00000
      4       4.0640      2.00000
      5       8.4209      0.00000
      6       9.2441      0.00000
      7      10.4398      0.00000
      8      11.1142      0.00000

 k-point    28 :      -0.4444    0.2222    0.1111
  band No.  band energies     occupation 
      1      -3.6564      2.00000
      2      -0.8694      2.00000
      3       2.5172      2.00000
      4       3.7472      2.00000
      5       8.5028      0.00000
      6       8.8750      0.00000
      7      11.0456      0.00000
      8      12.1814      0.00000

 k-point    29 :       0.4444    0.3333    0.1111
  band No.  band energies     occupation 
      1      -4.1540      2.00000
      2       0.3413      2.00000
      3       2.6147      2.00000
      4       3.2929      2.00000
      5       7.4935      0.00000
      6       8.5106      0.00000
      7      11.0686      0.00000
      8      12.7913      0.00000

 k-point    30 :      -0.4444    0.3333    0.1111
  band No.  band energies     occupation 
      1      -3.3436      2.00000
      2      -0.7244      2.00000
      3       1.9618      2.00000
      4       2.9942      2.00000
      5       7.9026      0.00000
      6       9.6005      0.00000
      7      10.6283      0.00000
      8      13.1875      0.00000

 k-point    31 :      -0.3333    0.3333    0.1111
  band No.  band energies     occupation 
      1      -2.9884      2.00000
      2      -1.1392      2.00000
      3       1.5830      2.00000
      4       3.1041      2.00000
      5       8.1873      0.00000
      6      10.1730      0.00000
      7      11.7083      0.00000
      8      12.2260      0.00000

 k-point    32 :      -0.2222    0.3333    0.1111
  band No.  band energies     occupation 
      1      -3.6736      2.00000
      2      -0.3527      2.00000
      3       1.7299      2.00000
      4       3.5330      2.00000
      5       8.6893      0.00000
      6       9.6754      0.00000
      7      10.5278      0.00000
      8      12.5613      0.00000

 k-point    33 :      -0.4444    0.4444    0.1111
  band No.  band energies     occupation 
      1      -2.8215      2.00000
      2      -1.2652      2.00000
      3       2.3324      2.00000
      4       2.5395      2.00000
      5       7.3292      0.00000
      6       7.6466      0.00000
      7      12.8368      0.00000
      8      14.6581      0.00000

 k-point    34 :      -0.3333    0.4444    0.1111
  band No.  band energies     occupation 
      1      -2.3128      2.00000
      2      -1.7176      2.00000
      3       1.6277      2.00000
      4       2.6259      2.00000
      5       7.6963      0.00000
      6       9.3282      0.00000
      7      12.2879      0.00000
      8      12.5468      0.00000

 k-point    35 :      -0.3333    0.4444    0.2222
  band No.  band energies     occupation 
      1      -2.5535      2.00000
      2      -1.4104      2.00000
      3       1.6652      2.00000
      4       2.2961      2.00000
      5       9.5146      0.00000
      6       9.6369      0.00000
      7      10.2406      0.00000
      8      11.9977      0.00000


--------------------------------------------------------------------------------------------------------


 soft charge-density along one line, spin component           1
         0         1         2         3         4         5         6         7         8         9
 total charge-density along one line
 
 pseudopotential strength for first ion, spin component:           1
 18.440  -0.001   0.000   0.000   0.000  -0.000  -0.000  -0.000
 -0.001   0.006  -0.000  -0.000  -0.000   0.000   0.000   0.000
  0.000  -0.000   4.182  -0.000  -0.000  -0.005   0.000   0.000
  0.000  -0.000  -0.000   4.182  -0.000   0.000  -0.005   0.000
  0.000  -0.000  -0.000  -0.000   4.182   0.000   0.000  -0.005
 -0.000   0.000  -0.005   0.000   0.000   0.005  -0.000  -0.000
 -0.000   0.000   0.000  -0.005   0.000  -0.000   0.005  -0.000
 -0.000   0.000   0.000   0.000  -0.005  -0.000  -0.000   0.005
 total augmentation occupancy for first ion, spin component:           1
  1.490  -0.971   0.000  -0.000   0.000  -0.000   0.000   0.000
 -0.971   1.006  -0.000  -0.000  -0.000   0.000   0.000  -0.000
  0.000   0.000   1.007  -0.000  -0.000  -0.761  -0.000   0.000
 -0.000   0.000   0.000   1.007   0.000  -0.000  -0.761  -0.000
 -0.000  -0.000   0.000   0.000   1.007  -0.000  -0.000  -0.761
  0.000   0.000  -0.761  -0.000  -0.000   0.625   0.000   0.000
 -0.000   0.000  -0.000  -0.761  -0.000   0.000   0.625   0.000
 -0.000   0.000   0.000  -0.000  -0.761  -0.000   0.000   0.625


------------------------ aborting loop because EDIFF is reached ----------------------------------------


    CHARGE:  cpu time    0.0160: real time    0.0126
    FORLOC:  cpu time    0.0000: real time    0.0005
    FORNL :  cpu time    0.0080: real time    0.0084
    STRESS:  cpu time    0.0800: real time    0.0792
    FORCOR:  cpu time    0.0120: real time    0.0118
    FORHAR:  cpu time    0.0000: real time    0.0033
    MIXING:  cpu time    0.0040: real time    0.0008
    OFIELD:  cpu time    0.0000: real time    0.0005

  FORCE on cell =-STRESS in cart. coord.  units (eV):
  Direction    XX          YY          ZZ          XY          YZ          ZX
  --------------------------------------------------------------------------------------
  Alpha Z     3.29611     3.29611     3.29611
  Ewald     -75.67079   -75.67079   -75.67079     0.00000    -0.00000     0.00000
  Hartree     5.05066     5.05066     5.05066    -0.00000    -0.00000    -0.00000
  E(xc)     -25.28588   -25.28588   -25.28588     0.00000     0.00000     0.00000
  Local     -29.73607   -29.73607   -29.73607     0.00009     0.00009     0.00009
  n-local    78.84760    80.06828    74.41338     2.20781    -1.23577     0.57562
  augment   -11.54932   -11.54932   -11.54932    -0.00009    -0.00009    -0.00009
  Kinetic    58.19506    55.77037    54.35070     3.54830    -0.71407     1.01139
  Fock        0.00000     0.00000     0.00000     0.00000     0.00000     0.00000
  -------------------------------------------------------------------------------------
  Total      -0.01349    -0.01349    -0.01349     0.00000     0.00000    -0.00000
  in kB      -0.52924    -0.52924    -0.52924     0.00000     0.00000    -0.00000
  external pressure =       -0.53 kB  Pullay stress =        0.00 kB


 VOLUME and BASIS-vectors are now :
 -----------------------------------------------------------------------------
  energy-cutoff  :      200.00
  volume of cell :       40.85
      direct lattice vectors                 reciprocal lattice vectors
     0.000000000  2.733552489  2.733552489    -0.182912164  0.182912164  0.182912164
     2.733552489 -0.000000000  2.733552489     0.182912164 -0.182912164  0.182912164
     2.733552489  2.733552489  0.000000000     0.182912164  0.182912164 -0.182912164

  length of vectors
     3.865827003  3.865827003  3.865827003     0.316813161  0.316813161  0.316813161


 FORCES acting on ions
    electron-ion (+dipol)            ewald-force                    non-local-force                 convergence-correction
 -----------------------------------------------------------------------------------------------
   0.980E-05 0.980E-05 0.105E-04   0.391E-14 0.854E-15 0.887E-14   -.126E-15 -.105E-15 -.999E-16   0.139E-06 0.139E-06 0.139E-06
   -.980E-05 -.980E-05 -.105E-04   -.393E-14 -.835E-15 -.865E-14   0.127E-15 0.996E-16 0.876E-16   -.139E-06 -.139E-06 -.139E-06
 -----------------------------------------------------------------------------------------------
   -.224E-13 -.126E-13 -.602E-13   -.285E-16 0.185E-16 0.227E-15   0.141E-17 -.553E-17 -.123E-16   -.258E-15 0.202E-15 0.327E-14
 
 
 POSITION                                       TOTAL-FORCE (eV/Angst)
 -----------------------------------------------------------------------------------
      2.73355      2.73355      2.73355        -0.000000      0.000000      0.000000
      4.10033      4.10033      4.10033         0.000000     -0.000000     -0.000000
 -----------------------------------------------------------------------------------
    total drift:                               -0.000000     -0.000000     -0.000000


--------------------------------------------------------------------------------------------------------



  FREE ENERGIE OF THE ION-ELECTRON SYSTEM (eV)
  ---------------------------------------------------
  free  energy   TOTEN  =       -10.80002565 eV

  energy  without entropy=      -10.79990801  energy(sigma->0) =      -10.79996683
 
 d Force = 0.0000000E+00[ 0.000E+00, 0.000E+00]  d Energy = 0.2130870E-02-0.213E-02
 d Force = 0.0000000E+00[ 0.000E+00, 0.000E+00]  d Ewald  = 0.9995863E+00-0.100E+01


--------------------------------------------------------------------------------------------------------


    POTLOK:  cpu time    0.0280: real time    0.0448


--------------------------------------------------------------------------------------------------------




--------------------------------------------------------------------------------------------------------


  
 reached required accuracy - stopping structural energy minimisation
 writing wavefunctions
     LOOP+:  cpu time    1.2880: real time    1.6013
    4ORBIT:  cpu time    0.0000: real time    0.0000

 total amount of memory used by VASP MPI-rank0    31173. kBytes
=======================================================================

   base      :      30000. kBytes
   nonl-proj :        617. kBytes
   fftplans  :        119. kBytes
   grid      :        270. kBytes
   one-center:          6. kBytes
   wavefun   :        161. kBytes
 
  
  
 General timing and accounting informations for this job:
 ========================================================
  
                  Total CPU time used (sec):       11.068
                            User time (sec):        9.240
                          System time (sec):        1.828
                         Elapsed time (sec):       13.991
  
                   Maximum memory used (kb):        9560.
                   Average memory used (kb):           0.
  
                          Minor page faults:        38061
                          Major page faults:           22
                 Voluntary context switches:        26547
