unknown system                          
   1.00000000000000     
    -2.143763    2.143763    1.223317
     2.143763   -2.143763    1.223317
     2.143763    2.143763   -1.223317
   Si
     2
Direct
  0.000000  0.000000  0.000000
  0.250000  0.750000  0.500000
 
   32   32   32
 -.44665229487E+01 -.37060818602E+01 -.16106380693E+01 0.13242640730E+01 0.44520724837E+01
 0.71652512634E+01 0.90466814394E+01 0.99404391542E+01 0.99389435787E+01 0.93101704274E+01
 0.83948477030E+01 0.74457943652E+01 0.65694918463E+01 0.58368585331E+01 0.52923894409E+01
 0.49592841373E+01 0.48473920060E+01 0.49592850946E+01 0.52923755956E+01 0.58368305808E+01
 0.65694698656E+01 0.74457876314E+01 0.83948502109E+01 0.93101832158E+01 0.99389708354E+01
 0.99404635766E+01 0.90466733997E+01 0.71652035134E+01 0.44519998403E+01 0.13241755216E+01
 -.16107341365E+01 -.37061509299E+01 -.37061509299E+01 -.40595895929E+01 -.29364043574E+01
 -.61570448755E+00 0.23559718666E+01 0.53373980645E+01 0.77747690005E+01 0.93297060680E+01
 0.99235406184E+01 0.97049184542E+01 0.89676844269E+01 0.80412004549E+01 0.71197459882E+01
 0.62931467450E+01 0.56238899840E+01 0.51493078754E+01 0.48880238146E+01 0.48476415738E+01
 0.50297263911E+01 0.54306843671E+01 0.60383630039E+01 0.68249718708E+01 0.77394186574E+01
 0.87040256669E+01 0.95893878252E+01 0.10101631995E+02 0.99092838247E+01 0.87828986170E+01
 0.66918031813E+01 0.38627087207E+01 0.77026874404E+00 -.19576478120E+01 -.16107341365E+01
 -.29364580581E+01 -.28909981724E+01 -.14963946365E+01 0.89649598823E+00 0.37253116133E+01
 0.63909083691E+01 0.84204955860E+01 0.95668375825E+01 0.98270042621E+01 0.93949173166E+01
 0.85747654370E+01 0.76560330721E+01 0.67739546863E+01 0.60070328065E+01 0.54081860585E+01
 0.50073548585E+01 0.48187991441E+01 0.48481788777E+01 0.50962629951E+01 0.55584540492E+01
 0.62201646214E+01 0.70492452572E+01 0.79891442917E+01 0.89573502082E+01 0.97992596143E+01
 0.10204054462E+02 0.98641674693E+01 0.85973007887E+01 0.64334996067E+01 0.36561343221E+01
 0.77026874404E+00 0.13241755216E+01 -.61576628274E+00 -.14964227513E+01 -.11101174277E+01
 0.42999408486E+00 0.27310678709E+01 0.52515826783E+01 0.74658621618E+01 0.89999026377E+01
 0.97001762993E+01 0.96305448364E+01 0.90151385268E+01 0.81502187246E+01 0.72535959792E+01
 0.64219577409E+01 0.57225852135E+01 0.51982909521E+01 0.48719692173E+01 0.47540855676E+01
 0.48487261887E+01 0.51559942600E+01 0.56702992748E+01 0.63747270215E+01 0.72333204260E+01
 0.81853632300E+01 0.91448916689E+01 0.99382861593E+01 0.10258923138E+02 0.98336160453E+01
 0.85306331786E+01 0.64334996067E+01 0.38627087207E+01 0.44519998403E+01 0.23559297944E+01
 0.89647786015E+00 0.42999335793E+00 0.10597557608E+01 0.26039512792E+01 0.46614594844E+01
 0.67446314673E+01 0.84230222763E+01 0.94276138973E+01 0.96916851400E+01 0.93314958984E+01
 0.85844909179E+01 0.77109020483E+01 0.68493247653E+01 0.60775383257E+01 0.54507951243E+01
 0.50021338681E+01 0.47481433242E+01 0.46961069970E+01 0.48489419114E+01 0.52063213363E+01
 0.57617092854E+01 0.64959685322E+01 0.73700066362E+01 0.83204737734E+01 0.92597876562E+01
 0.10007319714E+02 0.10276031295E+02 0.98336160453E+01 0.85973007887E+01 0.66918031813E+01
 0.71652035134E+01 0.53373781904E+01 0.37253177471E+01 0.27310889771E+01 0.26039721804E+01
 0.33580508529E+01 0.47718961631E+01 0.64685097788E+01 0.80382867075E+01 0.91553607648E+01
 0.96508957713E+01 0.95312130298E+01 0.89476973559E+01 0.81329027207E+01 0.72736814829E+01
 0.64590810835E+01 0.57540524433E+01 0.52019576535E+01 0.48269195194E+01 0.46402118215E+01
 0.46467330151E+01 0.48486866686E+01 0.52453885607E+01 0.58292766942E+01 0.65792576872E+01
 0.74540720446E+01 0.83893484884E+01 0.92984763350E+01 0.10007319714E+02 0.10258923138E+02
 0.98641674693E+01 0.87828986170E+01 0.90466733997E+01 0.77747738504E+01 0.63909348088E+01
 0.52516250089E+01 0.46615058346E+01 0.47719286085E+01 0.55314487078E+01 0.67091322722E+01
 0.79774620325E+01 0.90171771267E+01 0.96045855107E+01 0.96579956573E+01 0.92389356193E+01
 0.85158124568E+01 0.76856262169E+01 0.68564909940E+01 0.60985649330E+01 0.54639946703E+01
 0.49852068637E+01 0.46787931218E+01 0.45519051566E+01 0.46077653479E+01 0.48481249341E+01
 0.52719396942E+01 0.58706575205E+01 0.66216346784E+01 0.74824526185E+01 0.83893484884E+01
 0.92597876562E+01 0.99382861593E+01 0.10204054462E+02 0.99092838247E+01 0.99404635766E+01
 0.93297368138E+01 0.84205400241E+01 0.74659176955E+01 0.67446910322E+01 0.64685640730E+01
 0.67091659118E+01 0.73763093806E+01 0.82551852142E+01 0.90829157976E+01 0.96312080077E+01
 0.97669817214E+01 0.94776992162E+01 0.88609741770E+01 0.80814081241E+01 0.72630232492E+01
 0.64773554211E+01 0.57823364055E+01 0.52182758313E+01 0.48082819377E+01 0.45629453907E+01
 0.44863761040E+01 0.45807395329E+01 0.48475502193E+01 0.52853456606E+01 0.58845995925E+01
 0.66216346784E+01 0.74540720446E+01 0.83204737734E+01 0.91448916689E+01 0.97992596143E+01
 0.10101631995E+02 0.99389708354E+01 0.99235784372E+01 0.95668911700E+01 0.89999666588E+01
 0.84230865654E+01 0.80383451421E+01 0.79775100809E+01 0.82552129258E+01 0.87673204799E+01
 0.93326880093E+01 0.97574249218E+01 0.98955494650E+01 0.96876843120E+01 0.91708067172E+01
 0.84596679030E+01 0.76743715506E+01 0.68854815678E+01 0.61528507081E+01 0.55229848159E+01
 0.50259731679E+01 0.46774001278E+01 0.44833774926E+01 0.44460084792E+01 0.45668878600E+01
 0.48473224809E+01 0.52853456606E+01 0.58706575205E+01 0.65792576872E+01 0.73700066362E+01
 0.81853632300E+01 0.89573502082E+01 0.95893878252E+01 0.93101832158E+01 0.97049385601E+01
 0.98270434885E+01 0.97002346505E+01 0.94276784987E+01 0.91554177312E+01 0.90172224698E+01
 0.90829502015E+01 0.93327071543E+01 0.96671920261E+01 0.99471890580E+01 0.10043468107E+02
 0.98782401895E+01 0.94468859170E+01 0.88165750656E+01 0.80851828368E+01 0.73176056091E+01
 0.65715529538E+01 0.58970445771E+01 0.53305802484E+01 0.48939425668E+01 0.45970370762E+01
 0.44428799662E+01 0.44323813329E+01 0.45668878600E+01 0.48475502193E+01 0.52719396942E+01
 0.58292766942E+01 0.64959685322E+01 0.72333204260E+01 0.79891442917E+01 0.87040256669E+01
 0.83948502109E+01 0.89676844173E+01 0.93949273928E+01 0.96305757728E+01 0.96917348327E+01
 0.96509485898E+01 0.96046268160E+01 0.96312362712E+01 0.97574450416E+01 0.99472004970E+01
 0.10117414456E+02 0.10171319996E+02 0.10034500013E+02 0.96808221269E+01 0.91416628036E+01
 0.84851920157E+01 0.77644717849E+01 0.70314656177E+01 0.63364353276E+01 0.57206218904E+01
 0.52122827919E+01 0.48267834522E+01 0.45699507723E+01 0.44428799662E+01 0.44460084792E+01
 0.45807395329E+01 0.48481249341E+01 0.52453885607E+01 0.57617092854E+01 0.63747270215E+01
 0.70492452572E+01 0.77394186574E+01 0.74457876314E+01 0.80411914630E+01 0.85747568643E+01
 0.90151385863E+01 0.93315139980E+01 0.95312477552E+01 0.96580320263E+01 0.97670061571E+01
 0.98955625759E+01 0.10043477282E+02 0.10171326144E+02 0.10216865288E+02 0.10120841564E+02
 0.98510772567E+01 0.94165012932E+01 0.88570198971E+01 0.82100745811E+01 0.75193036353E+01
 0.68318464484E+01 0.61910422625E+01 0.56306682222E+01 0.51723865351E+01 0.48267834522E+01
 0.45970370762E+01 0.44833774926E+01 0.44863761040E+01 0.46077653479E+01 0.48486866686E+01
 0.52063213363E+01 0.56702992748E+01 0.62201646214E+01 0.68249718708E+01 0.65694698656E+01
 0.71197271763E+01 0.76560181748E+01 0.81502052523E+01 0.85844824507E+01 0.89477029379E+01
 0.92389554288E+01 0.94777200140E+01 0.96876946674E+01 0.98782428244E+01 0.10034502811E+02
 0.10120844774E+02 0.10095429643E+02 0.99286185313E+01 0.96170422509E+01 0.91769607826E+01
 0.86312123344E+01 0.80137611741E+01 0.73657455993E+01 0.67294070934E+01 0.61418741022E+01
 0.56306682222E+01 0.52122827919E+01 0.48939425668E+01 0.46774001278E+01 0.45629453907E+01
 0.45519051566E+01 0.46467330151E+01 0.48489419114E+01 0.51559942600E+01 0.55584540492E+01
 0.60383630039E+01 0.58368305808E+01 0.62931134498E+01 0.67739280350E+01 0.72535772866E+01
 0.77108851408E+01 0.81328883832E+01 0.85158087889E+01 0.88609819027E+01 0.91708150911E+01
 0.94468869817E+01 0.96808196720E+01 0.98510772079E+01 0.99286198536E+01 0.98884478004E+01
 0.97187231401E+01 0.94186159922E+01 0.89999313815E+01 0.84865718215E+01 0.79117255539E+01
 0.73134979976E+01 0.67294070934E+01 0.61910422625E+01 0.57206218904E+01 0.53305802484E+01
 0.50259731679E+01 0.48082819377E+01 0.46787931218E+01 0.46402118215E+01 0.46961069970E+01
 0.48487261887E+01 0.50962629951E+01 0.54306843671E+01 0.52923755956E+01 0.56238553343E+01
 0.60069909577E+01 0.64219246930E+01 0.68493023117E+01 0.72736616942E+01 0.76856081453E+01
 0.80813982625E+01 0.84596670062E+01 0.88165753591E+01 0.91416595137E+01 0.94164974723E+01
 0.96170408863E+01 0.97187228473E+01 0.97022364472E+01 0.95579350398E+01 0.92879320565E+01
 0.89061467849E+01 0.84368336476E+01 0.79117255539E+01 0.73657455993E+01 0.68318464484E+01
 0.63364353276E+01 0.58970445771E+01 0.55229848159E+01 0.52182758313E+01 0.49852068637E+01
 0.48269195194E+01 0.47481433242E+01 0.47540855676E+01 0.48481788777E+01 0.50297263911E+01
 0.49592850946E+01 0.51492888613E+01 0.54081454282E+01 0.57225380362E+01 0.60775006246E+01
 0.64590540245E+01 0.68564675802E+01 0.72630027545E+01 0.76743582357E+01 0.80851763446E+01
 0.84851875995E+01 0.88570156817E+01 0.91769579920E+01 0.94186143185E+01 0.95579334765E+01
 0.95778503513E+01 0.94713049518E+01 0.92424193172E+01 0.89061467849E+01 0.84865718215E+01
 0.80137611741E+01 0.75193036353E+01 0.70314656177E+01 0.65715529538E+01 0.61528507081E+01
 0.57823364055E+01 0.54639946703E+01 0.52019576535E+01 0.50021338681E+01 0.48719692173E+01
 0.48187991441E+01 0.48476415738E+01 0.48473920060E+01 0.48880156526E+01 0.50073300190E+01
 0.51982485377E+01 0.54507473190E+01 0.57540117395E+01 0.60985332613E+01 0.64773292853E+01
 0.68854602171E+01 0.73175898659E+01 0.77644611334E+01 0.82100684373E+01 0.86312103333E+01
 0.89999310507E+01 0.92879303004E+01 0.94713024581E+01 0.95342589328E+01 0.94713049518E+01
 0.92879320565E+01 0.89999313815E+01 0.86312123344E+01 0.82100745811E+01 0.77644717849E+01
 0.73176056091E+01 0.68854815678E+01 0.64773554211E+01 0.60985649330E+01 0.57540524433E+01
 0.54507951243E+01 0.51982909521E+01 0.50073548585E+01 0.48880238146E+01 0.49592841373E+01
 0.48476314451E+01 0.48187830228E+01 0.48719420149E+01 0.50020946189E+01 0.52019139609E+01
 0.54639547432E+01 0.57823033113E+01 0.61528240151E+01 0.65715314219E+01 0.70314481614E+01
 0.75192912490E+01 0.80137560895E+01 0.84865726390E+01 0.89061478544E+01 0.92424173264E+01
 0.94713024581E+01 0.95778503513E+01 0.95579350398E+01 0.94186159922E+01 0.91769607826E+01
 0.88570198971E+01 0.84851920157E+01 0.80851828368E+01 0.76743715506E+01 0.72630232492E+01
 0.68564909940E+01 0.64590810835E+01 0.60775383257E+01 0.57225852135E+01 0.54081860585E+01
 0.51493078754E+01 0.52923894409E+01 0.50297208210E+01 0.48481636369E+01 0.47540660221E+01
 0.47481190439E+01 0.48268900989E+01 0.49851735407E+01 0.52182415600E+01 0.55229539923E+01
 0.58970199955E+01 0.63364155727E+01 0.68318290617E+01 0.73657328691E+01 0.79117212001E+01
 0.84368353307E+01 0.89061478544E+01 0.92879303004E+01 0.95579334765E+01 0.97022364472E+01
 0.97187231401E+01 0.96170422509E+01 0.94165012932E+01 0.91416628036E+01 0.88165750656E+01
 0.84596679030E+01 0.80814081241E+01 0.76856262169E+01 0.72736814829E+01 0.68493247653E+01
 0.64219577409E+01 0.60070328065E+01 0.56238899840E+01 0.58368585331E+01 0.54306958236E+01
 0.50962576450E+01 0.48487116159E+01 0.46960912587E+01 0.46401986816E+01 0.46787799139E+01
 0.48082630977E+01 0.50259483265E+01 0.53305557427E+01 0.57206021819E+01 0.61910248519E+01
 0.67293895237E+01 0.73134848266E+01 0.79117212001E+01 0.84865726390E+01 0.89999310507E+01
 0.94186143185E+01 0.97187228473E+01 0.98884478004E+01 0.99286185313E+01 0.98510772567E+01
 0.96808221269E+01 0.94468859170E+01 0.91708067172E+01 0.88609741770E+01 0.85158124568E+01
 0.81329027207E+01 0.77109020483E+01 0.72535959792E+01 0.67739546863E+01 0.62931467450E+01
 0.65694918463E+01 0.60383813876E+01 0.55584624755E+01 0.51559922616E+01 0.48489347073E+01
 0.46467288406E+01 0.45519083995E+01 0.45629507330E+01 0.46773973401E+01 0.48939290851E+01
 0.52122652339E+01 0.56306517709E+01 0.61418572530E+01 0.67293895237E+01 0.73657328691E+01
 0.80137560895E+01 0.86312103333E+01 0.91769579920E+01 0.96170408863E+01 0.99286198536E+01
 0.10095429643E+02 0.10120841564E+02 0.10034500013E+02 0.98782401895E+01 0.96876843120E+01
 0.94776992162E+01 0.92389356193E+01 0.89476973559E+01 0.85844909179E+01 0.81502187246E+01
 0.76560330721E+01 0.71197459882E+01 0.74457943652E+01 0.68249765778E+01 0.62201683350E+01
 0.56703026720E+01 0.52063239191E+01 0.48486901801E+01 0.46077760316E+01 0.44863971134E+01
 0.44834001723E+01 0.45970473247E+01 0.48267771970E+01 0.51723715177E+01 0.56306517709E+01
 0.61910248519E+01 0.68318290617E+01 0.75192912490E+01 0.82100684373E+01 0.88570156817E+01
 0.94164974723E+01 0.98510772079E+01 0.10120844774E+02 0.10216865288E+02 0.10171319996E+02
 0.10043468107E+02 0.98955494650E+01 0.97669817214E+01 0.96579956573E+01 0.95312130298E+01
 0.93314958984E+01 0.90151385268E+01 0.85747654370E+01 0.80412004549E+01 0.83948477030E+01
 0.77394070086E+01 0.70492267317E+01 0.63747108806E+01 0.57617033331E+01 0.52453935878E+01
 0.48481393592E+01 0.45807649835E+01 0.44460437681E+01 0.44429128495E+01 0.45699656748E+01
 0.48267771970E+01 0.52122652339E+01 0.57206021819E+01 0.63364155727E+01 0.70314481614E+01
 0.77644611334E+01 0.84851875995E+01 0.91416595137E+01 0.96808196720E+01 0.10034502811E+02
 0.10171326144E+02 0.10117414456E+02 0.99471890580E+01 0.97574249218E+01 0.96312080077E+01
 0.96045855107E+01 0.96508957713E+01 0.96916851400E+01 0.96305448364E+01 0.93949173166E+01
 0.89676844269E+01 0.93101704274E+01 0.87040059135E+01 0.79891089665E+01 0.72332743432E+01
 0.64959288897E+01 0.58292590448E+01 0.52719460547E+01 0.48475733397E+01 0.45669223750E+01
 0.44324218151E+01 0.44429128495E+01 0.45970473247E+01 0.48939290851E+01 0.53305557427E+01
 0.58970199955E+01 0.65715314219E+01 0.73175898659E+01 0.80851763446E+01 0.88165753591E+01
 0.94468869817E+01 0.98782428244E+01 0.10043477282E+02 0.99472004970E+01 0.96671920261E+01
 0.93326880093E+01 0.90829157976E+01 0.90171771267E+01 0.91553607648E+01 0.94276138973E+01
 0.97001762993E+01 0.98270042621E+01 0.97049184542E+01 0.99389435787E+01 0.95893598056E+01
 0.89573093880E+01 0.81853024346E+01 0.73699340625E+01 0.65791973522E+01 0.58706306131E+01
 0.52853524736E+01 0.48473487103E+01 0.45669223750E+01 0.44460437681E+01 0.44834001723E+01
 0.46773973401E+01 0.50259483265E+01 0.55229539923E+01 0.61528240151E+01 0.68854602171E+01
 0.76743582357E+01 0.84596670062E+01 0.91708150911E+01 0.96876946674E+01 0.98955625759E+01
 0.97574450416E+01 0.93327071543E+01 0.87673204799E+01 0.82551852142E+01 0.79774620325E+01
 0.80382867075E+01 0.84230222763E+01 0.89999026377E+01 0.95668375825E+01 0.99235406184E+01
 0.99404391542E+01 0.10101602047E+02 0.97992168325E+01 0.91448311124E+01 0.83203922951E+01
 0.74539806638E+01 0.66215620806E+01 0.58845689723E+01 0.52853524736E+01 0.48475733397E+01
 0.45807649835E+01 0.44863971134E+01 0.45629507330E+01 0.48082630977E+01 0.52182415600E+01
 0.57823033113E+01 0.64773292853E+01 0.72630027545E+01 0.80813982625E+01 0.88609819027E+01
 0.94777200140E+01 0.97670061571E+01 0.96312362712E+01 0.90829502015E+01 0.82552129258E+01
 0.73763093806E+01 0.67091322722E+01 0.64685097788E+01 0.67446314673E+01 0.74658621618E+01
 0.84204955860E+01 0.93297060680E+01 0.90466814394E+01 0.99092822324E+01 0.10204026712E+02
 0.99382328660E+01 0.92597135803E+01 0.83892553094E+01 0.74823542285E+01 0.66215620806E+01
 0.58706306131E+01 0.52719460547E+01 0.48481393592E+01 0.46077760316E+01 0.45519083995E+01
 0.46787799139E+01 0.49851735407E+01 0.54639547432E+01 0.60985332613E+01 0.68564675802E+01
 0.76856081453E+01 0.85158087889E+01 0.92389554288E+01 0.96580320263E+01 0.96046268160E+01
 0.90172224698E+01 0.79775100809E+01 0.67091659118E+01 0.55314487078E+01 0.47718961631E+01
 0.46614594844E+01 0.52515826783E+01 0.63909083691E+01 0.77747690005E+01 0.71652512634E+01
 0.87829523077E+01 0.98641908520E+01 0.10258899477E+02 0.10007260862E+02 0.92983972509E+01
 0.83892553094E+01 0.74539806638E+01 0.65791973522E+01 0.58292590448E+01 0.52453935878E+01
 0.48486901801E+01 0.46467288406E+01 0.46401986816E+01 0.48268900989E+01 0.52019139609E+01
 0.57540117395E+01 0.64590540245E+01 0.72736616942E+01 0.81328883832E+01 0.89477029379E+01
 0.95312477552E+01 0.96509485898E+01 0.91554177312E+01 0.80383451421E+01 0.64685640730E+01
 0.47719286085E+01 0.33580508529E+01 0.26039512792E+01 0.27310678709E+01 0.37253116133E+01
 0.53373980645E+01 0.44520724837E+01 0.66919019970E+01 0.85973915602E+01 0.98336553403E+01
 0.10276009323E+02 0.10007260862E+02 0.92597135803E+01 0.83203922951E+01 0.73699340625E+01
 0.64959288897E+01 0.57617033331E+01 0.52063239191E+01 0.48489347073E+01 0.46960912587E+01
 0.47481190439E+01 0.50020946189E+01 0.54507473190E+01 0.60775006246E+01 0.68493023117E+01
 0.77108851408E+01 0.85844824507E+01 0.93315139980E+01 0.96917348327E+01 0.94276784987E+01
 0.84230865654E+01 0.67446910322E+01 0.46615058346E+01 0.26039721804E+01 0.10597557608E+01
 0.42999408486E+00 0.89649598823E+00 0.23559718666E+01 0.13242640730E+01 0.38628234492E+01
 0.64336296054E+01 0.85307379657E+01 0.98336553403E+01 0.10258899477E+02 0.99382328660E+01
 0.91448311124E+01 0.81853024346E+01 0.72332743432E+01 0.63747108806E+01 0.56703026720E+01
 0.51559922616E+01 0.48487116159E+01 0.47540660221E+01 0.48719420149E+01 0.51982485377E+01
 0.57225380362E+01 0.64219246930E+01 0.72535772866E+01 0.81502052523E+01 0.90151385863E+01
 0.96305757728E+01 0.97002346505E+01 0.89999666588E+01 0.74659176955E+01 0.52516250089E+01
 0.27310889771E+01 0.42999335793E+00 -.11101174277E+01 -.14963946365E+01 -.61570448755E+00
 -.16106380693E+01 0.77038560874E+00 0.36562649155E+01 0.64336296054E+01 0.85973915602E+01
 0.98641908520E+01 0.10204026712E+02 0.97992168325E+01 0.89573093880E+01 0.79891089665E+01
 0.70492267317E+01 0.62201683350E+01 0.55584624755E+01 0.50962576450E+01 0.48481636369E+01
 0.48187830228E+01 0.50073300190E+01 0.54081454282E+01 0.60069909577E+01 0.67739280350E+01
 0.76560181748E+01 0.85747568643E+01 0.93949273928E+01 0.98270434885E+01 0.95668911700E+01
 0.84205400241E+01 0.63909348088E+01 0.37253177471E+01 0.89647786015E+00 -.14964227513E+01
 -.28909981724E+01 -.29364043574E+01 -.37060818602E+01 -.19575388802E+01 0.77038560874E+00
 0.38628234492E+01 0.66919019970E+01 0.87829523077E+01 0.99092822324E+01 0.10101602047E+02
 0.95893598056E+01 0.87040059135E+01 0.77394070086E+01 0.68249765778E+01 0.60383813876E+01
 0.54306958236E+01 0.50297208210E+01 0.48476314451E+01 0.48880156526E+01 0.51492888613E+01
 0.56238553343E+01 0.62931134498E+01 0.71197271763E+01 0.80411914630E+01 0.89676844173E+01
 0.97049385601E+01 0.99235784372E+01 0.93297368138E+01 0.77747738504E+01 0.53373781904E+01
 0.23559297944E+01 -.61576628274E+00 -.29364580581E+01 -.40595895929E+01 -.37060868925E+01
 -.31586211752E+01 -.13222413703E+01 0.13700964239E+01 0.43196006074E+01 0.69379691545E+01
 0.87982734761E+01 0.97162930423E+01 0.97521902218E+01 0.91493265995E+01 0.82375852969E+01
 0.72809252432E+01 0.63913502219E+01 0.56407673881E+01 0.50738712776E+01 0.47130457831E+01
 0.45669629713E+01 0.46376506820E+01 0.49234309678E+01 0.54173980352E+01 0.61015201936E+01
 0.69380294651E+01 0.78627445709E+01 0.87815685978E+01 0.94809538318E+01 0.96319722218E+01
 0.89600937681E+01 0.73495263623E+01 0.49166390282E+01 0.20278603714E+01 -.75983812684E+00
 -.28346728510E+01 -.31586734918E+01 -.37061391168E+01 -.28346787417E+01 -.75978887360E+00
 0.20279156280E+01 0.49166599685E+01 0.73495332465E+01 0.89601233686E+01 0.96320114173E+01
 0.94809583395E+01 0.87815353450E+01 0.78627171249E+01 0.69380323256E+01 0.61015293884E+01
 0.54173893352E+01 0.49234196880E+01 0.46376611435E+01 0.45669863079E+01 0.47130558541E+01
 0.50738682192E+01 0.56407778453E+01 0.63913874370E+01 0.72809711099E+01 0.82376168277E+01
 0.91493426306E+01 0.97521993456E+01 0.97162865007E+01 0.87982303103E+01 0.69378915187E+01
 0.43195235797E+01 0.13700467044E+01 -.13222788438E+01 -.12248906899E+01 -.27309632347E+01
 -.29364320154E+01 -.18016286661E+01 0.38608222211E+00 0.31064419179E+01 0.57681229178E+01
 0.78744454349E+01 0.91368501778E+01 0.95108020898E+01 0.91609262296E+01 0.83796749620E+01
 0.74703813438E+01 0.65877530352E+01 0.58134639760E+01 0.52025368576E+01 0.47855553439E+01
 0.45764963866E+01 0.45808043227E+01 0.47999395556E+01 0.52314433464E+01 0.58646048465E+01
 0.66726074937E+01 0.76045869049E+01 0.85827869294E+01 0.94728156492E+01 0.99808407599E+01
 0.97932980937E+01 0.87076247950E+01 0.67202646307E+01 0.40722792149E+01 0.12277856367E+01
 0.16237006690E+01 -.47946516713E+00 -.16068435686E+01 -.14964544809E+01 -.19432824107E+00
 0.19618280445E+01 0.44538571296E+01 0.67426968023E+01 0.84145780281E+01 0.92678869152E+01
 0.93264979540E+01 0.87920516647E+01 0.79589653339E+01 0.70728670329E+01 0.62420119954E+01
 0.55372777029E+01 0.50037114807E+01 0.46649632333E+01 0.45315394814E+01 0.46078000323E+01
 0.48950495977E+01 0.53902498881E+01 0.60804953939E+01 0.69347816377E+01 0.78971602748E+01
 0.88858244334E+01 0.97450609306E+01 0.10174051873E+02 0.98872315124E+01 0.87278200915E+01
 0.67440740401E+01 0.42176206043E+01 0.47392113757E+01 0.25056375584E+01 0.81648872772E+00
 0.69075297827E-01 0.42996961897E+00 0.17811455944E+01 0.37618013823E+01 0.58876714223E+01
 0.76978192864E+01 0.88745056166E+01 0.93027590495E+01 0.90648330202E+01 0.83843075981E+01
 0.75345848976E+01 0.66828948189E+01 0.59124903757E+01 0.52823247156E+01 0.48275641007E+01
 0.45656156749E+01 0.45041265884E+01 0.46467332949E+01 0.49947150236E+01 0.55443201065E+01
 0.62802874557E+01 0.71678240226E+01 0.81472573119E+01 0.91342798945E+01 0.99603230371E+01
 0.10335424745E+02 0.10009782108E+02 0.88728002635E+01 0.70150447067E+01 0.74966190399E+01
 0.55649675894E+01 0.37557864913E+01 0.24957749419E+01 0.20858433785E+01 0.26039305621E+01
 0.38815741381E+01 0.55642286373E+01 0.72283109165E+01 0.85068958581E+01 0.91806705651E+01
 0.92128743388E+01 0.87295173496E+01 0.79593953760E+01 0.71195575877E+01 0.63134082873E+01
 0.56103662332E+01 0.50571855715E+01 0.46798723553E+01 0.44905852547E+01 0.44948885068E+01
 0.46960562384E+01 0.50952818622E+01 0.56878363182E+01 0.64561215255E+01 0.73622694654E+01
 0.83443077249E+01 0.93173116883E+01 0.10111994247E+02 0.10461855097E+02 0.10156796329E+02
 0.91284056997E+01 0.94548713465E+01 0.81168189725E+01 0.65799614850E+01 0.52104480011E+01
 0.43485427239E+01 0.42005706293E+01 0.47718721661E+01 0.58692513870E+01 0.71706814995E+01
 0.83309938212E+01 0.90819342205E+01 0.92954466760E+01 0.89985183279E+01 0.83438260089E+01
 0.75419084940E+01 0.67281499682E+01 0.59774933478E+01 0.53461352079E+01 0.48693504913E+01
 0.45653445722E+01 0.44422142029E+01 0.45040850184E+01 0.47540357962E+01 0.51930485015E+01
 0.58152503529E+01 0.66008529476E+01 0.75096916493E+01 0.84789475896E+01 0.94256453334E+01
 0.10192072108E+02 0.10543164599E+02 0.10308613052E+02 0.10433917539E+02 0.97947212217E+01
 0.87813974830E+01 0.76459285429E+01 0.66871251167E+01 0.61574563264E+01 0.61799430012E+01
 0.67091306619E+01 0.75521363726E+01 0.84385503432E+01 0.91085399295E+01 0.93868552206E+01
 0.92225271384E+01 0.86886697427E+01 0.79467335671E+01 0.71491273146E+01 0.63755592582E+01
 0.56876816569E+01 0.51291044574E+01 0.47251670242E+01 0.44878242577E+01 0.44221809732E+01
 0.45314782883E+01 0.48187163712E+01 0.52844537834E+01 0.59214817193E+01 0.67081197160E+01
 0.76029210584E+01 0.85437705173E+01 0.94521027268E+01 0.10191765785E+02 0.10563552198E+02
 0.10505370357E+02 0.10496452879E+02 0.10083570916E+02 0.93903776517E+01 0.86250347749E+01
 0.80156675783E+01 0.77342691690E+01 0.78384486912E+01 0.82551711531E+01 0.88118788866E+01
 0.92993348298E+01 0.95399102797E+01 0.94384078570E+01 0.90031074017E+01 0.83347737736E+01
 0.75722123236E+01 0.67987699881E+01 0.60766403344E+01 0.54552906025E+01 0.49672428012E+01
 0.46297533683E+01 0.44501012871E+01 0.44314011332E+01 0.45764081440E+01 0.48879600149E+01
 0.53659546691E+01 0.60018632474E+01 0.67726501995E+01 0.76366659848E+01 0.85340142592E+01
 0.93923296343E+01 0.10103246720E+02 0.99222902436E+01 0.10353571404E+02 0.10462655313E+02
 0.10262562247E+02 0.98562078714E+01 0.94034970123E+01 0.90658906805E+01 0.89486843012E+01
 0.90644736399E+01 0.93326994773E+01 0.96134465096E+01 0.97592352551E+01 0.96644002643E+01
 0.92968436463E+01 0.87050313731E+01 0.79934727270E+01 0.72418392225E+01 0.65083339031E+01
 0.58448105709E+01 0.52898101520E+01 0.48667637814E+01 0.45868020933E+01 0.44539308313E+01
 0.44700245679E+01 0.46375874720E+01 0.49592294815E+01 0.54340836858E+01 0.60524532899E+01
 0.67905994680E+01 0.76078765878E+01 0.84481701685E+01 0.92463166978E+01 0.90191968926E+01
 0.96506472654E+01 0.10100480865E+02 0.10309730989E+02 0.10290081213E+02 0.10119007300E+02
 0.99095468173E+01 0.97660273667E+01 0.97435886600E+01 0.98285680728E+01 0.99471978047E+01
 0.99968861527E+01 0.98857526768E+01 0.95657322941E+01 0.90495558399E+01 0.84047199423E+01
 0.76965725642E+01 0.69759080779E+01 0.62932436406E+01 0.56909172415E+01 0.51983794374E+01
 0.48320228532E+01 0.45985453316E+01 0.44998325425E+01 0.45371664768E+01 0.47130087604E+01
 0.50296919492E+01 0.54855913727E+01 0.60702177656E+01 0.67599737169E+01 0.75164182438E+01
 0.82885208334E+01 0.80610726481E+01 0.87200726484E+01 0.92983131778E+01 0.97497479714E+01
 0.10031664182E+02 0.10150041146E+02 0.10156423727E+02 0.10122649051E+02 0.10108111348E+02
 0.10133842996E+02 0.10174596864E+02 0.10171340627E+02 0.10057263217E+02 0.97858496436E+01
 0.93508627090E+01 0.87900964773E+01 0.81484852036E+01 0.74670173084E+01 0.67916009580E+01
 0.61654561754E+01 0.56227370046E+01 0.51856408722E+01 0.48653224301E+01 0.46655044888E+01
 0.45869542374E+01 0.46308927742E+01 0.47999415456E+01 0.50962660745E+01 0.55177313136E+01
 0.60535650288E+01 0.66811359642E+01 0.73652746095E+01 0.71606687211E+01 0.77754929070E+01
 0.83614739712E+01 0.88839138266E+01 0.93183026506E+01 0.96425488955E+01 0.98556114827E+01
 0.99858034943E+01 0.10071864226E+02 0.10140657800E+02 0.10192351976E+02 0.10199690313E+02
 0.10120856673E+02 0.99192963121E+01 0.95818885212E+01 0.91257059726E+01 0.85753862731E+01
 0.79615921884E+01 0.73233047896E+01 0.67015594907E+01 0.61329119139E+01 0.56447119324E+01
 0.52535326869E+01 0.49667878820E+01 0.47864258604E+01 0.47129640263E+01 0.47481370978E+01
 0.48950722013E+01 0.51560193078E+01 0.55286764309E+01 0.60025900838E+01 0.65569385154E+01
 0.63928659426E+01 0.69117248736E+01 0.74443166997E+01 0.79587440530E+01 0.84283379859E+01
 0.88361282028E+01 0.91759089215E+01 0.94468102751E+01 0.96586434930E+01 0.98256052304E+01
 0.99526574310E+01 0.10028609932E+02 0.10029259894E+02 0.99286324711E+01 0.97126578550E+01
 0.93828801883E+01 0.89489992448E+01 0.84321250782E+01 0.78630710803E+01 0.72780748591E+01
 0.67132668658E+01 0.61993099290E+01 0.57579076673E+01 0.54012473775E+01 0.51342101648E+01
 0.49580800127E+01 0.48740259762E+01 0.48849122523E+01 0.49947838017E+01 0.52063720669E+01
 0.55177312954E+01 0.59193614797E+01 0.58077963766E+01 0.61964656798E+01 0.66297438526E+01
 0.70823097547E+01 0.75294502501E+01 0.79513289520E+01 0.83359424390E+01 0.86794110814E+01
 0.89832522693E+01 0.92493764511E+01 0.94756132867E+01 0.96531680194E+01 0.97654626944E+01
 0.97927962029E+01 0.97187322580E+01 0.95338995341E+01 0.92392136274E+01 0.88467322037E+01
 0.83786383418E+01 0.78645913485E+01 0.73375942785E+01 0.68290219028E+01 0.63641756190E+01
 0.59598944099E+01 0.56249733131E+01 0.53628729111E+01 0.51752737035E+01 0.50648798934E+01
 0.50363851832E+01 0.50953279188E+01 0.52454304730E+01 0.54856006265E+01 0.54340831799E+01
 0.56732524297E+01 0.59769095622E+01 0.63275455610E+01 0.67054772219E+01 0.70922797630E+01
 0.74738842216E+01 0.78420865193E+01 0.81936044486E+01 0.85268697574E+01 0.88378756954E+01
 0.91169689369E+01 0.93481375811E+01 0.95112336112E+01 0.95862431752E+01 0.95579396034E+01
 0.94194347376E+01 0.91739605211E+01 0.88349151147E+01 0.84243787904E+01 0.79701940268E+01
 0.75018432353E+01 0.70459307567E+01 0.66226473689E+01 0.62445140161E+01 0.59177616201E+01
 0.56454562650E+01 0.54307595920E+01 0.52788912722E+01 0.51971370781E+01 0.51930942816E+01
 0.52719811687E+01 0.52853569606E+01 0.53659554810E+01 0.55221420310E+01 0.57441502986E+01
 0.60183878501E+01 0.63301034753E+01 0.66662108559E+01 0.70173112260E+01 0.73779392611E+01
 0.77446255948E+01 0.81124566760E+01 0.84717356220E+01 0.88064359678E+01 0.90952946234E+01
 0.93151558369E+01 0.94452923072E+01 0.94713102447E+01 0.93877473967E+01 0.91990955624E+01
 0.89193023004E+01 0.85698207418E+01 0.81763064973E+01 0.77644110163E+01 0.73557268080E+01
 0.69652978204E+01 0.66016754409E+01 0.62693206782E+01 0.59719900315E+01 0.57154265831E+01
 0.55082895387E+01 0.53611995489E+01 0.52844609936E+01 0.53659466435E+01 0.52853632569E+01
 0.52844642292E+01 0.53611708070E+01 0.55082365992E+01 0.57153846770E+01 0.59719725161E+01
 0.62693090455E+01 0.66016562652E+01 0.69652807843E+01 0.73557213993E+01 0.77644094400E+01
 0.81763005910E+01 0.85698164805E+01 0.89193062691E+01 0.91991010258E+01 0.93877449382E+01
 0.94713025263E+01 0.94452884630E+01 0.93151576843E+01 0.90952966118E+01 0.88064352402E+01
 0.84717363770E+01 0.81124639116E+01 0.77446364555E+01 0.73779443818E+01 0.70173093889E+01
 0.66662184837E+01 0.63301365081E+01 0.60184342884E+01 0.57441776577E+01 0.55221388793E+01
 0.56732774382E+01 0.54340701495E+01 0.52719437006E+01 0.51930579294E+01 0.51971091761E+01
 0.52788618735E+01 0.54307220373E+01 0.56454177572E+01 0.59177346399E+01 0.62445016232E+01
 0.66226397214E+01 0.70459189142E+01 0.75018319361E+01 0.79701936494E+01 0.84243864539E+01
 0.88349164453E+01 0.91739515904E+01 0.94194270269E+01 0.95579389939E+01 0.95862406988E+01
 0.95112249473E+01 0.93481340666E+01 0.91169769482E+01 0.88378820354E+01 0.85268634127E+01
 0.81935968530E+01 0.78420923075E+01 0.74738956466E+01 0.70922826296E+01 0.67054805063E+01