   2   2   0   0
  0.1124404E+02  0.3269242E-09  0.3269242E-09  0.3269242E-09  0.5000000E-15
  1.000000000000000E-004
  CAR 
 unknown system                          
     31.73585603     -5.07196208  301     13.54583866      1.00000000
     -5.072  0.0000E+00  0.0000E+00
     -4.949  0.0000E+00  0.0000E+00
     -4.827  0.0000E+00  0.0000E+00
     -4.704  0.0000E+00  0.0000E+00
     -4.581  0.0000E+00  0.0000E+00
     -4.458  0.0000E+00  0.0000E+00
     -4.336  0.0000E+00  0.0000E+00
     -4.213  0.2828E-17  0.3469E-18
     -4.090  0.2524E-14  0.3100E-15
     -3.968  0.1011E-11  0.1244E-12
     -3.845  0.1939E-09  0.2391E-10
     -3.722  0.1784E-07  0.2212E-08
     -3.600  0.7906E-06  0.9922E-07
     -3.477  0.1697E-04  0.2181E-05
     -3.354  0.1774E-03  0.2395E-04
     -3.232  0.9117E-03  0.1358E-03
     -3.109  0.2350E-02  0.4241E-03
     -2.986  0.3279E-02  0.8264E-03
     -2.863  0.3453E-02  0.1250E-02
     -2.741  0.5394E-02  0.1912E-02
     -2.618  0.1016E-01  0.3159E-02
     -2.495  0.1324E-01  0.4784E-02
     -2.373  0.1166E-01  0.6214E-02
     -2.250  0.8808E-02  0.7295E-02
     -2.127  0.6579E-02  0.8102E-02
     -2.005  0.5769E-02  0.8810E-02
     -1.882  0.7480E-02  0.9728E-02
     -1.759  0.1270E-01  0.1129E-01
     -1.637  0.2091E-01  0.1385E-01
     -1.514  0.2380E-01  0.1677E-01
     -1.391  0.1571E-01  0.1870E-01
     -1.268  0.9353E-02  0.1985E-01
     -1.146  0.1358E-01  0.2151E-01
     -1.023  0.1889E-01  0.2383E-01
     -0.900  0.1667E-01  0.2588E-01
     -0.778  0.1283E-01  0.2745E-01
     -0.655  0.1347E-01  0.2910E-01
     -0.532  0.1638E-01  0.3111E-01
     -0.410  0.1813E-01  0.3334E-01
     -0.287  0.1983E-01  0.3577E-01
     -0.164  0.2268E-01  0.3855E-01
     -0.042  0.2190E-01  0.4124E-01
      0.081  0.1544E-01  0.4313E-01
      0.204  0.1622E-01  0.4512E-01
      0.327  0.2888E-01  0.4867E-01
      0.449  0.3466E-01  0.5292E-01
      0.572  0.2409E-01  0.5587E-01
      0.695  0.1220E-01  0.5737E-01
      0.817  0.6419E-02  0.5816E-01
      0.940  0.6031E-02  0.5890E-01
      1.063  0.1302E-01  0.6050E-01
      1.185  0.2799E-01  0.6393E-01
      1.308  0.4569E-01  0.6954E-01
      1.431  0.4855E-01  0.7549E-01
      1.553  0.3272E-01  0.7951E-01
      1.676  0.2054E-01  0.8203E-01
      1.799  0.2112E-01  0.8462E-01
      1.922  0.2417E-01  0.8758E-01
      2.044  0.2443E-01  0.9058E-01
      2.167  0.2241E-01  0.9333E-01
      2.290  0.1884E-01  0.9564E-01
      2.412  0.1619E-01  0.9763E-01
      2.535  0.1722E-01  0.9974E-01
      2.658  0.2172E-01  0.1024E+00
      2.780  0.2416E-01  0.1054E+00
      2.903  0.2088E-01  0.1079E+00
      3.026  0.1979E-01  0.1104E+00
      3.148  0.3463E-01  0.1146E+00
      3.271  0.5533E-01  0.1214E+00
      3.394  0.5530E-01  0.1282E+00
      3.517  0.3693E-01  0.1327E+00
      3.639  0.2288E-01  0.1355E+00
      3.762  0.1979E-01  0.1380E+00
      3.885  0.1963E-01  0.1404E+00
      4.007  0.2381E-01  0.1433E+00
      4.130  0.3692E-01  0.1478E+00
      4.253  0.4617E-01  0.1535E+00
      4.375  0.4003E-01  0.1584E+00
      4.498  0.3190E-01  0.1623E+00
      4.621  0.3372E-01  0.1664E+00
      4.743  0.3679E-01  0.1710E+00
      4.866  0.3331E-01  0.1750E+00
      4.989  0.2550E-01  0.1782E+00
      5.112  0.1663E-01  0.1802E+00
      5.234  0.1199E-01  0.1817E+00
      5.357  0.1406E-01  0.1834E+00
      5.480  0.2225E-01  0.1861E+00
      5.602  0.3253E-01  0.1901E+00
      5.725  0.3743E-01  0.1947E+00
      5.848  0.3897E-01  0.1995E+00
      5.970  0.4993E-01  0.2056E+00
      6.093  0.6363E-01  0.2134E+00
      6.216  0.5961E-01  0.2207E+00
      6.338  0.4304E-01  0.2260E+00
      6.461  0.2898E-01  0.2296E+00
      6.584  0.2152E-01  0.2322E+00
      6.707  0.2257E-01  0.2350E+00
      6.829  0.3741E-01  0.2396E+00
      6.952  0.5841E-01  0.2467E+00
      7.075  0.6212E-01  0.2544E+00
      7.197  0.4563E-01  0.2600E+00
      7.320  0.2801E-01  0.2634E+00
      7.443  0.2014E-01  0.2659E+00
      7.565  0.1936E-01  0.2682E+00
      7.688  0.2233E-01  0.2710E+00
      7.811  0.3162E-01  0.2749E+00
      7.933  0.4112E-01  0.2799E+00
      8.056  0.4341E-01  0.2852E+00
      8.179  0.4726E-01  0.2910E+00
      8.302  0.5459E-01  0.2977E+00
      8.424  0.5006E-01  0.3039E+00
      8.547  0.3912E-01  0.3087E+00
      8.670  0.4217E-01  0.3138E+00
      8.792  0.5410E-01  0.3205E+00
      8.915  0.5571E-01  0.3273E+00
      9.038  0.4201E-01  0.3325E+00
      9.160  0.2369E-01  0.3354E+00
      9.283  0.1787E-01  0.3376E+00
      9.406  0.3131E-01  0.3414E+00
      9.528  0.5377E-01  0.3480E+00
      9.651  0.6772E-01  0.3563E+00
      9.774  0.6255E-01  0.3640E+00
      9.897  0.5014E-01  0.3702E+00
     10.019  0.4844E-01  0.3761E+00
     10.142  0.5174E-01  0.3824E+00
     10.265  0.4493E-01  0.3880E+00
     10.387  0.3947E-01  0.3928E+00
     10.510  0.4380E-01  0.3982E+00
     10.633  0.4365E-01  0.4035E+00
     10.755  0.4026E-01  0.4085E+00
     10.878  0.4328E-01  0.4138E+00
     11.001  0.4808E-01  0.4197E+00
     11.123  0.5017E-01  0.4258E+00
     11.246  0.5800E-01  0.4329E+00
     11.369  0.8270E-01  0.4431E+00
     11.492  0.1029E+00  0.4557E+00
     11.614  0.8798E-01  0.4665E+00
     11.737  0.5663E-01  0.4735E+00
     11.860  0.3354E-01  0.4776E+00
     11.982  0.2127E-01  0.4802E+00
     12.105  0.2535E-01  0.4833E+00
     12.228  0.3718E-01  0.4879E+00
     12.350  0.3949E-01  0.4927E+00
     12.473  0.3659E-01  0.4972E+00
     12.596  0.3539E-01  0.5015E+00
     12.718  0.3165E-01  0.5054E+00
     12.841  0.2769E-01  0.5088E+00
     12.964  0.3117E-01  0.5126E+00
     13.087  0.3727E-01  0.5172E+00
     13.209  0.3492E-01  0.5215E+00
     13.332  0.3067E-01  0.5253E+00
     13.455  0.3489E-01  0.5295E+00
     13.577  0.4248E-01  0.5348E+00
     13.700  0.4904E-01  0.5408E+00
     13.823  0.5229E-01  0.5472E+00
     13.945  0.5026E-01  0.5534E+00
     14.068  0.4690E-01  0.5591E+00
     14.191  0.4012E-01  0.5640E+00
     14.313  0.3055E-01  0.5678E+00
     14.436  0.3200E-01  0.5717E+00
     14.559  0.4632E-01  0.5774E+00
     14.682  0.5950E-01  0.5847E+00
     14.804  0.6073E-01  0.5921E+00
     14.927  0.4973E-01  0.5982E+00
     15.050  0.3994E-01  0.6031E+00
     15.172  0.3869E-01  0.6079E+00
     15.295  0.3802E-01  0.6126E+00
     15.418  0.3663E-01  0.6170E+00
     15.540  0.4040E-01  0.6220E+00
     15.663  0.5192E-01  0.6284E+00
     15.786  0.5943E-01  0.6357E+00
     15.908  0.5989E-01  0.6430E+00
     16.031  0.6595E-01  0.6511E+00
     16.154  0.7626E-01  0.6605E+00
     16.277  0.7704E-01  0.6699E+00
     16.399  0.6481E-01  0.6779E+00
     16.522  0.5097E-01  0.6841E+00
     16.645  0.4337E-01  0.6894E+00
     16.767  0.4294E-01  0.6947E+00
     16.890  0.4464E-01  0.7002E+00
     17.013  0.4391E-01  0.7056E+00
     17.135  0.3918E-01  0.7104E+00
     17.258  0.3162E-01  0.7143E+00
     17.381  0.3134E-01  0.7181E+00
     17.503  0.3989E-01  0.7230E+00
     17.626  0.4265E-01  0.7282E+00
     17.749  0.3981E-01  0.7331E+00
     17.872  0.4520E-01  0.7387E+00
     17.994  0.5170E-01  0.7450E+00
     18.117  0.5153E-01  0.7513E+00
     18.240  0.5815E-01  0.7585E+00
     18.362  0.6458E-01  0.7664E+00
     18.485  0.5931E-01  0.7737E+00
     18.608  0.5051E-01  0.7799E+00
     18.730  0.4623E-01  0.7855E+00
     18.853  0.4924E-01  0.7916E+00
     18.976  0.5126E-01  0.7979E+00
     19.099  0.4188E-01  0.8030E+00
     19.221  0.3604E-01  0.8074E+00
     19.344  0.4773E-01  0.8133E+00
     19.467  0.5685E-01  0.8203E+00
     19.589  0.5473E-01  0.8270E+00
     19.712  0.6166E-01  0.8345E+00
     19.835  0.7335E-01  0.8435E+00
     19.957  0.6943E-01  0.8521E+00
     20.080  0.6587E-01  0.8601E+00
     20.203  0.7911E-01  0.8698E+00
     20.325  0.8467E-01  0.8802E+00
     20.448  0.7168E-01  0.8890E+00
     20.571  0.5904E-01  0.8963E+00
     20.694  0.4899E-01  0.9023E+00
     20.816  0.3928E-01  0.9071E+00
     20.939  0.3774E-01  0.9117E+00
     21.062  0.3880E-01  0.9165E+00
     21.184  0.3540E-01  0.9208E+00
     21.307  0.2964E-01  0.9245E+00
     21.430  0.2511E-01  0.9276E+00
     21.552  0.2556E-01  0.9307E+00
     21.675  0.3376E-01  0.9348E+00
     21.798  0.4400E-01  0.9402E+00
     21.920  0.4470E-01  0.9457E+00
     22.043  0.3551E-01  0.9501E+00
     22.166  0.3122E-01  0.9539E+00
     22.289  0.4205E-01  0.9591E+00
     22.411  0.5661E-01  0.9660E+00
     22.534  0.6336E-01  0.9738E+00
     22.657  0.6809E-01  0.9821E+00
     22.779  0.6838E-01  0.9905E+00
     22.902  0.5492E-01  0.9973E+00
     23.025  0.3369E-01  0.1001E+01
     23.147  0.1877E-01  0.1004E+01
     23.270  0.1091E-01  0.1005E+01
     23.393  0.5951E-02  0.1006E+01
     23.515  0.5917E-02  0.1006E+01
     23.638  0.1196E-01  0.1008E+01
     23.761  0.2267E-01  0.1011E+01
     23.884  0.3339E-01  0.1015E+01
     24.006  0.3623E-01  0.1019E+01
     24.129  0.3136E-01  0.1023E+01
     24.252  0.2296E-01  0.1026E+01
     24.374  0.1433E-01  0.1028E+01
     24.497  0.1400E-01  0.1029E+01
     24.620  0.2072E-01  0.1032E+01
     24.742  0.2381E-01  0.1035E+01
     24.865  0.2007E-01  0.1037E+01
     24.988  0.1803E-01  0.1040E+01
     25.110  0.2288E-01  0.1042E+01
     25.233  0.2732E-01  0.1046E+01
     25.356  0.2725E-01  0.1049E+01
     25.479  0.2561E-01  0.1052E+01
     25.601  0.2088E-01  0.1055E+01
     25.724  0.1359E-01  0.1056E+01
     25.847  0.8458E-02  0.1057E+01
     25.969  0.6938E-02  0.1058E+01
     26.092  0.5415E-02  0.1059E+01
     26.215  0.2498E-02  0.1059E+01
     26.337  0.5865E-03  0.1059E+01
     26.460  0.6794E-04  0.1059E+01
     26.583  0.6894E-05  0.1059E+01
     26.705  0.5712E-04  0.1059E+01
     26.828  0.5169E-03  0.1059E+01
     26.951  0.2295E-02  0.1060E+01
     27.074  0.5028E-02  0.1060E+01
     27.196  0.5637E-02  0.1061E+01
     27.319  0.4444E-02  0.1062E+01
     27.442  0.5828E-02  0.1062E+01
     27.564  0.8331E-02  0.1063E+01
     27.687  0.6787E-02  0.1064E+01
     27.810  0.2845E-02  0.1065E+01
     27.932  0.6076E-03  0.1065E+01
     28.055  0.6577E-04  0.1065E+01
     28.178  0.3581E-05  0.1065E+01
     28.300  0.9754E-07  0.1065E+01
     28.423  0.3299E-07  0.1065E+01
     28.546  0.1269E-05  0.1065E+01
     28.669  0.2460E-04  0.1065E+01
     28.791  0.2323E-03  0.1065E+01
     28.914  0.1074E-02  0.1065E+01
     29.037  0.2441E-02  0.1065E+01
     29.159  0.2736E-02  0.1065E+01
     29.282  0.1517E-02  0.1066E+01
     29.405  0.4868E-03  0.1066E+01
     29.527  0.5695E-03  0.1066E+01
     29.650  0.1717E-02  0.1066E+01
     29.773  0.2809E-02  0.1066E+01
     29.895  0.2271E-02  0.1067E+01
     30.018  0.9048E-03  0.1067E+01
     30.141  0.1771E-03  0.1067E+01
     30.264  0.1696E-04  0.1067E+01
     30.386  0.7906E-06  0.1067E+01
     30.509  0.1784E-07  0.1067E+01
     30.632  0.1939E-09  0.1067E+01
     30.754  0.1011E-11  0.1067E+01
     30.877  0.2523E-14  0.1067E+01
     31.000  0.2828E-17  0.1067E+01
     31.122  0.0000E+00  0.1067E+01
     31.245  0.0000E+00  0.1067E+01
     31.368  0.0000E+00  0.1067E+01
     31.490  0.0000E+00  0.1067E+01
     31.613  0.0000E+00  0.1067E+01
     31.736  0.0000E+00  0.1067E+01
