    2    2   15    1
  0.1124404E+02  0.3269242E-09  0.3269242E-09  0.3269242E-09  0.5000000E-15
  1.000000000000000E-004
  CAR 
 unknown system                          
      8     56      8
 
  0.6250000E-01  0.6250000E-01  0.6250000E-01  0.1562500E-01
    1       -2.571535   1.000000
    2        8.653838   1.000000
    3       11.118678   1.000000
    4       13.856307   0.014070
    5       16.235482   0.000000
    6       19.865417   0.000000
    7       19.959122   0.000000
    8       22.727134   0.000000
 
  0.1875000E+00  0.6250000E-01  0.6250000E-01  0.3125000E-01
    1       -1.079172   1.000000
    2        8.267142   1.000000
    3       11.454267   1.000000
    4       13.614507   0.313640
    5       15.816885   0.000000
    6       16.766400   0.000000
    7       19.397712   0.000000
    8       20.301879   0.000000
 
  0.3125000E+00  0.6250000E-01  0.6250000E-01  0.3125000E-01
    1        1.378620   1.000000
    2        8.738452   1.000000
    3        8.992195   1.000000
    4       11.523628   1.000000
    5       13.460414   0.727093
    6       16.180147   0.000000
    7       19.800774   0.000000
    8       20.164665   0.000000
 
  0.4375000E+00  0.6250000E-01  0.6250000E-01  0.1562500E-01
    1        4.685549   1.000000
    2        4.830847   1.000000
    3       10.025565   1.000000
    4       10.122532   1.000000
    5       13.716559   0.113683
    6       14.460015   0.000000
    7       19.664825   0.000000
    8       19.748206   0.000000
 
 -0.6250000E-01  0.6250000E-01  0.6250000E-01  0.7812500E-02
    1       -3.071962   1.000000
    2        9.783533   1.000000
    3        9.856233   1.000000
    4       14.057978   0.000147
    5       14.707786   0.000000
    6       20.906481   0.000000
    7       23.893683   0.000000
    8       24.911442   0.000000
 
  0.1875000E+00  0.1875000E+00  0.6250000E-01  0.1562500E-01
    1        1.139211   1.000000
    2        8.534739   1.000000
    3       10.456834   1.000000
    4       10.473381   1.000000
    5       14.559761   0.000000
    6       17.181319   0.000000
    7       18.209957   0.000000
    8       18.944263   0.000000
 
  0.3125000E+00  0.1875000E+00  0.6250000E-01  0.3125000E-01
    1        4.287233   1.000000
    2        6.151144   1.000000
    3        7.961369   1.000000
    4        9.678828   1.000000
    5       15.063842   0.000000
    6       16.352922   0.000000
    7       18.224745   0.000000
    8       21.205896   0.000000
 
  0.4375000E+00  0.1875000E+00  0.6250000E-01  0.3125000E-01
    1        2.570022   1.000000
    2        6.302040   1.000000
    3        8.304208   1.000000
    4       11.464199   1.000000
    5       13.938352   0.002756
    6       17.021450   0.000000
    7       19.350804   0.000000
    8       21.876623   0.000000
 
 -0.4375000E+00  0.1875000E+00  0.6250000E-01  0.3125000E-01
    1       -0.110013   1.000000
    2        5.563768   1.000000
    3       12.164258   1.000000
    4       13.004995   0.999934
    5       15.111843   0.000000
    6       17.496284   0.000000
    7       18.256114   0.000000
    8       21.718744   0.000000
 
 -0.3125000E+00  0.1875000E+00  0.6250000E-01  0.1562500E-01
    1       -1.837444   1.000000
    2        5.762901   1.000000
    3       11.742901   1.000000
    4       14.515603   0.000000
    5       17.641859   0.000000
    6       18.861158   0.000000
    7       19.467856   0.000000
    8       21.996375   0.000000
 
 -0.1875000E+00  0.1875000E+00  0.6250000E-01  0.1562500E-01
    1       -2.580758   1.000000
    2        6.887613   1.000000
    3       10.258413   1.000000
    4       14.774691   0.000000
    5       17.960384   0.000000
    6       18.613655   0.000000
    7       22.317826   0.000000
    8       24.167126   0.000000
 
 -0.6250000E-01  0.1875000E+00  0.6250000E-01  0.1562500E-01
    1       -2.326528   1.000000
    2        8.821372   1.000000
    3        8.936085   1.000000
    4       15.675974   0.000000
    5       16.954931   0.000000
    6       18.766760   0.000000
    7       19.292548   0.000000
    8       22.852834   0.000000
 
  0.3125000E+00  0.3125000E+00  0.6250000E-01  0.1562500E-01
    1        4.215639   1.000000
    2        4.223670   1.000000
    3        8.078298   1.000000
    4       11.365038   1.000000
    5       14.885623   0.000000
    6       15.777938   0.000000
    7       21.372944   0.000000
    8       21.661643   0.000000
 
  0.4375000E+00  0.3125000E+00  0.6250000E-01  0.3125000E-01
    1        1.332158   1.000000
    2        3.232080   1.000000
    3       12.490028   1.000000
    4       13.142929   0.997807
    5       14.769951   0.000000
    6       16.503037   0.000000
    7       18.835472   0.000000
    8       20.565286   0.000000
 
 -0.4375000E+00  0.3125000E+00  0.6250000E-01  0.1562500E-01
    1       -0.621518   1.000000
    2        3.203343   1.000000
    3       12.771301   1.000000
    4       15.368398   0.000000
    5       16.135767   0.000000
    6       17.900069   0.000000
    7       19.280957   0.000000
    8       20.338024   0.000000
 
 -0.3125000E+00  0.3125000E+00  0.6250000E-01  0.1562500E-01
    1       -1.602864   1.000000
    2        4.132150   1.000000
    3       11.129864   1.000000
    4       15.662178   0.000000
    5       16.228879   0.000000
    6       20.416203   0.000000
    7       21.393071   0.000000
    8       23.691398   0.000000
 
 -0.1875000E+00  0.3125000E+00  0.6250000E-01  0.3125000E-01
    1       -1.593683   1.000000
    2        5.993233   1.000000
    3        9.549002   1.000000
    4       15.986987   0.000000
    5       16.571779   0.000000
    6       18.399208   0.000000
    7       20.290109   0.000000
    8       22.601305   0.000000
 
 -0.6250000E-01  0.3125000E+00  0.6250000E-01  0.1562500E-01
    1       -0.593976   1.000000
    2        8.650656   1.000000
    3        8.780583   1.000000
    4       12.589932   1.000000
    5       16.394980   0.000000
    6       18.269944   0.000000
    7       18.975387   0.000000
    8       21.074631   0.000000
 
  0.4375000E+00  0.4375000E+00  0.6250000E-01  0.7812500E-02
    1        1.064687   1.000000
    2        1.064687   1.000000
    3       14.166405   0.000006
    4       14.166406   0.000006
    5       16.835861   0.000000
    6       16.835869   0.000000
    7       19.353572   0.000000
    8       19.353582   0.000000
 
 -0.4375000E+00  0.4375000E+00  0.6250000E-01  0.1562500E-01
    1       -0.147273   1.000000
    2        1.771788   1.000000
    3       12.428317   1.000000
    4       14.138784   0.000014
    5       16.941178   0.000000
    6       18.561468   0.000000
    7       22.726489   0.000000
    8       23.074340   0.000000
 
 -0.3125000E+00  0.4375000E+00  0.6250000E-01  0.3125000E-01
    1       -0.379783   1.000000
    2        3.438739   1.000000
    3       10.655023   1.000000
    4       14.100109   0.000044
    5       16.144903   0.000000
    6       18.973342   0.000000
    7       20.671665   0.000000
    8       22.262564   0.000000
 
 -0.1875000E+00  0.4375000E+00  0.6250000E-01  0.3125000E-01
    1        0.371974   1.000000
    2        6.025420   1.000000
    3        9.603031   1.000000
    4       11.772320   1.000000
    5       14.610841   0.000000
    6       17.962639   0.000000
    7       20.162955   0.000000
    8       22.409370   0.000000
 
 -0.6250000E-01  0.4375000E+00  0.6250000E-01  0.1562500E-01
    1        2.094529   1.000000
    2        7.849612   1.000000
    3        9.358977   1.000000
    4        9.469614   1.000000
    5       14.375068   0.000000
    6       15.585553   0.000000
    7       17.860216   0.000000
    8       22.429555   0.000000
 
 -0.4375000E+00 -0.4375000E+00  0.6250000E-01  0.1562500E-01
    1        1.302483   1.000000
    2        1.304843   1.000000
    3       12.130503   1.000000
    4       12.239045   1.000000
    5       16.051857   0.000000
    6       19.731177   0.000000
    7       20.618269   0.000000
    8       21.012950   0.000000
 
 -0.3125000E+00 -0.4375000E+00  0.6250000E-01  0.3125000E-01
    1        1.809352   1.000000
    2        3.702801   1.000000
    3       10.890391   1.000000
    4       11.358776   1.000000
    5       12.646300   1.000000
    6       17.468537   0.000000
    7       21.852435   0.000000
    8       23.907732   0.000000
 
 -0.1875000E+00 -0.4375000E+00  0.6250000E-01  0.3125000E-01
    1        3.279593   1.000000
    2        6.973426   1.000000
    3        7.187183   1.000000
    4       10.465852   1.000000
    5       13.402748   0.844185
    6       15.665429   0.000000
    7       18.470493   0.000000
    8       24.120959   0.000000
 
 -0.6250000E-01 -0.4375000E+00  0.6250000E-01  0.1562500E-01
    1        3.817566   1.000000
    2        5.691288   1.000000
    3       10.770498   1.000000
    4       10.805308   1.000000
    5       12.892467   0.999998
    6       13.779979   0.048899
    7       17.387066   0.000000
    8       22.069524   0.000000
 
 -0.3125000E+00 -0.3125000E+00  0.6250000E-01  0.1562500E-01
    1        4.910974   1.000000
    2        4.928209   1.000000
    3        6.944062   1.000000
    4       11.596556   1.000000
    5       12.184614   1.000000
    6       15.234999   0.000000
    7       20.502016   0.000000
    8       22.640468   0.000000
 
 -0.1875000E+00 -0.3125000E+00  0.6250000E-01  0.3125000E-01
    1        3.347169   1.000000
    2        7.066779   1.000000
    3        8.850671   1.000000
    4       11.451972   1.000000
    5       13.058308   0.999717
    6       14.773767   0.000000
    7       16.752012   0.000000
    8       20.907046   0.000000
 
 -0.6250000E-01 -0.3125000E+00  0.6250000E-01  0.1562500E-01
    1        0.659024   1.000000
    2       10.051187   1.000000
    3       11.267611   1.000000
    4       11.310172   1.000000
    5       13.733996   0.091681
    6       14.576371   0.000000
    7       17.938543   0.000000
    8       20.026852   0.000000
 
 -0.1875000E+00 -0.1875000E+00  0.6250000E-01  0.1562500E-01
    1        0.418384   1.000000
    2       11.085414   1.000000
    3       11.446662   1.000000
    4       11.493872   1.000000
    5       13.771902   0.054965
    6       15.653280   0.000000
    7       16.233427   0.000000
    8       17.912554   0.000000
 
 -0.6250000E-01 -0.1875000E+00  0.6250000E-01  0.1562500E-01
    1       -1.566035   1.000000
    2       11.018433   1.000000
    3       11.101906   1.000000
    4       14.022529   0.000375
    5       16.006995   0.000000
    6       16.368866   0.000000
    7       18.215301   0.000000
    8       18.276167   0.000000
 
 -0.6250000E-01 -0.6250000E-01  0.6250000E-01  0.3906250E-02
    1       -2.816986   1.000000
    2       10.909846   1.000000
    3       10.909846   1.000000
    4       13.324071   0.941575
    5       14.111208   0.000032
    6       20.800038   0.000000
    7       20.939936   0.000000
    8       22.361097   0.000000
 
  0.1875000E+00  0.1875000E+00  0.1875000E+00  0.1562500E-01
    1        2.332667   1.000000
    2        6.072664   1.000000
    3        9.827263   1.000000
    4        9.838613   1.000000
    5       15.678631   0.000000
    6       18.657557   0.000000
    7       19.010197   0.000000
    8       20.236190   0.000000
 
  0.3125000E+00  0.1875000E+00  0.1875000E+00  0.1562500E-01
    1        5.623435   1.000000
    2        5.748224   1.000000
    3        7.459916   1.000000
    4        7.567511   1.000000
    5       17.077046   0.000000
    6       18.427699   0.000000
    7       19.774245   0.000000
    8       20.579131   0.000000
 
 -0.1875000E+00  0.1875000E+00  0.1875000E+00  0.7812500E-02
    1       -2.091247   1.000000
    2        7.272705   1.000000
    3        7.419270   1.000000
    4       16.105841   0.000000
    5       17.639960   0.000000
    6       18.939914   0.000000
    7       21.833777   0.000000
    8       23.544030   0.000000
 
  0.3125000E+00  0.3125000E+00  0.1875000E+00  0.7812500E-02
    1        3.985369   1.000000
    2        3.985369   1.000000
    3        9.618245   1.000000
    4        9.618246   1.000000
    5       17.179274   0.000000
    6       17.179277   0.000000
    7       20.194521   0.000000
    8       20.194535   0.000000
 
 -0.3125000E+00  0.3125000E+00  0.1875000E+00  0.1562500E-01
    1       -1.116619   1.000000
    2        4.598671   1.000000
    3        8.258810   1.000000
    4       13.587684   0.383656
    5       18.635757   0.000000
    6       20.922911   0.000000
    7       21.700831   0.000000
    8       23.888064   0.000000
 
 -0.1875000E+00  0.3125000E+00  0.1875000E+00  0.1562500E-01
    1       -0.864534   1.000000
    2        6.601528   1.000000
    3        6.769900   1.000000
    4       13.791580   0.041136
    5       15.937667   0.000000
    6       21.132959   0.000000
    7       21.533185   0.000000
    8       23.905510   0.000000
 
 -0.4375000E+00  0.4375000E+00  0.1875000E+00  0.1562500E-01
    1        0.334132   1.000000
    2        2.246748   1.000000
    3        9.613564   1.000000
    4       11.399447   1.000000
    5       19.408328   0.000000
    6       20.140953   0.000000
    7       22.683679   0.000000
    8       23.756599   0.000000
 
 -0.3125000E+00  0.4375000E+00  0.1875000E+00  0.3125000E-01
    1        0.343334   1.000000
    2        4.142021   1.000000
    3        7.832899   1.000000
    4       11.422944   1.000000
    5       15.409021   0.000000
    6       22.343259   0.000000
    7       22.824360   0.000000
    8       25.166512   0.000000
 
 -0.1875000E+00  0.4375000E+00  0.1875000E+00  0.1562500E-01
    1        1.331473   1.000000
    2        6.864354   1.000000
    3        7.028343   1.000000
    4       10.913500   1.000000
    5       12.284551   1.000000
    6       20.187637   0.000000
    7       20.213022   0.000000
    8       25.036452   0.000000
 
 -0.4375000E+00 -0.4375000E+00  0.1875000E+00  0.1562500E-01
    1        2.015715   1.000000
    2        2.020932   1.000000
    3        9.394535   1.000000
    4        9.441961   1.000000
    5       15.218624   0.000000
    6       22.725458   0.000000
    7       23.178059   0.000000
    8       24.726833   0.000000
 
 -0.3125000E+00 -0.4375000E+00  0.1875000E+00  0.3125000E-01
    1        2.759143   1.000000
    2        4.638984   1.000000
    3        8.313491   1.000000
    4       10.093869   1.000000
    5       10.497881   1.000000
    6       19.848113   0.000000
    7       22.860045   0.000000
    8       25.490996   0.000000
 
 -0.1875000E+00 -0.4375000E+00  0.1875000E+00  0.1562500E-01
    1        4.453506   1.000000
    2        6.479510   1.000000
    3        8.061314   1.000000
    4        8.190836   1.000000
    5       11.600008   1.000000
    6       17.671396   0.000000
    7       17.869675   0.000000
    8       24.554149   0.000000
 
 -0.3125000E+00 -0.3125000E+00  0.1875000E+00  0.1562500E-01
    1        6.060755   1.000000
    2        6.061508   1.000000
    3        6.286863   1.000000
    4        9.610731   1.000000
    5        9.759204   1.000000
    6       17.539006   0.000000
    7       19.807332   0.000000
    8       22.620677   0.000000
 
 -0.1875000E+00 -0.3125000E+00  0.1875000E+00  0.1562500E-01
    1        2.874225   1.000000
    2        8.417651   1.000000
    3       10.105161   1.000000
    4       10.182628   1.000000
    5       11.761172   1.000000
    6       15.935885   0.000000
    7       16.200592   0.000000
    8       20.489532   0.000000
 
 -0.1875000E+00 -0.1875000E+00  0.1875000E+00  0.3906250E-02
    1        0.177323   1.000000
    2       12.246917   1.000000
    3       12.246918   1.000000
    4       12.431194   1.000000
    5       13.246847   0.982751
    6       15.340588   0.000000
    7       15.340593   0.000000
    8       17.112496   0.000000
 
 -0.3125000E+00  0.3125000E+00  0.3125000E+00  0.7812500E-02
    1       -0.148515   1.000000
    2        5.427108   1.000000
    3        5.637882   1.000000
    4       10.992865   1.000000
    5       19.677904   0.000000
    6       20.315663   0.000000
    7       24.195636   0.000000
    8       24.709929   0.000000
 
 -0.4375000E+00  0.4375000E+00  0.3125000E+00  0.1562500E-01
    1        1.292466   1.000000
    2        3.191581   1.000000
    3        6.923355   1.000000
    4        8.749770   1.000000
    5       19.701156   0.000000
    6       19.863556   0.000000
    7       25.666931   0.000000
    8       27.086273   0.000000
 
 -0.3125000E+00  0.4375000E+00  0.3125000E+00  0.1562500E-01
    1        1.541062   1.000000
    2        5.201620   1.000000
    3        5.423381   1.000000
    4        8.984327   1.000000
    5       14.830068   0.000000
    6       24.539009   0.000000
    7       25.143793   0.000000
    8       25.391845   0.000000
 
 -0.4375000E+00 -0.4375000E+00  0.3125000E+00  0.1562500E-01
    1        3.196613   1.000000
    2        3.206053   1.000000
    3        6.923680   1.000000
    4        6.947299   1.000000
    5       14.627949   0.000000
    6       24.697386   0.000000
    7       25.335265   0.000000
    8       27.507827   0.000000
 
 -0.3125000E+00 -0.4375000E+00  0.3125000E+00  0.1562500E-01
    1        4.171661   1.000000
    2        5.938526   1.000000
    3        6.132441   1.000000
    4        7.871709   1.000000
    5       10.040387   1.000000
    6       22.479802   0.000000
    7       22.589200   0.000000
    8       25.964963   0.000000
 
 -0.3125000E+00 -0.3125000E+00  0.3125000E+00  0.3906250E-02
    1        6.012079   1.000000
    2        7.545269   1.000000
    3        7.685051   1.000000
    4        7.752286   1.000000
    5        7.752287   1.000000
    6       19.575970   0.000000
    7       19.575982   0.000000
    8       22.266009   0.000000
 
 -0.4375000E+00  0.4375000E+00  0.4375000E+00  0.7812500E-02
    1        2.718083   1.000000
    2        4.477339   1.000000
    3        4.733651   1.000000
    4        6.469031   1.000000
    5       19.485724   0.000000
    6       19.524867   0.000000
    7       29.056352   0.000000
    8       29.735856   0.000000
 
 -0.4375000E+00 -0.4375000E+00  0.4375000E+00  0.3906250E-02
    1        4.712138   1.000000
    2        4.740789   1.000000
    3        4.970914   1.000000
    4        4.970914   1.000000
    5       14.422940   0.000000
    6       24.754198   0.000000
    7       27.572764   0.000000
    8       27.572783   0.000000
