       N       E                     dE             d eps       ncg     rms          rms(c)
DAV:   1     0.247672733261E+01    0.24767E+01   -0.30318E+03   912   0.597E+02
DAV:   2    -0.891882857330E+01   -0.11396E+02   -0.11031E+02  1312   0.715E+01
DAV:   3    -0.900786552581E+01   -0.89037E-01   -0.88709E-01  1200   0.758E+00
DAV:   4    -0.900802442957E+01   -0.15890E-03   -0.15857E-03  1536   0.285E-01
DAV:   5    -0.900802446477E+01   -0.35203E-07   -0.34330E-07  1152   0.224E-03    0.209E+00
DAV:   6    -0.896706004657E+01    0.40964E-01   -0.83686E-03  1384   0.609E-01    0.127E+00
DAV:   7    -0.894412643492E+01    0.22934E-01   -0.17388E-02  1272   0.947E-01    0.834E-02
DAV:   8    -0.894395667225E+01    0.16976E-03   -0.98021E-04   912   0.253E-01
   1 F= -.89439567E+01 E0= -.89373208E+01  d E =-.894396E+01
