 running on    8 total cores
 distrk:  each k-point on    8 cores,    1 groups
 distr:  one band on    1 cores,    8 groups
 using from now: INCAR     
 vasp.5.4.4.18Apr17-6-g9f103f2a35 (build Dec 09 2018 21:25:21) complex          
  
 POSCAR found type information on POSCAR  Si
 POSCAR found :  1 types and       2 ions
 scaLAPACK will be used

 ----------------------------------------------------------------------------- 
|                                                                             |
|           W    W    AA    RRRRR   N    N  II  N    N   GGGG   !!!           |
|           W    W   A  A   R    R  NN   N  II  NN   N  G    G  !!!           |
|           W    W  A    A  R    R  N N  N  II  N N  N  G       !!!           |
|           W WW W  AAAAAA  RRRRR   N  N N  II  N  N N  G  GGG   !            |
|           WW  WW  A    A  R   R   N   NN  II  N   NN  G    G                |
|           W    W  A    A  R    R  N    N  II  N    N   GGGG   !!!           |
|                                                                             |
|      For optimal performance we recommend to set                            |
|        NCORE= 4 - approx SQRT( number of cores)                             |
|      NCORE specifies how many cores store one orbital (NPAR=cpu/NCORE).     |
|      This setting can  greatly improve the performance of VASP for DFT.     |
|      The default,   NCORE=1            might be grossly inefficient         |
|      on modern multi-core architectures or massively parallel machines.     |
|      Do your own testing !!!!                                               |
|      Unfortunately you need to use the default for GW and RPA calculations. |
|      (for HF NCORE is supported but not extensively tested yet)             |
|                                                                             |
 ----------------------------------------------------------------------------- 

 LDA part: xc-table for Pade appr. of Perdew
 POSCAR, INCAR and KPOINTS ok, starting setup
 FFT: planning ...
 WAVECAR not read
 entering main loop
       N       E                     dE             d eps       ncg     rms          rms(c)
DAV:   1     0.247672733261E+01    0.24767E+01   -0.30318E+03   912   0.597E+02
DAV:   2    -0.891882857330E+01   -0.11396E+02   -0.11031E+02  1312   0.715E+01
DAV:   3    -0.900786552581E+01   -0.89037E-01   -0.88709E-01  1200   0.758E+00
DAV:   4    -0.900802442957E+01   -0.15890E-03   -0.15857E-03  1536   0.285E-01
DAV:   5    -0.900802446477E+01   -0.35203E-07   -0.34330E-07  1152   0.224E-03    0.209E+00
DAV:   6    -0.896706004657E+01    0.40964E-01   -0.83686E-03  1384   0.609E-01    0.127E+00
DAV:   7    -0.894412643492E+01    0.22934E-01   -0.17388E-02  1272   0.947E-01    0.834E-02
DAV:   8    -0.894395667225E+01    0.16976E-03   -0.98021E-04   912   0.253E-01
   1 F= -.89439567E+01 E0= -.89373208E+01  d E =-.894396E+01
 curvature:   0.00 expect dE= 0.000E+00 dE for cont linesearch  0.000E+00
 trial: gam= 0.00000 g(F)=  0.625E-47 g(S)=  0.000E+00 ort = 0.000E+00 (trialstep = 0.100E+01)
 search vector abs. value=  0.100E-09
 reached required accuracy - stopping structural energy minimisation
 writing wavefunctions
