unknown system                          
           1
    -2.143763    2.143763    1.223317
     2.143763   -2.143763    1.223317
     2.143763    2.143763   -1.223317
   Si
   2
Direct configuration=     1
   0.00000000  0.00000000  0.00000000
   0.25000000  0.75000000  0.50000000
