    2    2   15    1
  0.1529437E+02  0.3691622E-09  0.3691622E-09  0.3691622E-09  0.5000000E-15
  1.000000000000000E-004
  CAR 
 unknown system                          
      8     99      8
 
  0.5000000E-01  0.5000000E-01  0.5000000E-01  0.8000000E-02
    1       -4.316016   1.000000
    2        5.216610   1.000000
    3        6.911691   1.000000
    4        8.514970   0.999772
    5       11.831490   0.000000
    6       14.653922   0.000000
    7       15.310633   0.000000
    8       17.035598   0.000000
 
  0.1500000E+00  0.5000000E-01  0.5000000E-01  0.1600000E-01
    1       -3.538879   1.000000
    2        4.810412   1.000000
    3        7.069527   1.000000
    4        9.729206   0.000000
    5       11.783622   0.000000
    6       12.434459   0.000000
    7       13.460147   0.000000
    8       15.481643   0.000000
 
  0.2500000E+00  0.5000000E-01  0.5000000E-01  0.1600000E-01
    1       -2.253919   1.000000
    2        4.820585   1.000000
    3        7.085279   1.000000
    4        8.009094   1.000000
    5       10.198176   0.000000
    6       12.308073   0.000000
    7       13.205024   0.000000
    8       14.546631   0.000000
 
  0.3500000E+00  0.5000000E-01  0.5000000E-01  0.1600000E-01
    1       -0.485119   1.000000
    2        4.405935   1.000000
    3        5.654285   1.000000
    4        7.358071   1.000000
    5        8.658681   0.993597
    6       11.470945   0.000000
    7       13.720741   0.000000
    8       14.395331   0.000000
 
  0.4500000E+00  0.5000000E-01  0.5000000E-01  0.8000000E-02
    1        1.340372   1.000000
    2        2.303185   1.000000
    3        6.232388   1.000000
    4        6.630131   1.000000
    5        8.501659   0.999841
    6       10.706386   0.000000
    7       13.538537   0.000000
    8       14.606132   0.000000
 
 -0.5000000E-01  0.5000000E-01  0.5000000E-01  0.4000000E-02
    1       -4.575838   1.000000
    2        5.775678   1.000000
    3        6.367611   1.000000
    4        8.194750   1.000000
    5       11.221332   0.000000
    6       15.771724   0.000000
    7       17.915599   0.000000
    8       17.965112   0.000000
 
  0.1500000E+00  0.1500000E+00  0.5000000E-01  0.8000000E-02
    1       -2.377170   1.000000
    2        4.763082   1.000000
    3        7.860320   1.000000
    4        8.714061   0.982025
    5        9.856767   0.000000
    6       11.055850   0.000000
    7       13.952010   0.000000
    8       14.148407   0.000000
 
  0.2500000E+00  0.1500000E+00  0.5000000E-01  0.1600000E-01
    1       -0.725691   1.000000
    2        4.899607   1.000000
    3        5.812359   1.000000
    4        6.722563   1.000000
    5        9.734733   0.000000
    6       12.375581   0.000000
    7       12.593637   0.000000
    8       13.799945   0.000000
 
  0.3500000E+00  0.1500000E+00  0.5000000E-01  0.1600000E-01
    1        1.281793   1.000000
    2        2.814811   1.000000
    3        5.005212   1.000000
    4        6.272319   1.000000
    5        9.638752   0.000004
    6       11.749927   0.000000
    7       12.797441   0.000000
    8       15.468532   0.000000
 
  0.4500000E+00  0.1500000E+00  0.5000000E-01  0.1600000E-01
    1        0.234403   1.000000
    2        3.518401   1.000000
    3        4.533391   1.000000
    4        7.311863   1.000000
    5        9.128301   0.202811
    6       12.249313   0.000000
    7       13.360486   0.000000
    8       15.273824   0.000000
 
 -0.4500000E+00  0.1500000E+00  0.5000000E-01  0.1600000E-01
    1       -1.637987   1.000000
    2        3.152025   1.000000
    3        7.047180   1.000000
    4        7.931477   1.000000
    5        9.871744   0.000000
    6       13.016045   0.000000
    7       13.084532   0.000000
    8       14.899592   0.000000
 
 -0.3500000E+00  0.1500000E+00  0.5000000E-01  0.1600000E-01
    1       -3.040903   1.000000
    2        3.006477   1.000000
    3        7.485016   1.000000
    4       10.126685   0.000000
    5       11.399224   0.000000
    6       11.946417   0.000000
    7       14.158443   0.000000
    8       15.787896   0.000000
 
 -0.2500000E+00  0.1500000E+00  0.5000000E-01  0.8000000E-02
    1       -3.940571   1.000000
    2        3.325857   1.000000
    3        7.249823   1.000000
    4        9.309799   0.017215
    5       13.241300   0.000000
    6       14.000693   0.000000
    7       14.819078   0.000000
    8       16.074680   0.000000
 
 -0.1500000E+00  0.1500000E+00  0.5000000E-01  0.8000000E-02
    1       -4.325343   1.000000
    2        4.087909   1.000000
    3        6.440495   1.000000
    4        9.248350   0.046431
    5       12.656604   0.000000
    6       14.176002   0.000000
    7       16.901439   0.000000
    8       17.380277   0.000000
 
 -0.5000000E-01  0.1500000E+00  0.5000000E-01  0.8000000E-02
    1       -4.190865   1.000000
    2        4.960210   1.000000
    3        5.920912   1.000000
    4        9.626960   0.000007
    5       12.374076   0.000000
    6       13.917741   0.000000
    7       14.991660   0.000000
    8       16.639185   0.000000
 
  0.2500000E+00  0.2500000E+00  0.5000000E-01  0.8000000E-02
    1        1.208490   1.000000
    2        3.644176   1.000000
    3        3.949183   1.000000
    4        6.164615   1.000000
    5       10.352038   0.000000
    6       11.536637   0.000000
    7       13.686071   0.000000
    8       14.365746   0.000000
 
  0.3500000E+00  0.2500000E+00  0.5000000E-01  0.1600000E-01
    1        1.176127   1.000000
    2        2.323665   1.000000
    3        4.122264   1.000000
    4        7.219431   1.000000
    5        9.856014   0.000000
    6       11.258361   0.000000
    7       14.832674   0.000000
    8       15.881279   0.000000
 
  0.4500000E+00  0.2500000E+00  0.5000000E-01  0.1600000E-01
    1       -0.780415   1.000000
    2        1.631314   1.000000
    3        6.825616   1.000000
    4        8.263771   1.000000
    5        9.805851   0.000000
    6       11.771204   0.000000
    7       13.921141   0.000000
    8       15.763139   0.000000
 
 -0.4500000E+00  0.2500000E+00  0.5000000E-01  0.1600000E-01
    1       -2.296773   1.000000
    2        1.356065   1.000000
    3        8.094810   1.000000
    4       10.002398   0.000000
    5       11.207083   0.000000
    6       11.943610   0.000000
    7       13.003223   0.000000
    8       15.002200   0.000000
 
 -0.3500000E+00  0.2500000E+00  0.5000000E-01  0.8000000E-02
    1       -3.316764   1.000000
    2        1.567742   1.000000
    3        7.811204   1.000000
    4       10.035071   0.000000
    5       12.043286   0.000000
    6       14.207897   0.000000
    7       14.931937   0.000000
    8       14.977364   0.000000
 
 -0.2500000E+00  0.2500000E+00  0.5000000E-01  0.8000000E-02
    1       -3.825185   1.000000
    2        2.260914   1.000000
    3        6.892449   1.000000
    4        9.989075   0.000000
    5       12.517315   0.000000
    6       14.956332   0.000000
    7       15.543010   0.000000
    8       17.058643   0.000000
 
 -0.1500000E+00  0.2500000E+00  0.5000000E-01  0.1600000E-01
    1       -3.815915   1.000000
    2        3.396137   1.000000
    3        5.957141   1.000000
    4       10.633844   0.000000
    5       12.511095   0.000000
    6       13.937713   0.000000
    7       14.434721   0.000000
    8       16.248140   0.000000
 
 -0.5000000E-01  0.2500000E+00  0.5000000E-01  0.8000000E-02
    1       -3.289931   1.000000
    2        4.605544   1.000000
    3        5.738193   1.000000
    4       10.144013   0.000000
    5       12.238712   0.000000
    6       12.557098   0.000000
    7       13.882035   0.000000
    8       14.672370   0.000000
 
  0.3500000E+00  0.3500000E+00  0.5000000E-01  0.8000000E-02
    1        0.301291   1.000000
    2        0.327104   1.000000
    3        6.734036   1.000000
    4        8.422976   0.999984
    5       10.005528   0.000000
    6       11.089871   0.000000
    7       14.567608   0.000000
    8       15.366087   0.000000
 
  0.4500000E+00  0.3500000E+00  0.5000000E-01  0.1600000E-01
    1       -1.310897   1.000000
    2       -0.089162   1.000000
    3        8.823997   0.906605
    4        9.547508   0.000074
    5       10.874178   0.000000
    6       12.330649   0.000000
    7       12.696977   0.000000
    8       13.872762   0.000000
 
 -0.4500000E+00  0.3500000E+00  0.5000000E-01  0.8000000E-02
    1       -2.447762   1.000000
    2        0.004654   1.000000
    3        8.593226   0.998421
    4       10.706681   0.000000
    5       10.951675   0.000000
    6       13.126639   0.000000
    7       14.434730   0.000000
    8       14.579824   0.000000
 
 -0.3500000E+00  0.3500000E+00  0.5000000E-01  0.8000000E-02
    1       -3.077520   1.000000
    2        0.596763   1.000000
    3        7.583614   1.000000
    4       10.779848   0.000000
    5       10.994782   0.000000
    6       14.155661   0.000000
    7       16.711962   0.000000
    8       17.035222   0.000000
 
 -0.2500000E+00  0.3500000E+00  0.5000000E-01  0.1600000E-01
    1       -3.192909   1.000000
    2        1.673072   1.000000
    3        6.504538   1.000000
    4       10.939919   0.000000
    5       11.421995   0.000000
    6       13.636622   0.000000
    7       15.542338   0.000000
    8       16.345276   0.000000
 
 -0.1500000E+00  0.3500000E+00  0.5000000E-01  0.1600000E-01
    1       -2.793334   1.000000
    2        3.178149   1.000000
    3        5.810364   1.000000
    4        9.692340   0.000001
    5       11.430668   0.000000
    6       13.131069   0.000000
    7       13.847643   0.000000
    8       15.672373   0.000000
 
 -0.5000000E-01  0.3500000E+00  0.5000000E-01  0.8000000E-02
    1       -1.884837   1.000000
    2        4.671369   1.000000
    3        5.922532   1.000000
    4        7.172690   1.000000
    5       10.663889   0.000000
    6       12.949732   0.000000
    7       13.269662   0.000000
    8       14.146456   0.000000
 
  0.4500000E+00  0.4500000E+00  0.5000000E-01  0.4000000E-02
    1       -1.338390   1.000000
    2       -1.338387   1.000000
    3        9.574160   0.000034
    4        9.574167   0.000034
    5       11.949664   0.000000
    6       11.949672   0.000000
    7       14.370394   0.000000
    8       14.370418   0.000000
 
 -0.4500000E+00  0.4500000E+00  0.5000000E-01  0.8000000E-02
    1       -2.087155   1.000000
    2       -0.859421   1.000000
    3        8.501787   0.999840
    4        9.644706   0.000004
    5       11.733184   0.000000
    6       12.865546   0.000000
    7       16.658724   0.000000
    8       16.750188   0.000000
 
 -0.3500000E+00  0.4500000E+00  0.5000000E-01  0.1600000E-01
    1       -2.325282   1.000000
    2        0.120118   1.000000
    3        7.304805   1.000000
    4        9.565946   0.000043
    5       12.022478   0.000000
    6       13.388551   0.000000
    7       15.031394   0.000000
    8       15.584496   0.000000
 
 -0.2500000E+00  0.4500000E+00  0.5000000E-01  0.1600000E-01
    1       -2.051603   1.000000
    2        1.576339   1.000000
    3        6.439793   1.000000
    4        9.149657   0.162895
    5       10.212105   0.000000
    6       13.376517   0.000000
    7       13.937298   0.000000
    8       16.816418   0.000000
 
 -0.1500000E+00  0.4500000E+00  0.5000000E-01  0.1600000E-01
    1       -1.272023   1.000000
    2        3.415309   1.000000
    3        5.937922   1.000000
    4        6.715927   1.000000
    5       10.116428   0.000000
    6       12.122586   0.000000
    7       14.055084   0.000000
    8       15.435074   0.000000
 
 -0.5000000E-01  0.4500000E+00  0.5000000E-01  0.8000000E-02
    1       -0.008875   1.000000
    2        3.773454   1.000000
    3        5.703623   1.000000
    4        6.463276   1.000000
    5        9.039884   0.418233
    6       11.332859   0.000000
    7       12.583677   0.000000
    8       15.588632   0.000000
 
 -0.4500000E+00 -0.4500000E+00  0.5000000E-01  0.8000000E-02
    1       -1.220559   1.000000
    2       -1.215829   1.000000
    3        8.329903   0.999999
    4        8.339188   0.999999
    5       12.322711   0.000000
    6       13.444968   0.000000
    7       14.480925   0.000000
    8       15.416540   0.000000
 
 -0.3500000E+00 -0.4500000E+00  0.5000000E-01  0.1600000E-01
    1       -1.069561   1.000000
    2        0.145136   1.000000
    3        7.308361   1.000000
    4        8.322965   0.999999
    5        9.566786   0.000042
    6       13.147627   0.000000
    7       14.820948   0.000000
    8       16.042575   0.000000
 
 -0.2500000E+00 -0.4500000E+00  0.5000000E-01  0.1600000E-01
    1       -0.419940   1.000000
    2        1.960199   1.000000
    3        5.985187   1.000000
    4        7.025516   1.000000
    5        9.065269   0.349778
    6       11.537501   0.000000
    7       15.537020   0.000000
    8       16.486838   0.000000
 
 -0.1500000E+00 -0.4500000E+00  0.5000000E-01  0.1600000E-01
    1        0.693243   1.000000
    2        3.247219   1.000000
    3        4.549285   1.000000
    4        6.792316   1.000000
    5        8.994158   0.546535
    6       11.141581   0.000000
    7       12.589049   0.000000
    8       16.862666   0.000000
 
 -0.5000000E-01 -0.4500000E+00  0.5000000E-01  0.8000000E-02
    1        1.046989   1.000000
    2        2.597607   1.000000
    3        6.661567   1.000000
    4        7.128501   1.000000
    5        7.819810   1.000000
    6       10.430242   0.000000
    7       12.406020   0.000000
    8       15.700692   0.000000
 
 -0.3500000E+00 -0.3500000E+00  0.5000000E-01  0.8000000E-02
    1        0.636462   1.000000
    2        0.692203   1.000000
    3        5.920064   1.000000
    4        7.720717   1.000000
    5        8.173734   1.000000
    6       11.365140   0.000000
    7       16.429297   0.000000
    8       17.155385   0.000000
 
 -0.2500000E+00 -0.3500000E+00  0.5000000E-01  0.1600000E-01
    1        1.579363   1.000000
    2        2.616808   1.000000
    3        3.657572   1.000000
    4        7.482935   1.000000
    5        8.532776   0.999637
    6       10.379894   0.000000
    7       14.284585   0.000000
    8       16.338076   0.000000
 
 -0.1500000E+00 -0.3500000E+00  0.5000000E-01  0.1600000E-01
    1        0.753115   1.000000
    2        3.351374   1.000000
    3        5.577364   1.000000
    4        7.305316   1.000000
    5        8.465211   0.999943
    6       10.826684   0.000000
    7       11.686992   0.000000
    8       15.423322   0.000000
 
 -0.5000000E-01 -0.3500000E+00  0.5000000E-01  0.8000000E-02
    1       -0.968695   1.000000
    2        5.168033   1.000000
    3        7.005520   1.000000
    4        7.334215   1.000000
    5        8.338280   0.999999
    6       10.858815   0.000000
    7       12.525837   0.000000
    8       14.527984   0.000000
 
 -0.2500000E+00 -0.2500000E+00  0.5000000E-01  0.8000000E-02
    1        0.646780   1.000000
    2        4.275104   1.000000
    3        4.466189   1.000000
    4        7.391339   1.000000
    5        8.896583   0.790130
    6       10.250709   0.000000
    7       12.954433   0.000000
    8       13.854711   0.000000
 
 -0.1500000E+00 -0.2500000E+00  0.5000000E-01  0.1600000E-01
    1       -1.212441   1.000000
    2        6.014357   1.000000
    3        6.887119   1.000000
    4        7.366160   1.000000
    5        8.915686   0.749143
    6       11.210196   0.000000
    7       11.597738   0.000000
    8       13.009960   0.000000
 
 -0.5000000E-01 -0.2500000E+00  0.5000000E-01  0.8000000E-02
    1       -2.624823   1.000000
    2        6.296682   1.000000
    3        7.148207   1.000000
    4        8.593033   0.998428
    5       10.331817   0.000000
    6       11.404233   0.000000
    7       12.382833   0.000000
    8       14.191359   0.000000
 
 -0.1500000E+00 -0.1500000E+00  0.5000000E-01  0.8000000E-02
    1       -2.748698   1.000000
    2        6.553191   1.000000
    3        7.857434   1.000000
    4        9.102219   0.258753
    5       10.005705   0.000000
    6       10.555981   0.000000
    7       12.712437   0.000000
    8       13.207726   0.000000
 
 -0.5000000E-01 -0.1500000E+00  0.5000000E-01  0.8000000E-02
    1       -3.788430   1.000000
    2        6.461440   1.000000
    3        6.996808   1.000000
    4        8.819496   0.911805
    5       11.981469   0.000000
    6       12.439386   0.000000
    7       12.806834   0.000000
    8       15.166530   0.000000
 
 -0.5000000E-01 -0.5000000E-01  0.5000000E-01  0.2000000E-02
    1       -4.441382   1.000000
    2        6.798259   1.000000
    3        6.798276   1.000000
    4        7.426878   1.000000
    5       11.040626   0.000000
    6       15.292110   0.000000
    7       15.554143   0.000000
    8       17.275570   0.000000
 
  0.1500000E+00  0.1500000E+00  0.1500000E+00  0.8000000E-02
    1       -1.760233   1.000000
    2        3.052894   1.000000
    3        7.770155   1.000000
    4        8.216888   1.000000
    5       10.096866   0.000000
    6       11.656341   0.000000
    7       14.525761   0.000000
    8       14.816683   0.000000
 
  0.2500000E+00  0.1500000E+00  0.1500000E+00  0.1600000E-01
    1        0.000024   1.000000
    2        3.487142   1.000000
    3        5.231613   1.000000
    4        6.282149   1.000000
    5       10.591458   0.000000
    6       13.435201   0.000000
    7       13.773403   0.000000
    8       14.389485   0.000000
 
  0.3500000E+00  0.1500000E+00  0.1500000E+00  0.8000000E-02
    1        1.811690   1.000000
    2        2.706647   1.000000
    3        4.428472   1.000000
    4        5.178206   1.000000
    5       10.996962   0.000000
    6       13.016150   0.000000
    7       14.063030   0.000000
    8       14.413785   0.000000
 
 -0.1500000E+00  0.1500000E+00  0.1500000E+00  0.4000000E-02
    1       -4.075177   1.000000
    2        3.882077   1.000000
    3        5.045112   1.000000
    4       10.871769   0.000000
    5       12.547481   0.000000
    6       13.500734   0.000000
    7       16.836668   0.000000
    8       17.070208   0.000000
 
  0.2500000E+00  0.2500000E+00  0.1500000E+00  0.8000000E-02
    1        1.938409   1.000000
    2        3.164367   1.000000
    3        3.723732   1.000000
    4        4.864325   1.000000
    5       11.834972   0.000000
    6       13.244991   0.000000
    7       14.590526   0.000000
    8       14.628011   0.000000
 
  0.3500000E+00  0.2500000E+00  0.1500000E+00  0.1600000E-01
    1        0.957242   1.000000
    2        2.132890   1.000000
    3        4.973634   1.000000
    4        6.060228   1.000000
    5       11.544734   0.000000
    6       12.891970   0.000000
    7       14.222073   0.000000
    8       15.236409   0.000000
 
  0.4500000E+00  0.2500000E+00  0.1500000E+00  0.8000000E-02
    1       -0.900841   1.000000
    2        1.518777   1.000000
    3        7.668682   1.000000
    4        7.855000   1.000000
    5       10.733658   0.000000
    6       12.325144   0.000000
    7       13.155547   0.000000
    8       14.406035   0.000000
 
 -0.2500000E+00  0.2500000E+00  0.1500000E+00  0.8000000E-02
    1       -3.576428   1.000000
    2        2.436539   1.000000
    3        5.119307   1.000000
    4       10.822083   0.000000
    5       11.963687   0.000000
    6       15.402323   0.000000
    7       16.127399   0.000000
    8       16.763129   0.000000
 
 -0.1500000E+00  0.2500000E+00  0.1500000E+00  0.8000000E-02
    1       -3.442339   1.000000
    2        3.277302   1.000000
    3        4.547195   1.000000
    4       10.847794   0.000000
    5       12.066791   0.000000
    6       13.917278   0.000000
    7       15.097745   0.000000
    8       16.787064   0.000000
 
  0.3500000E+00  0.3500000E+00  0.1500000E+00  0.4000000E-02
    1        0.196223   1.000000
    2        0.196227   1.000000
    3        7.679009   1.000000
    4        7.679033   1.000000
    5       11.682257   0.000000
    6       11.682282   0.000000
    7       13.493510   0.000000
    8       13.493536   0.000000
 
 -0.3500000E+00  0.3500000E+00  0.1500000E+00  0.8000000E-02
    1       -2.831129   1.000000
    2        0.818817   1.000000
    3        5.774428   1.000000
    4        9.245844   0.048178
    5       12.799340   0.000000
    6       15.380213   0.000000
    7       16.296476   0.000000
    8       17.207727   0.000000
 
 -0.2500000E+00  0.3500000E+00  0.1500000E+00  0.1600000E-01
    1       -2.822250   1.000000
    2        1.959738   1.000000
    3        4.697423   1.000000
    4        9.238558   0.053562
    5       12.187971   0.000000
    6       14.361873   0.000000
    7       16.618186   0.000000
    8       17.334044   0.000000
 
 -0.1500000E+00  0.3500000E+00  0.1500000E+00  0.8000000E-02
    1       -2.299654   1.000000
    2        3.162158   1.000000
    3        4.489410   1.000000
    4        8.957272   0.647187
    5       10.027670   0.000000
    6       14.612385   0.000000
    7       15.104505   0.000000
    8       15.700269   0.000000
 
 -0.4500000E+00  0.4500000E+00  0.1500000E+00  0.8000000E-02
    1       -1.844022   1.000000
    2       -0.622696   1.000000
    3        6.700159   1.000000
    4        7.861583   1.000000
    5       13.657132   0.000000
    6       14.550495   0.000000
    7       16.307153   0.000000
    8       16.579762   0.000000
 
 -0.3500000E+00  0.4500000E+00  0.1500000E+00  0.1600000E-01
    1       -1.959241   1.000000
    2        0.460450   1.000000
    3        5.459875   1.000000
    4        7.764965   1.000000
    5       12.005565   0.000000
    6       15.066827   0.000000
    7       16.548312   0.000000
    8       17.457135   0.000000
 
 -0.2500000E+00  0.4500000E+00  0.1500000E+00  0.1600000E-01
    1       -1.563243   1.000000
    2        1.975998   1.000000
    3        4.727674   1.000000
    4        7.939435   1.000000
    5        9.069511   0.338738
    6       14.679489   0.000000
    7       16.173285   0.000000
    8       17.170308   0.000000
 
 -0.1500000E+00  0.4500000E+00  0.1500000E+00  0.8000000E-02
    1       -0.665796   1.000000
    2        3.472663   1.000000
    3        4.882188   1.000000
    4        6.028825   1.000000
    5        8.950418   0.665021
    6       12.785601   0.000000
    7       14.041448   0.000000
    8       17.163183   0.000000
 
 -0.4500000E+00 -0.4500000E+00  0.1500000E+00  0.8000000E-02
    1       -0.865379   1.000000
    2       -0.855477   1.000000
    3        6.485767   1.000000
    4        6.508795   1.000000
    5       11.929459   0.000000
    6       15.587884   0.000000
    7       16.496793   0.000000
    8       16.811349   0.000000
 
 -0.3500000E+00 -0.4500000E+00  0.1500000E+00  0.1600000E-01
    1       -0.591040   1.000000
    2        0.604479   1.000000
    3        5.584502   1.000000
    4        6.696994   1.000000
    5        8.732516   0.975409
    6       14.542443   0.000000
    7       17.124539   0.000000
    8       18.161797   0.000000
 
 -0.2500000E+00 -0.4500000E+00  0.1500000E+00  0.1600000E-01
    1        0.174022   1.000000
    2        2.457277   1.000000
    3        5.071499   1.000000
    4        5.781404   1.000000
    5        7.586454   1.000000
    6       12.852175   0.000000
    7       15.354905   0.000000
    8       18.056053   0.000000
 
 -0.1500000E+00 -0.4500000E+00  0.1500000E+00  0.8000000E-02
    1        1.342888   1.000000
    2        2.904072   1.000000
    3        4.779267   1.000000
    4        5.706615   1.000000
    5        8.453225   0.999960
    6       11.404035   0.000000
    7       12.489769   0.000000
    8       17.295466   0.000000
 
 -0.3500000E+00 -0.3500000E+00  0.1500000E+00  0.8000000E-02
    1        1.185429   1.000000
    2        1.282631   1.000000
    3        5.249786   1.000000
    4        6.217841   1.000000
    5        6.585240   1.000000
    6       12.785184   0.000000
    7       16.856739   0.000000
    8       17.355425   0.000000
 
 -0.2500000E+00 -0.3500000E+00  0.1500000E+00  0.1600000E-01
    1        1.978810   1.000000
    2        2.872799   1.000000
    3        3.880064   1.000000
    4        6.233560   1.000000
    5        7.297185   1.000000
    6       11.462921   0.000000
    7       13.849637   0.000000
    8       15.965713   0.000000
 
 -0.1500000E+00 -0.3500000E+00  0.1500000E+00  0.8000000E-02
    1        0.415680   1.000000
    2        4.144213   1.000000
    3        6.011142   1.000000
    4        6.846879   1.000000
    5        8.256363   1.000000
    6       10.653452   0.000000
    7       11.467622   0.000000
    8       14.518817   0.000000
 
 -0.2500000E+00 -0.2500000E+00  0.1500000E+00  0.8000000E-02
    1        0.300962   1.000000
    2        5.066188   1.000000
    3        5.208076   1.000000
    4        7.344486   1.000000
    5        7.568768   1.000000
    6       10.634096   0.000000
    7       12.513873   0.000000
    8       13.257317   0.000000
 
 -0.1500000E+00 -0.2500000E+00  0.1500000E+00  0.8000000E-02
    1       -1.457606   1.000000
    2        6.942101   1.000000
    3        7.778723   1.000000
    4        7.833331   1.000000
    5        8.288699   1.000000
    6       10.444299   0.000000
    7       11.369260   0.000000
    8       12.189070   0.000000
 
 -0.1500000E+00 -0.1500000E+00  0.1500000E+00  0.2000000E-02
    1       -2.872736   1.000000
    2        7.835634   1.000000
    3        7.835655   1.000000
    4        8.784129   0.945427
    5       10.175847   0.000000
    6       10.327283   0.000000
    7       12.627043   0.000000
    8       12.759646   0.000000
 
  0.2500000E+00  0.2500000E+00  0.2500000E+00  0.2000000E-02
    1        2.664260   1.000000
    2        2.664279   1.000000
    3        3.961179   1.000000
    4        3.961184   1.000000
    5       13.222901   0.000000
    6       13.222923   0.000000
    7       15.092091   0.000000
    8       15.092108   0.000000
 
 -0.2500000E+00  0.2500000E+00  0.2500000E+00  0.4000000E-02
    1       -3.079768   1.000000
    2        2.420285   1.000000
    3        3.767192   1.000000
    4        9.065296   0.349708
    5       13.612740   0.000000
    6       15.675556   0.000000
    7       16.532926   0.000000
    8       16.653170   0.000000
 
 -0.3500000E+00  0.3500000E+00  0.2500000E+00  0.8000000E-02
    1       -2.339874   1.000000
    2        1.223072   1.000000
    3        4.011338   1.000000
    4        7.449504   1.000000
    5       14.363337   0.000000
    6       15.216732   0.000000
    7       16.668741   0.000000
    8       18.847803   0.000000
 
 -0.2500000E+00  0.3500000E+00  0.2500000E+00  0.8000000E-02
    1       -2.207209   1.000000
    2        2.054822   1.000000
    3        3.444374   1.000000
    4        7.556956   1.000000
    5       11.834111   0.000000
    6       16.132393   0.000000
    7       17.476623   0.000000
    8       18.179296   0.000000
 
 -0.4500000E+00  0.4500000E+00  0.2500000E+00  0.8000000E-02
    1       -1.362018   1.000000
    2       -0.159947   1.000000
    3        4.892417   1.000000
    4        6.054552   1.000000
    5       14.661783   0.000000
    6       14.894807   0.000000
    7       17.233574   0.000000
    8       18.088380   0.000000
 
 -0.3500000E+00  0.4500000E+00  0.2500000E+00  0.1600000E-01
    1       -1.353839   1.000000
    2        0.984514   1.000000
    3        3.793225   1.000000
    4        6.059941   1.000000
    5       11.539592   0.000000
    6       17.033881   0.000000
    7       17.933969   0.000000
    8       19.307131   0.000000
 
 -0.2500000E+00  0.4500000E+00  0.2500000E+00  0.8000000E-02
    1       -0.837258   1.000000
    2        2.182130   1.000000
    3        3.596180   1.000000
    4        6.480122   1.000000
    5        8.486649   0.999895
    6       15.851600   0.000000
    7       17.205656   0.000000
    8       18.218451   0.000000
 
 -0.4500000E+00 -0.4500000E+00  0.2500000E+00  0.8000000E-02
    1       -0.282675   1.000000
    2       -0.267622   1.000000
    3        4.777318   1.000000
    4        4.796095   1.000000
    5       11.434588   0.000000
    6       17.168143   0.000000
    7       18.630117   0.000000
    8       18.937650   0.000000
 
 -0.3500000E+00 -0.4500000E+00  0.2500000E+00  0.1600000E-01
    1        0.113830   1.000000
    2        1.245087   1.000000
    3        4.047606   1.000000
    4        5.138936   1.000000
    5        8.227709   1.000000
    6       16.110044   0.000000
    7       18.442600   0.000000
    8       19.220345   0.000000
 
 -0.2500000E+00 -0.4500000E+00  0.2500000E+00  0.8000000E-02
    1        0.986707   1.000000
    2        2.745930   1.000000
    3        4.226124   1.000000
    4        5.233809   1.000000
    5        6.221311   1.000000
    6       14.185251   0.000000
    7       15.458057   0.000000
    8       18.178696   0.000000
 
 -0.3500000E+00 -0.3500000E+00  0.2500000E+00  0.8000000E-02
    1        1.886162   1.000000
    2        2.057761   1.000000
    3        4.546247   1.000000
    4        4.811808   1.000000
    5        5.555773   1.000000
    6       14.482498   0.000000
    7       16.506883   0.000000
    8       17.162726   0.000000
 
 -0.2500000E+00 -0.3500000E+00  0.2500000E+00  0.8000000E-02
    1        2.058218   1.000000
    2        3.508291   1.000000
    3        4.335527   1.000000
    4        5.297390   1.000000
    5        6.038824   1.000000
    6       12.898314   0.000000
    7       13.835315   0.000000
    8       15.095169   0.000000
 
 -0.2500000E+00 -0.2500000E+00  0.2500000E+00  0.2000000E-02
    1        0.184478   1.000000
    2        5.691222   1.000000
    3        5.873099   1.000000
    4        6.707245   1.000000
    5        6.707257   1.000000
    6       11.894260   0.000000
    7       12.374337   0.000000
    8       12.374353   0.000000
 