unknown system                          
           1
    -2.450000    2.450000    1.274000
     2.450000   -2.450000    1.274000
     2.450000    2.450000   -1.274000
   Si
   2
Direct configuration=     1
   0.25000000  0.75000000  0.50000000
   0.00000000  0.00000000  0.00000000
unknown system                          
           1
    -2.441842    2.441842    1.295718
     2.441842   -2.441842    1.295718
     2.441842    2.441842   -1.295718
   Si
   2
Direct configuration=     2
   0.25000000  0.75000000  0.50000000
  -0.00000000  0.00000000 -0.00000000
unknown system                          
           1
    -2.437092    2.437092    1.308366
     2.437092   -2.437092    1.308366
     2.437092    2.437092   -1.308366
   Si
   2
Direct configuration=     3
   0.25000000  0.75000000  0.50000000
  -0.00000000  0.00000000 -0.00000000
unknown system                          
           1
    -2.427590    2.427590    1.333661
     2.427590   -2.427590    1.333661
     2.427590    2.427590   -1.333661
   Si
   2
Direct configuration=     4
   0.25000000  0.75000000  0.50000000
  -0.00000000  0.00000000 -0.00000000
unknown system                          
           1
    -2.402984    2.402984    1.344729
     2.402984   -2.402984    1.344729
     2.402984    2.402984   -1.344729
   Si
   2
Direct configuration=     5
   0.25000000  0.75000000  0.50000000
  -0.00000000  0.00000000 -0.00000000
unknown system                          
           1
    -2.384513    2.384513    1.353037
     2.384513   -2.384513    1.353037
     2.384513    2.384513   -1.353037
   Si
   2
Direct configuration=     6
   0.25000000  0.75000000  0.50000000
  -0.00000000  0.00000000 -0.00000000
unknown system                          
           1
    -2.392828    2.392828    1.349297
     2.392828   -2.392828    1.349297
     2.392828    2.392828   -1.349297
   Si
   2
Direct configuration=     7
   0.25000000  0.75000000  0.50000000
  -0.00000000  0.00000000 -0.00000000
unknown system                          
           1
    -2.400016    2.400016    1.346064
     2.400016   -2.400016    1.346064
     2.400016    2.400016   -1.346064
   Si
   2
Direct configuration=     8
   0.25000000  0.75000000  0.50000000
  -0.00000000  0.00000000 -0.00000000
unknown system                          
           1
    -2.396968    2.396968    1.347435
     2.396968   -2.396968    1.347435
     2.396968    2.396968   -1.347435
   Si
   2
Direct configuration=     9
   0.25000000  0.75000000  0.50000000
  -0.00000000  0.00000000 -0.00000000
unknown system                          
           1
    -2.394535    2.394535    1.348530
     2.394535   -2.394535    1.348530
     2.394535    2.394535   -1.348530
   Si
   2
Direct configuration=    10
   0.25000000  0.75000000  0.50000000
  -0.00000000  0.00000000 -0.00000000
unknown system                          
           1
    -2.393788    2.393788    1.348866
     2.393788   -2.393788    1.348866
     2.393788    2.393788   -1.348866
   Si
   2
Direct configuration=    11
   0.25000000  0.75000000  0.50000000
  -0.00000000  0.00000000 -0.00000000
unknown system                          
           1
    -2.393250    2.393250    1.349108
     2.393250   -2.393250    1.349108
     2.393250    2.393250   -1.349108
   Si
   2
Direct configuration=    12
   0.25000000  0.75000000  0.50000000
  -0.00000000  0.00000000 -0.00000000
unknown system                          
           1
    -2.393039    2.393039    1.349202
     2.393039   -2.393039    1.349202
     2.393039    2.393039   -1.349202
   Si
   2
Direct configuration=    13
   0.25000000  0.75000000  0.50000000
  -0.00000000  0.00000000 -0.00000000
unknown system                          
           1
    -2.392934    2.392934    1.349250
     2.392934   -2.392934    1.349250
     2.392934    2.392934   -1.349250
   Si
   2
Direct configuration=    14
   0.25000000  0.75000000  0.50000000
  -0.00000000  0.00000000 -0.00000000
unknown system                          
           1
    -2.392881    2.392881    1.349274
     2.392881   -2.392881    1.349274
     2.392881    2.392881   -1.349274
   Si
   2
Direct configuration=    15
   0.25000000  0.75000000  0.50000000
  -0.00000000  0.00000000 -0.00000000
