unknown system                          
   1.00000000000000     
     0.000000    2.715000    2.715000
     2.715000    0.000000    2.715000
     2.715000    2.715000    0.000000
   Si
     2
Direct
  0.500000  0.500000  0.500000
  0.750000  0.750000  0.750000
 
   28   28   28
 0.85633     0.88368     0.96784      1.1156      1.3386      1.6528      2.0743      2.6134      3.2659      4.0068    
  4.7866      5.5323      6.1569      6.5745      6.7216      6.5745      6.1569      5.5324      4.7866      4.0068    
  3.2658      2.6133      2.0743      1.6528      1.3386      1.1156     0.96784     0.88367     0.88368     0.92985    
  1.0254      1.1772      1.3956      1.6930      2.0798      2.5587      3.1181      3.7280      4.3390      4.8870    
  5.3031      5.5283      5.5283      5.3031      4.8870      4.3390      3.7279      3.1180      2.5586      2.0798    
  1.6930      1.3956      1.1772      1.0254     0.92985     0.88368     0.96784      1.0254      1.1256      1.2752    
  1.4826      1.7567      2.1023      2.5161      2.9815      3.4671      3.9276      4.3104      4.5647      4.6540    
  4.5647      4.3104      3.9276      3.4671      2.9815      2.5161      2.1023      1.7567      1.4826      1.2752    
  1.1256      1.0254     0.96785     0.94907      1.1156      1.1772      1.2752      1.4156      1.6053      1.8491    
  2.1476      2.4929      2.8665      3.2384      3.5699      3.8205      3.9557      3.9557      3.8205      3.5699    
  3.2384      2.8665      2.4929      2.1476      1.8491      1.6052      1.4156      1.2752      1.1772      1.1156    
  1.0859      1.0859      1.3386      1.3956      1.4826      1.6053      1.7682      1.9735      2.2184      2.4929    
  2.7786      3.0491      3.2736      3.4227      3.4750      3.4227      3.2736      3.0491      2.7786      2.4929    
  2.2184      1.9735      1.7682      1.6052      1.4826      1.3956      1.3386      1.3067      1.2965      1.3067    
  1.6528      1.6930      1.7567      1.8491      1.9735      2.1301      2.3144      2.5161      2.7187      2.9008    
  3.0393      3.1143      3.1143      3.0393      2.9009      2.7187      2.5161      2.3143      2.1301      1.9735    
  1.8491      1.7567      1.6930      1.6528      1.6303      1.6206      1.6206      1.6303      2.0743      2.0798    
  2.1023      2.1476      2.2184      2.3144      2.4308      2.5587      2.6844      2.7916      2.8640      2.8897    
  2.8640      2.7916      2.6844      2.5586      2.4308      2.3144      2.2184      2.1476      2.1024      2.0798    
  2.0743      2.0786      2.0850      2.0879      2.0850      2.0786      2.6134      2.5587      2.5161      2.4929    
  2.4929      2.5161      2.5587      2.6134      2.6699      2.7167      2.7432      2.7432      2.7167      2.6699    
  2.6133      2.5586      2.5161      2.4930      2.4930      2.5161      2.5586      2.6133      2.6699      2.7167    
  2.7432      2.7432      2.7167      2.6699      3.2659      3.1181      2.9815      2.8665      2.7786      2.7187    
  2.6844      2.6699      2.6681      2.6710      2.6727      2.6710      2.6680      2.6699      2.6843      2.7188    
  2.7786      2.8666      2.9815      3.1180      3.2658      3.4100      3.5323      3.6148      3.6440      3.6148    
  3.5323      3.4100      4.0068      3.7280      3.4671      3.2384      3.0491      2.9008      2.7916      2.7167    
  2.6710      2.6495      2.6495      2.6710      2.7167      2.7915      2.9009      3.0491      3.2384      3.4671    
  3.7279      4.0068      4.2823      4.5271      4.7121      4.8119      4.8119      4.7121      4.5271      4.2823    
  4.7866      4.3390      3.9276      3.5699      3.2736      3.0393      2.8640      2.7432      2.6727      2.6495    
  2.6727      2.7432      2.8640      3.0393      3.2736      3.5700      3.9276      4.3390      4.7865      5.2417    
  5.6655      6.0136      6.2434      6.3237      6.2434      6.0136      5.6655      5.2417      5.5323      4.8870    
  4.3104      3.8205      3.4227      3.1143      2.8897      2.7432      2.6710      2.6710      2.7432      2.8897    
  3.1143      3.4227      3.8206      4.3104      4.8870      5.5323      6.2118      6.8745      7.4571      7.8934    
  8.1276      8.1276      7.8934      7.4571      6.8745      6.2119      6.1569      5.3031      4.5647      3.9557    
  3.4750      3.1143      2.8640      2.7167      2.6680      2.7167      2.8640      3.1143      3.4750      3.9558    
  4.5648      5.3031      6.1568      7.0903      8.0431      8.9327      9.6643      10.148      10.317      10.148    
  9.6643      8.9327      8.0431      7.0904      6.5745      5.5283      4.6540      3.9557      3.4227      3.0393    
  2.7916      2.6699      2.6699      2.7915      3.0393      3.4227      3.9558      4.6540      5.5283      6.5744    
  7.7631      9.0322      10.285      11.399      12.240      12.694      12.694      12.240      11.398      10.285    
  9.0322      7.7632      6.7216      5.5283      4.5647      3.8205      3.2736      2.9009      2.6844      2.6133    
  2.6843      2.9009      3.2736      3.8206      4.5648      5.5283      6.7214      8.1294      9.6993      11.333    
  12.886      14.184      15.053      15.358      15.053      14.184      12.886      11.333      9.6993      8.1295    
  6.5745      5.3031      4.3104      3.5699      3.0491      2.7187      2.5586      2.5586      2.7188      3.0491    
  3.5700      4.3104      5.3031      6.5744      8.1294      9.9354      11.907      13.900      15.709      17.086    
  17.827      17.827      17.086      15.709      13.900      11.907      9.9354      8.1294      6.1569      4.8870    
  3.9276      3.2384      2.7786      2.5161      2.4308      2.5161      2.7786      3.2384      3.9276      4.8870    
  6.1568      7.7631      9.6993      11.907      14.261      16.549      18.461      19.722      20.161      19.722    
  18.462      16.549      14.261      11.907      9.6993      7.7631      5.5324      4.3390      3.4671      2.8665    
  2.4929      2.3143      2.3144      2.4930      2.8666      3.4671      4.3390      5.5323      7.0903      9.0322    
  11.333      13.900      16.549      18.947      20.750      21.714      21.714      20.750      18.947      16.549    
  13.900      11.333      9.0321      7.0903      4.7866      3.7279      2.9815      2.4929      2.2184      2.1301    
  2.2184      2.4930      2.9815      3.7279      4.7865      6.2118      8.0431      10.285      12.886      15.709    
  18.461      20.750      22.258      22.783      22.258      20.750      18.461      15.709      12.886      10.285    
  8.0431      6.2119      4.0068      3.1180      2.5161      2.1476      1.9735      1.9735      2.1476      2.5161    
  3.1180      4.0068      5.2417      6.8745      8.9327      11.399      14.184      17.086      19.722      21.714    
  22.783      22.783      21.714      19.722      17.086      14.184      11.398      8.9326      6.8746      5.2417    
  3.2658      2.5586      2.1023      1.8491      1.7682      1.8491      2.1024      2.5586      3.2658      4.2823    
  5.6655      7.4571      9.6643      12.240      15.053      17.827      20.161      21.714      22.258      21.714    
  20.162      17.827      15.053      12.240      9.6643      7.4571      5.6656      4.2823      2.6133      2.0798    
  1.7567      1.6052      1.6052      1.7567      2.0798      2.6133      3.4100      4.5271      6.0136      7.8934    
  10.148      12.694      15.358      17.827      19.722      20.750      20.750      19.722      17.827      15.358    
  12.694      10.148      7.8934      6.0137      4.5271      3.4099      2.0743      1.6930      1.4826      1.4156    
  1.4826      1.6930      2.0743      2.6699      3.5323      4.7121      6.2434      8.1276      10.317      12.694    
  15.053      17.086      18.462      18.947      18.461      17.086      15.053      12.694      10.317      8.1277    
  6.2434      4.7121      3.5323      2.6699      1.6528      1.3956      1.2752      1.2752      1.3956      1.6528    
  2.0786      2.7167      3.6148      4.8119      6.3237      8.1276      10.148      12.240      14.184      15.709    
  16.549      16.549      15.709      14.184      12.240      10.148      8.1277      6.3238      4.8119      3.6148    
  2.7167      2.0786      1.3386      1.1772      1.1256      1.1772      1.3386      1.6303      2.0850      2.7432    
  3.6440      4.8119      6.2434      7.8934      9.6643      11.398      12.886      13.900      14.261      13.900    
  12.886      11.398      9.6643      7.8934      6.2434      4.8119      3.6439      2.7432      2.0850      1.6303    
  1.1156      1.0254      1.0254      1.1156      1.3067      1.6206      2.0879      2.7432      3.6148      4.7121    
  6.0136      7.4571      8.9327      10.285      11.333      11.907      11.907      11.333      10.285      8.9326    
  7.4571      6.0137      4.7121      3.6148      2.7432      2.0879      1.6206      1.3067     0.96784     0.92985    
 0.96785      1.0859      1.2965      1.6206      2.0850      2.7167      3.5323      4.5271      5.6655      6.8745    
  8.0431      9.0322      9.6993      9.9354      9.6993      9.0321      8.0431      6.8746      5.6656      4.5271    
  3.5323      2.7167      2.0850      1.6206      1.2965      1.0859     0.88367     0.88368     0.94907      1.0859    
  1.3067      1.6303      2.0786      2.6699      3.4100      4.2823      5.2417      6.2119      7.0904      7.7632    
  8.1295      8.1294      7.7631      7.0903      6.2119      5.2417      4.2823      3.4099      2.6699      2.0786    
  1.6303      1.3067      1.0859     0.94907     0.88368     0.92985      1.0254      1.1772      1.3956      1.6930    
  2.0798      2.5587      3.1181      3.7280      4.3390      4.8870      5.3031      5.5283      5.5283      5.3031    
  4.8870      4.3390      3.7279      3.1180      2.5586      2.0798      1.6930      1.3956      1.1772      1.0254    
 0.92985     0.88368     0.92985     0.98591      1.0833      1.2283      1.4293      1.6948      2.0297      2.4308    
  2.8821      3.3527      3.7989      4.1693      4.4154      4.5017      4.4154      4.1693      3.7989      3.3527    
  2.8821      2.4308      2.0297      1.6948      1.4293      1.2283      1.0833     0.98591     0.92986     0.91155    
  1.0254      1.0833      1.1750      1.3061      1.4831      1.7109      1.9905      2.3144      2.6649      3.0134    
  3.3237      3.5578      3.6839      3.6839      3.5578      3.3237      3.0134      2.6648      2.3144      1.9905    
  1.7110      1.4831      1.3061      1.1750      1.0833      1.0254     0.99742     0.99741      1.1772      1.2283    
  1.3061      1.4158      1.5620      1.7471      1.9690      2.2184      2.4780      2.7232      2.9263      3.0607    
  3.1078      3.0607      2.9263      2.7232      2.4779      2.2184      1.9690      1.7471      1.5620      1.4158    
  1.3061      1.2283      1.1772      1.1484      1.1391      1.1484      1.3956      1.4293      1.4831      1.5620    
  1.6695      1.8065      1.9690      2.1476      2.3269      2.4875      2.6091      2.6748      2.6748      2.6091    
  2.4875      2.3269      2.1476      1.9690      1.8065      1.6695      1.5619      1.4831      1.4293      1.3956    
  1.3767      1.3684      1.3684      1.3767      1.6930      1.6948      1.7109      1.7471      1.8065      1.8890    
  1.9905      2.1023      2.2122      2.3055      2.3683      2.3905      2.3684      2.3055      2.2122      2.1023    
  1.9905      1.8890      1.8065      1.7471      1.7110      1.6948      1.6930      1.6987      1.7054      1.7083    
  1.7054      1.6987      2.0798      2.0297      1.9905      1.9690      1.9690      1.9905      2.0297      2.0798    
  2.1312      2.1733      2.1970      2.1970      2.1733      2.1311      2.0798      2.0297      1.9905      1.9690    
  1.9690      1.9905      2.0297      2.0798      2.1311      2.1733      2.1970      2.1970      2.1733      2.1312    
  2.5587      2.4308      2.3144      2.2184      2.1476      2.1023      2.0798      2.0743      2.0786      2.0850    
  2.0879      2.0850      2.0786      2.0743      2.0798      2.1024      2.1476      2.2184      2.3144      2.4308    
  2.5586      2.6844      2.7916      2.8640      2.8897      2.8640      2.7916      2.6844      3.1181      2.8821    
  2.6649      2.4780      2.3269      2.2122      2.1312      2.0786      2.0484      2.0350      2.0350      2.0484    
  2.0786      2.1312      2.2122      2.3269      2.4780      2.6648      2.8820      3.1180      3.3543      3.5666    
  3.7281      3.8158      3.8158      3.7281      3.5665      3.3543      3.7280      3.3527      3.0134      2.7232    
  2.4875      2.3055      2.1733      2.0850      2.0350      2.0189      2.0350      2.0850      2.1733      2.3056    
  2.4875      2.7232      3.0133      3.3527      3.7279      4.1155      4.4816      4.7859      4.9884      5.0596    
  4.9884      4.7859      4.4816      4.1155      4.3390      3.7989      3.3237      2.9263      2.6091      2.3683    
  2.1970      2.0879      2.0350      2.0350      2.0879      2.1971      2.3684      2.6092      2.9263      3.3236    
  3.7988      4.3390      4.9170      5.4897      6.0006      6.3878      6.5973      6.5973      6.3878      6.0006    
  5.4897      4.9169      4.8870      4.1693      3.5578      3.0607      2.6748      2.3905      2.1970      2.0850    
  2.0484      2.0850      2.1971      2.3906      2.6749      3.0607      3.5577      4.1693      4.8870      5.6840    
  6.5109      7.2951      7.9490      8.3854      8.5390      8.3854      7.9490      7.2951      6.5108      5.6840    
  5.3031      4.4154      3.6839      3.1078      2.6748      2.3684      2.1733      2.0786      2.0786      2.1733    
  2.3684      2.6749      3.1079      3.6838      4.4153      5.3031      6.3268      7.4370      8.5501      9.5534    
  10.320      10.737      10.737      10.320      9.5533      8.5501      7.4369      6.3268      5.5283      4.5017    
  3.6839      3.0607      2.6091      2.3055      2.1311      2.0743      2.1312      2.3056      2.6092      3.0607    
  3.6838      4.5016      5.5283      6.7569      8.1471      9.6150      11.030      12.226      13.032      13.318    
  13.033      12.226      11.030      9.6149      8.1470      6.7568      5.5283      4.4154      3.5578      2.9263    
  2.4875      2.2122      2.0798      2.0798      2.2122      2.4875      2.9263      3.5577      4.4153      5.5283    
  6.9084      8.5341      10.334      12.177      13.868      15.180      15.901      15.901      15.180      13.868    
  12.177      10.334      8.5340      6.9083      5.3031      4.1693      3.3237      2.7232      2.3269      2.1023    
  2.0297      2.1024      2.3269      2.7232      3.3236      4.1693      5.3031      6.7569      8.5341      10.589    
  12.807      14.991      16.871      18.157      18.615      18.157      16.872      14.991      12.807      10.589    
  8.5340      6.7568      4.8870      3.7989      3.0134      2.4779      2.1476      1.9905      1.9905      2.1476    
  2.4780      3.0133      3.7988      4.8870      6.3268      8.1471      10.334      12.807      15.391      17.809    
  19.714      20.766      20.766      19.714      17.810      15.391      12.807      10.334      8.1470      6.3268    
  4.3390      3.3527      2.6648      2.2184      1.9690      1.8890      1.9690      2.2184      2.6648      3.3527    
  4.3390      5.6840      7.4370      9.6150      12.177      14.991      17.809      20.270      21.958      22.559    
  21.958      20.270      17.809      14.991      12.177      9.6149      7.4369      5.6841      3.7279      2.8821    
  2.3144      1.9690      1.8065      1.8065      1.9690      2.3144      2.8820      3.7279      4.9170      6.5109    
  8.5501      11.030      13.868      16.871      19.714      21.958      23.199      23.199      21.958      19.714    
  16.871      13.868      11.030      8.5501      6.5109      4.9170      3.1180      2.4308      1.9905      1.7471    
  1.6695      1.7471      1.9905      2.4308      3.1180      4.1155      5.4897      7.2951      9.5534      12.226    
  15.180      18.157      20.766      22.559      23.199      22.559      20.766      18.157      15.180      12.226    
  9.5534      7.2951      5.4897      4.1155      2.5586      2.0297      1.7110      1.5620      1.5619      1.7110    
  2.0297      2.5586      3.3543      4.4816      6.0006      7.9490      10.320      13.032      15.901      18.615    
  20.766      21.958      21.958      20.766      18.615      15.901      13.033      10.320      7.9491      6.0006    
  4.4816      3.3543      2.0798      1.6948      1.4831      1.4158      1.4831      1.6948      2.0798      2.6844    
  3.5666      4.7859      6.3878      8.3854      10.737      13.318      15.901      18.157      19.714      20.270    
  19.714      18.157      15.901      13.318      10.737      8.3855      6.3878      4.7858      3.5665      2.6843    
  1.6930      1.4293      1.3061      1.3061      1.4293      1.6930      2.1311      2.7916      3.7281      4.9884    
  6.5973      8.5390      10.737      13.033      15.180      16.872      17.810      17.809      16.871      15.180    
  13.033      10.737      8.5391      6.5974      4.9884      3.7281      2.7915      2.1312      1.3956      1.2283    
  1.1750      1.2283      1.3956      1.6987      2.1733      2.8640      3.8158      5.0596      6.5973      8.3854    
  10.320      12.226      13.868      14.991      15.391      14.991      13.868      12.226      10.320      8.3855    
  6.5974      5.0596      3.8157      2.8640      2.1733      1.6987      1.1772      1.0833      1.0833      1.1772    
  1.3767      1.7054      2.1970      2.8897      3.8158      4.9884      6.3878      7.9490      9.5533      11.030    
  12.177      12.807      12.807      12.177      11.030      9.5534      7.9491      6.3878      4.9884      3.8157    
  2.8897      2.1971      1.7054      1.3767      1.0254     0.98591      1.0254      1.1484      1.3684      1.7083    
  2.1970      2.8640      3.7281      4.7859      6.0006      7.2951      8.5501      9.6149      10.334      10.589    
  10.334      9.6149      8.5501      7.2951      6.0006      4.7858      3.7281      2.8640      2.1971      1.7083    
  1.3685      1.1484     0.92985     0.92986     0.99742      1.1391      1.3684      1.7054      2.1733      2.7916    
  3.5665      4.4816      5.4897      6.5108      7.4369      8.1470      8.5340      8.5340      8.1470      7.4369    
  6.5109      5.4897      4.4816      3.5665      2.7915      2.1733      1.7054      1.3685      1.1391     0.99741    
 0.88368     0.91155     0.99741      1.1484      1.3767      1.6987      2.1312      2.6844      3.3543      4.1155    
  4.9169      5.6840      6.3268      6.7568      6.9083      6.7568      6.3268      5.6841      4.9170      4.1155    
  3.3543      2.6843      2.1312      1.6987      1.3767      1.1484     0.99741     0.91154     0.96784      1.0254    
  1.1257      1.2752      1.4826      1.7567      2.1023      2.5161      2.9815      3.4671      3.9276      4.3103    
  4.5647      4.6540      4.5647      4.3104      3.9276      3.4671      2.9815      2.5161      2.1023      1.7567    
  1.4826      1.2752      1.1256      1.0254     0.96785     0.94907      1.0254      1.0833      1.1750      1.3061    
  1.4831      1.7109      1.9905      2.3144      2.6649      3.0134      3.3237      3.5578      3.6839      3.6839    
  3.5578      3.3237      3.0134      2.6648      2.3144      1.9905      1.7110      1.4831      1.3061      1.1750    
  1.0833      1.0254     0.99742     0.99742      1.1257      1.1750      1.2499      1.3554      1.4961      1.6747    
  1.8890      2.1301      2.3810      2.6179      2.8137      2.9433      2.9887      2.9433      2.8137      2.6178    
  2.3809      2.1301      1.8890      1.6747      1.4961      1.3554      1.2499      1.1750      1.1257      1.0978    
  1.0888      1.0978      1.2752      1.3061      1.3554      1.4279      1.5274      1.6547      1.8065      1.9735    
  2.1411      2.2908      2.4039      2.4648      2.4648      2.4039      2.2908      2.1411      1.9735      1.8065    
  1.6548      1.5273      1.4279      1.3554      1.3061      1.2752      1.2577      1.2499      1.2499      1.2577    
  1.4826      1.4831      1.4961      1.5274      1.5802      1.6547      1.7471      1.8491      1.9489      2.0332    
  2.0897      2.1096      2.0897      2.0332      1.9489      1.8491      1.7471      1.6547      1.5802      1.5273    
  1.4961      1.4831      1.4826      1.4884      1.4946      1.4971      1.4946      1.4884      1.7567      1.7109    
  1.6747      1.6547      1.6547      1.6747      1.7109      1.7567      1.8030      1.8405      1.8615      1.8615    
  1.8405      1.8030      1.7567      1.7109      1.6747      1.6547      1.6547      1.6747      1.7109      1.7567    
  1.8030      1.8405      1.8615      1.8615      1.8405      1.8030      2.1023      1.9905      1.8890      1.8065    
  1.7471      1.7109      1.6948      1.6930      1.6987      1.7054      1.7083      1.7054      1.6987      1.6930    
  1.6948      1.7110      1.7471      1.8065      1.8890      1.9905      2.1023      2.2122      2.3055      2.3684    
  2.3905      2.3683      2.3055      2.2122      2.5161      2.3144      2.1301      1.9735      1.8491      1.7567    
  1.6930      1.6528      1.6303      1.6206      1.6206      1.6303      1.6528      1.6930      1.7567      1.8491    
  1.9735      2.1301      2.3143      2.5161      2.7187      2.9009      3.0393      3.1143      3.1143      3.0393    
  2.9008      2.7187      2.9815      2.6649      2.3810      2.1411      1.9489      1.8030      1.6987      1.6303    
  1.5921      1.5798      1.5921      1.6303      1.6987      1.8030      1.9489      2.1410      2.3809      2.6648    
  2.9815      3.3105      3.6224      3.8819      4.0547      4.1154      4.0547      3.8819      3.6223      3.3105    
  3.4671      3.0134      2.6179      2.2908      2.0332      1.8405      1.7054      1.6206      1.5798      1.5798    
  1.6206      1.7054      1.8405      2.0332      2.2908      2.6178      3.0133      3.4671      3.9561      4.4430    
  4.8789      5.2098      5.3891      5.3891      5.2098      4.8789      4.4430      3.9560      3.9276      3.3237    
  2.8137      2.4039      2.0897      1.8615      1.7083      1.6206      1.5921      1.6206      1.7083      1.8615    
  2.0897      2.4038      2.8136      3.3236      3.9276      4.6035      5.3086      5.9802      6.5418      6.9174    
  7.0496      6.9174      6.5419      5.9802      5.3085      4.6034      4.3103      3.5578      2.9433      2.4648    
  2.1096      1.8615      1.7054      1.6303      1.6303      1.7054      1.8615      2.1096      2.4647      2.9432    
  3.5577      4.3104      5.1848      6.1385      7.0990      7.9673      8.6321      8.9940      8.9940      8.6321    
  7.9674      7.0990      6.1384      5.1847      4.5647      3.6839      2.9887      2.4648      2.0897      1.8405    
  1.6987      1.6528      1.6987      1.8405      2.0897      2.4647      2.9886      3.6838      4.5647      5.6268    
  6.8353      8.1164      9.3548      10.403      11.111      11.361      11.111      10.404      9.3548      8.1164    
  6.8352      5.6267      4.6540      3.6839      2.9433      2.4039      2.0332      1.8030      1.6930      1.6930    
  1.8030      2.0332      2.4038      2.9432      3.6838      4.6540      5.8662      7.3021      8.8984      10.536    
  12.041      13.208      13.849      13.849      13.208      12.041      10.536      8.8983      7.3020      5.8661    
  4.5647      3.5578      2.8137      2.2908      1.9489      1.7567      1.6948      1.7567      1.9489      2.2908    
  2.8136      3.5577      4.5647      5.8662      7.4667      9.3251      11.335      13.316      15.022      16.186    
  16.601      16.186      15.022      13.316      11.335      9.3250      7.4666      5.8661      4.3104      3.3237    
  2.6178      2.1411      1.8491      1.7109      1.7110      1.8491      2.1410      2.6178      3.3236      4.3104    
  5.6268      7.3021      9.3251      11.619      14.019      16.264      18.031      19.010      19.010      18.031    
  16.264      14.019      11.619      9.3250      7.3020      5.6267      3.9276      3.0134      2.3809      1.9735    
  1.7471      1.6747      1.7471      1.9735      2.3809      3.0133      3.9276      5.1848      6.8353      8.8984    
  11.335      14.019      16.707      19.056      20.676      21.256      20.676      19.056      16.707      14.019    
  11.336      8.8984      6.8352      5.1847      3.4671      2.6648      2.1301      1.8065      1.6547      1.6547    
  1.8065      2.1301      2.6648      3.4671      4.6035      6.1385      8.1164      10.536      13.316      16.264    
  19.056      21.273      22.510      22.510      21.273      19.055      16.264      13.316      10.536      8.1165    
  6.1384      4.6034      2.9815      2.3144      1.8890      1.6548      1.5802      1.6547      1.8890      2.3143    
  2.9815      3.9561      5.3086      7.0990      9.3548      12.041      15.022      18.031      20.676      22.510    
  23.168      22.510      20.676      18.031      15.022      12.041      9.3549      7.0990      5.3085      3.9560    
  2.5161      1.9905      1.6747      1.5273      1.5273      1.6747      1.9905      2.5161      3.3105      4.4430    
  5.9802      7.9673      10.403      13.208      16.186      19.010      21.256      22.510      22.510      21.256    
  19.010      16.186      13.208      10.404      7.9674      5.9801      4.4429      3.3105      2.1023      1.7110    
  1.4961      1.4279      1.4961      1.7109      2.1023      2.7187      3.6224      4.8789      6.5418      8.6321    
  11.111      13.849      16.601      19.010      20.676      21.273      20.676      19.010      16.601      13.849    
  11.111      8.6321      6.5418      4.8788      3.6223      2.7187      1.7567      1.4831      1.3554      1.3554    
  1.4831      1.7567      2.2122      2.9009      3.8819      5.2098      6.9174      8.9940      11.361      13.849    
  16.186      18.031      19.056      19.055      18.031      16.186      13.849      11.362      8.9940      6.9173    
  5.2098      3.8818      2.9009      2.2122      1.4826      1.3061      1.2499      1.3061      1.4826      1.8030    
  2.3055      3.0393      4.0547      5.3891      7.0496      8.9940      11.111      13.208      15.022      16.264    
  16.707      16.264      15.022      13.208      11.111      8.9940      7.0496      5.3890      4.0546      3.0393    
  2.3056      1.8030      1.2752      1.1750      1.1750      1.2752      1.4884      1.8405      2.3684      3.1143    
  4.1154      5.3891      6.9174      8.6321      10.404      12.041      13.316      14.019      14.019      13.316    
  12.041      10.404      8.6321      6.9173      5.3890      4.1154      3.1143      2.3684      1.8405      1.4884    
  1.1256      1.0833      1.1257      1.2577      1.4946      1.8615      2.3905      3.1143      4.0547      5.2098    
  6.5419      7.9674      9.3548      10.536      11.335      11.619      11.336      10.536      9.3549      7.9674    
  6.5418      5.2098      4.0546      3.1143      2.3906      1.8615      1.4946      1.2577      1.0254      1.0254    
  1.0978      1.2499      1.4971      1.8615      2.3683      3.0393      3.8819      4.8789      5.9802      7.0990    
  8.1164      8.8983      9.3250      9.3250      8.8984      8.1165      7.0990      5.9801      4.8788      3.8818    
  3.0393      2.3684      1.8615      1.4972      1.2499      1.0977     0.96785     0.99742      1.0888      1.2499    
  1.4946      1.8405      2.3055      2.9008      3.6223      4.4430      5.3085      6.1384      6.8352      7.3020    
  7.4666      7.3020      6.8352      6.1384      5.3085      4.4429      3.6223      2.9009      2.3056      1.8405    
  1.4946      1.2499      1.0887     0.99741     0.94907     0.99742      1.0978      1.2577      1.4884      1.8030    
  2.2122      2.7187      3.3105      3.9560      4.6034      5.1847      5.6267      5.8661      5.8661      5.6267    
  5.1847      4.6034      3.9560      3.3105      2.7187      2.2122      1.8030      1.4884      1.2577      1.0977    
 0.99741     0.94907      1.1156      1.1772      1.2752      1.4156      1.6053      1.8491      2.1476      2.4929    
  2.8665      3.2384      3.5699      3.8205      3.9557      3.9557      3.8205      3.5699      3.2384      2.8665    
  2.4929      2.1476      1.8491      1.6052      1.4156      1.2751      1.1772      1.1156      1.0859      1.0859    
  1.1772      1.2283      1.3061      1.4158      1.5620      1.7471      1.9690      2.2184      2.4780      2.7232    
  2.9263      3.0607      3.1078      3.0607      2.9263      2.7232      2.4779      2.2184      1.9690      1.7471    
  1.5619      1.4158      1.3061      1.2283      1.1772      1.1484      1.1391      1.1484      1.2752      1.3061    
  1.3554      1.4279      1.5274      1.6547      1.8065      1.9735      2.1411      2.2908      2.4039      2.4648    
  2.4648      2.4039      2.2908      2.1411      1.9735      1.8065      1.6548      1.5273      1.4279      1.3554    
  1.3061      1.2752      1.2577      1.2499      1.2499      1.2577      1.4156      1.4158      1.4279      1.4575    
  1.5082      1.5802      1.6695      1.7682      1.8646      1.9459      2.0002      2.0193      2.0002      1.9459    