unknown system                          
   1.00000000000000     
     0.000000    2.715000    2.715000
     2.715000    0.000000    2.715000
     2.715000    2.715000    0.000000
   Si
     2
Direct
  0.500000  0.500000  0.500000
  0.750000  0.750000  0.750000
 
   28   28   28
 0.85632851780E+00 0.88367663026E+00 0.96784235921E+00 0.11155564172E+01 0.13385855183E+01
 0.16527702705E+01 0.20743380226E+01 0.26133678814E+01 0.32658654690E+01 0.40068209989E+01
 0.47865579621E+01 0.55323290269E+01 0.61568817490E+01 0.65744965941E+01 0.67215560602E+01
 0.65744816990E+01 0.61568906549E+01 0.55323791484E+01 0.47866135538E+01 0.40068341343E+01
 0.32658310496E+01 0.26133226837E+01 0.20743159494E+01 0.16527740529E+01 0.13385976522E+01
 0.11155625951E+01 0.96784082048E+00 0.88367320589E+00 0.88367663026E+00 0.92985073858E+00
 0.10254066130E+01 0.11771666591E+01 0.13955512679E+01 0.16929520747E+01 0.20797921214E+01
 0.25586604933E+01 0.31180673622E+01 0.37279598731E+01 0.43389951279E+01 0.48870006671E+01
 0.53031218557E+01 0.55283331656E+01 0.55283344387E+01 0.53031350869E+01 0.48870313707E+01
 0.43390191449E+01 0.37279472179E+01 0.31180248393E+01 0.25586271497E+01 0.20797929049E+01
 0.16929746802E+01 0.13955703589E+01 0.11771736610E+01 0.10254089785E+01 0.92985417445E+00
 0.88367868626E+00 0.96784235921E+00 0.10254066130E+01 0.11256488585E+01 0.12751604339E+01
 0.14826047977E+01 0.17566636801E+01 0.21023231428E+01 0.25160814055E+01 0.29815215683E+01
 0.34670906454E+01 0.39276286774E+01 0.43103515628E+01 0.45647273051E+01 0.46540132853E+01
 0.45647326948E+01 0.43103582103E+01 0.39276240883E+01 0.34670662527E+01 0.29814914770E+01
 0.25160730027E+01 0.21023442963E+01 0.17566926543E+01 0.14826177847E+01 0.12751568895E+01
 0.11256436774E+01 0.10254081631E+01 0.96784649199E+00 0.94907442087E+00 0.11155564172E+01
 0.11771666591E+01 0.12751604339E+01 0.14156423092E+01 0.16052545486E+01 0.18490826019E+01
 0.21475581738E+01 0.24929297867E+01 0.28665378369E+01 0.32383666374E+01 0.35699176817E+01
 0.38204878173E+01 0.39556712031E+01 0.39556707854E+01 0.38204856532E+01 0.35699116708E+01
 0.32383578725E+01 0.28665350626E+01 0.24929418240E+01 0.21475791687E+01 0.18490940593E+01
 0.16052470483E+01 0.14156265254E+01 0.12751513244E+01 0.11771660620E+01 0.11155576891E+01
 0.10858949684E+01 0.10858946993E+01 0.13385855183E+01 0.13955512679E+01 0.14826047977E+01
 0.16052545486E+01 0.17681943432E+01 0.19735097774E+01 0.22184088233E+01 0.24929281697E+01
 0.27785821761E+01 0.30490522029E+01 0.32735648309E+01 0.34226680466E+01 0.34749788791E+01
 0.34226671748E+01 0.32735686680E+01 0.30490638089E+01 0.27785976122E+01 0.24929394715E+01
 0.22184085033E+01 0.19734954764E+01 0.17681738812E+01 0.16052427553E+01 0.14826087594E+01
 0.13955616870E+01 0.13385893767E+01 0.13067182682E+01 0.12965072300E+01 0.13067207442E+01
 0.16527702705E+01 0.16929520747E+01 0.17566636801E+01 0.18490826019E+01 0.19735097774E+01
 0.21300827930E+01 0.23143631155E+01 0.25160804203E+01 0.27187327545E+01 0.29008488037E+01
 0.30393177848E+01 0.31143100988E+01 0.31143109890E+01 0.30393233648E+01 0.29008600252E+01
 0.27187396404E+01 0.25160703476E+01 0.23143371824E+01 0.21300575076E+01 0.19735018765E+01
 0.18490953638E+01 0.17566867598E+01 0.16929708836E+01 0.16527764566E+01 0.16303198075E+01
 0.16205684380E+01 0.16205713557E+01 0.16303231519E+01 0.20743380226E+01 0.20797921214E+01
 0.21023231428E+01 0.21475581738E+01 0.22184088233E+01 0.23143631155E+01 0.24308300189E+01
 0.25586639942E+01 0.26843649842E+01 0.27915633477E+01 0.28640406289E+01 0.28897006638E+01
 0.28640453211E+01 0.27915647961E+01 0.26843511858E+01 0.25586311923E+01 0.24307939816E+01
 0.23143505751E+01 0.22184314728E+01 0.21475985799E+01 0.21023517315E+01 0.20797959853E+01
 0.20743281161E+01 0.20785966791E+01 0.20850428612E+01 0.20879110988E+01 0.20850442792E+01
 0.20786042470E+01 0.26133678814E+01 0.25586604933E+01 0.25160814055E+01 0.24929297867E+01
 0.24929281697E+01 0.25160804203E+01 0.25586639942E+01 0.26133718946E+01 0.26699412735E+01
 0.27167127334E+01 0.27432321708E+01 0.27432370990E+01 0.27167153310E+01 0.26699218242E+01
 0.26133329303E+01 0.25586357014E+01 0.25160923661E+01 0.24929772305E+01 0.24929797036E+01
 0.25160959027E+01 0.25586362836E+01 0.26133339975E+01 0.26699265908E+01 0.27167192659E+01
 0.27432358704E+01 0.27432295375E+01 0.27167128844E+01 0.26699409686E+01 0.32658654690E+01
 0.31180673622E+01 0.29815215683E+01 0.28665378369E+01 0.27785821761E+01 0.27187327545E+01
 0.26843649842E+01 0.26699412735E+01 0.26680500616E+01 0.26709613900E+01 0.26726943486E+01
 0.26709673990E+01 0.26680388775E+01 0.26699094287E+01 0.26843463344E+01 0.27187591132E+01
 0.27786397623E+01 0.28665786842E+01 0.29815142361E+01 0.31180251895E+01 0.32658266413E+01
 0.34099539591E+01 0.35322882822E+01 0.36148010327E+01 0.36439773124E+01 0.36147843009E+01
 0.35322736747E+01 0.34099640041E+01 0.40068209989E+01 0.37279598731E+01 0.34670906454E+01
 0.32383666374E+01 0.30490522029E+01 0.29008488037E+01 0.27915633477E+01 0.27167127334E+01
 0.26709613900E+01 0.26495218933E+01 0.26495221074E+01 0.26709507642E+01 0.27166840627E+01
 0.27915437623E+01 0.29008714727E+01 0.30491053329E+01 0.32383997838E+01 0.34670742916E+01
 0.37279168027E+01 0.40067930183E+01 0.42822802207E+01 0.45271211990E+01 0.47120794155E+01
 0.48119315164E+01 0.48119278268E+01 0.47120672060E+01 0.45271050601E+01 0.42822783056E+01
 0.47865579621E+01 0.43389951279E+01 0.39276286774E+01 0.35699176817E+01 0.32735648309E+01
 0.30393177848E+01 0.28640406289E+01 0.27432321708E+01 0.26726943486E+01 0.26495221074E+01
 0.26726754699E+01 0.27431964862E+01 0.28640127341E+01 0.30393310808E+01 0.32736159372E+01
 0.35699599689E+01 0.39276252743E+01 0.43389597205E+01 0.47865301202E+01 0.52416658193E+01
 0.56655463855E+01 0.60136239068E+01 0.62433625717E+01 0.63237465702E+01 0.62433653786E+01
 0.60136216147E+01 0.56655387728E+01 0.52416690523E+01 0.55323290269E+01 0.48870006671E+01
 0.43103515628E+01 0.38204878173E+01 0.34226680466E+01 0.31143100988E+01 0.28897006638E+01
 0.27432370990E+01 0.26709673990E+01 0.26709507642E+01 0.27431964862E+01 0.28896663961E+01
 0.31143196712E+01 0.34227263940E+01 0.38205510719E+01 0.43103691479E+01 0.48869665318E+01
 0.55322782138E+01 0.62118301884E+01 0.68745302882E+01 0.74570828487E+01 0.78933782659E+01
 0.81276090879E+01 0.81275997448E+01 0.78933583601E+01 0.74570690634E+01 0.68745368105E+01
 0.62118637953E+01 0.61568817490E+01 0.53031218557E+01 0.45647273051E+01 0.39556712031E+01
 0.34749788791E+01 0.31143109890E+01 0.28640453211E+01 0.27167153310E+01 0.26680388775E+01
 0.27166840627E+01 0.28640127341E+01 0.31143196712E+01 0.34750435973E+01 0.39557509141E+01
 0.45647562028E+01 0.53030741612E+01 0.61567938709E+01 0.70902898624E+01 0.80431004845E+01
 0.89326985948E+01 0.96643431938E+01 0.10147667381E+02 0.10316822917E+02 0.10147611395E+02
 0.96642700458E+01 0.89326549574E+01 0.80431140396E+01 0.70903588387E+01 0.65744965941E+01
 0.55283331656E+01 0.46540132853E+01 0.39556707854E+01 0.34226671748E+01 0.30393233648E+01
 0.27915647961E+01 0.26699218242E+01 0.26699094287E+01 0.27915437623E+01 0.30393310808E+01
 0.34227263940E+01 0.39557509141E+01 0.46540427468E+01 0.55282700250E+01 0.65743794424E+01
 0.77630816870E+01 0.90321829850E+01 0.10285160782E+02 0.11398532684E+02 0.12239647791E+02
 0.12693807900E+02 0.12693779474E+02 0.12239571404E+02 0.11398435851E+02 0.10285089157E+02
 0.90321846226E+01 0.77631678919E+01 0.67215560602E+01 0.55283344387E+01 0.45647326948E+01
 0.38204856532E+01 0.32735686680E+01 0.29008600252E+01 0.26843511858E+01 0.26133329303E+01
 0.26843463344E+01 0.29008714727E+01 0.32736159372E+01 0.38205510719E+01 0.45647562028E+01
 0.55282700250E+01 0.67214372557E+01 0.81293945797E+01 0.96993286887E+01 0.11332648728E+02
 0.12885871760E+02 0.14184485482E+02 0.15052891692E+02 0.15358200897E+02 0.15052910513E+02
 0.14184471330E+02 0.12885792868E+02 0.11332550757E+02 0.96993003869E+01 0.81294712875E+01
 0.65744816990E+01 0.53031350869E+01 0.43103582103E+01 0.35699116708E+01 0.30490638089E+01
 0.27187396404E+01 0.25586311923E+01 0.25586357014E+01 0.27187591132E+01 0.30491053329E+01
 0.35699599689E+01 0.43103691479E+01 0.53030741612E+01 0.65743794424E+01 0.81293945797E+01
 0.99354280936E+01 0.11907487601E+02 0.13899917264E+02 0.15708857034E+02 0.17086112108E+02
 0.17826743443E+02 0.17826807631E+02 0.17086237282E+02 0.15708911998E+02 0.13899844374E+02
 0.11907359928E+02 0.99353677806E+01 0.81294472033E+01 0.61568906549E+01 0.48870313707E+01
 0.39276240883E+01 0.32383578725E+01 0.27785976122E+01 0.25160703476E+01 0.24307939816E+01
 0.25160923661E+01 0.27786397623E+01 0.32383997838E+01 0.39276252743E+01 0.48869665318E+01
 0.61567938709E+01 0.77630816870E+01 0.96993286887E+01 0.11907487601E+02 0.14260940028E+02
 0.16548632002E+02 0.18461343570E+02 0.19722227674E+02 0.20161419348E+02 0.19722377796E+02
 0.18461514214E+02 0.16548682013E+02 0.14260841140E+02 0.11907339152E+02 0.96992559220E+01
 0.77631243872E+01 0.55323791484E+01 0.43390191449E+01 0.34670662527E+01 0.28665350626E+01
 0.24929394715E+01 0.23143371824E+01 0.23143505751E+01 0.24929772305E+01 0.28665786842E+01
 0.34670742916E+01 0.43389597205E+01 0.55322782138E+01 0.70902898624E+01 0.90321829850E+01
 0.11332648728E+02 0.13899917264E+02 0.16548632002E+02 0.18947246294E+02 0.20750223665E+02
 0.21713685115E+02 0.21713767905E+02 0.20750406563E+02 0.18947387096E+02 0.16548628072E+02
 0.13899785146E+02 0.11332501498E+02 0.90321297460E+01 0.70903490863E+01 0.47866135538E+01
 0.37279472179E+01 0.29814914770E+01 0.24929418240E+01 0.22184085033E+01 0.21300575076E+01
 0.22184314728E+01 0.24929797036E+01 0.29815142361E+01 0.37279168027E+01 0.47865301202E+01
 0.62118301884E+01 0.80431004845E+01 0.10285160782E+02 0.12885871760E+02 0.15708857034E+02
 0.18461343570E+02 0.20750223665E+02 0.22257507428E+02 0.22782785033E+02 0.22257666443E+02
 0.20750417490E+02 0.18461430175E+02 0.15708788953E+02 0.12885719840E+02 0.10285043928E+02
 0.80430902114E+01 0.62119059003E+01 0.40068341343E+01 0.31180248393E+01 0.25160730027E+01
 0.21475791687E+01 0.19734954764E+01 0.19735018765E+01 0.21475985799E+01 0.25160959027E+01
 0.31180251895E+01 0.40067930183E+01 0.52416658193E+01 0.68745302882E+01 0.89326985948E+01
 0.11398532684E+02 0.14184485482E+02 0.17086112108E+02 0.19722227674E+02 0.21713685115E+02
 0.22782785033E+02 0.22782883454E+02 0.21713896437E+02 0.19722382985E+02 0.17086112255E+02
 0.14184366794E+02 0.11398404677E+02 0.89326445292E+01 0.68745589852E+01 0.52417285769E+01
 0.32658310496E+01 0.25586271497E+01 0.21023442963E+01 0.18490940593E+01 0.17681738812E+01
 0.18490953638E+01 0.21023517315E+01 0.25586362836E+01 0.32658266413E+01 0.42822802207E+01
 0.56655463855E+01 0.74570828487E+01 0.96643431938E+01 0.12239647791E+02 0.15052891692E+02
 0.17826743443E+02 0.20161419348E+02 0.21713767905E+02 0.22257666443E+02 0.21713896437E+02
 0.20161552147E+02 0.17826769009E+02 0.15052814967E+02 0.12239554562E+02 0.96643009754E+01
 0.74570965766E+01 0.56655830556E+01 0.42823070331E+01 0.26133226837E+01 0.20797929049E+01
 0.17566926543E+01 0.16052470483E+01 0.16052427553E+01 0.17566867598E+01 0.20797959853E+01
 0.26133339975E+01 0.34099539591E+01 0.45271211990E+01 0.60136239068E+01 0.78933782659E+01
 0.10147667381E+02 0.12693807900E+02 0.15358200897E+02 0.17826807631E+02 0.19722377796E+02
 0.20750406563E+02 0.20750417490E+02 0.19722382985E+02 0.17826769009E+02 0.15358133791E+02
 0.12693766856E+02 0.10147679699E+02 0.78934203964E+01 0.60136583032E+01 0.45271317505E+01
 0.34099464738E+01 0.20743159494E+01 0.16929746802E+01 0.14826177847E+01 0.14156265254E+01
 0.14826087594E+01 0.16929708836E+01 0.20743281161E+01 0.26699265908E+01 0.35322882822E+01
 0.47120794155E+01 0.62433625717E+01 0.81276090879E+01 0.10316822917E+02 0.12693779474E+02
 0.15052910513E+02 0.17086237282E+02 0.18461514214E+02 0.18947387096E+02 0.18461430175E+02
 0.17086112255E+02 0.15052814967E+02 0.12693766856E+02 0.10316885888E+02 0.81276895332E+01
 0.62434081072E+01 0.47120804044E+01 0.35322649484E+01 0.26699016113E+01 0.16527740529E+01
 0.13955703589E+01 0.12751568895E+01 0.12751513244E+01 0.13955616870E+01 0.16527764566E+01
 0.20785966791E+01 0.27167192659E+01 0.36148010327E+01 0.48119315164E+01 0.63237465702E+01
 0.81275997448E+01 0.10147611395E+02 0.12239571404E+02 0.14184471330E+02 0.15708911998E+02
 0.16548682013E+02 0.16548628072E+02 0.15708788953E+02 0.14184366794E+02 0.12239554562E+02
 0.10147679699E+02 0.81276895332E+01 0.63237960727E+01 0.48119276863E+01 0.36147689921E+01
 0.27166863751E+01 0.20785770589E+01 0.13385976522E+01 0.11771736610E+01 0.11256436774E+01
 0.11771660620E+01 0.13385893767E+01 0.16303198075E+01 0.20850428612E+01 0.27432358704E+01
 0.36439773124E+01 0.48119278268E+01 0.62433653786E+01 0.78933583601E+01 0.96642700458E+01
 0.11398435851E+02 0.12885792868E+02 0.13899844374E+02 0.14260841140E+02 0.13899785146E+02
 0.12885719840E+02 0.11398404677E+02 0.96643009754E+01 0.78934203964E+01 0.62434081072E+01
 0.48119276863E+01 0.36439494224E+01 0.27432078188E+01 0.20850291996E+01 0.16303203187E+01
 0.11155625951E+01 0.10254089785E+01 0.10254081631E+01 0.11155576891E+01 0.13067182682E+01
 0.16205684380E+01 0.20879110988E+01 0.27432295375E+01 0.36147843009E+01 0.47120672060E+01
 0.60136216147E+01 0.74570690634E+01 0.89326549574E+01 0.10285089157E+02 0.11332550757E+02
 0.11907359928E+02 0.11907339152E+02 0.11332501498E+02 0.10285043928E+02 0.89326445292E+01
 0.74570965766E+01 0.60136583032E+01 0.47120804044E+01 0.36147689921E+01 0.27432078188E+01
 0.20879040443E+01 0.16205764774E+01 0.13067287485E+01 0.96784082048E+00 0.92985417445E+00
 0.96784649199E+00 0.10858949684E+01 0.12965072300E+01 0.16205713557E+01 0.20850442792E+01
 0.27167128844E+01 0.35322736747E+01 0.45271050601E+01 0.56655387728E+01 0.68745368105E+01
 0.80431140396E+01 0.90321846226E+01 0.96993003869E+01 0.99353677806E+01 0.96992559220E+01
 0.90321297460E+01 0.80430902114E+01 0.68745589852E+01 0.56655830556E+01 0.45271317505E+01
 0.35322649484E+01 0.27166863751E+01 0.20850291996E+01 0.16205764774E+01 0.12965174012E+01
 0.10858954430E+01 0.88367320589E+00 0.88367868626E+00 0.94907442087E+00 0.10858946993E+01
 0.13067207442E+01 0.16303231519E+01 0.20786042470E+01 0.26699409686E+01 0.34099640041E+01
 0.42822783056E+01 0.52416690523E+01 0.62118637953E+01 0.70903588387E+01 0.77631678919E+01
 0.81294712875E+01 0.81294472033E+01 0.77631243872E+01 0.70903490863E+01 0.62119059003E+01
 0.52417285769E+01 0.42823070331E+01 0.34099464738E+01 0.26699016113E+01 0.20785770589E+01
 0.16303203187E+01 0.13067287485E+01 0.10858954430E+01 0.94906584780E+00 0.88367663625E+00
 0.92985207290E+00 0.10254079397E+01 0.11771675152E+01 0.13955525852E+01 0.16929539974E+01
 0.20797933719E+01 0.25586604488E+01 0.31180667216E+01 0.37279587888E+01 0.43389928217E+01
 0.48869974750E+01 0.53031195431E+01 0.55283325654E+01 0.55283347290E+01 0.53031358656E+01
 0.48870333366E+01 0.43390221870E+01 0.37279499482E+01 0.31180266281E+01 0.25586286175E+01
 0.20797939174E+01 0.16929739960E+01 0.13955678692E+01 0.11771709300E+01 0.10254069839E+01
 0.92985249417E+00 0.88367735639E+00 0.92985207290E+00 0.98591085486E+00 0.10833154657E+01
 0.12283116824E+01 0.14292811828E+01 0.16947533308E+01 0.20297124953E+01 0.24308283464E+01
 0.28820982348E+01 0.33527482591E+01 0.37988655701E+01 0.41693328276E+01 0.44154051073E+01
 0.45017454761E+01 0.44154148549E+01 0.41693491181E+01 0.37988711974E+01 0.33527247483E+01
 0.28820555336E+01 0.24308023965E+01 0.20297244384E+01 0.16947860052E+01 0.14293042213E+01
 0.12283162487E+01 0.10833142513E+01 0.98591442294E+00 0.92985752293E+00 0.91154843177E+00
 0.10254079397E+01 0.10833154657E+01 0.11750174390E+01 0.13061339714E+01 0.14830675443E+01
 0.17109426331E+01 0.19904605979E+01 0.23143656137E+01 0.26648562727E+01 0.30133816749E+01
 0.33236620793E+01 0.35577539060E+01 0.36838855805E+01 0.36838881551E+01 0.35577560175E+01
 0.33236516109E+01 0.30133540427E+01 0.26648265844E+01 0.23143585449E+01 0.19904827723E+01
 0.17109731875E+01 0.14830823202E+01 0.13061309060E+01 0.11750111429E+01 0.10833154495E+01
 0.10254117314E+01 0.99741599301E+00 0.99741401258E+00 0.11771675152E+01 0.12283116824E+01
 0.13061339714E+01 0.14157728918E+01 0.15619556931E+01 0.17471227020E+01 0.19690207586E+01
 0.22184112879E+01 0.24779559283E+01 0.27232448396E+01 0.29262697885E+01 0.30607369937E+01
 0.31078389023E+01 0.30607374397E+01 0.29262636978E+01 0.27232314792E+01 0.24779478454E+01
 0.22184214930E+01 0.19690440686E+01 0.17471381983E+01 0.15619508589E+01 0.14157575933E+01
 0.13061251617E+01 0.12283122224E+01 0.11771687881E+01 0.11483681591E+01 0.11390935043E+01
 0.11483694998E+01 0.13955525852E+01 0.14292811828E+01 0.14830675443E+01 0.15619556931E+01
 0.16695467913E+01 0.18065115643E+01 0.19690196491E+01 0.21475579148E+01 0.23268571676E+01
 0.24874900065E+01 0.26091366370E+01 0.26748088849E+01 0.26748102497E+01 0.26091384550E+01
 0.24874903729E+01 0.23268600437E+01 0.21475673542E+01 0.19690301023E+01 0.18065113607E+01
 0.16695334562E+01 0.15619415901E+01 0.14830655457E+01 0.14292890102E+01 0.13955576765E+01
 0.13766789211E+01 0.13684281843E+01 0.13684309814E+01 0.13766815045E+01 0.16929539974E+01
 0.16947533308E+01 0.17109426331E+01 0.17471227020E+01 0.18065115643E+01 0.18890097996E+01
 0.19904599853E+01 0.21023240119E+01 0.22122027007E+01 0.23055296871E+01 0.23683496739E+01
 0.23905285569E+01 0.23683519521E+01 0.23055300644E+01 0.22121989186E+01 0.21023179405E+01
 0.19904538253E+01 0.18890044433E+01 0.18065092017E+01 0.17471264035E+01 0.17109515104E+01
 0.16947615208E+01 0.16929564827E+01 0.16987138070E+01 0.17054227018E+01 0.17082522951E+01
 0.17054257707E+01 0.16987163550E+01 0.20797933719E+01 0.20297124953E+01 0.19904605979E+01
 0.19690207586E+01 0.19690196491E+01 0.19904599853E+01 0.20297151113E+01 0.20797964670E+01
 0.21311571047E+01 0.21732902794E+01 0.21970436811E+01 0.21970443714E+01 0.21732871526E+01
 0.21311437166E+01 0.20797780014E+01 0.20297051995E+01 0.19904667537E+01 0.19690390313E+01
 0.19690408476E+01 0.19904694988E+01 0.20297060613E+01 0.20797793150E+01 0.21311475985E+01
 0.21732902960E+01 0.21970436504E+01 0.21970417048E+01 0.21732900578E+01 0.21311565203E+01
 0.25586604488E+01 0.24308283464E+01 0.23143656137E+01 0.22184112879E+01 0.21475579148E+01
 0.21023240119E+01 0.20797964670E+01 0.20743414783E+01 0.20786036348E+01 0.20850429088E+01
 0.20879112168E+01 0.20850408059E+01 0.20785907174E+01 0.20743232061E+01 0.20797955036E+01
 0.21023521532E+01 0.21475973617E+01 0.22184323018E+01 0.23143556527E+01 0.24307989700E+01
 0.25586330030E+01 0.26843530215E+01 0.27915684359E+01 0.28640463626E+01 0.28896966618E+01
 0.28640361781E+01 0.27915619380E+01 0.26843635377E+01 0.31180667216E+01 0.28820982348E+01
 0.26648562727E+01 0.24779559283E+01 0.23268571676E+01 0.22122027007E+01 0.21311571047E+01
 0.20786036348E+01 0.20484138375E+01 0.20350037846E+01 0.20350022755E+01 0.20484052464E+01
 0.20785914794E+01 0.21311645909E+01 0.22122438723E+01 0.23269056047E+01 0.24779669644E+01
 0.26648191616E+01 0.28820474516E+01 0.31180410280E+01 0.33543184891E+01 0.35665670661E+01
 0.37281412566E+01 0.38157695481E+01 0.38157643339E+01 0.37281257753E+01 0.35665472136E+01
 0.33543121363E+01 0.37279587888E+01 0.33527482591E+01 0.30133816749E+01 0.27232448396E+01
 0.24874900065E+01 0.23055296871E+01 0.21732902794E+01 0.20850429088E+01 0.20350037846E+01
 0.20188562857E+01 0.20349950658E+01 0.20850328125E+01 0.21732997753E+01 0.23055718481E+01
 0.24875377864E+01 0.27232480642E+01 0.30133277539E+01 0.33526841760E+01 0.37279387203E+01
 0.41154930202E+01 0.44816099290E+01 0.47858648462E+01 0.49884149780E+01 0.50596068450E+01
 0.49884171744E+01 0.47858507262E+01 0.44815742015E+01 0.41154656002E+01 0.43389928217E+01
 0.37988655701E+01 0.33236620793E+01 0.29262697885E+01 0.26091366370E+01 0.23683496739E+01
 0.21970436811E+01 0.20879112168E+01 0.20350022755E+01 0.20349950658E+01 0.20878996031E+01
 0.21970515054E+01 0.23683902435E+01 0.26091846327E+01 0.29262749578E+01 0.33236072391E+01
 0.37987961732E+01 0.43389695145E+01 0.49169729312E+01 0.54897031040E+01 0.60006079974E+01
 0.63878197747E+01 0.65973238961E+01 0.65973328297E+01 0.63878310298E+01 0.60005931606E+01
 0.54896597958E+01 0.49169410468E+01 0.48869974750E+01 0.41693328276E+01 0.35577539060E+01
 0.30607369937E+01 0.26748088849E+01 0.23905285569E+01 0.21970443714E+01 0.20850408059E+01
 0.20484052464E+01 0.20850328125E+01 0.21970515054E+01 0.23905679305E+01 0.26748599163E+01
 0.30607498855E+01 0.35577038163E+01 0.41692572061E+01 0.48869604507E+01 0.56840356949E+01
 0.65108735178E+01 0.72951072635E+01 0.79490177599E+01 0.83854102424E+01 0.85389909380E+01
 0.83854208137E+01 0.79490197921E+01 0.72950803598E+01 0.65108262747E+01 0.56840124621E+01
 0.53031195431E+01 0.44154051073E+01 0.36838855805E+01 0.31078389023E+01 0.26748102497E+01
 0.23683519521E+01 0.21732871526E+01 0.20785907174E+01 0.20785914794E+01 0.21732997753E+01
 0.23683902435E+01 0.26748599163E+01 0.31078549518E+01 0.36838363713E+01 0.44153177230E+01
 0.53030631018E+01 0.63268285781E+01 0.74369624023E+01 0.85501457948E+01 0.95533549431E+01
 0.10319789848E+02 0.10736614323E+02 0.10736623265E+02 0.10319803120E+02 0.95533426907E+01
 0.85500932683E+01 0.74368991487E+01 0.63268123487E+01 0.55283325654E+01 0.45017454761E+01
 0.36838881551E+01 0.30607374397E+01 0.26091384550E+01 0.23055300644E+01 0.21311437166E+01
 0.20743232061E+01 0.21311645909E+01 0.23055718481E+01 0.26091846327E+01 0.30607498855E+01
 0.36838363713E+01 0.45016490351E+01 0.55282621715E+01 0.67568651091E+01 0.81471145405E+01
 0.96149606393E+01 0.11029864365E+02 0.12226014372E+02 0.13032448889E+02 0.13317821625E+02
 0.13032509156E+02 0.12226070420E+02 0.11029848413E+02 0.96148702073E+01 0.81470210061E+01
 0.67568476999E+01 0.55283347290E+01 0.44154148549E+01 0.35577560175E+01 0.29262636978E+01
 0.24874903729E+01 0.22121989186E+01 0.20797780014E+01 0.20797955036E+01 0.22122438723E+01
 0.24875377864E+01 0.29262749578E+01 0.35577038163E+01 0.44153177230E+01 0.55282621715E+01
 0.69083528285E+01 0.85340774576E+01 0.10334352931E+02 0.12176692537E+02 0.13868164474E+02
 0.15180112668E+02 0.15900753504E+02 0.15900829325E+02 0.15180274143E+02 0.13868273990E+02
 0.12176663773E+02 0.10334220642E+02 0.85339552755E+01 0.69083292356E+01 0.53031358656E+01
 0.41693491181E+01 0.33236516109E+01 0.27232314792E+01 0.23268600437E+01 0.21023179405E+01
 0.20297051995E+01 0.21023521532E+01 0.23269056047E+01 0.27232480642E+01 0.33236072391E+01
 0.41692572061E+01 0.53030631018E+01 0.67568651091E+01 0.85340774576E+01 0.10589148435E+02
 0.12807074272E+02 0.14990744779E+02 0.16871293888E+02 0.18156718552E+02 0.18614913277E+02
 0.18156887249E+02 0.16871503327E+02 0.14990845938E+02 0.12807012917E+02 0.10588993212E+02
 0.85339504502E+01 0.67568444357E+01 0.48870333366E+01 0.37988711974E+01 0.30133540427E+01
 0.24779478454E+01 0.21475673542E+01 0.19904538253E+01 0.19904667537E+01 0.21475973617E+01
 0.24779669644E+01 0.30133277539E+01 0.37987961732E+01 0.48869604507E+01 0.63268285781E+01
 0.81471145405E+01 0.10334352931E+02 0.12807074272E+02 0.15390893078E+02 0.17809389652E+02
 0.19713544515E+02 0.20765966074E+02 0.20766035551E+02 0.19713706011E+02 0.17809536673E+02
 0.15390934656E+02 0.12806994654E+02 0.10334217312E+02 0.81470190962E+01 0.63268287496E+01
 0.43390221870E+01 0.33527247483E+01 0.26648265844E+01 0.22184214930E+01 0.19690301023E+01
 0.18890044433E+01 0.19690390313E+01 0.22184323018E+01 0.26648191616E+01 0.33526841760E+01
 0.43389695145E+01 0.56840356949E+01 0.74369624023E+01 0.96149606393E+01 0.12176692537E+02
 0.14990744779E+02 0.17809389652E+02 0.20270167127E+02 0.21958247739E+02 0.22559374428E+02
 0.21958296163E+02 0.20270239063E+02 0.17809445989E+02 0.14990750303E+02 0.12176639292E+02
 0.96148827674E+01 0.74369166863E+01 0.56840517658E+01 0.37279499482E+01 0.28820555336E+01
 0.23143585449E+01 0.19690440686E+01 0.18065113607E+01 0.18065092017E+01 0.19690408476E+01
 0.23143556527E+01 0.28820474516E+01 0.37279387203E+01 0.49169729312E+01 0.65108735178E+01
 0.85501457948E+01 0.11029864365E+02 0.13868164474E+02 0.16871293888E+02 0.19713544515E+02
 0.21958247739E+02 0.23198749312E+02 0.23198743413E+02 0.21958236184E+02 0.19713542030E+02
 0.16871309432E+02 0.13868185845E+02 0.11029867870E+02 0.85501267380E+01 0.65108539050E+01
 0.49169718573E+01 0.31180266281E+01 0.24308023965E+01 0.19904827723E+01 0.17471381983E+01
 0.16695334562E+01 0.17471264035E+01 0.19904694988E+01 0.24307989700E+01 0.31180410280E+01
 0.41154930202E+01 0.54897031040E+01 0.72951072635E+01 0.95533549431E+01 0.12226014372E+02
 0.15180112668E+02 0.18156718552E+02 0.20765966074E+02 0.22559374428E+02 0.23198743413E+02
 0.22559321499E+02 0.20765892832E+02 0.18156677781E+02 0.15180137805E+02 0.12226083060E+02
 0.95534082585E+01 0.72951098283E+01 0.54896702590E+01 0.41154600757E+01 0.25586286175E+01
 0.20297244384E+01 0.17109731875E+01 0.15619508589E+01 0.15619415901E+01 0.17109515104E+01
 0.20297060613E+01 0.25586330030E+01 0.33543184891E+01 0.44816099290E+01 0.60006079974E+01
 0.79490177599E+01 0.10319789848E+02 0.13032448889E+02 0.15900753504E+02 0.18614913277E+02
 0.20766035551E+02 0.21958296163E+02 0.21958236184E+02 0.20765892832E+02 0.18614780518E+02
 0.15900719523E+02 0.13032526862E+02 0.10319904678E+02 0.79490786991E+01 0.60005897436E+01
 0.44815556127E+01 0.33542801172E+01 0.20797939174E+01 0.16947860052E+01 0.14830823202E+01
 0.14157575933E+01 0.14830655457E+01 0.16947615208E+01 0.20797793150E+01 0.26843530215E+01
 0.35665670661E+01 0.47858648462E+01 0.63878197747E+01 0.83854102424E+01 0.10736614323E+02
 0.13317821625E+02 0.15900829325E+02 0.18156887249E+02 0.19713706011E+02 0.20270239063E+02
 0.19713542030E+02 0.18156677781E+02 0.15900719523E+02 0.13317869439E+02 0.10736752139E+02
 0.83855181106E+01 0.63878341868E+01 0.47858138623E+01 0.35665153500E+01 0.26843367705E+01
 0.16929739960E+01 0.14293042213E+01 0.13061309060E+01 0.13061251617E+01 0.14292890102E+01
 0.16929564827E+01 0.21311475985E+01 0.27915684359E+01 0.37281412566E+01 0.49884149780E+01
 0.65973238961E+01 0.85389909380E+01 0.10736623265E+02 0.13032509156E+02 0.15180274143E+02
 0.16871503327E+02 0.17809536673E+02 0.17809445989E+02 0.16871309432E+02 0.15180137805E+02
 0.13032526862E+02 0.10736752139E+02 0.85391098407E+01 0.65973527903E+01 0.49883683976E+01
 0.37280830022E+01 0.27915414028E+01 0.21311522528E+01 0.13955678692E+01 0.12283162487E+01
 0.11750111429E+01 0.12283122224E+01 0.13955576765E+01 0.16987138070E+01 0.21732902960E+01
 0.28640463626E+01 0.38157695481E+01 0.50596068450E+01 0.65973328297E+01 0.83854208137E+01
 0.10319803120E+02 0.12226070420E+02 0.13868273990E+02 0.14990845938E+02 0.15390934656E+02
 0.14990750303E+02 0.13868185845E+02 0.12226083060E+02 0.10319904678E+02 0.83855181106E+01
 0.65973527903E+01 0.50595572470E+01 0.38157084952E+01 0.28640166981E+01 0.21732927604E+01
 0.16987276197E+01 0.11771709300E+01 0.10833142513E+01 0.10833154495E+01 0.11771687881E+01
 0.13766789211E+01 0.17054227018E+01 0.21970436504E+01 0.28896966618E+01 0.38157643339E+01
 0.49884171744E+01 0.63878310298E+01 0.79490197921E+01 0.95533426907E+01 0.11029848413E+02
 0.12176663773E+02 0.12807012917E+02 0.12806994654E+02 0.12176639292E+02 0.11029867870E+02
 0.95534082585E+01 0.79490786991E+01 0.63878341868E+01 0.49883683976E+01 0.38157084952E+01
 0.28896722311E+01 0.21970540046E+01 0.17054456044E+01 0.13766932987E+01 0.10254069839E+01
 0.98591442294E+00 0.10254117314E+01 0.11483681591E+01 0.13684281843E+01 0.17082522951E+01
 0.21970417048E+01 0.28640361781E+01 0.37281257753E+01 0.47858507262E+01 0.60005931606E+01
 0.72950803598E+01 0.85500932683E+01 0.96148702073E+01 0.10334220642E+02 0.10588993212E+02
 0.10334217312E+02 0.96148827674E+01 0.85501267380E+01 0.72951098283E+01 0.60005897436E+01
 0.47858138623E+01 0.37280830022E+01 0.28640166981E+01 0.21970540046E+01 0.17082815705E+01
 0.13684510270E+01 0.11483729913E+01 0.92985249417E+00 0.92985752293E+00 0.99741599301E+00
 0.11390935043E+01 0.13684309814E+01 0.17054257707E+01 0.21732900578E+01 0.27915619380E+01
 0.35665472136E+01 0.44815742015E+01 0.54896597958E+01 0.65108262747E+01 0.74368991487E+01
 0.81470210061E+01 0.85339552755E+01 0.85339504502E+01 0.81470190962E+01 0.74369166863E+01
 0.65108539050E+01 0.54896702590E+01 0.44815556127E+01 0.35665153500E+01 0.27915414028E+01
 0.21732927604E+01 0.17054456044E+01 0.13684510270E+01 0.11390996329E+01 0.99740946287E+00
 0.88367735639E+00 0.91154843177E+00 0.99741401258E+00 0.11483694998E+01 0.13766815045E+01
 0.16987163550E+01 0.21311565203E+01 0.26843635377E+01 0.33543121363E+01 0.41154656002E+01
 0.49169410468E+01 0.56840124621E+01 0.63268123487E+01 0.67568476999E+01 0.69083292356E+01
 0.67568444357E+01 0.63268287496E+01 0.56840517658E+01 0.49169718573E+01 0.41154600757E+01
 0.33542801172E+01 0.26843367705E+01 0.21311522528E+01 0.16987276197E+01 0.13766932987E+01
 0.11483729913E+01 0.99740946287E+00 0.91154265428E+00 0.96784438322E+00 0.10254098720E+01
 0.11256510424E+01 0.12751612614E+01 0.14826060644E+01 0.17566653025E+01 0.21023229309E+01
 0.25160789987E+01 0.29815188719E+01 0.34670882141E+01 0.39276254766E+01 0.43103484657E+01
 0.45647268861E+01 0.46540157578E+01 0.45647357285E+01 0.43103609779E+01 0.39276277619E+01
 0.34670703735E+01 0.29814937376E+01 0.25160729519E+01 0.21023435488E+01 0.17566912677E+01
 0.14826142543E+01 0.12751519494E+01 0.11256402424E+01 0.10254071425E+01 0.96784629069E+00
 0.94907468462E+00 0.10254098720E+01 0.10833172962E+01 0.11750182320E+01 0.13061339168E+01
 0.14830674910E+01 0.17109423587E+01 0.19904592046E+01 0.23143633457E+01 0.26648542976E+01
 0.30133803835E+01 0.33236612243E+01 0.35577540120E+01 0.36838874346E+01 0.36838911500E+01
 0.35577586803E+01 0.33236535276E+01 0.30133556812E+01 0.26648276150E+01 0.23143580778E+01
 0.19904809807E+01 0.17109710363E+01 0.14830799931E+01 0.13061281454E+01 0.11750087702E+01
 0.10833147799E+01 0.10254126944E+01 0.99741743746E+00 0.99741555053E+00 0.11256510424E+01
 0.11750182320E+01 0.12499375204E+01 0.13553991449E+01 0.14961315920E+01 0.16746931496E+01