   2   2   0   0
  0.2001288E+02  0.3839590E-09  0.3839590E-09  0.3839590E-09  0.5000000E-15
  1.000000000000000E-004
  CAR 
 unknown system                          
     16.62225039     -8.11629392  301      6.14175889      1.00000000
     -8.116  0.0000E+00  0.0000E+00
     -8.034  0.0000E+00  0.0000E+00
     -7.951  0.0000E+00  0.0000E+00
     -7.869  0.0000E+00  0.0000E+00
     -7.786  0.0000E+00  0.0000E+00
     -7.704  0.0000E+00  0.0000E+00
     -7.622  0.0000E+00  0.0000E+00
     -7.539  0.0000E+00  0.0000E+00
     -7.457  0.0000E+00  0.0000E+00
     -7.374  0.0000E+00  0.0000E+00
     -7.292  0.7181E-18  0.5921E-19
     -7.209  0.6965E-16  0.5803E-17
     -7.127  0.5749E-14  0.4799E-15
     -7.044  0.3377E-12  0.2833E-13
     -6.962  0.1419E-10  0.1199E-11
     -6.879  0.4268E-09  0.3640E-10
     -6.797  0.9192E-08  0.7944E-09
     -6.714  0.1418E-06  0.1249E-07
     -6.632  0.1568E-05  0.1418E-06
     -6.550  0.1244E-04  0.1167E-05
     -6.467  0.7075E-04  0.7002E-05
     -6.385  0.2889E-03  0.3083E-04
     -6.302  0.8474E-03  0.1007E-03
     -6.220  0.1785E-02  0.2479E-03
     -6.137  0.2708E-02  0.4712E-03
     -6.055  0.2995E-02  0.7182E-03
     -5.972  0.2660E-02  0.9376E-03
     -5.890  0.2937E-02  0.1180E-02
     -5.807  0.5924E-02  0.1668E-02
     -5.725  0.1313E-01  0.2751E-02
     -5.642  0.2324E-01  0.4668E-02
     -5.560  0.3178E-01  0.7288E-02
     -5.478  0.3440E-01  0.1012E-01
     -5.395  0.3020E-01  0.1262E-01
     -5.313  0.2152E-01  0.1439E-01
     -5.230  0.1220E-01  0.1540E-01
     -5.148  0.5701E-02  0.1587E-01
     -5.065  0.3822E-02  0.1618E-01
     -4.983  0.7481E-02  0.1680E-01
     -4.900  0.1694E-01  0.1820E-01
     -4.818  0.2891E-01  0.2058E-01
     -4.735  0.3570E-01  0.2352E-01
     -4.653  0.3257E-01  0.2621E-01
     -4.570  0.2541E-01  0.2830E-01
     -4.488  0.2727E-01  0.3055E-01
     -4.406  0.4648E-01  0.3439E-01
     -4.323  0.7581E-01  0.4064E-01
     -4.241  0.9376E-01  0.4837E-01
     -4.158  0.8437E-01  0.5533E-01
     -4.076  0.5494E-01  0.5986E-01
     -3.993  0.2588E-01  0.6199E-01
     -3.911  0.8861E-02  0.6272E-01
     -3.828  0.2536E-02  0.6293E-01
     -3.746  0.2464E-02  0.6313E-01
     -3.663  0.8566E-02  0.6384E-01
     -3.581  0.2509E-01  0.6591E-01
     -3.498  0.5309E-01  0.7029E-01
     -3.416  0.8088E-01  0.7696E-01
     -3.334  0.8930E-01  0.8432E-01
     -3.251  0.7423E-01  0.9044E-01
     -3.169  0.5494E-01  0.9497E-01
     -3.086  0.5223E-01  0.9928E-01
     -3.004  0.6465E-01  0.1046E+00
     -2.921  0.7217E-01  0.1106E+00
     -2.839  0.6083E-01  0.1156E+00
     -2.756  0.3719E-01  0.1186E+00
     -2.674  0.1640E-01  0.1200E+00
     -2.591  0.5501E-02  0.1205E+00
     -2.509  0.2809E-02  0.1207E+00
     -2.426  0.5973E-02  0.1212E+00
     -2.344  0.1469E-01  0.1224E+00
     -2.262  0.2674E-01  0.1246E+00
     -2.179  0.3502E-01  0.1275E+00
     -2.097  0.3298E-01  0.1302E+00
     -2.014  0.2247E-01  0.1321E+00
     -1.932  0.1182E-01  0.1330E+00
     -1.849  0.7707E-02  0.1337E+00
     -1.767  0.1208E-01  0.1347E+00
     -1.684  0.2285E-01  0.1365E+00
     -1.602  0.3321E-01  0.1393E+00
     -1.519  0.3490E-01  0.1422E+00
     -1.437  0.2637E-01  0.1443E+00
     -1.354  0.1437E-01  0.1455E+00
     -1.272  0.6004E-02  0.1460E+00
     -1.190  0.3879E-02  0.1463E+00
     -1.107  0.9539E-02  0.1471E+00
     -1.025  0.2703E-01  0.1493E+00
     -0.942  0.5875E-01  0.1542E+00
     -0.860  0.9687E-01  0.1622E+00
     -0.777  0.1233E+00  0.1724E+00
     -0.695  0.1236E+00  0.1825E+00
     -0.612  0.1008E+00  0.1909E+00
     -0.530  0.7285E-01  0.1969E+00
     -0.447  0.5512E-01  0.2014E+00
     -0.365  0.4684E-01  0.2053E+00
     -0.282  0.3842E-01  0.2084E+00
     -0.200  0.2593E-01  0.2106E+00
     -0.117  0.1344E-01  0.2117E+00
     -0.035  0.5216E-02  0.2121E+00
      0.047  0.1559E-02  0.2122E+00
      0.130  0.7788E-03  0.2123E+00
      0.212  0.2487E-02  0.2125E+00
      0.295  0.9214E-02  0.2133E+00
      0.377  0.2498E-01  0.2153E+00
      0.460  0.4866E-01  0.2193E+00
      0.542  0.6812E-01  0.2250E+00
      0.625  0.6852E-01  0.2306E+00
      0.707  0.4953E-01  0.2347E+00
      0.790  0.2572E-01  0.2368E+00
      0.872  0.9620E-02  0.2376E+00
      0.955  0.2757E-02  0.2378E+00
      1.037  0.1512E-02  0.2380E+00
      1.119  0.4067E-02  0.2383E+00
      1.202  0.1129E-01  0.2392E+00
      1.284  0.2290E-01  0.2411E+00
      1.367  0.3357E-01  0.2439E+00
      1.449  0.3640E-01  0.2469E+00
      1.532  0.3279E-01  0.2496E+00
      1.614  0.3473E-01  0.2525E+00
      1.697  0.5289E-01  0.2568E+00
      1.779  0.8228E-01  0.2636E+00
      1.862  0.1020E+00  0.2720E+00
      1.944  0.9461E-01  0.2798E+00
      2.027  0.6524E-01  0.2852E+00
      2.109  0.3580E-01  0.2881E+00
      2.191  0.2405E-01  0.2901E+00
      2.274  0.3373E-01  0.2929E+00
      2.356  0.5547E-01  0.2975E+00
      2.439  0.7131E-01  0.3034E+00
      2.521  0.6939E-01  0.3091E+00
      2.604  0.5963E-01  0.3140E+00
      2.686  0.6556E-01  0.3194E+00
      2.769  0.9575E-01  0.3273E+00
      2.851  0.1293E+00  0.3380E+00
      2.934  0.1393E+00  0.3495E+00
      3.016  0.1298E+00  0.3602E+00
      3.099  0.1298E+00  0.3709E+00
      3.181  0.1486E+00  0.3831E+00
      3.263  0.1589E+00  0.3962E+00
      3.346  0.1349E+00  0.4073E+00
      3.428  0.8611E-01  0.4144E+00
      3.511  0.4196E-01  0.4179E+00
      3.593  0.2104E-01  0.4196E+00
      3.676  0.2462E-01  0.4217E+00
      3.758  0.4528E-01  0.4254E+00
      3.841  0.6959E-01  0.4311E+00
      3.923  0.8403E-01  0.4381E+00
      4.006  0.8777E-01  0.4453E+00
      4.088  0.8986E-01  0.4527E+00
      4.171  0.9162E-01  0.4603E+00
      4.253  0.8631E-01  0.4674E+00
      4.335  0.7288E-01  0.4734E+00
      4.418  0.5664E-01  0.4781E+00
      4.500  0.4327E-01  0.4816E+00
      4.583  0.3854E-01  0.4848E+00
      4.665  0.4413E-01  0.4885E+00
      4.748  0.5246E-01  0.4928E+00
      4.830  0.5475E-01  0.4973E+00
      4.913  0.5198E-01  0.5016E+00
      4.995  0.5017E-01  0.5057E+00
      5.078  0.5082E-01  0.5099E+00
      5.160  0.5301E-01  0.5143E+00
      5.243  0.5567E-01  0.5189E+00
      5.325  0.5373E-01  0.5233E+00
      5.407  0.4230E-01  0.5268E+00
      5.490  0.2529E-01  0.5289E+00
      5.572  0.1150E-01  0.5298E+00
      5.655  0.5202E-02  0.5303E+00
      5.737  0.4959E-02  0.5307E+00
      5.820  0.7308E-02  0.5313E+00
      5.902  0.8890E-02  0.5320E+00
      5.985  0.7912E-02  0.5327E+00
      6.067  0.5244E-02  0.5331E+00
      6.150  0.3320E-02  0.5334E+00
      6.232  0.4170E-02  0.5337E+00
      6.315  0.8406E-02  0.5344E+00
      6.397  0.1430E-01  0.5356E+00
      6.479  0.1792E-01  0.5371E+00
      6.562  0.1687E-01  0.5384E+00
      6.644  0.1420E-01  0.5396E+00
      6.727  0.1605E-01  0.5409E+00
      6.809  0.2470E-01  0.5430E+00
      6.892  0.3484E-01  0.5458E+00
      6.974  0.3887E-01  0.5491E+00
      7.057  0.3632E-01  0.5520E+00
      7.139  0.3381E-01  0.5548E+00
      7.222  0.3577E-01  0.5578E+00
      7.304  0.4118E-01  0.5612E+00
      7.387  0.4915E-01  0.5652E+00
      7.469  0.6163E-01  0.5703E+00
      7.551  0.7837E-01  0.5768E+00
      7.634  0.9235E-01  0.5844E+00
      7.716  0.9611E-01  0.5923E+00
      7.799  0.9321E-01  0.6000E+00
      7.881  0.9324E-01  0.6077E+00
      7.964  0.9462E-01  0.6155E+00
      8.046  0.8626E-01  0.6226E+00
      8.129  0.6535E-01  0.6280E+00
      8.211  0.4100E-01  0.6314E+00
      8.294  0.2309E-01  0.6333E+00
      8.376  0.1457E-01  0.6345E+00
      8.459  0.1260E-01  0.6355E+00
      8.541  0.1435E-01  0.6367E+00
      8.623  0.2027E-01  0.6384E+00
      8.706  0.3041E-01  0.6409E+00
      8.788  0.4039E-01  0.6442E+00
      8.871  0.4646E-01  0.6480E+00
      8.953  0.5284E-01  0.6524E+00
      9.036  0.6904E-01  0.6581E+00
      9.118  0.1015E+00  0.6665E+00
      9.201  0.1447E+00  0.6784E+00
      9.283  0.1752E+00  0.6928E+00
      9.366  0.1679E+00  0.7067E+00
      9.448  0.1290E+00  0.7173E+00
      9.531  0.9454E-01  0.7251E+00
      9.613  0.8916E-01  0.7325E+00
      9.695  0.1048E+00  0.7411E+00
      9.778  0.1214E+00  0.7511E+00
      9.860  0.1310E+00  0.7619E+00
      9.943  0.1330E+00  0.7729E+00
     10.025  0.1262E+00  0.7833E+00
     10.108  0.1154E+00  0.7928E+00
     10.190  0.1130E+00  0.8021E+00
     10.273  0.1232E+00  0.8123E+00
     10.355  0.1361E+00  0.8235E+00
     10.438  0.1423E+00  0.8353E+00
     10.520  0.1436E+00  0.8471E+00
     10.603  0.1500E+00  0.8595E+00
     10.685  0.1661E+00  0.8732E+00
     10.767  0.1797E+00  0.8880E+00
     10.850  0.1683E+00  0.9019E+00
     10.932  0.1260E+00  0.9123E+00
     11.015  0.7400E-01  0.9184E+00
     11.097  0.4000E-01  0.9217E+00
     11.180  0.3541E-01  0.9246E+00
     11.262  0.5248E-01  0.9289E+00
     11.345  0.7196E-01  0.9348E+00
     11.427  0.7742E-01  0.9412E+00
     11.510  0.6894E-01  0.9469E+00
     11.592  0.5730E-01  0.9516E+00
     11.675  0.4772E-01  0.9556E+00
     11.757  0.3938E-01  0.9588E+00
     11.839  0.3328E-01  0.9616E+00
     11.922  0.2969E-01  0.9640E+00
     12.004  0.2495E-01  0.9661E+00
     12.087  0.1701E-01  0.9675E+00
     12.169  0.8685E-02  0.9682E+00
     12.252  0.3228E-02  0.9684E+00
     12.334  0.8652E-03  0.9685E+00
     12.417  0.1666E-03  0.9685E+00
     12.499  0.2304E-04  0.9685E+00
     12.582  0.2285E-05  0.9685E+00
     12.664  0.1632E-06  0.9685E+00
     12.747  0.2867E-07  0.9685E+00
     12.829  0.4092E-06  0.9685E+00
     12.911  0.5874E-05  0.9685E+00
     12.994  0.6052E-04  0.9685E+00
     13.076  0.4477E-03  0.9686E+00
     13.159  0.2384E-02  0.9688E+00
     13.241  0.9171E-02  0.9695E+00
     13.324  0.2573E-01  0.9717E+00
     13.406  0.5366E-01  0.9761E+00
     13.489  0.8631E-01  0.9832E+00
     13.571  0.1131E+00  0.9925E+00
     13.654  0.1270E+00  0.1003E+01
     13.736  0.1238E+00  0.1013E+01
     13.819  0.1033E+00  0.1022E+01
     13.901  0.7663E-01  0.1028E+01
     13.983  0.5685E-01  0.1033E+01
     14.066  0.4422E-01  0.1036E+01
     14.148  0.3291E-01  0.1039E+01
     14.231  0.2453E-01  0.1041E+01
     14.313  0.2570E-01  0.1043E+01
     14.396  0.3719E-01  0.1046E+01
     14.478  0.5142E-01  0.1051E+01
     14.561  0.5902E-01  0.1055E+01
     14.643  0.5522E-01  0.1060E+01
     14.726  0.4153E-01  0.1063E+01
     14.808  0.2441E-01  0.1065E+01
     14.891  0.1087E-01  0.1066E+01
     14.973  0.3586E-02  0.1067E+01
     15.055  0.8635E-03  0.1067E+01
     15.138  0.1505E-03  0.1067E+01
     15.220  0.1890E-04  0.1067E+01
     15.303  0.1705E-05  0.1067E+01
     15.385  0.1104E-06  0.1067E+01
     15.468  0.5125E-08  0.1067E+01
     15.550  0.1703E-09  0.1067E+01
     15.633  0.4053E-11  0.1067E+01
     15.715  0.6898E-13  0.1067E+01
     15.798  0.8444E-15  0.1067E+01
     15.880  0.0000E+00  0.1067E+01
     15.963  0.0000E+00  0.1067E+01
     16.045  0.0000E+00  0.1067E+01
     16.127  0.0000E+00  0.1067E+01
     16.210  0.0000E+00  0.1067E+01
     16.292  0.0000E+00  0.1067E+01
     16.375  0.0000E+00  0.1067E+01
     16.457  0.0000E+00  0.1067E+01
     16.540  0.0000E+00  0.1067E+01
     16.622  0.0000E+00  0.1067E+01
