   2   2   0   0
  0.2001288E+02  0.3839590E-09  0.3839590E-09  0.3839590E-09  0.5000000E-15
  1.000000000000000E-004
  CAR 
 unknown system                          
     16.62041151     -8.11757364  301      6.13981046      1.00000000
     -8.118  0.0000E+00  0.0000E+00
     -8.035  0.0000E+00  0.0000E+00
     -7.953  0.0000E+00  0.0000E+00
     -7.870  0.0000E+00  0.0000E+00
     -7.788  0.0000E+00  0.0000E+00
     -7.705  0.0000E+00  0.0000E+00
     -7.623  0.0000E+00  0.0000E+00
     -7.540  0.0000E+00  0.0000E+00
     -7.458  0.0000E+00  0.0000E+00
     -7.375  0.0000E+00  0.0000E+00
     -7.293  0.7181E-18  0.5921E-19
     -7.211  0.6965E-16  0.5803E-17
     -7.128  0.5743E-14  0.4794E-15
     -7.046  0.3373E-12  0.2830E-13
     -6.963  0.1418E-10  0.1197E-11
     -6.881  0.4264E-09  0.3636E-10
     -6.798  0.9182E-08  0.7935E-09
     -6.716  0.1417E-06  0.1248E-07
     -6.633  0.1567E-05  0.1417E-06
     -6.551  0.1243E-04  0.1166E-05
     -6.468  0.7070E-04  0.6997E-05
     -6.386  0.2888E-03  0.3081E-04
     -6.303  0.8470E-03  0.1007E-03
     -6.221  0.1785E-02  0.2478E-03
     -6.139  0.2707E-02  0.4711E-03
     -6.056  0.2996E-02  0.7181E-03
     -5.974  0.2660E-02  0.9374E-03
     -5.891  0.2936E-02  0.1180E-02
     -5.809  0.5920E-02  0.1668E-02
     -5.726  0.1312E-01  0.2749E-02
     -5.644  0.2323E-01  0.4665E-02
     -5.561  0.3177E-01  0.7285E-02
     -5.479  0.3440E-01  0.1012E-01
     -5.396  0.3021E-01  0.1261E-01
     -5.314  0.2153E-01  0.1439E-01
     -5.231  0.1221E-01  0.1540E-01
     -5.149  0.5706E-02  0.1587E-01
     -5.067  0.3820E-02  0.1618E-01
     -4.984  0.7469E-02  0.1680E-01
     -4.902  0.1692E-01  0.1819E-01
     -4.819  0.2889E-01  0.2057E-01
     -4.737  0.3569E-01  0.2352E-01
     -4.654  0.3258E-01  0.2620E-01
     -4.572  0.2541E-01  0.2830E-01
     -4.489  0.2725E-01  0.3055E-01
     -4.407  0.4642E-01  0.3437E-01
     -4.324  0.7574E-01  0.4062E-01
     -4.242  0.9374E-01  0.4835E-01
     -4.159  0.8442E-01  0.5531E-01
     -4.077  0.5502E-01  0.5985E-01
     -3.995  0.2594E-01  0.6199E-01
     -3.912  0.8888E-02  0.6272E-01
     -3.830  0.2542E-02  0.6293E-01
     -3.747  0.2455E-02  0.6313E-01
     -3.665  0.8531E-02  0.6384E-01
     -3.582  0.2501E-01  0.6590E-01
     -3.500  0.5298E-01  0.7027E-01
     -3.417  0.8080E-01  0.7693E-01
     -3.335  0.8932E-01  0.8430E-01
     -3.252  0.7430E-01  0.9042E-01
     -3.170  0.5499E-01  0.9496E-01
     -3.088  0.5221E-01  0.9926E-01
     -3.005  0.6461E-01  0.1046E+00
     -2.923  0.7218E-01  0.1105E+00
     -2.840  0.6090E-01  0.1156E+00
     -2.758  0.3727E-01  0.1186E+00
     -2.675  0.1646E-01  0.1200E+00
     -2.593  0.5523E-02  0.1204E+00
     -2.510  0.2807E-02  0.1207E+00
     -2.428  0.5948E-02  0.1212E+00
     -2.345  0.1465E-01  0.1224E+00
     -2.263  0.2669E-01  0.1246E+00
     -2.180  0.3501E-01  0.1275E+00
     -2.098  0.3301E-01  0.1302E+00
     -2.016  0.2252E-01  0.1320E+00
     -1.933  0.1186E-01  0.1330E+00
     -1.851  0.7711E-02  0.1337E+00
     -1.768  0.1206E-01  0.1347E+00
     -1.686  0.2281E-01  0.1365E+00
     -1.603  0.3319E-01  0.1393E+00
     -1.521  0.3491E-01  0.1422E+00
     -1.438  0.2641E-01  0.1443E+00
     -1.356  0.1441E-01  0.1455E+00
     -1.273  0.6025E-02  0.1460E+00
     -1.191  0.3882E-02  0.1463E+00
     -1.108  0.9523E-02  0.1471E+00
     -1.026  0.2698E-01  0.1493E+00
     -0.944  0.5867E-01  0.1542E+00
     -0.861  0.9676E-01  0.1622E+00
     -0.779  0.1232E+00  0.1723E+00
     -0.696  0.1236E+00  0.1825E+00
     -0.614  0.1008E+00  0.1908E+00
     -0.531  0.7295E-01  0.1968E+00
     -0.449  0.5518E-01  0.2014E+00
     -0.366  0.4687E-01  0.2053E+00
     -0.284  0.3844E-01  0.2084E+00
     -0.201  0.2596E-01  0.2106E+00
     -0.119  0.1346E-01  0.2117E+00
     -0.036  0.5234E-02  0.2121E+00
      0.046  0.1565E-02  0.2122E+00
      0.128  0.7782E-03  0.2123E+00
      0.211  0.2476E-02  0.2125E+00
      0.293  0.9180E-02  0.2133E+00
      0.376  0.2491E-01  0.2153E+00
      0.458  0.4858E-01  0.2193E+00
      0.541  0.6808E-01  0.2249E+00
      0.623  0.6856E-01  0.2306E+00
      0.706  0.4961E-01  0.2347E+00
      0.788  0.2579E-01  0.2368E+00
      0.871  0.9656E-02  0.2376E+00
      0.953  0.2768E-02  0.2378E+00
      1.035  0.1509E-02  0.2380E+00
      1.118  0.4050E-02  0.2383E+00
      1.200  0.1125E-01  0.2392E+00
      1.283  0.2285E-01  0.2411E+00
      1.365  0.3354E-01  0.2439E+00
      1.448  0.3641E-01  0.2469E+00
      1.530  0.3283E-01  0.2496E+00
      1.613  0.3475E-01  0.2524E+00
      1.695  0.5288E-01  0.2568E+00
      1.778  0.8226E-01  0.2636E+00
      1.860  0.1020E+00  0.2720E+00
      1.943  0.9463E-01  0.2798E+00
      2.025  0.6527E-01  0.2852E+00
      2.107  0.3582E-01  0.2881E+00
      2.190  0.2404E-01  0.2901E+00
      2.272  0.3369E-01  0.2929E+00
      2.355  0.5542E-01  0.2975E+00
      2.437  0.7129E-01  0.3034E+00
      2.520  0.6940E-01  0.3091E+00
      2.602  0.5962E-01  0.3140E+00
      2.685  0.6548E-01  0.3194E+00
      2.767  0.9562E-01  0.3273E+00
      2.850  0.1292E+00  0.3379E+00
      2.932  0.1393E+00  0.3494E+00
      3.015  0.1297E+00  0.3601E+00
      3.097  0.1297E+00  0.3708E+00
      3.179  0.1484E+00  0.3830E+00
      3.262  0.1589E+00  0.3961E+00
      3.344  0.1352E+00  0.4073E+00
      3.427  0.8639E-01  0.4144E+00
      3.509  0.4214E-01  0.4179E+00
      3.592  0.2106E-01  0.4196E+00
      3.674  0.2450E-01  0.4216E+00
      3.757  0.4508E-01  0.4254E+00
      3.839  0.6943E-01  0.4311E+00
      3.922  0.8397E-01  0.4380E+00
      4.004  0.8777E-01  0.4453E+00
      4.086  0.8985E-01  0.4527E+00
      4.169  0.9163E-01  0.4602E+00
      4.251  0.8639E-01  0.4673E+00
      4.334  0.7300E-01  0.4734E+00
      4.416  0.5677E-01  0.4780E+00
      4.499  0.4336E-01  0.4816E+00
      4.581  0.3854E-01  0.4848E+00
      4.664  0.4408E-01  0.4884E+00
      4.746  0.5243E-01  0.4928E+00
      4.829  0.5476E-01  0.4973E+00
      4.911  0.5201E-01  0.5016E+00
      4.994  0.5018E-01  0.5057E+00
      5.076  0.5082E-01  0.5099E+00
      5.158  0.5300E-01  0.5143E+00
      5.241  0.5567E-01  0.5188E+00
      5.323  0.5377E-01  0.5233E+00
      5.406  0.4240E-01  0.5268E+00
      5.488  0.2539E-01  0.5289E+00
      5.571  0.1156E-01  0.5298E+00
      5.653  0.5223E-02  0.5303E+00
      5.736  0.4956E-02  0.5307E+00
      5.818  0.7299E-02  0.5313E+00
      5.901  0.8889E-02  0.5320E+00
      5.983  0.7921E-02  0.5326E+00
      6.066  0.5259E-02  0.5331E+00
      6.148  0.3344E-02  0.5334E+00
      6.230  0.4214E-02  0.5337E+00
      6.313  0.8473E-02  0.5344E+00
      6.395  0.1436E-01  0.5356E+00
      6.478  0.1793E-01  0.5371E+00
      6.560  0.1684E-01  0.5385E+00
      6.643  0.1418E-01  0.5396E+00
      6.725  0.1610E-01  0.5410E+00
      6.808  0.2481E-01  0.5430E+00
      6.890  0.3492E-01  0.5459E+00
      6.973  0.3886E-01  0.5491E+00
      7.055  0.3627E-01  0.5521E+00
      7.138  0.3377E-01  0.5549E+00
      7.220  0.3574E-01  0.5578E+00
      7.302  0.4116E-01  0.5612E+00
      7.385  0.4917E-01  0.5653E+00
      7.467  0.6169E-01  0.5703E+00
      7.550  0.7845E-01  0.5768E+00
      7.632  0.9238E-01  0.5844E+00
      7.715  0.9606E-01  0.5924E+00
      7.797  0.9314E-01  0.6000E+00
      7.880  0.9319E-01  0.6077E+00
      7.962  0.9457E-01  0.6155E+00
      8.045  0.8620E-01  0.6226E+00
      8.127  0.6527E-01  0.6280E+00
      8.209  0.4092E-01  0.6314E+00
      8.292  0.2302E-01  0.6333E+00
      8.374  0.1451E-01  0.6345E+00
      8.457  0.1257E-01  0.6355E+00
      8.539  0.1434E-01  0.6367E+00
      8.622  0.2024E-01  0.6384E+00
      8.704  0.3037E-01  0.6409E+00
      8.787  0.4041E-01  0.6442E+00
      8.869  0.4657E-01  0.6480E+00
      8.952  0.5294E-01  0.6524E+00
      9.034  0.6897E-01  0.6581E+00
      9.117  0.1012E+00  0.6664E+00
      9.199  0.1443E+00  0.6783E+00
      9.281  0.1750E+00  0.6928E+00
      9.364  0.1681E+00  0.7066E+00
      9.446  0.1295E+00  0.7173E+00
      9.529  0.9510E-01  0.7251E+00
      9.611  0.8954E-01  0.7325E+00
      9.694  0.1048E+00  0.7412E+00
      9.776  0.1211E+00  0.7512E+00
      9.859  0.1307E+00  0.7619E+00
      9.941  0.1330E+00  0.7729E+00
     10.024  0.1264E+00  0.7833E+00
     10.106  0.1155E+00  0.7928E+00
     10.189  0.1129E+00  0.8021E+00
     10.271  0.1230E+00  0.8123E+00
     10.353  0.1361E+00  0.8235E+00
     10.436  0.1423E+00  0.8352E+00
     10.518  0.1435E+00  0.8471E+00
     10.601  0.1495E+00  0.8594E+00
     10.683  0.1656E+00  0.8731E+00
     10.766  0.1795E+00  0.8879E+00
     10.848  0.1686E+00  0.9018E+00
     10.931  0.1265E+00  0.9122E+00
     11.013  0.7436E-01  0.9183E+00
     11.096  0.4008E-01  0.9216E+00
     11.178  0.3522E-01  0.9245E+00
     11.261  0.5220E-01  0.9288E+00
     11.343  0.7185E-01  0.9348E+00
     11.425  0.7763E-01  0.9412E+00
     11.508  0.6934E-01  0.9469E+00
     11.590  0.5764E-01  0.9516E+00
     11.673  0.4788E-01  0.9556E+00
     11.755  0.3942E-01  0.9588E+00
     11.838  0.3328E-01  0.9616E+00
     11.920  0.2968E-01  0.9640E+00
     12.003  0.2490E-01  0.9661E+00
     12.085  0.1693E-01  0.9675E+00
     12.168  0.8620E-02  0.9682E+00
     12.250  0.3195E-02  0.9684E+00
     12.332  0.8537E-03  0.9685E+00
     12.415  0.1639E-03  0.9685E+00
     12.497  0.2260E-04  0.9685E+00
     12.580  0.2235E-05  0.9685E+00
     12.662  0.1591E-06  0.9685E+00
     12.745  0.2863E-07  0.9685E+00
     12.827  0.4125E-06  0.9685E+00
     12.910  0.5916E-05  0.9685E+00
     12.992  0.6090E-04  0.9685E+00
     13.075  0.4501E-03  0.9686E+00
     13.157  0.2394E-02  0.9688E+00
     13.240  0.9204E-02  0.9695E+00
     13.322  0.2581E-01  0.9717E+00
     13.404  0.5382E-01  0.9761E+00
     13.487  0.8655E-01  0.9832E+00
     13.569  0.1134E+00  0.9926E+00
     13.652  0.1273E+00  0.1003E+01
     13.734  0.1237E+00  0.1013E+01
     13.817  0.1028E+00  0.1022E+01
     13.899  0.7607E-01  0.1028E+01
     13.982  0.5646E-01  0.1033E+01
     14.064  0.4413E-01  0.1036E+01
     14.147  0.3302E-01  0.1039E+01
     14.229  0.2464E-01  0.1041E+01
     14.312  0.2570E-01  0.1043E+01
     14.394  0.3714E-01  0.1046E+01
     14.476  0.5143E-01  0.1051E+01
     14.559  0.5912E-01  0.1055E+01
     14.641  0.5534E-01  0.1060E+01
     14.724  0.4161E-01  0.1063E+01
     14.806  0.2444E-01  0.1065E+01
     14.889  0.1088E-01  0.1066E+01
     14.971  0.3587E-02  0.1067E+01
     15.054  0.8632E-03  0.1067E+01
     15.136  0.1504E-03  0.1067E+01
     15.219  0.1888E-04  0.1067E+01
     15.301  0.1704E-05  0.1067E+01
     15.384  0.1103E-06  0.1067E+01
     15.466  0.5119E-08  0.1067E+01
     15.548  0.1702E-09  0.1067E+01
     15.631  0.4049E-11  0.1067E+01
     15.713  0.6892E-13  0.1067E+01
     15.796  0.8444E-15  0.1067E+01
     15.878  0.0000E+00  0.1067E+01
     15.961  0.0000E+00  0.1067E+01
     16.043  0.0000E+00  0.1067E+01
     16.126  0.0000E+00  0.1067E+01
     16.208  0.0000E+00  0.1067E+01
     16.291  0.0000E+00  0.1067E+01
     16.373  0.0000E+00  0.1067E+01
     16.455  0.0000E+00  0.1067E+01
     16.538  0.0000E+00  0.1067E+01
     16.620  0.0000E+00  0.1067E+01
