    2    2   15    1
  0.2001288E+02  0.3839590E-09  0.3839590E-09  0.3839590E-09  0.5000000E-15
  1.000000000000000E-004
  CAR 
 unknown system                          
      8     10      8
 
  0.0000000E+00  0.0000000E+00  0.0000000E+00  0.8000000E-02
    1       -6.117574   1.000000
    2        5.871245   0.971221
    3        5.871271   0.971209
    4        5.871271   0.971209
    5        8.435669   0.000000
    6        8.435676   0.000000
    7        8.435676   0.000000
    8        9.223569   0.000000
 
  0.2000000E+00  0.1993820E-16  0.3023569E-17  0.6400000E-01
    1       -5.599891   1.000000
    2        2.845291   1.000000
    3        5.284126   1.000000
    4        5.284151   1.000000
    5        8.092810   0.000000
    6        9.243530   0.000000
    7        9.243564   0.000000
    8       11.921403   0.000000
 
  0.4000000E+00  0.3987640E-16  0.6047138E-17  0.6400000E-01
    1       -4.235308   1.000000
    2       -0.424593   1.000000
    3        4.731621   1.000000
    4        4.731653   1.000000
    5        7.491852   0.000000
    6        9.309659   0.000000
    7        9.309716   0.000000
    8       13.701458   0.000000
 
  0.2000000E+00  0.2000000E+00  0.4572614E-17  0.4800000E-01
    1       -5.421659   1.000000
    2        3.237667   1.000000
    3        4.368684   1.000000
    4        4.368700   1.000000
    5        7.332316   0.000000
    6        9.779316   0.000000
    7       10.794357   0.000000
    8       10.794363   0.000000
 
  0.4000000E+00  0.2000000E+00  0.1623023E-16  0.1920000E+00
    1       -4.279006   1.000000
    2        0.542453   1.000000
    3        3.228948   1.000000
    4        3.857522   1.000000
    5        7.648739   0.000000
    6        9.979298   0.000000
    7       10.825833   0.000000
    8       11.342421   0.000000
 
 -0.4000000E+00  0.2000000E+00  0.9097260E-17  0.1920000E+00
    1       -3.392912   1.000000
    2       -0.854350   1.000000
    3        2.417741   1.000000
    4        4.141653   1.000000
    5        7.933168   0.000000
    6       10.497872   0.000000
    7       10.704859   0.000000
    8       13.489886   0.000000
 
 -0.2000000E+00  0.2000000E+00  0.1212083E-16  0.9600000E-01
    1       -4.767444   1.000000
    2        1.376933   1.000000
    3        2.849566   1.000000
    4        5.014877   1.000000
    5        8.772023   0.000000
    6        9.876783   0.000000
    7       10.206587   0.000000
    8       11.619051   0.000000
 
  0.4000000E+00  0.4000000E+00  0.9145228E-17  0.4800000E-01
    1       -3.402781   1.000000
    2       -0.326618   1.000000
    3        3.155032   1.000000
    4        3.155055   1.000000
    5        6.449012   0.014394
    6        7.186651   0.000000
    7       14.446651   0.000000
    8       14.446653   0.000000
 
 -0.4000000E+00  0.4000000E+00  0.2424166E-16  0.9600000E-01
    1       -2.195262   1.000000
    2       -1.590441   1.000000
    3        1.782194   1.000000
    4        3.275136   1.000000
    5        6.900357   0.000000
    6        9.039793   0.000000
    7       14.013085   0.000000
    8       14.620412   0.000000
 
 -0.4000000E+00  0.4000000E+00  0.2000000E+00  0.1920000E+00
    1       -2.962176   1.000000
    2       -0.711286   1.000000
    3        1.867531   1.000000
    4        2.858039   1.000000
    5        9.284000   0.000000
    6        9.669756   0.000000
    7       10.322620   0.000000
    8       13.705606   0.000000
