       N       E                     dE             d eps       ncg     rms          rms(c)
DAV:   1    -0.428002426832E+01   -0.42800E+01   -0.19685E+03   176   0.373E+02
DAV:   2    -0.108684467377E+02   -0.65884E+01   -0.59291E+01   248   0.487E+01
DAV:   3    -0.109229189126E+02   -0.54472E-01   -0.54471E-01   200   0.497E+00
DAV:   4    -0.109230486758E+02   -0.12976E-03   -0.12976E-03   248   0.248E-01
DAV:   5    -0.109230486999E+02   -0.24114E-07   -0.24240E-07   184   0.352E-03    0.305E+00
DAV:   6    -0.107925324551E+02    0.13052E+00   -0.83496E-02   192   0.150E+00    0.181E+00
DAV:   7    -0.107331182941E+02    0.59414E-01   -0.15536E-01   184   0.219E+00    0.156E-01
DAV:   8    -0.107346094524E+02   -0.14912E-02   -0.40421E-03   176   0.458E-01    0.254E-02
DAV:   9    -0.107347082002E+02   -0.98748E-04   -0.98442E-05   112   0.779E-02
   1 F= -.10734708E+02 E0= -.10734237E+02  d E =-.107347E+02
