<?xml version="1.0" encoding="ISO-8859-1"?>
<modeling>
 <generator>
  <i name="program" type="string">vasp </i>
  <i name="version" type="string">5.4.4.18Apr17-6-g9f103f2a35  </i>
  <i name="subversion" type="string">(build Dec 09 2018 21:25:21) complex            parallel </i>
  <i name="platform" type="string">IFC18.0.1.163_CrayMPICH7.7.0_MKL18.0.1.163 </i>
  <i name="date" type="string">2019 03 18 </i>
  <i name="time" type="string">04:54:38 </i>
 </generator>
 <incar>
  <i type="string" name="PREC">normal</i>
  <i type="int" name="IBRION">     2</i>
  <i name="EDIFF">      0.00040000</i>
  <i name="EDIFFG">     -0.01000000</i>
  <i type="int" name="NSW">    15</i>
  <i type="int" name="ISIF">     2</i>
  <i name="ENCUT">    200.00000000</i>
  <i type="int" name="NBANDS">     8</i>
  <i type="logical" name="LREAL"> F  </i>
  <i type="int" name="ISMEAR">     0</i>
  <i name="SIGMA">      0.20000000</i>
  <v type="int" name="KPOINT_BSE">    -1     0     0     0</v>
 </incar>
 <structure name="primitive_cell" >
  <crystal>
   <varray name="basis" >
    <v>       0.00000000       2.71500000       2.71500000 </v>
    <v>       2.71500000       0.00000000       2.71500000 </v>
    <v>       2.71500000       2.71500000       0.00000000 </v>
   </varray>
   <i name="volume">     40.02575175 </i>
   <varray name="rec_basis" >
    <v>      -0.18416206       0.18416206       0.18416206 </v>
    <v>       0.18416206      -0.18416206       0.18416206 </v>
    <v>       0.18416206       0.18416206      -0.18416206 </v>
   </varray>
  </crystal>
  <varray name="positions" >
   <v>      -0.50000000      -0.50000000      -0.50000000 </v>
   <v>      -0.25000000      -0.25000000      -0.25000000 </v>
  </varray>
 </structure>
 <varray name="primitive_index" >
  <v type="int" >        1 </v>
  <v type="int" >        2 </v>
 </varray>
 <kpoints>
  <generation param="Monkhorst-Pack">
   <v type="int" name="divisions">       5        5        5 </v>
   <v name="usershift">      0.00000000       0.00000000       0.00000000 </v>
   <v name="genvec1">      0.20000000       0.00000000      -0.00000000 </v>
   <v name="genvec2">      0.00000000       0.20000000       0.00000000 </v>
   <v name="genvec3">     -0.00000000      -0.00000000       0.20000000 </v>
   <v name="shift">      0.00000000       0.00000000       0.00000000 </v>
  </generation>
  <varray name="kpointlist" >
   <v>       0.00000000       0.00000000       0.00000000 </v>
   <v>       0.20000000       0.00000000       0.00000000 </v>
   <v>       0.40000000       0.00000000       0.00000000 </v>
   <v>       0.20000000       0.20000000       0.00000000 </v>
   <v>       0.40000000       0.20000000       0.00000000 </v>
   <v>      -0.40000000       0.20000000       0.00000000 </v>
   <v>      -0.20000000       0.20000000       0.00000000 </v>
   <v>       0.40000000       0.40000000       0.00000000 </v>
   <v>      -0.40000000       0.40000000       0.00000000 </v>
   <v>      -0.40000000       0.40000000       0.20000000 </v>
  </varray>
  <varray name="weights" >
   <v>       0.00800000 </v>
   <v>       0.06400000 </v>
   <v>       0.06400000 </v>
   <v>       0.04800000 </v>
   <v>       0.19200000 </v>
   <v>       0.19200000 </v>
   <v>       0.09600000 </v>
   <v>       0.04800000 </v>
   <v>       0.09600000 </v>
   <v>       0.19200000 </v>
  </varray>
 </kpoints>
 <parameters>
  <separator name="general" >
   <i type="string" name="SYSTEM">unknown system</i>
   <i type="logical" name="LCOMPAT"> F  </i>
  </separator>
  <separator name="electronic" >
   <i type="string" name="PREC">normal</i>
   <i name="ENMAX">    200.00000000</i>
   <i name="ENAUG">    322.06900000</i>
   <i name="EDIFF">      0.00040000</i>
   <i type="int" name="IALGO">    38</i>
   <i type="int" name="IWAVPR">    11</i>
   <i type="int" name="NBANDS">     8</i>
   <i name="NELECT">      8.00000000</i>
   <i type="int" name="TURBO">     0</i>
   <i type="int" name="IRESTART">     0</i>
   <i type="int" name="NREBOOT">     0</i>
   <i type="int" name="NMIN">     0</i>
   <i name="EREF">      0.00000000</i>
   <separator name="electronic smearing" >
    <i type="int" name="ISMEAR">     0</i>
    <i name="SIGMA">      0.20000000</i>
    <i name="KSPACING">      0.50000000</i>
    <i type="logical" name="KGAMMA"> T  </i>
   </separator>
   <separator name="electronic projectors" >
    <i type="logical" name="LREAL"> F  </i>
    <v name="ROPT">      0.00000000</v>
    <i type="int" name="LMAXPAW">  -100</i>
    <i type="int" name="LMAXMIX">     2</i>
    <i type="logical" name="NLSPLINE"> F  </i>
   </separator>
   <separator name="electronic startup" >
    <i type="int" name="ISTART">     0</i>
    <i type="int" name="ICHARG">     2</i>
    <i type="int" name="INIWAV">     1</i>
   </separator>
   <separator name="electronic spin" >
    <i type="int" name="ISPIN">     1</i>
    <i type="logical" name="LNONCOLLINEAR"> F  </i>
    <v name="MAGMOM">      1.00000000      1.00000000</v>
    <i name="NUPDOWN">     -1.00000000</i>
    <i type="logical" name="LSORBIT"> F  </i>
    <v name="SAXIS">      0.00000000      0.00000000      1.00000000</v>
    <i type="logical" name="LSPIRAL"> F  </i>
    <v name="QSPIRAL">      0.00000000      0.00000000      0.00000000</v>
    <i type="logical" name="LZEROZ"> F  </i>
   </separator>
   <separator name="electronic exchange-correlation" >
    <i type="logical" name="LASPH"> F  </i>
    <i type="logical" name="LMETAGGA"> F  </i>
   </separator>
   <separator name="electronic convergence" >
    <i type="int" name="NELM">    60</i>
    <i type="int" name="NELMDL">    -5</i>
    <i type="int" name="NELMIN">     2</i>
    <i name="ENINI">    200.00000000</i>
    <separator name="electronic convergence detail" >
     <i type="logical" name="LDIAG"> T  </i>
     <i type="logical" name="LSUBROT"> F  </i>
     <i name="WEIMIN">      0.00100000</i>
     <i name="EBREAK">      0.00001250</i>
     <i name="DEPER">      0.30000000</i>
     <i type="int" name="NRMM">     4</i>
     <i name="TIME">      0.40000000</i>
    </separator>
   </separator>
   <separator name="electronic mixer" >
    <i name="AMIX">      0.40000000</i>
    <i name="BMIX">      1.00000000</i>
    <i name="AMIN">      0.10000000</i>
    <i name="AMIX_MAG">      1.60000000</i>
    <i name="BMIX_MAG">      1.00000000</i>
    <separator name="electronic mixer details" >
     <i type="int" name="IMIX">     4</i>
     <i type="logical" name="MIXFIRST"> F  </i>
     <i type="int" name="MAXMIX">   -45</i>
     <i name="WC">    100.00000000</i>
     <i type="int" name="INIMIX">     1</i>
     <i type="int" name="MIXPRE">     1</i>
     <i type="int" name="MREMOVE">     5</i>
    </separator>
   </separator>
   <separator name="electronic dipolcorrection" >
    <i type="logical" name="LDIPOL"> F  </i>
    <i type="logical" name="LMONO"> F  </i>
    <i type="int" name="IDIPOL">     0</i>
    <i name="EPSILON">      1.00000000</i>
    <v name="DIPOL">   -100.00000000   -100.00000000   -100.00000000</v>
    <i name="EFIELD">      0.00000000</i>
   </separator>
  </separator>
  <separator name="grids" >
   <i type="int" name="NGX">    14</i>
   <i type="int" name="NGY">    14</i>
   <i type="int" name="NGZ">    14</i>
   <i type="int" name="NGXF">    28</i>
   <i type="int" name="NGYF">    28</i>
   <i type="int" name="NGZF">    28</i>
   <i type="logical" name="ADDGRID"> F  </i>
  </separator>
  <separator name="ionic" >
   <i type="int" name="NSW">    15</i>
   <i type="int" name="IBRION">     2</i>
   <i type="int" name="MDALGO">     0</i>
   <i type="int" name="ISIF">     2</i>
   <i name="PSTRESS">      0.00000000</i>
   <i name="EDIFFG">     -0.01000000</i>
   <i type="int" name="NFREE">     1</i>
   <i name="POTIM">      0.50000000</i>
   <i name="SMASS">     -3.00000000</i>
   <i name="SCALEE">      1.00000000</i>
  </separator>
  <separator name="ionic md" >
   <i name="TEBEG">      0.00010000</i>
   <i name="TEEND">      0.00010000</i>
   <i type="int" name="NBLOCK">     1</i>
   <i type="int" name="KBLOCK">    15</i>
   <i type="int" name="NPACO">   256</i>
   <i name="APACO">     16.00000000</i>
  </separator>
  <separator name="symmetry" >
   <i type="int" name="ISYM">     2</i>
   <i name="SYMPREC">      0.00001000</i>
  </separator>
  <separator name="dos" >
   <i type="int" name="LORBIT">     0</i>
   <v name="RWIGS">     -1.00000000</v>
   <i type="int" name="NEDOS">   301</i>
   <i name="EMIN">     10.00000000</i>
   <i name="EMAX">    -10.00000000</i>
   <i name="EFERMI">      0.00000000</i>
  </separator>
  <separator name="writing" >
   <i type="int" name="NWRITE">     2</i>
   <i type="logical" name="LWAVE"> T  </i>
   <i type="logical" name="LDOWNSAMPLE"> F  </i>
   <i type="logical" name="LCHARG"> T  </i>
   <i type="logical" name="LPARD"> F  </i>
   <i type="logical" name="LVTOT"> F  </i>
   <i type="logical" name="LVHAR"> F  </i>
   <i type="logical" name="LELF"> F  </i>
   <i type="logical" name="LOPTICS"> F  </i>
   <v name="STM">      0.00000000      0.00000000      0.00000000      0.00000000      0.00000000      0.00000000      0.00000000</v>
  </separator>
  <separator name="performance" >
   <i type="int" name="NPAR">     8</i>
   <i type="int" name="NSIM">     4</i>
   <i type="int" name="NBLK">    -1</i>
   <i type="logical" name="LPLANE"> T  </i>
   <i type="logical" name="LSCALAPACK"> T  </i>
   <i type="logical" name="LSCAAWARE"> F  </i>
   <i type="logical" name="LSCALU"> F  </i>
   <i type="logical" name="LASYNC"> F  </i>
   <i type="logical" name="LORBITALREAL"> F  </i>
  </separator>
  <separator name="miscellaneous" >
   <i type="int" name="IDIOT">     3</i>
   <i type="int" name="ISPECIAL">     0</i>
   <i type="logical" name="LMUSIC"> F  </i>
   <v name="POMASS">     28.08500000</v>
   <v name="DARWINR">      0.00000000</v>
   <v name="DARWINV">      1.00000000</v>
   <i type="logical" name="LCORR"> T  </i>
  </separator>
  <i type="logical" name="GGA_COMPAT"> T  </i>
  <i type="logical" name="LBERRY"> F  </i>
  <i type="int" name="ICORELEVEL">     0</i>
  <i type="logical" name="LDAU"> F  </i>
  <i type="int" name="I_CONSTRAINED_M">     0</i>
  <separator name="electronic exchange-correlation" >
   <i type="string" name="GGA">--</i>
   <i type="int" name="VOSKOWN">     0</i>
   <i type="logical" name="LHFCALC"> F  </i>
   <i type="string" name="PRECFOCK"></i>
   <i type="logical" name="LSYMGRAD"> F  </i>
   <i type="logical" name="LHFONE"> F  </i>
   <i type="logical" name="LRHFCALC"> F  </i>
   <i type="logical" name="LTHOMAS"> F  </i>
   <i type="logical" name="LMODELHF"> F  </i>
   <i name="ENCUT4O">     -1.00000000</i>
   <i type="int" name="EXXOEP">     0</i>
   <i type="int" name="FOURORBIT">     0</i>
   <i name="AEXX">      0.00000000</i>
   <i name="HFALPHA">      0.00000000</i>
   <i name="MCALPHA">      0.00000000</i>
   <i name="ALDAX">      1.00000000</i>
   <i name="AGGAX">      1.00000000</i>
   <i name="ALDAC">      1.00000000</i>
   <i name="AGGAC">      1.00000000</i>
   <i type="int" name="NKREDX">     1</i>
   <i type="int" name="NKREDY">     1</i>
   <i type="int" name="NKREDZ">     1</i>
   <i type="logical" name="SHIFTRED"> F  </i>
   <i type="logical" name="ODDONLY"> F  </i>
   <i type="logical" name="EVENONLY"> F  </i>
   <i type="int" name="LMAXFOCK">     0</i>
   <i type="int" name="NMAXFOCKAE">     0</i>
   <i type="logical" name="LFOCKAEDFT"> F  </i>
   <i name="HFSCREEN">      0.00000000</i>
   <i name="HFSCREENC">      0.00000000</i>
   <i type="int" name="NBANDSGWLOW">     0</i>
  </separator>
  <separator name="vdW DFT" >
   <i type="logical" name="LUSE_VDW"> F  </i>
   <i name="Zab_VDW">     -0.84910000</i>
   <i name="PARAM1">      0.12340000</i>
   <i name="PARAM2">      1.00000000</i>
   <i name="PARAM3">      0.00000000</i>
  </separator>
  <separator name="model GW" >
   <i type="int" name="MODEL_GW">     0</i>
   <i name="MODEL_EPS0">     12.00772552</i>
   <i name="MODEL_ALPHA">      1.00000000</i>
  </separator>
  <separator name="linear response parameters" >
   <i type="logical" name="LEPSILON"> F  </i>
   <i type="logical" name="LRPA"> F  </i>
   <i type="logical" name="LNABLA"> F  </i>
   <i type="logical" name="LVEL"> F  </i>
   <i type="int" name="KINTER">     0</i>
   <i name="CSHIFT">      0.10000000</i>
   <i name="OMEGAMAX">     -1.00000000</i>
   <i name="DEG_THRESHOLD">      0.00200000</i>
   <i name="RTIME">     -0.10000000</i>
   <i name="WPLASMAI">      0.00000000</i>
   <v name="DFIELD">      0.00000000      0.00000000      0.00000000</v>
   <v name="WPLASMA">      0.00000000      0.00000000      0.00000000      0.00000000      0.00000000      0.00000000      0.00000000      0.00000000      0.00000000</v>
  </separator>
  <separator name="orbital magnetization" >
   <i type="logical" name="NUCIND"> F  </i>
   <v name="MAGPOS">      0.00000000      0.00000000      0.00000000</v>
   <i type="logical" name="LNICSALL"> T  </i>
   <i type="logical" name="ORBITALMAG"> F  </i>
   <i type="logical" name="LMAGBLOCH"> F  </i>
   <i type="logical" name="LCHIMAG"> F  </i>
   <i type="logical" name="LGAUGE"> T  </i>
   <i type="int" name="MAGATOM">     0</i>
   <v name="MAGDIPOL">      0.00000000      0.00000000      0.00000000</v>
   <v name="AVECCONST">      0.00000000      0.00000000      0.00000000</v>
  </separator>
  <separator name="response functions" >
   <i type="logical" name="LADDER"> F  </i>
   <i type="logical" name="LRPAFORCE"> F  </i>
   <i type="logical" name="LFXC"> F  </i>
   <i type="logical" name="LHARTREE"> T  </i>
   <i type="int" name="IBSE">     0</i>
   <v type="int" name="KPOINT">    -1     0     0     0</v>
   <i type="logical" name="LTCTE"> F  </i>
   <i type="logical" name="LTETE"> F  </i>
   <i type="logical" name="LTRIPLET"> F  </i>
   <i type="logical" name="LFXCEPS"> F  </i>
   <i type="logical" name="LFXHEG"> F  </i>
   <i type="int" name="NATURALO">     2</i>
   <i type="logical" name="L2ORDER"> F  </i>
   <i type="logical" name="LMP2LT"> F  </i>
   <i type="logical" name="LUSEW"> F  </i>
   <i name="ENCUTGW">     -2.00000000</i>
   <i name="ENCUTGWSOFT">     -2.00000000</i>
   <i name="ENCUTLF">     -1.00000000</i>
   <i type="int" name="LMAXMP2">    -1</i>
   <i name="SCISSOR">      0.00000000</i>
   <i type="int" name="NOMEGA">     0</i>
   <i type="int" name="NOMEGAR">     0</i>
   <i type="int" name="NBANDSGW">    -1</i>
   <i type="int" name="NBANDSO">    -1</i>
   <i type="int" name="NBANDSV">    -1</i>
   <i type="int" name="NELM">     1</i>
   <i type="int" name="NELMHF">     1</i>
   <i type="int" name="DIM">     3</i>
   <i type="int" name="ANTIRES">     0</i>
   <i name="OMEGAMAX">    -30.00000000</i>
   <i name="OMEGAMIN">    -30.00000000</i>
   <i name="OMEGATL">   -200.00000000</i>
   <i type="int" name="OMEGAGRID">   140</i>
   <i name="CSHIFT">     -0.10000000</i>
   <i type="logical" name="SELFENERGY"> F  </i>
   <i type="logical" name="LSPECTRAL"> F  </i>
   <i type="logical" name="LSPECTRALGW"> F  </i>
   <i type="logical" name="LSINGLES"> F  </i>
   <i type="logical" name="LFERMIGW"> F  </i>
   <i type="logical" name="ODDONLYGW"> F  </i>
   <i type="logical" name="EVENONLYGW"> F  </i>
   <i type="int" name="NKREDLFX">     1</i>
   <i type="int" name="NKREDLFY">     1</i>
   <i type="int" name="NKREDLFZ">     1</i>
   <i type="int" name="MAXMEM">  2800</i>
   <i type="int" name="TELESCOPE">     0</i>
   <i type="int" name="TAUPAR">     1</i>
   <i type="int" name="OMEGAPAR">    -1</i>
   <i name="LAMBDA">      1.00000000</i>
  </separator>
  <separator name="External order field" >
   <i name="OFIELD_KAPPA">      0.00000000</i>
   <v name="OFIELD_K">      0.00000000      0.00000000      0.00000000</v>
   <i name="OFIELD_Q6_NEAR">      0.00000000</i>
   <i name="OFIELD_Q6_FAR">      0.00000000</i>
   <i name="OFIELD_A">      0.00000000</i>
  </separator>
 </parameters>
 <atominfo>
  <atoms>       2 </atoms>
  <types>       1 </types>
  <array name="atoms" >
   <dimension dim="1">ion</dimension>
   <field type="string">element</field>
   <field type="int">atomtype</field>
   <set>
    <rc><c>Si</c><c>   1</c></rc>
    <rc><c>Si</c><c>   1</c></rc>
   </set>
  </array>
  <array name="atomtypes" >
   <dimension dim="1">type</dimension>
   <field type="int">atomspertype</field>
   <field type="string">element</field>
   <field>mass</field>
   <field>valence</field>
   <field type="string">pseudopotential</field>
   <set>
    <rc><c>   2</c><c>Si</c><c>     28.08500000</c><c>      4.00000000</c><c> PAW_PBE Si 05Jan2001                   </c></rc>
   </set>
  </array>
 </atominfo>
 <structure name="initialpos" >
  <crystal>
   <varray name="basis" >
    <v>       0.00000000       2.71500000       2.71500000 </v>
    <v>       2.71500000       0.00000000       2.71500000 </v>
    <v>       2.71500000       2.71500000       0.00000000 </v>
   </varray>
   <i name="volume">     40.02575175 </i>
   <varray name="rec_basis" >
    <v>      -0.18416206       0.18416206       0.18416206 </v>
    <v>       0.18416206      -0.18416206       0.18416206 </v>
    <v>       0.18416206       0.18416206      -0.18416206 </v>
   </varray>
  </crystal>
  <varray name="positions" >
   <v>       0.50000000       0.50000000       0.50000000 </v>
   <v>       0.75000000       0.75000000       0.75000000 </v>
  </varray>
 </structure>
 <calculation>
  <scstep>
   <time name="dav">    0.09    0.10</time>
   <time name="total">    0.13    0.14</time>
   <energy>
    <i name="alphaZ">      3.36414203 </i>
    <i name="ewald">   -228.56352493 </i>
    <i name="hartreedc">    -11.00108243 </i>
    <i name="XCdc">    -18.60172597 </i>
    <i name="pawpsdc">     65.95520812 </i>
    <i name="pawaedc">    -30.76852678 </i>
    <i name="eentropy">     -0.02872935 </i>
    <i name="bandstr">      9.25174242 </i>
    <i name="atom">    206.11247263 </i>
    <i name="e_fr_energy">     -4.28002427 </i>
    <i name="e_wo_entrp">     -4.25129492 </i>
    <i name="e_0_energy">     -4.26565959 </i>
   </energy>
  </scstep>
  <scstep>
   <time name="dav">    0.14    0.14</time>
   <time name="total">    0.14    0.14</time>
   <energy>
    <i name="e_fr_energy">    -10.86844674 </i>
    <i name="e_wo_entrp">    -10.86836811 </i>
    <i name="e_0_energy">    -10.86840742 </i>
   </energy>
  </scstep>
  <scstep>
   <time name="dav">    0.10    0.11</time>
   <time name="total">    0.11    0.11</time>
   <energy>
    <i name="e_fr_energy">    -10.92291891 </i>
    <i name="e_wo_entrp">    -10.92286411 </i>
    <i name="e_0_energy">    -10.92289151 </i>
   </energy>
  </scstep>
  <scstep>
   <time name="dav">    0.13    0.13</time>
   <time name="total">    0.13    0.14</time>
   <energy>
    <i name="e_fr_energy">    -10.92304868 </i>
    <i name="e_wo_entrp">    -10.92299393 </i>
    <i name="e_0_energy">    -10.92302130 </i>
   </energy>
  </scstep>
  <scstep>
   <time name="dav">    0.10    0.10</time>
   <time name="total">    0.11    0.12</time>
   <energy>
    <i name="e_fr_energy">    -10.92304870 </i>
    <i name="e_wo_entrp">    -10.92299395 </i>
    <i name="e_0_energy">    -10.92302133 </i>
   </energy>
  </scstep>
  <scstep>
   <time name="dav">    0.10    0.10</time>
   <time name="total">    0.14    0.14</time>
   <energy>
    <i name="e_fr_energy">    -10.79253246 </i>
    <i name="e_wo_entrp">    -10.79228710 </i>
    <i name="e_0_energy">    -10.79240978 </i>
   </energy>
  </scstep>
  <scstep>
   <time name="dav">    0.09    0.09</time>
   <time name="total">    0.12    0.13</time>
   <energy>
    <i name="e_fr_energy">    -10.73311829 </i>
    <i name="e_wo_entrp">    -10.73199022 </i>
    <i name="e_0_energy">    -10.73255426 </i>
   </energy>
  </scstep>
  <scstep>
   <time name="dav">    0.08    0.09</time>
   <time name="total">    0.12    0.13</time>
   <energy>
    <i name="e_fr_energy">    -10.73460945 </i>
    <i name="e_wo_entrp">    -10.73366449 </i>
    <i name="e_0_energy">    -10.73413697 </i>
   </energy>
  </scstep>
  <scstep>
   <time name="dav">    0.06    0.06</time>
   <time name="total">    0.09    0.10</time>
   <energy>
    <i name="alphaZ">      3.36414203 </i>
    <i name="ewald">   -228.56352493 </i>
    <i name="hartreedc">    -15.02675405 </i>
    <i name="XCdc">    -17.92443315 </i>
    <i name="pawpsdc">     75.97760993 </i>
    <i name="pawaedc">    -41.03125450 </i>
    <i name="eentropy">     -0.00094255 </i>
    <i name="bandstr">      6.35797638 </i>
    <i name="atom">    206.11247263 </i>
    <i name="e_fr_energy">    -10.73470820 </i>
    <i name="e_wo_entrp">    -10.73376565 </i>
    <i name="e_0_energy">    -10.73423693 </i>
   </energy>
  </scstep>
  <structure>
   <crystal>
    <varray name="basis" >
     <v>       0.00000000       2.71500000       2.71500000 </v>
     <v>       2.71500000       0.00000000       2.71500000 </v>
     <v>       2.71500000       2.71500000       0.00000000 </v>
    </varray>
    <i name="volume">     40.02575175 </i>
    <varray name="rec_basis" >
     <v>      -0.18416206       0.18416206       0.18416206 </v>
     <v>       0.18416206      -0.18416206       0.18416206 </v>
     <v>       0.18416206       0.18416206      -0.18416206 </v>
    </varray>
   </crystal>
   <varray name="positions" >
    <v>       0.50000000       0.50000000       0.50000000 </v>
    <v>       0.75000000       0.75000000       0.75000000 </v>
   </varray>
  </structure>
  <varray name="forces" >
   <v>       0.00000000       0.00000000       0.00000000 </v>
   <v>      -0.00000000      -0.00000000      -0.00000000 </v>
  </varray>
  <varray name="stress" >
   <v>      20.67572562      -0.00000000       0.00000000 </v>
   <v>      -0.00000000      20.67572562       0.00000000 </v>
   <v>       0.00000000       0.00000000      20.67572562 </v>
  </varray>
  <energy>
   <i name="e_fr_energy">    -10.73470820 </i>
   <i name="e_wo_entrp">    -10.73423693 </i>
   <i name="e_0_energy">     -0.00094255 </i>
  </energy>
  <time name="totalsc">    1.69    2.06</time>
  <eigenvalues>
   <array>
    <dimension dim="1">band</dimension>
    <dimension dim="2">kpoint</dimension>
    <dimension dim="3">spin</dimension>
    <field>eigene</field>
    <field>occ</field>
    <set>
     <set comment="spin 1">
      <set comment="kpoint 1">
       <r>   -6.1176    1.0000 </r>
       <r>    5.8712    0.9712 </r>
       <r>    5.8713    0.9712 </r>
       <r>    5.8713    0.9712 </r>
       <r>    8.4357    0.0000 </r>
       <r>    8.4357    0.0000 </r>
       <r>    8.4357    0.0000 </r>
       <r>    9.2236    0.0000 </r>
      </set>
      <set comment="kpoint 2">
       <r>   -5.5999    1.0000 </r>
       <r>    2.8453    1.0000 </r>
       <r>    5.2841    1.0000 </r>
       <r>    5.2842    1.0000 </r>
       <r>    8.0928    0.0000 </r>
       <r>    9.2435    0.0000 </r>
       <r>    9.2436    0.0000 </r>
       <r>   11.9214    0.0000 </r>
      </set>
      <set comment="kpoint 3">
       <r>   -4.2353    1.0000 </r>
       <r>   -0.4246    1.0000 </r>
       <r>    4.7316    1.0000 </r>
       <r>    4.7317    1.0000 </r>
       <r>    7.4919    0.0000 </r>
       <r>    9.3097    0.0000 </r>
       <r>    9.3097    0.0000 </r>
       <r>   13.7015    0.0000 </r>
      </set>
      <set comment="kpoint 4">
       <r>   -5.4217    1.0000 </r>
       <r>    3.2377    1.0000 </r>
       <r>    4.3687    1.0000 </r>
       <r>    4.3687    1.0000 </r>
       <r>    7.3323    0.0000 </r>
       <r>    9.7793    0.0000 </r>
       <r>   10.7944    0.0000 </r>
       <r>   10.7944    0.0000 </r>
      </set>
      <set comment="kpoint 5">
       <r>   -4.2790    1.0000 </r>
       <r>    0.5425    1.0000 </r>
       <r>    3.2289    1.0000 </r>
       <r>    3.8575    1.0000 </r>
       <r>    7.6487    0.0000 </r>
       <r>    9.9793    0.0000 </r>
       <r>   10.8258    0.0000 </r>
       <r>   11.3424    0.0000 </r>
      </set>
      <set comment="kpoint 6">
       <r>   -3.3929    1.0000 </r>
       <r>   -0.8543    1.0000 </r>
       <r>    2.4177    1.0000 </r>
       <r>    4.1417    1.0000 </r>
       <r>    7.9332    0.0000 </r>
       <r>   10.4979    0.0000 </r>
       <r>   10.7049    0.0000 </r>
       <r>   13.4899    0.0000 </r>
      </set>
      <set comment="kpoint 7">
       <r>   -4.7674    1.0000 </r>
       <r>    1.3769    1.0000 </r>
       <r>    2.8496    1.0000 </r>
       <r>    5.0149    1.0000 </r>
       <r>    8.7720    0.0000 </r>
       <r>    9.8768    0.0000 </r>
       <r>   10.2066    0.0000 </r>
       <r>   11.6191    0.0000 </r>
      </set>
      <set comment="kpoint 8">
       <r>   -3.4028    1.0000 </r>
       <r>   -0.3266    1.0000 </r>
       <r>    3.1550    1.0000 </r>
       <r>    3.1551    1.0000 </r>
       <r>    6.4490    0.0144 </r>
       <r>    7.1867    0.0000 </r>
       <r>   14.4467    0.0000 </r>
       <r>   14.4467    0.0000 </r>
      </set>
      <set comment="kpoint 9">
       <r>   -2.1953    1.0000 </r>
       <r>   -1.5904    1.0000 </r>
       <r>    1.7822    1.0000 </r>
       <r>    3.2751    1.0000 </r>
       <r>    6.9004    0.0000 </r>
       <r>    9.0398    0.0000 </r>
       <r>   14.0131    0.0000 </r>
       <r>   14.6204    0.0000 </r>
      </set>
      <set comment="kpoint 10">
       <r>   -2.9622    1.0000 </r>
       <r>   -0.7113    1.0000 </r>
       <r>    1.8675    1.0000 </r>
       <r>    2.8580    1.0000 </r>
       <r>    9.2840    0.0000 </r>
       <r>    9.6698    0.0000 </r>
       <r>   10.3226    0.0000 </r>
       <r>   13.7056    0.0000 </r>
      </set>
     </set>
    </set>
   </array>
  </eigenvalues>
  <separator name="orbital magnetization" >
   <v name="MAGDIPOLOUT">      0.00000000      0.00000000      0.00000000</v>
  </separator>
  <dos>
   <i name="efermi">      6.13981046 </i>
   <total>
    <array>
     <dimension dim="1">gridpoints</dimension>
     <dimension dim="2">spin</dimension>
     <field>energy</field>
     <field>total</field>
     <field>integrated</field>
     <set>
      <set comment="spin 1">
       <r>    -8.1176     0.0000     0.0000 </r>
       <r>    -8.0351     0.0000     0.0000 </r>
       <r>    -7.9527     0.0000     0.0000 </r>
       <r>    -7.8702     0.0000     0.0000 </r>
       <r>    -7.7877     0.0000     0.0000 </r>
       <r>    -7.7053     0.0000     0.0000 </r>
       <r>    -7.6228     0.0000     0.0000 </r>
       <r>    -7.5404     0.0000     0.0000 </r>
       <r>    -7.4579     0.0000     0.0000 </r>
       <r>    -7.3754     0.0000     0.0000 </r>
       <r>    -7.2930     0.0000     0.0000 </r>
       <r>    -7.2105     0.0000     0.0000 </r>
       <r>    -7.1281     0.0000     0.0000 </r>
       <r>    -7.0456     0.0000     0.0000 </r>
       <r>    -6.9631     0.0000     0.0000 </r>
       <r>    -6.8807     0.0000     0.0000 </r>
       <r>    -6.7982     0.0000     0.0000 </r>
       <r>    -6.7158     0.0000     0.0000 </r>
       <r>    -6.6333     0.0000     0.0000 </r>
       <r>    -6.5508     0.0002     0.0000 </r>
       <r>    -6.4684     0.0011     0.0001 </r>
       <r>    -6.3859     0.0043     0.0005 </r>
       <r>    -6.3035     0.0127     0.0015 </r>
       <r>    -6.2210     0.0268     0.0037 </r>
       <r>    -6.1385     0.0406     0.0071 </r>
       <r>    -6.0561     0.0449     0.0108 </r>
       <r>    -5.9736     0.0399     0.0141 </r>
       <r>    -5.8912     0.0440     0.0177 </r>
       <r>    -5.8087     0.0888     0.0250 </r>
       <r>    -5.7262     0.1968     0.0412 </r>
       <r>    -5.6438     0.3485     0.0700 </r>
       <r>    -5.5613     0.4766     0.1093 </r>
       <r>    -5.4789     0.5160     0.1518 </r>
       <r>    -5.3964     0.4531     0.1892 </r>
       <r>    -5.3139     0.3230     0.2158 </r>
       <r>    -5.2315     0.1832     0.2309 </r>
       <r>    -5.1490     0.0856     0.2380 </r>
       <r>    -5.0666     0.0573     0.2427 </r>
       <r>    -4.9841     0.1120     0.2520 </r>
       <r>    -4.9016     0.2539     0.2729 </r>
       <r>    -4.8192     0.4333     0.3086 </r>
       <r>    -4.7367     0.5354     0.3528 </r>
       <r>    -4.6543     0.4887     0.3931 </r>
       <r>    -4.5718     0.3812     0.4245 </r>
       <r>    -4.4893     0.4087     0.4582 </r>
       <r>    -4.4069     0.6963     0.5156 </r>
       <r>    -4.3244     1.1361     0.6093 </r>
       <r>    -4.2420     1.4062     0.7253 </r>
       <r>    -4.1595     1.2664     0.8297 </r>
       <r>    -4.0770     0.8253     0.8977 </r>
       <r>    -3.9946     0.3891     0.9298 </r>
       <r>    -3.9121     0.1333     0.9408 </r>
       <r>    -3.8297     0.0381     0.9440 </r>
       <r>    -3.7472     0.0368     0.9470 </r>
       <r>    -3.6647     0.1280     0.9575 </r>
       <r>    -3.5823     0.3751     0.9885 </r>
       <r>    -3.4998     0.7947     1.0540 </r>
       <r>    -3.4174     1.2120     1.1540 </r>
       <r>    -3.3349     1.3398     1.2644 </r>
       <r>    -3.2524     1.1145     1.3563 </r>
       <r>    -3.1700     0.8248     1.4244 </r>
       <r>    -3.0875     0.7831     1.4889 </r>
       <r>    -3.0051     0.9691     1.5688 </r>
       <r>    -2.9226     1.0826     1.6581 </r>
       <r>    -2.8401     0.9136     1.7335 </r>
       <r>    -2.7577     0.5591     1.7796 </r>
       <r>    -2.6752     0.2469     1.7999 </r>
       <r>    -2.5928     0.0828     1.8067 </r>
       <r>    -2.5103     0.0421     1.8102 </r>
       <r>    -2.4278     0.0892     1.8176 </r>
       <r>    -2.3454     0.2197     1.8357 </r>
       <r>    -2.2629     0.4004     1.8687 </r>
       <r>    -2.1805     0.5251     1.9120 </r>
       <r>    -2.0980     0.4952     1.9528 </r>
       <r>    -2.0155     0.3378     1.9807 </r>
       <r>    -1.9331     0.1779     1.9954 </r>
       <r>    -1.8506     0.1157     2.0049 </r>
       <r>    -1.7682     0.1809     2.0198 </r>
       <r>    -1.6857     0.3422     2.0480 </r>
       <r>    -1.6032     0.4978     2.0891 </r>
       <r>    -1.5208     0.5237     2.1323 </r>
       <r>    -1.4383     0.3962     2.1649 </r>
       <r>    -1.3559     0.2161     2.1827 </r>
       <r>    -1.2734     0.0904     2.1902 </r>
       <r>    -1.1909     0.0582     2.1950 </r>
       <r>    -1.1085     0.1428     2.2068 </r>
       <r>    -1.0260     0.4047     2.2402 </r>
       <r>    -0.9436     0.8800     2.3127 </r>
       <r>    -0.8611     1.4514     2.4324 </r>
       <r>    -0.7786     1.8484     2.5848 </r>
       <r>    -0.6962     1.8540     2.7377 </r>
       <r>    -0.6137     1.5127     2.8624 </r>
       <r>    -0.5313     1.0943     2.9527 </r>
       <r>    -0.4488     0.8278     3.0209 </r>
       <r>    -0.3663     0.7030     3.0789 </r>
       <r>    -0.2839     0.5765     3.1264 </r>
       <r>    -0.2014     0.3895     3.1586 </r>
       <r>    -0.1190     0.2020     3.1752 </r>
       <r>    -0.0365     0.0785     3.1817 </r>
       <r>     0.0460     0.0235     3.1836 </r>
       <r>     0.1284     0.0117     3.1846 </r>
       <r>     0.2109     0.0371     3.1877 </r>
       <r>     0.2933     0.1377     3.1990 </r>
       <r>     0.3758     0.3737     3.2298 </r>
       <r>     0.4583     0.7288     3.2899 </r>
       <r>     0.5407     1.0212     3.3741 </r>
       <r>     0.6232     1.0284     3.4589 </r>
       <r>     0.7056     0.7441     3.5203 </r>
       <r>     0.7881     0.3869     3.5522 </r>
       <r>     0.8706     0.1448     3.5641 </r>
       <r>     0.9530     0.0415     3.5676 </r>
       <r>     1.0355     0.0226     3.5694 </r>
       <r>     1.1179     0.0607     3.5744 </r>
       <r>     1.2004     0.1688     3.5883 </r>
       <r>     1.2829     0.3428     3.6166 </r>
       <r>     1.3653     0.5031     3.6581 </r>
       <r>     1.4478     0.5462     3.7031 </r>
       <r>     1.5302     0.4924     3.7437 </r>
       <r>     1.6127     0.5212     3.7867 </r>
       <r>     1.6952     0.7932     3.8521 </r>
       <r>     1.7776     1.2338     3.9539 </r>
       <r>     1.8601     1.5300     4.0800 </r>
       <r>     1.9425     1.4195     4.1971 </r>
       <r>     2.0250     0.9791     4.2778 </r>
       <r>     2.1075     0.5373     4.3221 </r>
       <r>     2.1899     0.3606     4.3519 </r>
       <r>     2.2724     0.5053     4.3935 </r>
       <r>     2.3548     0.8313     4.4621 </r>
       <r>     2.4373     1.0694     4.5503 </r>
       <r>     2.5198     1.0410     4.6361 </r>
       <r>     2.6022     0.8943     4.7099 </r>
       <r>     2.6847     0.9821     4.7908 </r>
       <r>     2.7671     1.4342     4.9091 </r>
       <r>     2.8496     1.9379     5.0689 </r>
       <r>     2.9321     2.0893     5.2412 </r>
       <r>     3.0145     1.9458     5.4016 </r>
       <r>     3.0970     1.9453     5.5620 </r>
       <r>     3.1794     2.2266     5.7457 </r>
       <r>     3.2619     2.3834     5.9422 </r>
       <r>     3.3444     2.0274     6.1094 </r>
       <r>     3.4268     1.2958     6.2162 </r>
       <r>     3.5093     0.6321     6.2683 </r>
       <r>     3.5917     0.3159     6.2944 </r>
       <r>     3.6742     0.3675     6.3247 </r>
       <r>     3.7567     0.6763     6.3805 </r>
       <r>     3.8391     1.0415     6.4664 </r>
       <r>     3.9216     1.2596     6.5702 </r>
       <r>     4.0040     1.3165     6.6788 </r>
       <r>     4.0865     1.3477     6.7899 </r>
       <r>     4.1690     1.3745     6.9032 </r>
       <r>     4.2514     1.2958     7.0101 </r>
       <r>     4.3339     1.0950     7.1004 </r>
       <r>     4.4163     0.8515     7.1706 </r>
       <r>     4.4988     0.6503     7.2242 </r>
       <r>     4.5813     0.5782     7.2719 </r>
       <r>     4.6637     0.6612     7.3264 </r>
       <r>     4.7462     0.7864     7.3913 </r>
       <r>     4.8286     0.8214     7.4590 </r>
       <r>     4.9111     0.7801     7.5233 </r>
       <r>     4.9936     0.7527     7.5854 </r>
       <r>     5.0760     0.7623     7.6483 </r>
       <r>     5.1585     0.7950     7.7138 </r>
       <r>     5.2409     0.8351     7.7827 </r>
       <r>     5.3234     0.8065     7.8492 </r>
       <r>     5.4059     0.6359     7.9016 </r>
       <r>     5.4883     0.3809     7.9330 </r>
       <r>     5.5708     0.1734     7.9473 </r>
       <r>     5.6532     0.0783     7.9538 </r>
       <r>     5.7357     0.0743     7.9599 </r>
       <r>     5.8182     0.1095     7.9690 </r>
       <r>     5.9006     0.1333     7.9799 </r>
       <r>     5.9831     0.1188     7.9897 </r>
       <r>     6.0655     0.0789     7.9963 </r>
       <r>     6.1480     0.0502     8.0004 </r>
       <r>     6.2305     0.0632     8.0056 </r>
       <r>     6.3129     0.1271     8.0161 </r>
       <r>     6.3954     0.2154     8.0338 </r>
       <r>     6.4778     0.2689     8.0560 </r>
       <r>     6.5603     0.2526     8.0769 </r>
       <r>     6.6428     0.2127     8.0944 </r>
       <r>     6.7252     0.2415     8.1143 </r>
       <r>     6.8077     0.3722     8.1450 </r>
       <r>     6.8901     0.5238     8.1882 </r>
       <r>     6.9726     0.5830     8.2363 </r>
       <r>     7.0551     0.5440     8.2811 </r>
       <r>     7.1375     0.5066     8.3229 </r>
       <r>     7.2200     0.5361     8.3671 </r>
       <r>     7.3024     0.6174     8.4180 </r>
       <r>     7.3849     0.7376     8.4788 </r>
       <r>     7.4674     0.9254     8.5551 </r>
       <r>     7.5498     1.1768     8.6522 </r>
       <r>     7.6323     1.3857     8.7665 </r>
       <r>     7.7147     1.4409     8.8853 </r>
       <r>     7.7972     1.3971     9.0005 </r>
       <r>     7.8797     1.3979     9.1157 </r>
       <r>     7.9621     1.4186     9.2327 </r>
       <r>     8.0446     1.2930     9.3393 </r>
       <r>     8.1270     0.9791     9.4201 </r>
       <r>     8.2095     0.6138     9.4707 </r>
       <r>     8.2920     0.3453     9.4992 </r>
       <r>     8.3744     0.2176     9.5171 </r>
       <r>     8.4569     0.1886     9.5327 </r>
       <r>     8.5393     0.2151     9.5504 </r>
       <r>     8.6218     0.3036     9.5754 </r>
       <r>     8.7043     0.4555     9.6130 </r>
       <r>     8.7867     0.6061     9.6630 </r>
       <r>     8.8692     0.6985     9.7206 </r>
       <r>     8.9516     0.7941     9.7861 </r>
       <r>     9.0341     1.0345     9.8714 </r>
       <r>     9.1166     1.5173     9.9965 </r>
       <r>     9.1990     2.1642    10.1749 </r>
       <r>     9.2815     2.6249    10.3914 </r>
       <r>     9.3639     2.5214    10.5993 </r>
       <r>     9.4464     1.9428    10.7595 </r>
       <r>     9.5289     1.4265    10.8771 </r>
       <r>     9.6113     1.3430    10.9879 </r>
       <r>     9.6938     1.5714    11.1175 </r>
       <r>     9.7762     1.8168    11.2673 </r>
       <r>     9.8587     1.9600    11.4289 </r>
       <r>     9.9412     1.9945    11.5934 </r>
       <r>    10.0236     1.8955    11.7497 </r>
       <r>    10.1061     1.7324    11.8925 </r>
       <r>    10.1885     1.6930    12.0321 </r>
       <r>    10.2710     1.8450    12.1843 </r>
       <r>    10.3535     2.0413    12.3526 </r>
       <r>    10.4359     2.1346    12.5286 </r>
       <r>    10.5184     2.1524    12.7061 </r>
       <r>    10.6008     2.2428    12.8910 </r>
       <r>    10.6833     2.4837    13.0958 </r>
       <r>    10.7658     2.6932    13.3179 </r>
       <r>    10.8482     2.5292    13.5265 </r>
       <r>    10.9307     1.8968    13.6829 </r>
       <r>    11.0131     1.1154    13.7749 </r>
       <r>    11.0956     0.6012    13.8244 </r>
       <r>    11.1781     0.5283    13.8680 </r>
       <r>    11.2605     0.7830    13.9326 </r>
       <r>    11.3430     1.0778    14.0214 </r>
       <r>    11.4254     1.1645    14.1175 </r>
       <r>    11.5079     1.0401    14.2032 </r>
       <r>    11.5904     0.8646    14.2745 </r>
       <r>    11.6728     0.7182    14.3337 </r>
       <r>    11.7553     0.5913    14.3825 </r>
       <r>    11.8377     0.4992    14.4237 </r>
       <r>    11.9202     0.4451    14.4604 </r>
       <r>    12.0027     0.3734    14.4912 </r>
       <r>    12.0851     0.2539    14.5121 </r>
       <r>    12.1676     0.1293    14.5228 </r>
       <r>    12.2500     0.0479    14.5267 </r>
       <r>    12.3325     0.0128    14.5278 </r>
       <r>    12.4150     0.0025    14.5280 </r>
       <r>    12.4974     0.0003    14.5280 </r>
       <r>    12.5799     0.0000    14.5280 </r>
       <r>    12.6623     0.0000    14.5280 </r>
       <r>    12.7448     0.0000    14.5280 </r>
       <r>    12.8273     0.0000    14.5280 </r>
       <r>    12.9097     0.0001    14.5280 </r>
       <r>    12.9922     0.0009    14.5281 </r>
       <r>    13.0746     0.0068    14.5286 </r>
       <r>    13.1571     0.0359    14.5316 </r>
       <r>    13.2396     0.1381    14.5430 </r>
       <r>    13.3220     0.3871    14.5749 </r>
       <r>    13.4045     0.8072    14.6415 </r>
       <r>    13.4869     1.2982    14.7485 </r>
       <r>    13.5694     1.7010    14.8888 </r>
       <r>    13.6519     1.9090    15.0462 </r>
       <r>    13.7343     1.8553    15.1992 </r>
       <r>    13.8168     1.5424    15.3264 </r>
       <r>    13.8992     1.1411    15.4205 </r>
       <r>    13.9817     0.8469    15.4903 </r>
       <r>    14.0642     0.6620    15.5449 </r>
       <r>    14.1466     0.4953    15.5857 </r>
       <r>    14.2291     0.3696    15.6162 </r>
       <r>    14.3115     0.3855    15.6480 </r>
       <r>    14.3940     0.5571    15.6939 </r>
       <r>    14.4765     0.7714    15.7576 </r>
       <r>    14.5589     0.8868    15.8307 </r>
       <r>    14.6414     0.8301    15.8991 </r>
       <r>    14.7238     0.6242    15.9506 </r>
       <r>    14.8063     0.3666    15.9808 </r>
       <r>    14.8888     0.1632    15.9943 </r>
       <r>    14.9712     0.0538    15.9987 </r>
       <r>    15.0537     0.0129    15.9998 </r>
       <r>    15.1361     0.0023    16.0000 </r>
       <r>    15.2186     0.0003    16.0000 </r>
       <r>    15.3011     0.0000    16.0000 </r>
       <r>    15.3835     0.0000    16.0000 </r>
       <r>    15.4660     0.0000    16.0000 </r>
       <r>    15.5484     0.0000    16.0000 </r>
       <r>    15.6309     0.0000    16.0000 </r>
       <r>    15.7134     0.0000    16.0000 </r>
       <r>    15.7958     0.0000    16.0000 </r>
       <r>    15.8783     0.0000    16.0000 </r>
       <r>    15.9607     0.0000    16.0000 </r>
       <r>    16.0432     0.0000    16.0000 </r>
       <r>    16.1257     0.0000    16.0000 </r>
       <r>    16.2081     0.0000    16.0000 </r>
       <r>    16.2906     0.0000    16.0000 </r>
       <r>    16.3730     0.0000    16.0000 </r>
       <r>    16.4555     0.0000    16.0000 </r>
       <r>    16.5380     0.0000    16.0000 </r>
       <r>    16.6204     0.0000    16.0000 </r>
      </set>
     </set>
    </array>
   </total>
  </dos>
 </calculation>
 <structure name="finalpos" >
  <crystal>
   <varray name="basis" >
    <v>       0.00000000       2.71500000       2.71500000 </v>
    <v>       2.71500000       0.00000000       2.71500000 </v>
    <v>       2.71500000       2.71500000       0.00000000 </v>
   </varray>
   <i name="volume">     40.02575175 </i>
   <varray name="rec_basis" >
    <v>      -0.18416206       0.18416206       0.18416206 </v>
    <v>       0.18416206      -0.18416206       0.18416206 </v>
    <v>       0.18416206       0.18416206      -0.18416206 </v>
   </varray>
  </crystal>
  <varray name="positions" >
   <v>       0.50000000       0.50000000       0.50000000 </v>
   <v>       0.75000000       0.75000000       0.75000000 </v>
  </varray>
 </structure>
</modeling>
