<?xml version="1.0" encoding="ISO-8859-1"?>
<modeling>
 <generator>
  <i name="program" type="string">vasp </i>
  <i name="version" type="string">5.4.4.18Apr17-6-g9f103f2a35  </i>
  <i name="subversion" type="string">(build Dec 09 2018 21:25:21) complex            parallel </i>
  <i name="platform" type="string">IFC18.0.1.163_CrayMPICH7.7.0_MKL18.0.1.163 </i>
  <i name="date" type="string">2019 03 20 </i>
  <i name="time" type="string">09:48:00 </i>
 </generator>
 <incar>
  <i type="string" name="PREC">normal</i>
  <i type="int" name="IBRION">     2</i>
  <i name="EDIFF">      0.00040000</i>
  <i name="EDIFFG">     -0.01000000</i>
  <i type="int" name="NSW">    15</i>
  <i type="int" name="ISIF">     3</i>
  <i name="ENCUT">    200.00000000</i>
  <i type="int" name="NBANDS">     8</i>
  <i type="logical" name="LREAL"> F  </i>
  <i type="int" name="ISMEAR">     0</i>
  <i name="SIGMA">      0.20000000</i>
  <v type="int" name="KPOINT_BSE">    -1     0     0     0</v>
 </incar>
 <structure name="primitive_cell" >
  <crystal>
   <varray name="basis" >
    <v>       0.00000000       2.71500000       2.71500000 </v>
    <v>       2.71500000       0.00000000       2.71500000 </v>
    <v>       2.71500000       2.71500000       0.00000000 </v>
   </varray>
   <i name="volume">     40.02575175 </i>
   <varray name="rec_basis" >
    <v>      -0.18416206       0.18416206       0.18416206 </v>
    <v>       0.18416206      -0.18416206       0.18416206 </v>
    <v>       0.18416206       0.18416206      -0.18416206 </v>
   </varray>
  </crystal>
  <varray name="positions" >
   <v>      -0.50000000      -0.50000000      -0.50000000 </v>
   <v>      -0.25000000      -0.25000000      -0.25000000 </v>
  </varray>
 </structure>
 <varray name="primitive_index" >
  <v type="int" >        1 </v>
  <v type="int" >        2 </v>
 </varray>
 <kpoints>
  <generation param="Monkhorst-Pack">
   <v type="int" name="divisions">       5        5        5 </v>
   <v name="usershift">      0.00000000       0.00000000       0.00000000 </v>
   <v name="genvec1">      0.20000000       0.00000000      -0.00000000 </v>
   <v name="genvec2">      0.00000000       0.20000000       0.00000000 </v>
   <v name="genvec3">     -0.00000000      -0.00000000       0.20000000 </v>
   <v name="shift">      0.00000000       0.00000000       0.00000000 </v>
  </generation>
  <varray name="kpointlist" >
   <v>       0.00000000       0.00000000       0.00000000 </v>
   <v>       0.20000000       0.00000000       0.00000000 </v>
   <v>       0.40000000       0.00000000       0.00000000 </v>
   <v>       0.20000000       0.20000000       0.00000000 </v>
   <v>       0.40000000       0.20000000       0.00000000 </v>
   <v>      -0.40000000       0.20000000       0.00000000 </v>
   <v>      -0.20000000       0.20000000       0.00000000 </v>
   <v>       0.40000000       0.40000000       0.00000000 </v>
   <v>      -0.40000000       0.40000000       0.00000000 </v>
   <v>      -0.40000000       0.40000000       0.20000000 </v>
  </varray>
  <varray name="weights" >
   <v>       0.00800000 </v>
   <v>       0.06400000 </v>
   <v>       0.06400000 </v>
   <v>       0.04800000 </v>
   <v>       0.19200000 </v>
   <v>       0.19200000 </v>
   <v>       0.09600000 </v>
   <v>       0.04800000 </v>
   <v>       0.09600000 </v>
   <v>       0.19200000 </v>
  </varray>
 </kpoints>
 <parameters>
  <separator name="general" >
   <i type="string" name="SYSTEM">unknown system</i>
   <i type="logical" name="LCOMPAT"> F  </i>
  </separator>
  <separator name="electronic" >
   <i type="string" name="PREC">normal</i>
   <i name="ENMAX">    200.00000000</i>
   <i name="ENAUG">    322.06900000</i>
   <i name="EDIFF">      0.00040000</i>
   <i type="int" name="IALGO">    38</i>
   <i type="int" name="IWAVPR">    11</i>
   <i type="int" name="NBANDS">     8</i>
   <i name="NELECT">      8.00000000</i>
   <i type="int" name="TURBO">     0</i>
   <i type="int" name="IRESTART">     0</i>
   <i type="int" name="NREBOOT">     0</i>
   <i type="int" name="NMIN">     0</i>
   <i name="EREF">      0.00000000</i>
   <separator name="electronic smearing" >
    <i type="int" name="ISMEAR">     0</i>
    <i name="SIGMA">      0.20000000</i>
    <i name="KSPACING">      0.50000000</i>
    <i type="logical" name="KGAMMA"> T  </i>
   </separator>
   <separator name="electronic projectors" >
    <i type="logical" name="LREAL"> F  </i>
    <v name="ROPT">      0.00000000</v>
    <i type="int" name="LMAXPAW">  -100</i>
    <i type="int" name="LMAXMIX">     2</i>
    <i type="logical" name="NLSPLINE"> F  </i>
   </separator>
   <separator name="electronic startup" >
    <i type="int" name="ISTART">     0</i>
    <i type="int" name="ICHARG">     2</i>
    <i type="int" name="INIWAV">     1</i>
   </separator>
   <separator name="electronic spin" >
    <i type="int" name="ISPIN">     1</i>
    <i type="logical" name="LNONCOLLINEAR"> F  </i>
    <v name="MAGMOM">      1.00000000      1.00000000</v>
    <i name="NUPDOWN">     -1.00000000</i>
    <i type="logical" name="LSORBIT"> F  </i>
    <v name="SAXIS">      0.00000000      0.00000000      1.00000000</v>
    <i type="logical" name="LSPIRAL"> F  </i>
    <v name="QSPIRAL">      0.00000000      0.00000000      0.00000000</v>
    <i type="logical" name="LZEROZ"> F  </i>
   </separator>
   <separator name="electronic exchange-correlation" >
    <i type="logical" name="LASPH"> F  </i>
    <i type="logical" name="LMETAGGA"> F  </i>
   </separator>
   <separator name="electronic convergence" >
    <i type="int" name="NELM">    60</i>
    <i type="int" name="NELMDL">    -5</i>
    <i type="int" name="NELMIN">     2</i>
    <i name="ENINI">    200.00000000</i>
    <separator name="electronic convergence detail" >
     <i type="logical" name="LDIAG"> T  </i>
     <i type="logical" name="LSUBROT"> F  </i>
     <i name="WEIMIN">      0.00100000</i>
     <i name="EBREAK">      0.00001250</i>
     <i name="DEPER">      0.30000000</i>
     <i type="int" name="NRMM">     4</i>
     <i name="TIME">      0.40000000</i>
    </separator>
   </separator>
   <separator name="electronic mixer" >
    <i name="AMIX">      0.40000000</i>
    <i name="BMIX">      1.00000000</i>
    <i name="AMIN">      0.10000000</i>
    <i name="AMIX_MAG">      1.60000000</i>
    <i name="BMIX_MAG">      1.00000000</i>
    <separator name="electronic mixer details" >
     <i type="int" name="IMIX">     4</i>
     <i type="logical" name="MIXFIRST"> F  </i>
     <i type="int" name="MAXMIX">   -45</i>
     <i name="WC">    100.00000000</i>
     <i type="int" name="INIMIX">     1</i>
     <i type="int" name="MIXPRE">     1</i>
     <i type="int" name="MREMOVE">     5</i>
    </separator>
   </separator>
   <separator name="electronic dipolcorrection" >
    <i type="logical" name="LDIPOL"> F  </i>
    <i type="logical" name="LMONO"> F  </i>
    <i type="int" name="IDIPOL">     0</i>
    <i name="EPSILON">      1.00000000</i>
    <v name="DIPOL">   -100.00000000   -100.00000000   -100.00000000</v>
    <i name="EFIELD">      0.00000000</i>
   </separator>
  </separator>
  <separator name="grids" >
   <i type="int" name="NGX">    14</i>
   <i type="int" name="NGY">    14</i>
   <i type="int" name="NGZ">    14</i>
   <i type="int" name="NGXF">    28</i>
   <i type="int" name="NGYF">    28</i>
   <i type="int" name="NGZF">    28</i>
   <i type="logical" name="ADDGRID"> F  </i>
  </separator>
  <separator name="ionic" >
   <i type="int" name="NSW">    15</i>
   <i type="int" name="IBRION">     2</i>
   <i type="int" name="MDALGO">     0</i>
   <i type="int" name="ISIF">     3</i>
   <i name="PSTRESS">      0.00000000</i>
   <i name="EDIFFG">     -0.01000000</i>
   <i type="int" name="NFREE">     1</i>
   <i name="POTIM">      0.50000000</i>
   <i name="SMASS">     -3.00000000</i>
   <i name="SCALEE">      1.00000000</i>
  </separator>
  <separator name="ionic md" >
   <i name="TEBEG">      0.00010000</i>
   <i name="TEEND">      0.00010000</i>
   <i type="int" name="NBLOCK">     1</i>
   <i type="int" name="KBLOCK">    15</i>
   <i type="int" name="NPACO">   256</i>
   <i name="APACO">     16.00000000</i>
  </separator>
  <separator name="symmetry" >
   <i type="int" name="ISYM">     2</i>
   <i name="SYMPREC">      0.00001000</i>
  </separator>
  <separator name="dos" >
   <i type="int" name="LORBIT">     0</i>
   <v name="RWIGS">     -1.00000000</v>
   <i type="int" name="NEDOS">   301</i>
   <i name="EMIN">     10.00000000</i>
   <i name="EMAX">    -10.00000000</i>
   <i name="EFERMI">      0.00000000</i>
  </separator>
  <separator name="writing" >
   <i type="int" name="NWRITE">     2</i>
   <i type="logical" name="LWAVE"> T  </i>
   <i type="logical" name="LDOWNSAMPLE"> F  </i>
   <i type="logical" name="LCHARG"> T  </i>
   <i type="logical" name="LPARD"> F  </i>
   <i type="logical" name="LVTOT"> F  </i>
   <i type="logical" name="LVHAR"> F  </i>
   <i type="logical" name="LELF"> F  </i>
   <i type="logical" name="LOPTICS"> F  </i>
   <v name="STM">      0.00000000      0.00000000      0.00000000      0.00000000      0.00000000      0.00000000      0.00000000</v>
  </separator>
  <separator name="performance" >
   <i type="int" name="NPAR">     8</i>
   <i type="int" name="NSIM">     4</i>
   <i type="int" name="NBLK">    -1</i>
   <i type="logical" name="LPLANE"> T  </i>
   <i type="logical" name="LSCALAPACK"> T  </i>
   <i type="logical" name="LSCAAWARE"> F  </i>
   <i type="logical" name="LSCALU"> F  </i>
   <i type="logical" name="LASYNC"> F  </i>
   <i type="logical" name="LORBITALREAL"> F  </i>
  </separator>
  <separator name="miscellaneous" >
   <i type="int" name="IDIOT">     3</i>
   <i type="int" name="ISPECIAL">     0</i>
   <i type="logical" name="LMUSIC"> F  </i>
   <v name="POMASS">     28.08500000</v>
   <v name="DARWINR">      0.00000000</v>
   <v name="DARWINV">      1.00000000</v>
   <i type="logical" name="LCORR"> T  </i>
  </separator>
  <i type="logical" name="GGA_COMPAT"> T  </i>
  <i type="logical" name="LBERRY"> F  </i>
  <i type="int" name="ICORELEVEL">     0</i>
  <i type="logical" name="LDAU"> F  </i>
  <i type="int" name="I_CONSTRAINED_M">     0</i>
  <separator name="electronic exchange-correlation" >
   <i type="string" name="GGA">--</i>
   <i type="int" name="VOSKOWN">     0</i>
   <i type="logical" name="LHFCALC"> F  </i>
   <i type="string" name="PRECFOCK"></i>
   <i type="logical" name="LSYMGRAD"> F  </i>
   <i type="logical" name="LHFONE"> F  </i>
   <i type="logical" name="LRHFCALC"> F  </i>
   <i type="logical" name="LTHOMAS"> F  </i>
   <i type="logical" name="LMODELHF"> F  </i>
   <i name="ENCUT4O">     -1.00000000</i>
   <i type="int" name="EXXOEP">     0</i>
   <i type="int" name="FOURORBIT">     0</i>
   <i name="AEXX">      0.00000000</i>
   <i name="HFALPHA">      0.00000000</i>
   <i name="MCALPHA">      0.00000000</i>
   <i name="ALDAX">      1.00000000</i>
   <i name="AGGAX">      1.00000000</i>
   <i name="ALDAC">      1.00000000</i>
   <i name="AGGAC">      1.00000000</i>
   <i type="int" name="NKREDX">     1</i>
   <i type="int" name="NKREDY">     1</i>
   <i type="int" name="NKREDZ">     1</i>
   <i type="logical" name="SHIFTRED"> F  </i>
   <i type="logical" name="ODDONLY"> F  </i>
   <i type="logical" name="EVENONLY"> F  </i>
   <i type="int" name="LMAXFOCK">     0</i>
   <i type="int" name="NMAXFOCKAE">     0</i>
   <i type="logical" name="LFOCKAEDFT"> F  </i>
   <i name="HFSCREEN">      0.00000000</i>
   <i name="HFSCREENC">      0.00000000</i>
   <i type="int" name="NBANDSGWLOW">     0</i>
  </separator>
  <separator name="vdW DFT" >
   <i type="logical" name="LUSE_VDW"> F  </i>
   <i name="Zab_VDW">     -0.84910000</i>
   <i name="PARAM1">      0.12340000</i>
   <i name="PARAM2">      1.00000000</i>
   <i name="PARAM3">      0.00000000</i>
  </separator>
  <separator name="model GW" >
   <i type="int" name="MODEL_GW">     0</i>
   <i name="MODEL_EPS0">     12.00772552</i>
   <i name="MODEL_ALPHA">      1.00000000</i>
  </separator>
  <separator name="linear response parameters" >
   <i type="logical" name="LEPSILON"> F  </i>
   <i type="logical" name="LRPA"> F  </i>
   <i type="logical" name="LNABLA"> F  </i>
   <i type="logical" name="LVEL"> F  </i>
   <i type="int" name="KINTER">     0</i>
   <i name="CSHIFT">      0.10000000</i>
   <i name="OMEGAMAX">     -1.00000000</i>
   <i name="DEG_THRESHOLD">      0.00200000</i>
   <i name="RTIME">     -0.10000000</i>
   <i name="WPLASMAI">      0.00000000</i>
   <v name="DFIELD">      0.00000000      0.00000000      0.00000000</v>
   <v name="WPLASMA">      0.00000000      0.00000000      0.00000000      0.00000000      0.00000000      0.00000000      0.00000000      0.00000000      0.00000000</v>
  </separator>
  <separator name="orbital magnetization" >
   <i type="logical" name="NUCIND"> F  </i>
   <v name="MAGPOS">      0.00000000      0.00000000      0.00000000</v>
   <i type="logical" name="LNICSALL"> T  </i>
   <i type="logical" name="ORBITALMAG"> F  </i>
   <i type="logical" name="LMAGBLOCH"> F  </i>
   <i type="logical" name="LCHIMAG"> F  </i>
   <i type="logical" name="LGAUGE"> T  </i>
   <i type="int" name="MAGATOM">     0</i>
   <v name="MAGDIPOL">      0.00000000      0.00000000      0.00000000</v>
   <v name="AVECCONST">      0.00000000      0.00000000      0.00000000</v>
  </separator>
  <separator name="response functions" >
   <i type="logical" name="LADDER"> F  </i>
   <i type="logical" name="LRPAFORCE"> F  </i>
   <i type="logical" name="LFXC"> F  </i>
   <i type="logical" name="LHARTREE"> T  </i>
   <i type="int" name="IBSE">     0</i>
   <v type="int" name="KPOINT">    -1     0     0     0</v>
   <i type="logical" name="LTCTE"> F  </i>
   <i type="logical" name="LTETE"> F  </i>
   <i type="logical" name="LTRIPLET"> F  </i>
   <i type="logical" name="LFXCEPS"> F  </i>
   <i type="logical" name="LFXHEG"> F  </i>
   <i type="int" name="NATURALO">     2</i>
   <i type="logical" name="L2ORDER"> F  </i>
   <i type="logical" name="LMP2LT"> F  </i>
   <i type="logical" name="LUSEW"> F  </i>
   <i name="ENCUTGW">     -2.00000000</i>
   <i name="ENCUTGWSOFT">     -2.00000000</i>
   <i name="ENCUTLF">     -1.00000000</i>
   <i type="int" name="LMAXMP2">    -1</i>
   <i name="SCISSOR">      0.00000000</i>
   <i type="int" name="NOMEGA">     0</i>
   <i type="int" name="NOMEGAR">     0</i>
   <i type="int" name="NBANDSGW">    -1</i>
   <i type="int" name="NBANDSO">    -1</i>
   <i type="int" name="NBANDSV">    -1</i>
   <i type="int" name="NELM">     1</i>
   <i type="int" name="NELMHF">     1</i>
   <i type="int" name="DIM">     3</i>
   <i type="int" name="ANTIRES">     0</i>
   <i name="OMEGAMAX">    -30.00000000</i>
   <i name="OMEGAMIN">    -30.00000000</i>
   <i name="OMEGATL">   -200.00000000</i>
   <i type="int" name="OMEGAGRID">   140</i>
   <i name="CSHIFT">     -0.10000000</i>
   <i type="logical" name="SELFENERGY"> F  </i>
   <i type="logical" name="LSPECTRAL"> F  </i>
   <i type="logical" name="LSPECTRALGW"> F  </i>
   <i type="logical" name="LSINGLES"> F  </i>
   <i type="logical" name="LFERMIGW"> F  </i>
   <i type="logical" name="ODDONLYGW"> F  </i>
   <i type="logical" name="EVENONLYGW"> F  </i>
   <i type="int" name="NKREDLFX">     1</i>
   <i type="int" name="NKREDLFY">     1</i>
   <i type="int" name="NKREDLFZ">     1</i>
   <i type="int" name="MAXMEM">  2800</i>
   <i type="int" name="TELESCOPE">     0</i>
   <i type="int" name="TAUPAR">     1</i>
   <i type="int" name="OMEGAPAR">    -1</i>
   <i name="LAMBDA">      1.00000000</i>
  </separator>
  <separator name="External order field" >
   <i name="OFIELD_KAPPA">      0.00000000</i>
   <v name="OFIELD_K">      0.00000000      0.00000000      0.00000000</v>
   <i name="OFIELD_Q6_NEAR">      0.00000000</i>
   <i name="OFIELD_Q6_FAR">      0.00000000</i>
   <i name="OFIELD_A">      0.00000000</i>
  </separator>
 </parameters>
 <atominfo>
  <atoms>       2 </atoms>
  <types>       1 </types>
  <array name="atoms" >
   <dimension dim="1">ion</dimension>
   <field type="string">element</field>
   <field type="int">atomtype</field>
   <set>
    <rc><c>Si</c><c>   1</c></rc>
    <rc><c>Si</c><c>   1</c></rc>
   </set>
  </array>
  <array name="atomtypes" >
   <dimension dim="1">type</dimension>
   <field type="int">atomspertype</field>
   <field type="string">element</field>
   <field>mass</field>
   <field>valence</field>
   <field type="string">pseudopotential</field>
   <set>
    <rc><c>   2</c><c>Si</c><c>     28.08500000</c><c>      4.00000000</c><c> PAW_PBE Si 05Jan2001                   </c></rc>
   </set>
  </array>
 </atominfo>
 <structure name="initialpos" >
  <crystal>
   <varray name="basis" >
    <v>       0.00000000       2.71500000       2.71500000 </v>
    <v>       2.71500000       0.00000000       2.71500000 </v>
    <v>       2.71500000       2.71500000       0.00000000 </v>
   </varray>
   <i name="volume">     40.02575175 </i>
   <varray name="rec_basis" >
    <v>      -0.18416206       0.18416206       0.18416206 </v>
    <v>       0.18416206      -0.18416206       0.18416206 </v>
    <v>       0.18416206       0.18416206      -0.18416206 </v>
   </varray>
  </crystal>
  <varray name="positions" >
   <v>       0.50000000       0.50000000       0.50000000 </v>
   <v>       0.75000000       0.75000000       0.75000000 </v>
  </varray>
 </structure>
 <calculation>
  <scstep>
   <time name="dav">    0.09    0.10</time>
   <time name="total">    0.13    0.16</time>
   <energy>
    <i name="alphaZ">      3.36414203 </i>
    <i name="ewald">   -228.56352493 </i>
    <i name="hartreedc">    -11.00108243 </i>
    <i name="XCdc">    -18.60172597 </i>
    <i name="pawpsdc">     65.95520812 </i>
    <i name="pawaedc">    -30.76852678 </i>
    <i name="eentropy">     -0.02872935 </i>
    <i name="bandstr">      9.25174242 </i>
    <i name="atom">    206.11247263 </i>
    <i name="e_fr_energy">     -4.28002427 </i>
    <i name="e_wo_entrp">     -4.25129492 </i>
    <i name="e_0_energy">     -4.26565959 </i>
   </energy>
  </scstep>
  <scstep>
   <time name="dav">    0.14    0.14</time>
   <time name="total">    0.14    0.14</time>
   <energy>
    <i name="e_fr_energy">    -10.86844674 </i>
    <i name="e_wo_entrp">    -10.86836811 </i>
    <i name="e_0_energy">    -10.86840742 </i>
   </energy>
  </scstep>
  <scstep>
   <time name="dav">    0.11    0.11</time>
   <time name="total">    0.11    0.12</time>
   <energy>
    <i name="e_fr_energy">    -10.92291891 </i>
    <i name="e_wo_entrp">    -10.92286411 </i>
    <i name="e_0_energy">    -10.92289151 </i>
   </energy>
  </scstep>
  <scstep>
   <time name="dav">    0.13    0.14</time>
   <time name="total">    0.13    0.14</time>
   <energy>
    <i name="e_fr_energy">    -10.92304868 </i>
    <i name="e_wo_entrp">    -10.92299393 </i>
    <i name="e_0_energy">    -10.92302130 </i>
   </energy>
  </scstep>
  <scstep>
   <time name="dav">    0.10    0.10</time>
   <time name="total">    0.11    0.12</time>
   <energy>
    <i name="e_fr_energy">    -10.92304870 </i>
    <i name="e_wo_entrp">    -10.92299395 </i>
    <i name="e_0_energy">    -10.92302133 </i>
   </energy>
  </scstep>
  <scstep>
   <time name="dav">    0.10    0.10</time>
   <time name="total">    0.14    0.15</time>
   <energy>
    <i name="e_fr_energy">    -10.79253246 </i>
    <i name="e_wo_entrp">    -10.79228710 </i>
    <i name="e_0_energy">    -10.79240978 </i>
   </energy>
  </scstep>
  <scstep>
   <time name="dav">    0.09    0.09</time>
   <time name="total">    0.12    0.14</time>
   <energy>
    <i name="e_fr_energy">    -10.73311829 </i>
    <i name="e_wo_entrp">    -10.73199022 </i>
    <i name="e_0_energy">    -10.73255426 </i>
   </energy>
  </scstep>
  <scstep>
   <time name="dav">    0.09    0.09</time>
   <time name="total">    0.13    0.13</time>
   <energy>
    <i name="e_fr_energy">    -10.73460945 </i>
    <i name="e_wo_entrp">    -10.73366449 </i>
    <i name="e_0_energy">    -10.73413697 </i>
   </energy>
  </scstep>
  <scstep>
   <time name="dav">    0.06    0.06</time>
   <time name="total">    0.08    0.10</time>
   <energy>
    <i name="alphaZ">      3.36414203 </i>
    <i name="ewald">   -228.56352493 </i>
    <i name="hartreedc">    -15.02675405 </i>
    <i name="XCdc">    -17.92443315 </i>
    <i name="pawpsdc">     75.97760993 </i>
    <i name="pawaedc">    -41.03125450 </i>
    <i name="eentropy">     -0.00094255 </i>
    <i name="bandstr">      6.35797638 </i>
    <i name="atom">    206.11247263 </i>
    <i name="e_fr_energy">    -10.73470820 </i>
    <i name="e_wo_entrp">    -10.73376565 </i>
    <i name="e_0_energy">    -10.73423693 </i>
   </energy>
  </scstep>
  <structure>
   <crystal>
    <varray name="basis" >
     <v>       0.00000000       2.71500000       2.71500000 </v>
     <v>       2.71500000       0.00000000       2.71500000 </v>
     <v>       2.71500000       2.71500000       0.00000000 </v>
    </varray>
    <i name="volume">     40.02575175 </i>
    <varray name="rec_basis" >
     <v>      -0.18416206       0.18416206       0.18416206 </v>
     <v>       0.18416206      -0.18416206       0.18416206 </v>
     <v>       0.18416206       0.18416206      -0.18416206 </v>
    </varray>
   </crystal>
   <varray name="positions" >
    <v>       0.50000000       0.50000000       0.50000000 </v>
    <v>       0.75000000       0.75000000       0.75000000 </v>
   </varray>
  </structure>
  <varray name="forces" >
   <v>       0.00000000       0.00000000       0.00000000 </v>
   <v>      -0.00000000      -0.00000000      -0.00000000 </v>
  </varray>
  <varray name="stress" >
   <v>      20.67572564      -0.00000000       0.00000000 </v>
   <v>      -0.00000000      20.67572564       0.00000000 </v>
   <v>       0.00000000       0.00000000      20.67572564 </v>
  </varray>
  <energy>
   <i name="e_fr_energy">    -10.73470820 </i>
   <i name="e_wo_entrp">    -10.73423693 </i>
   <i name="e_0_energy">     -0.00094255 </i>
  </energy>
  <time name="totalsc">    1.70    2.19</time>
 </calculation>
 <calculation>
  <scstep>
   <time name="dav">    0.10    0.10</time>
   <time name="total">    0.14    0.14</time>
   <energy>
    <i name="alphaZ">      3.24146773 </i>
    <i name="ewald">   -225.75084536 </i>
    <i name="hartreedc">    -14.85352201 </i>
    <i name="XCdc">    -18.10618002 </i>
    <i name="pawpsdc">     75.96754310 </i>
    <i name="pawaedc">    -41.02214089 </i>
    <i name="eentropy">     -0.00035814 </i>
    <i name="bandstr">      3.66645250 </i>
    <i name="atom">    206.11247263 </i>
    <i name="e_fr_energy">    -10.74511047 </i>
    <i name="e_wo_entrp">    -10.74475232 </i>
    <i name="e_0_energy">    -10.74493139 </i>
   </energy>
  </scstep>
  <scstep>
   <time name="dav">    0.10    0.10</time>
   <time name="total">    0.14    0.14</time>
   <energy>
    <i name="e_fr_energy">    -10.74013705 </i>
    <i name="e_wo_entrp">    -10.73968962 </i>
    <i name="e_0_energy">    -10.73991333 </i>
   </energy>
  </scstep>
  <scstep>
   <time name="dav">    0.10    0.10</time>
   <time name="total">    0.13    0.14</time>
   <energy>
    <i name="e_fr_energy">    -10.73757927 </i>
    <i name="e_wo_entrp">    -10.73699407 </i>
    <i name="e_0_energy">    -10.73728667 </i>
   </energy>
  </scstep>
  <scstep>
   <time name="dav">    0.05    0.05</time>
   <time name="total">    0.08    0.09</time>
   <energy>
    <i name="alphaZ">      3.24146773 </i>
    <i name="ewald">   -225.75084536 </i>
    <i name="hartreedc">    -15.47635111 </i>
    <i name="XCdc">    -18.09288884 </i>
    <i name="pawpsdc">     74.82400867 </i>
    <i name="pawaedc">    -39.84668553 </i>
    <i name="eentropy">     -0.00057638 </i>
    <i name="bandstr">      4.25183034 </i>
    <i name="atom">    206.11247263 </i>
    <i name="e_fr_energy">    -10.73756785 </i>
    <i name="e_wo_entrp">    -10.73699147 </i>
    <i name="e_0_energy">    -10.73727966 </i>
   </energy>
  </scstep>
  <structure>
   <crystal>
    <varray name="basis" >
     <v>       0.00000000       2.74882678       2.74882678 </v>
     <v>       2.74882678      -0.00000000       2.74882678 </v>
     <v>       2.74882678       2.74882678       0.00000000 </v>
    </varray>
    <i name="volume">     41.54053802 </i>
    <varray name="rec_basis" >
     <v>      -0.18189578       0.18189578       0.18189578 </v>
     <v>       0.18189578      -0.18189578       0.18189578 </v>
     <v>       0.18189578       0.18189578      -0.18189578 </v>
    </varray>
   </crystal>
   <varray name="positions" >
    <v>       0.50000000       0.50000000       0.50000000 </v>
    <v>       0.75000000       0.75000000       0.75000000 </v>
   </varray>
  </structure>
  <varray name="forces" >
   <v>      -0.00000000      -0.00000000      -0.00000000 </v>
   <v>       0.00000000       0.00000000       0.00000000 </v>
  </varray>
  <varray name="stress" >
   <v>     -13.15639943       0.00000000      -0.00000000 </v>
   <v>       0.00000000     -13.15639943       0.00000000 </v>
   <v>       0.00000000      -0.00000000     -13.15639943 </v>
  </varray>
  <energy>
   <i name="e_fr_energy">    -10.73756785 </i>
   <i name="e_wo_entrp">    -10.73727966 </i>
   <i name="e_0_energy">     -0.00057638 </i>
  </energy>
  <time name="totalsc">    0.64    0.74</time>
 </calculation>
 <calculation>
  <scstep>
   <time name="dav">    0.08    0.08</time>
   <time name="total">    0.12    0.13</time>
   <energy>
    <i name="alphaZ">      3.28953362 </i>
    <i name="ewald">   -226.86121875 </i>
    <i name="hartreedc">    -15.55518603 </i>
    <i name="XCdc">    -18.02225964 </i>
    <i name="pawpsdc">     74.78401515 </i>
    <i name="pawaedc">    -39.80507599 </i>
    <i name="eentropy">     -0.00082856 </i>
    <i name="bandstr">      5.31712861 </i>
    <i name="atom">    206.11247263 </i>
    <i name="e_fr_energy">    -10.74141897 </i>
    <i name="e_wo_entrp">    -10.74059041 </i>
    <i name="e_0_energy">    -10.74100469 </i>
   </energy>
  </scstep>
  <scstep>
   <time name="dav">    0.11    0.11</time>
   <time name="total">    0.14    0.15</time>
   <energy>
    <i name="e_fr_energy">    -10.74064095 </i>
    <i name="e_wo_entrp">    -10.73987473 </i>
    <i name="e_0_energy">    -10.74025784 </i>
   </energy>
  </scstep>
  <scstep>
   <time name="dav">    0.08    0.08</time>
   <time name="total">    0.12    0.12</time>
   <energy>
    <i name="e_fr_energy">    -10.74022529 </i>
    <i name="e_wo_entrp">    -10.73953283 </i>
    <i name="e_0_energy">    -10.73987906 </i>
   </energy>
  </scstep>
  <scstep>
   <time name="dav">    0.06    0.06</time>
   <time name="total">    0.09    0.10</time>
   <energy>
    <i name="alphaZ">      3.28953362 </i>
    <i name="ewald">   -226.86121875 </i>
    <i name="hartreedc">    -15.30371140 </i>
    <i name="XCdc">    -18.02688830 </i>
    <i name="pawpsdc">     75.24102994 </i>
    <i name="pawaedc">    -40.27472724 </i>
    <i name="eentropy">     -0.00069644 </i>
    <i name="bandstr">      5.08397758 </i>
    <i name="atom">    206.11247263 </i>
    <i name="e_fr_energy">    -10.74022836 </i>
    <i name="e_wo_entrp">    -10.73953192 </i>
    <i name="e_0_energy">    -10.73988014 </i>
   </energy>
  </scstep>
  <structure>
   <crystal>
    <varray name="basis" >
     <v>       0.00000000       2.73537264       2.73537264 </v>
     <v>       2.73537264      -0.00000000       2.73537264 </v>
     <v>       2.73537264       2.73537264       0.00000000 </v>
    </varray>
    <i name="volume">     40.93355748 </i>
    <varray name="rec_basis" >
     <v>      -0.18279045       0.18279045       0.18279045 </v>
     <v>       0.18279045      -0.18279045       0.18279045 </v>
     <v>       0.18279045       0.18279045      -0.18279045 </v>
    </varray>
   </crystal>
   <varray name="positions" >
    <v>       0.50000000       0.50000000       0.50000000 </v>
    <v>       0.75000000       0.75000000       0.75000000 </v>
   </varray>
  </structure>
  <varray name="forces" >
   <v>       0.00000000       0.00000000       0.00000000 </v>
   <v>      -0.00000000      -0.00000000      -0.00000000 </v>
  </varray>
  <varray name="stress" >
   <v>      -0.58900170      -0.00000000      -0.00000000 </v>
   <v>      -0.00000000      -0.58900170       0.00000000 </v>
   <v>       0.00000000       0.00000000      -0.58900170 </v>
  </varray>
  <energy>
   <i name="e_fr_energy">    -10.74022836 </i>
   <i name="e_wo_entrp">    -10.73988014 </i>
   <i name="e_0_energy">     -0.00069644 </i>
  </energy>
  <time name="totalsc">    0.63    0.82</time>
  <eigenvalues>
   <array>
    <dimension dim="1">band</dimension>
    <dimension dim="2">kpoint</dimension>
    <dimension dim="3">spin</dimension>
    <field>eigene</field>
    <field>occ</field>
    <set>
     <set comment="spin 1">
      <set comment="kpoint 1">
       <r>   -6.1881    1.0000 </r>
       <r>    5.6479    0.9798 </r>
       <r>    5.6479    0.9798 </r>
       <r>    5.6479    0.9798 </r>
       <r>    8.2020    0.0000 </r>
       <r>    8.2021    0.0000 </r>
       <r>    8.2021    0.0000 </r>
       <r>    8.7437    0.0000 </r>
      </set>
      <set comment="kpoint 2">
       <r>   -5.6805    1.0000 </r>
       <r>    2.6475    1.0000 </r>
       <r>    5.0723    1.0000 </r>
       <r>    5.0723    1.0000 </r>
       <r>    7.7929    0.0000 </r>
       <r>    8.9972    0.0000 </r>
       <r>    8.9972    0.0000 </r>
       <r>   11.5092    0.0000 </r>
      </set>
      <set comment="kpoint 3">
       <r>   -4.3475    1.0000 </r>
       <r>   -0.5625    1.0000 </r>
       <r>    4.5269    1.0000 </r>
       <r>    4.5270    1.0000 </r>
       <r>    7.1898    0.0000 </r>
       <r>    9.0902    0.0000 </r>
       <r>    9.0903    0.0000 </r>
       <r>   13.4443    0.0000 </r>
      </set>
      <set comment="kpoint 4">
       <r>   -5.5056    1.0000 </r>
       <r>    2.9989    1.0000 </r>
       <r>    4.1792    1.0000 </r>
       <r>    4.1793    1.0000 </r>
       <r>    7.1234    0.0000 </r>
       <r>    9.5138    0.0000 </r>
       <r>   10.5124    0.0000 </r>
       <r>   10.5124    0.0000 </r>
      </set>
      <set comment="kpoint 5">
       <r>   -4.3869    1.0000 </r>
       <r>    0.3632    1.0000 </r>
       <r>    3.0532    1.0000 </r>
       <r>    3.6759    1.0000 </r>
       <r>    7.4384    0.0000 </r>
       <r>    9.7353    0.0000 </r>
       <r>   10.5234    0.0000 </r>
       <r>   11.0749    0.0000 </r>
      </set>
      <set comment="kpoint 6">
       <r>   -3.5258    1.0000 </r>
       <r>   -0.9962    1.0000 </r>
       <r>    2.2590    1.0000 </r>
       <r>    3.9519    1.0000 </r>
       <r>    7.7099    0.0000 </r>
       <r>   10.2106    0.0000 </r>
       <r>   10.4571    0.0000 </r>
       <r>   13.1862    0.0000 </r>
      </set>
      <set comment="kpoint 7">
       <r>   -4.8652    1.0000 </r>
       <r>    1.1808    1.0000 </r>
       <r>    2.6953    1.0000 </r>
       <r>    4.8053    1.0000 </r>
       <r>    8.4991    0.0000 </r>
       <r>    9.6201    0.0000 </r>
       <r>    9.9402    0.0000 </r>
       <r>   11.3029    0.0000 </r>
      </set>
      <set comment="kpoint 8">
       <r>   -3.5263    1.0000 </r>
       <r>   -0.5106    1.0000 </r>
       <r>    2.9873    1.0000 </r>
       <r>    2.9873    1.0000 </r>
       <r>    6.2663    0.0101 </r>
       <r>    7.0060    0.0000 </r>
       <r>   14.1007    0.0000 </r>
       <r>   14.1007    0.0000 </r>
      </set>
      <set comment="kpoint 9">
       <r>   -2.3506    1.0000 </r>
       <r>   -1.7477    1.0000 </r>
       <r>    1.6573    1.0000 </r>
       <r>    3.1044    1.0000 </r>
       <r>    6.7148    0.0000 </r>
       <r>    8.8138    0.0000 </r>
       <r>   13.6764    0.0000 </r>
       <r>   14.2175    0.0000 </r>
      </set>
      <set comment="kpoint 10">
       <r>   -3.0994    1.0000 </r>
       <r>   -0.8886    1.0000 </r>
       <r>    1.7377    1.0000 </r>
       <r>    2.7069    1.0000 </r>
       <r>    9.0469    0.0000 </r>
       <r>    9.4589    0.0000 </r>
       <r>   10.0286    0.0000 </r>
       <r>   13.3859    0.0000 </r>
      </set>
     </set>
    </set>
   </array>
  </eigenvalues>
  <separator name="orbital magnetization" >
   <v name="MAGDIPOLOUT">      0.00000000      0.00000000      0.00000000</v>
  </separator>
  <dos>
   <i name="efermi">      5.93779247 </i>
   <total>
    <array>
     <dimension dim="1">gridpoints</dimension>
     <dimension dim="2">spin</dimension>
     <field>energy</field>
     <field>total</field>
     <field>integrated</field>
     <set>
      <set comment="spin 1">
       <r>    -8.1881     0.0000     0.0000 </r>
       <r>    -8.1067     0.0000     0.0000 </r>
       <r>    -8.0254     0.0000     0.0000 </r>
       <r>    -7.9440     0.0000     0.0000 </r>
       <r>    -7.8627     0.0000     0.0000 </r>
       <r>    -7.7813     0.0000     0.0000 </r>
       <r>    -7.7000     0.0000     0.0000 </r>
       <r>    -7.6186     0.0000     0.0000 </r>
       <r>    -7.5373     0.0000     0.0000 </r>
       <r>    -7.4559     0.0000     0.0000 </r>
       <r>    -7.3746     0.0000     0.0000 </r>
       <r>    -7.2932     0.0000     0.0000 </r>
       <r>    -7.2119     0.0000     0.0000 </r>
       <r>    -7.1305     0.0000     0.0000 </r>
       <r>    -7.0492     0.0000     0.0000 </r>
       <r>    -6.9678     0.0000     0.0000 </r>
       <r>    -6.8864     0.0000     0.0000 </r>
       <r>    -6.8051     0.0000     0.0000 </r>
       <r>    -6.7237     0.0000     0.0000 </r>
       <r>    -6.6424     0.0001     0.0000 </r>
       <r>    -6.5610     0.0007     0.0001 </r>
       <r>    -6.4797     0.0030     0.0003 </r>
       <r>    -6.3983     0.0096     0.0011 </r>
       <r>    -6.3170     0.0221     0.0029 </r>
       <r>    -6.2356     0.0369     0.0059 </r>
       <r>    -6.1543     0.0450     0.0096 </r>
       <r>    -6.0729     0.0426     0.0130 </r>
       <r>    -5.9916     0.0425     0.0165 </r>
       <r>    -5.9102     0.0737     0.0225 </r>
       <r>    -5.8289     0.1638     0.0358 </r>
       <r>    -5.7475     0.3079     0.0609 </r>
       <r>    -5.6662     0.4501     0.0975 </r>
       <r>    -5.5848     0.5192     0.1397 </r>
       <r>    -5.5035     0.4842     0.1791 </r>
       <r>    -5.4221     0.3680     0.2090 </r>
       <r>    -5.3408     0.2249     0.2273 </r>
       <r>    -5.2594     0.1115     0.2364 </r>
       <r>    -5.1781     0.0636     0.2416 </r>
       <r>    -5.0967     0.0982     0.2496 </r>
       <r>    -5.0154     0.2223     0.2677 </r>
       <r>    -4.9340     0.3997     0.3002 </r>
       <r>    -4.8527     0.5264     0.3430 </r>
       <r>    -4.7713     0.5137     0.3848 </r>
       <r>    -4.6899     0.4143     0.4185 </r>
       <r>    -4.6086     0.4110     0.4519 </r>
       <r>    -4.5272     0.6530     0.5050 </r>
       <r>    -4.4459     1.0779     0.5927 </r>
       <r>    -4.3645     1.3914     0.7059 </r>
       <r>    -4.2832     1.3220     0.8135 </r>
       <r>    -4.2018     0.9161     0.8880 </r>
       <r>    -4.1205     0.4626     0.9256 </r>
       <r>    -4.0391     0.1709     0.9395 </r>
       <r>    -3.9578     0.0514     0.9437 </r>
       <r>    -3.8764     0.0412     0.9471 </r>
       <r>    -3.7951     0.1306     0.9577 </r>
       <r>    -3.7137     0.3754     0.9882 </r>
       <r>    -3.6324     0.7894     1.0524 </r>
       <r>    -3.5510     1.2052     1.1505 </r>
       <r>    -3.4697     1.3453     1.2599 </r>
       <r>    -3.3883     1.1388     1.3526 </r>
       <r>    -3.3070     0.8552     1.4221 </r>
       <r>    -3.2256     0.8020     1.4874 </r>
       <r>    -3.1443     0.9734     1.5666 </r>
       <r>    -3.0629     1.0854     1.6549 </r>
       <r>    -2.9816     0.9271     1.7303 </r>
       <r>    -2.9002     0.5802     1.7775 </r>
       <r>    -2.8189     0.2645     1.7990 </r>
       <r>    -2.7375     0.0930     1.8066 </r>
       <r>    -2.6561     0.0496     1.8106 </r>
       <r>    -2.5748     0.1005     1.8188 </r>
       <r>    -2.4934     0.2360     1.8380 </r>
       <r>    -2.4121     0.4145     1.8717 </r>
       <r>    -2.3307     0.5287     1.9147 </r>
       <r>    -2.2494     0.4891     1.9545 </r>
       <r>    -2.1680     0.3304     1.9814 </r>
       <r>    -2.0867     0.1750     1.9956 </r>
       <r>    -2.0053     0.1172     2.0052 </r>
       <r>    -1.9240     0.1843     2.0202 </r>
       <r>    -1.8426     0.3442     2.0482 </r>
       <r>    -1.7613     0.4977     2.0886 </r>
       <r>    -1.6799     0.5248     2.1313 </r>
       <r>    -1.5986     0.4014     2.1640 </r>
       <r>    -1.5172     0.2230     2.1821 </r>
       <r>    -1.4359     0.0935     2.1897 </r>
       <r>    -1.3545     0.0503     2.1938 </r>
       <r>    -1.2732     0.1104     2.2028 </r>
       <r>    -1.1918     0.3359     2.2301 </r>
       <r>    -1.1105     0.7961     2.2949 </r>
       <r>    -1.0291     1.4184     2.4103 </r>
       <r>    -0.9478     1.9107     2.5657 </r>
       <r>    -0.8664     1.9660     2.7257 </r>
       <r>    -0.7851     1.5873     2.8548 </r>
       <r>    -0.7037     1.1027     2.9445 </r>
       <r>    -0.6224     0.8120     3.0106 </r>
       <r>    -0.5410     0.7136     3.0686 </r>
       <r>    -0.4596     0.6206     3.1191 </r>
       <r>    -0.3783     0.4390     3.1548 </r>
       <r>    -0.2969     0.2339     3.1738 </r>
       <r>    -0.2156     0.0920     3.1813 </r>
       <r>    -0.1342     0.0274     3.1836 </r>
       <r>    -0.0529     0.0122     3.1845 </r>
       <r>     0.0285     0.0355     3.1874 </r>
       <r>     0.1098     0.1305     3.1981 </r>
       <r>     0.1912     0.3555     3.2270 </r>
       <r>     0.2725     0.7023     3.2841 </r>
       <r>     0.3539     1.0055     3.3659 </r>
       <r>     0.4352     1.0433     3.4508 </r>
       <r>     0.5166     0.7846     3.5146 </r>
       <r>     0.5979     0.4276     3.5494 </r>
       <r>     0.6793     0.1693     3.5632 </r>
       <r>     0.7606     0.0513     3.5673 </r>
       <r>     0.8420     0.0261     3.5695 </r>
       <r>     0.9233     0.0630     3.5746 </r>
       <r>     1.0047     0.1706     3.5885 </r>
       <r>     1.0860     0.3421     3.6163 </r>
       <r>     1.1674     0.4983     3.6568 </r>
       <r>     1.2487     0.5297     3.6999 </r>
       <r>     1.3301     0.4288     3.7348 </r>
       <r>     1.4114     0.3349     3.7620 </r>
       <r>     1.4928     0.4278     3.7968 </r>
       <r>     1.5742     0.7811     3.8604 </r>
       <r>     1.6555     1.2567     3.9626 </r>
       <r>     1.7369     1.5408     4.0880 </r>
       <r>     1.8182     1.4080     4.2025 </r>
       <r>     1.8996     0.9684     4.2813 </r>
       <r>     1.9809     0.5606     4.3269 </r>
       <r>     2.0623     0.4430     4.3630 </r>
       <r>     2.1436     0.6374     4.4148 </r>
       <r>     2.2250     0.9461     4.4918 </r>
       <r>     2.3063     1.0942     4.5808 </r>
       <r>     2.3877     0.9984     4.6620 </r>
       <r>     2.4690     0.8992     4.7352 </r>
       <r>     2.5504     1.1058     4.8251 </r>
       <r>     2.6317     1.6068     4.9558 </r>
       <r>     2.7131     2.0380     5.1216 </r>
       <r>     2.7944     2.1294     5.2949 </r>
       <r>     2.8758     2.0713     5.4634 </r>
       <r>     2.9571     2.1951     5.6419 </r>
       <r>     3.0385     2.4091     5.8379 </r>
       <r>     3.1198     2.2961     6.0247 </r>
       <r>     3.2012     1.7133     6.1641 </r>
       <r>     3.2825     0.9731     6.2433 </r>
       <r>     3.3639     0.4550     6.2803 </r>
       <r>     3.4452     0.3043     6.3050 </r>
       <r>     3.5266     0.4784     6.3440 </r>
       <r>     3.6080     0.8362     6.4120 </r>
       <r>     3.6893     1.1647     6.5067 </r>
       <r>     3.7707     1.3217     6.6143 </r>
       <r>     3.8520     1.3647     6.7253 </r>
       <r>     3.9334     1.3944     6.8387 </r>
       <r>     4.0147     1.3709     6.9502 </r>
       <r>     4.0961     1.2265     7.0500 </r>
       <r>     4.1774     1.0002     7.1314 </r>
       <r>     4.2588     0.7765     7.1946 </r>
       <r>     4.3401     0.6359     7.2463 </r>
       <r>     4.4215     0.6414     7.2985 </r>
       <r>     4.5028     0.7519     7.3596 </r>
       <r>     4.5842     0.8307     7.4272 </r>
       <r>     4.6655     0.8161     7.4936 </r>
       <r>     4.7469     0.7749     7.5566 </r>
       <r>     4.8282     0.7659     7.6189 </r>
       <r>     4.9096     0.7860     7.6829 </r>
       <r>     4.9909     0.8254     7.7500 </r>
       <r>     5.0723     0.8393     7.8183 </r>
       <r>     5.1536     0.7379     7.8783 </r>
       <r>     5.2350     0.5103     7.9199 </r>
       <r>     5.3163     0.2675     7.9416 </r>
       <r>     5.3977     0.1165     7.9511 </r>
       <r>     5.4790     0.0733     7.9571 </r>
       <r>     5.5604     0.0950     7.9648 </r>
       <r>     5.6417     0.1274     7.9752 </r>
       <r>     5.7231     0.1299     7.9857 </r>
       <r>     5.8045     0.0969     7.9936 </r>
       <r>     5.8858     0.0554     7.9981 </r>
       <r>     5.9672     0.0363     8.0011 </r>
       <r>     6.0485     0.0583     8.0058 </r>
       <r>     6.1299     0.1258     8.0161 </r>
       <r>     6.2112     0.2143     8.0335 </r>
       <r>     6.2926     0.2687     8.0554 </r>
       <r>     6.3739     0.2550     8.0761 </r>
       <r>     6.4553     0.2161     8.0937 </r>
       <r>     6.5366     0.2411     8.1133 </r>
       <r>     6.6180     0.3659     8.1431 </r>
       <r>     6.6993     0.5170     8.1851 </r>
       <r>     6.7807     0.5851     8.2327 </r>
       <r>     6.8620     0.5644     8.2786 </r>
       <r>     6.9434     0.5632     8.3244 </r>
       <r>     7.0247     0.6565     8.3779 </r>
       <r>     7.1061     0.7989     8.4428 </r>
       <r>     7.1874     0.9102     8.5169 </r>
       <r>     7.2688     0.9980     8.5981 </r>
       <r>     7.3501     1.1309     8.6901 </r>
       <r>     7.4315     1.2954     8.7955 </r>
       <r>     7.5128     1.4049     8.9098 </r>
       <r>     7.5942     1.4692     9.0293 </r>
       <r>     7.6755     1.5469     9.1551 </r>
       <r>     7.7569     1.5405     9.2804 </r>
       <r>     7.8383     1.2913     9.3855 </r>
       <r>     7.9196     0.8511     9.4547 </r>
       <r>     8.0010     0.4470     9.4911 </r>
       <r>     8.0823     0.2275     9.5096 </r>
       <r>     8.1637     0.1738     9.5237 </r>
       <r>     8.2450     0.2068     9.5406 </r>
       <r>     8.3264     0.2913     9.5643 </r>
       <r>     8.4077     0.4242     9.5988 </r>
       <r>     8.4891     0.5592     9.6443 </r>
       <r>     8.5704     0.6271     9.6953 </r>
       <r>     8.6518     0.6539     9.7485 </r>
       <r>     8.7331     0.7706     9.8112 </r>
       <r>     8.8145     1.0906     9.8999 </r>
       <r>     8.8958     1.6286    10.0324 </r>
       <r>     8.9772     2.2415    10.2147 </r>
       <r>     9.0585     2.5910    10.4255 </r>
       <r>     9.1399     2.3904    10.6200 </r>
       <r>     9.2212     1.7971    10.7662 </r>
       <r>     9.3026     1.3297    10.8743 </r>
       <r>     9.3839     1.3274    10.9823 </r>
       <r>     9.4653     1.6610    11.1175 </r>
       <r>     9.5466     1.9907    11.2794 </r>
       <r>     9.6280     2.1354    11.4531 </r>
       <r>     9.7093     2.1148    11.6252 </r>
       <r>     9.7907     2.0116    11.7888 </r>
       <r>     9.8720     1.9414    11.9468 </r>
       <r>     9.9534     1.9960    12.1091 </r>
       <r>    10.0348     2.1147    12.2812 </r>
       <r>    10.1161     2.1526    12.4563 </r>
       <r>    10.1975     2.0822    12.6257 </r>
       <r>    10.2788     2.0465    12.7922 </r>
       <r>    10.3602     2.2325    12.9738 </r>
       <r>    10.4415     2.6084    13.1860 </r>
       <r>    10.5229     2.7854    13.4126 </r>
       <r>    10.6042     2.3943    13.6074 </r>
       <r>    10.6856     1.5707    13.7351 </r>
       <r>    10.7669     0.8090    13.8009 </r>
       <r>    10.8483     0.4570    13.8381 </r>
       <r>    10.9296     0.5387    13.8820 </r>
       <r>    11.0110     0.8685    13.9526 </r>
       <r>    11.0923     1.1736    14.0481 </r>
       <r>    11.1737     1.2608    14.1507 </r>
       <r>    11.2550     1.1506    14.2443 </r>
       <r>    11.3364     0.9777    14.3238 </r>
       <r>    11.4177     0.8163    14.3902 </r>
       <r>    11.4991     0.6610    14.4440 </r>
       <r>    11.5804     0.4902    14.4838 </r>
       <r>    11.6618     0.3088    14.5090 </r>
       <r>    11.7431     0.1546    14.5215 </r>
       <r>    11.8245     0.0588    14.5263 </r>
       <r>    11.9058     0.0166    14.5277 </r>
       <r>    11.9872     0.0034    14.5280 </r>
       <r>    12.0686     0.0005    14.5280 </r>
       <r>    12.1499     0.0001    14.5280 </r>
       <r>    12.2313     0.0000    14.5280 </r>
       <r>    12.3126     0.0000    14.5280 </r>
       <r>    12.3940     0.0000    14.5280 </r>
       <r>    12.4753     0.0000    14.5280 </r>
       <r>    12.5567     0.0000    14.5280 </r>
       <r>    12.6380     0.0002    14.5280 </r>
       <r>    12.7194     0.0020    14.5282 </r>
       <r>    12.8007     0.0129    14.5292 </r>
       <r>    12.8821     0.0600    14.5341 </r>
       <r>    12.9634     0.2036    14.5507 </r>
       <r>    13.0448     0.5108    14.5922 </r>
       <r>    13.1261     0.9691    14.6711 </r>
       <r>    13.2075     1.4469    14.7888 </r>
       <r>    13.2888     1.7930    14.9347 </r>
       <r>    13.3702     1.9248    15.0912 </r>
       <r>    13.4515     1.8084    15.2384 </r>
       <r>    13.5329     1.4921    15.3597 </r>
       <r>    13.6142     1.1323    15.4519 </r>
       <r>    13.6956     0.8426    15.5204 </r>
       <r>    13.7769     0.6120    15.5702 </r>
       <r>    13.8583     0.4395    15.6059 </r>
       <r>    13.9396     0.4081    15.6391 </r>
       <r>    14.0210     0.5686    15.6854 </r>
       <r>    14.1023     0.8253    15.7525 </r>
       <r>    14.1837     0.9810    15.8323 </r>
       <r>    14.2651     0.9022    15.9057 </r>
       <r>    14.3464     0.6343    15.9573 </r>
       <r>    14.4278     0.3381    15.9848 </r>
       <r>    14.5091     0.1354    15.9959 </r>
       <r>    14.5905     0.0403    15.9991 </r>
       <r>    14.6718     0.0089    15.9999 </r>
       <r>    14.7532     0.0014    16.0000 </r>
       <r>    14.8345     0.0002    16.0000 </r>
       <r>    14.9159     0.0000    16.0000 </r>
       <r>    14.9972     0.0000    16.0000 </r>
       <r>    15.0786     0.0000    16.0000 </r>
       <r>    15.1599     0.0000    16.0000 </r>
       <r>    15.2413     0.0000    16.0000 </r>
       <r>    15.3226     0.0000    16.0000 </r>
       <r>    15.4040     0.0000    16.0000 </r>
       <r>    15.4853     0.0000    16.0000 </r>
       <r>    15.5667     0.0000    16.0000 </r>
       <r>    15.6480     0.0000    16.0000 </r>
       <r>    15.7294     0.0000    16.0000 </r>
       <r>    15.8107     0.0000    16.0000 </r>
       <r>    15.8921     0.0000    16.0000 </r>
       <r>    15.9734     0.0000    16.0000 </r>
       <r>    16.0548     0.0000    16.0000 </r>
       <r>    16.1361     0.0000    16.0000 </r>
       <r>    16.2175     0.0000    16.0000 </r>
      </set>
     </set>
    </array>
   </total>
  </dos>
 </calculation>
 <structure name="finalpos" >
  <crystal>
   <varray name="basis" >
    <v>       0.00000000       2.73537264       2.73537264 </v>
    <v>       2.73537264      -0.00000000       2.73537264 </v>
    <v>       2.73537264       2.73537264       0.00000000 </v>
   </varray>
   <i name="volume">     40.93355748 </i>
   <varray name="rec_basis" >
    <v>      -0.18279045       0.18279045       0.18279045 </v>
    <v>       0.18279045      -0.18279045       0.18279045 </v>
    <v>       0.18279045       0.18279045      -0.18279045 </v>
   </varray>
  </crystal>
  <varray name="positions" >
   <v>       0.50000000       0.50000000       0.50000000 </v>
   <v>       0.75000000       0.75000000       0.75000000 </v>
  </varray>
 </structure>
</modeling>
