       N       E                     dE             d eps       ncg     rms          rms(c)
DAV:   1    -0.107347306251E+02   -0.10735E+02   -0.29505E-05    80   0.426E-02    0.147E-03
DAV:   2    -0.107347308771E+02   -0.25202E-06   -0.13007E-06    80   0.963E-03
   1 F= -.10734731E+02 E0= -.10734264E+02  d E =-.107347E+02
