<?xml version="1.0" encoding="ISO-8859-1"?>
<modeling>
 <generator>
  <i name="program" type="string">vasp </i>
  <i name="version" type="string">5.4.4.18Apr17-6-g9f103f2a35  </i>
  <i name="subversion" type="string">(build Dec 09 2018 21:25:21) complex            parallel </i>
  <i name="platform" type="string">IFC18.0.1.163_CrayMPICH7.7.0_MKL18.0.1.163 </i>
  <i name="date" type="string">2019 03 19 </i>
  <i name="time" type="string">13:29:31 </i>
 </generator>
 <incar>
  <i type="string" name="PREC">normal</i>
  <i type="int" name="IBRION">     2</i>
  <i name="EDIFF">      0.00040000</i>
  <i name="EDIFFG">     -0.01000000</i>
  <i type="int" name="NSW">    15</i>
  <i type="int" name="ISIF">     2</i>
  <i name="ENCUT">    200.00000000</i>
  <i type="int" name="NBANDS">     8</i>
  <i type="logical" name="LREAL"> F  </i>
  <i type="int" name="ISMEAR">     0</i>
  <i name="SIGMA">      0.20000000</i>
  <v type="int" name="KPOINT_BSE">    -1     0     0     0</v>
 </incar>
 <structure name="primitive_cell" >
  <crystal>
   <varray name="basis" >
    <v>       0.00000000       2.71500000       2.71500000 </v>
    <v>       2.71500000       0.00000000       2.71500000 </v>
    <v>       2.71500000       2.71500000       0.00000000 </v>
   </varray>
   <i name="volume">     40.02575175 </i>
   <varray name="rec_basis" >
    <v>      -0.18416206       0.18416206       0.18416206 </v>
    <v>       0.18416206      -0.18416206       0.18416206 </v>
    <v>       0.18416206       0.18416206      -0.18416206 </v>
   </varray>
  </crystal>
  <varray name="positions" >
   <v>      -0.50000000      -0.50000000      -0.50000000 </v>
   <v>      -0.25000000      -0.25000000      -0.25000000 </v>
  </varray>
 </structure>
 <varray name="primitive_index" >
  <v type="int" >        1 </v>
  <v type="int" >        2 </v>
 </varray>
 <kpoints>
  <generation param="Monkhorst-Pack">
   <v type="int" name="divisions">       5        5        5 </v>
   <v name="usershift">      0.00000000       0.00000000       0.00000000 </v>
   <v name="genvec1">      0.20000000       0.00000000      -0.00000000 </v>
   <v name="genvec2">      0.00000000       0.20000000       0.00000000 </v>
   <v name="genvec3">     -0.00000000      -0.00000000       0.20000000 </v>
   <v name="shift">      0.00000000       0.00000000       0.00000000 </v>
  </generation>
  <varray name="kpointlist" >
   <v>       0.00000000       0.00000000       0.00000000 </v>
   <v>       0.20000000       0.00000000       0.00000000 </v>
   <v>       0.40000000       0.00000000       0.00000000 </v>
   <v>       0.20000000       0.20000000       0.00000000 </v>
   <v>       0.40000000       0.20000000       0.00000000 </v>
   <v>      -0.40000000       0.20000000       0.00000000 </v>
   <v>      -0.20000000       0.20000000       0.00000000 </v>
   <v>       0.40000000       0.40000000       0.00000000 </v>
   <v>      -0.40000000       0.40000000       0.00000000 </v>
   <v>      -0.40000000       0.40000000       0.20000000 </v>
  </varray>
  <varray name="weights" >
   <v>       0.00800000 </v>
   <v>       0.06400000 </v>
   <v>       0.06400000 </v>
   <v>       0.04800000 </v>
   <v>       0.19200000 </v>
   <v>       0.19200000 </v>
   <v>       0.09600000 </v>
   <v>       0.04800000 </v>
   <v>       0.09600000 </v>
   <v>       0.19200000 </v>
  </varray>
 </kpoints>
 <parameters>
  <separator name="general" >
   <i type="string" name="SYSTEM">unknown system</i>
   <i type="logical" name="LCOMPAT"> F  </i>
  </separator>
  <separator name="electronic" >
   <i type="string" name="PREC">normal</i>
   <i name="ENMAX">    200.00000000</i>
   <i name="ENAUG">    322.06900000</i>
   <i name="EDIFF">      0.00040000</i>
   <i type="int" name="IALGO">    38</i>
   <i type="int" name="IWAVPR">    11</i>
   <i type="int" name="NBANDS">     8</i>
   <i name="NELECT">      8.00000000</i>
   <i type="int" name="TURBO">     0</i>
   <i type="int" name="IRESTART">     0</i>
   <i type="int" name="NREBOOT">     0</i>
   <i type="int" name="NMIN">     0</i>
   <i name="EREF">      0.00000000</i>
   <separator name="electronic smearing" >
    <i type="int" name="ISMEAR">     0</i>
    <i name="SIGMA">      0.20000000</i>
    <i name="KSPACING">      0.50000000</i>
    <i type="logical" name="KGAMMA"> T  </i>
   </separator>
   <separator name="electronic projectors" >
    <i type="logical" name="LREAL"> F  </i>
    <v name="ROPT">      0.00000000</v>
    <i type="int" name="LMAXPAW">  -100</i>
    <i type="int" name="LMAXMIX">     2</i>
    <i type="logical" name="NLSPLINE"> F  </i>
   </separator>
   <separator name="electronic startup" >
    <i type="int" name="ISTART">     1</i>
    <i type="int" name="ICHARG">     0</i>
    <i type="int" name="INIWAV">     1</i>
   </separator>
   <separator name="electronic spin" >
    <i type="int" name="ISPIN">     1</i>
    <i type="logical" name="LNONCOLLINEAR"> F  </i>
    <v name="MAGMOM">      1.00000000      1.00000000</v>
    <i name="NUPDOWN">     -1.00000000</i>
    <i type="logical" name="LSORBIT"> F  </i>
    <v name="SAXIS">      0.00000000      0.00000000      1.00000000</v>
    <i type="logical" name="LSPIRAL"> F  </i>
    <v name="QSPIRAL">      0.00000000      0.00000000      0.00000000</v>
    <i type="logical" name="LZEROZ"> F  </i>
   </separator>
   <separator name="electronic exchange-correlation" >
    <i type="logical" name="LASPH"> F  </i>
    <i type="logical" name="LMETAGGA"> F  </i>
   </separator>
   <separator name="electronic convergence" >
    <i type="int" name="NELM">    60</i>
    <i type="int" name="NELMDL">     0</i>
    <i type="int" name="NELMIN">     2</i>
    <i name="ENINI">    200.00000000</i>
    <separator name="electronic convergence detail" >
     <i type="logical" name="LDIAG"> T  </i>
     <i type="logical" name="LSUBROT"> F  </i>
     <i name="WEIMIN">      0.00100000</i>
     <i name="EBREAK">      0.00001250</i>
     <i name="DEPER">      0.30000000</i>
     <i type="int" name="NRMM">     4</i>
     <i name="TIME">      0.40000000</i>
    </separator>
   </separator>
   <separator name="electronic mixer" >
    <i name="AMIX">      0.40000000</i>
    <i name="BMIX">      1.00000000</i>
    <i name="AMIN">      0.10000000</i>
    <i name="AMIX_MAG">      1.60000000</i>
    <i name="BMIX_MAG">      1.00000000</i>
    <separator name="electronic mixer details" >
     <i type="int" name="IMIX">     4</i>
     <i type="logical" name="MIXFIRST"> F  </i>
     <i type="int" name="MAXMIX">   -45</i>
     <i name="WC">    100.00000000</i>
     <i type="int" name="INIMIX">     1</i>
     <i type="int" name="MIXPRE">     1</i>
     <i type="int" name="MREMOVE">     5</i>
    </separator>
   </separator>
   <separator name="electronic dipolcorrection" >
    <i type="logical" name="LDIPOL"> F  </i>
    <i type="logical" name="LMONO"> F  </i>
    <i type="int" name="IDIPOL">     0</i>
    <i name="EPSILON">      1.00000000</i>
    <v name="DIPOL">   -100.00000000   -100.00000000   -100.00000000</v>
    <i name="EFIELD">      0.00000000</i>
   </separator>
  </separator>
  <separator name="grids" >
   <i type="int" name="NGX">    14</i>
   <i type="int" name="NGY">    14</i>
   <i type="int" name="NGZ">    14</i>
   <i type="int" name="NGXF">    28</i>
   <i type="int" name="NGYF">    28</i>
   <i type="int" name="NGZF">    28</i>
   <i type="logical" name="ADDGRID"> F  </i>
  </separator>
  <separator name="ionic" >
   <i type="int" name="NSW">    15</i>
   <i type="int" name="IBRION">     2</i>
   <i type="int" name="MDALGO">     0</i>
   <i type="int" name="ISIF">     2</i>
   <i name="PSTRESS">      0.00000000</i>
   <i name="EDIFFG">     -0.01000000</i>
   <i type="int" name="NFREE">     1</i>
   <i name="POTIM">      0.50000000</i>
   <i name="SMASS">     -3.00000000</i>
   <i name="SCALEE">      1.00000000</i>
  </separator>
  <separator name="ionic md" >
   <i name="TEBEG">      0.00010000</i>
   <i name="TEEND">      0.00010000</i>
   <i type="int" name="NBLOCK">     1</i>
   <i type="int" name="KBLOCK">    15</i>
   <i type="int" name="NPACO">   256</i>
   <i name="APACO">     16.00000000</i>
  </separator>
  <separator name="symmetry" >
   <i type="int" name="ISYM">     2</i>
   <i name="SYMPREC">      0.00001000</i>
  </separator>
  <separator name="dos" >
   <i type="int" name="LORBIT">     0</i>
   <v name="RWIGS">     -1.00000000</v>
   <i type="int" name="NEDOS">   301</i>
   <i name="EMIN">     10.00000000</i>
   <i name="EMAX">    -10.00000000</i>
   <i name="EFERMI">      0.00000000</i>
  </separator>
  <separator name="writing" >
   <i type="int" name="NWRITE">     2</i>
   <i type="logical" name="LWAVE"> T  </i>
   <i type="logical" name="LDOWNSAMPLE"> F  </i>
   <i type="logical" name="LCHARG"> T  </i>
   <i type="logical" name="LPARD"> F  </i>
   <i type="logical" name="LVTOT"> F  </i>
   <i type="logical" name="LVHAR"> F  </i>
   <i type="logical" name="LELF"> F  </i>
   <i type="logical" name="LOPTICS"> F  </i>
   <v name="STM">      0.00000000      0.00000000      0.00000000      0.00000000      0.00000000      0.00000000      0.00000000</v>
  </separator>
  <separator name="performance" >
   <i type="int" name="NPAR">     8</i>
   <i type="int" name="NSIM">     4</i>
   <i type="int" name="NBLK">    -1</i>
   <i type="logical" name="LPLANE"> T  </i>
   <i type="logical" name="LSCALAPACK"> T  </i>
   <i type="logical" name="LSCAAWARE"> F  </i>
   <i type="logical" name="LSCALU"> F  </i>
   <i type="logical" name="LASYNC"> F  </i>
   <i type="logical" name="LORBITALREAL"> F  </i>
  </separator>
  <separator name="miscellaneous" >
   <i type="int" name="IDIOT">     3</i>
   <i type="int" name="ISPECIAL">     0</i>
   <i type="logical" name="LMUSIC"> F  </i>
   <v name="POMASS">     28.08500000</v>
   <v name="DARWINR">      0.00000000</v>
   <v name="DARWINV">      1.00000000</v>
   <i type="logical" name="LCORR"> T  </i>
  </separator>
  <i type="logical" name="GGA_COMPAT"> T  </i>
  <i type="logical" name="LBERRY"> F  </i>
  <i type="int" name="ICORELEVEL">     0</i>
  <i type="logical" name="LDAU"> F  </i>
  <i type="int" name="I_CONSTRAINED_M">     0</i>
  <separator name="electronic exchange-correlation" >
   <i type="string" name="GGA">--</i>
   <i type="int" name="VOSKOWN">     0</i>
   <i type="logical" name="LHFCALC"> F  </i>
   <i type="string" name="PRECFOCK"></i>
   <i type="logical" name="LSYMGRAD"> F  </i>
   <i type="logical" name="LHFONE"> F  </i>
   <i type="logical" name="LRHFCALC"> F  </i>
   <i type="logical" name="LTHOMAS"> F  </i>
   <i type="logical" name="LMODELHF"> F  </i>
   <i name="ENCUT4O">     -1.00000000</i>
   <i type="int" name="EXXOEP">     0</i>
   <i type="int" name="FOURORBIT">     0</i>
   <i name="AEXX">      0.00000000</i>
   <i name="HFALPHA">      0.00000000</i>
   <i name="MCALPHA">      0.00000000</i>
   <i name="ALDAX">      1.00000000</i>
   <i name="AGGAX">      1.00000000</i>
   <i name="ALDAC">      1.00000000</i>
   <i name="AGGAC">      1.00000000</i>
   <i type="int" name="NKREDX">     1</i>
   <i type="int" name="NKREDY">     1</i>
   <i type="int" name="NKREDZ">     1</i>
   <i type="logical" name="SHIFTRED"> F  </i>
   <i type="logical" name="ODDONLY"> F  </i>
   <i type="logical" name="EVENONLY"> F  </i>
   <i type="int" name="LMAXFOCK">     0</i>
   <i type="int" name="NMAXFOCKAE">     0</i>
   <i type="logical" name="LFOCKAEDFT"> F  </i>
   <i name="HFSCREEN">      0.00000000</i>
   <i name="HFSCREENC">      0.00000000</i>
   <i type="int" name="NBANDSGWLOW">     0</i>
  </separator>
  <separator name="vdW DFT" >
   <i type="logical" name="LUSE_VDW"> F  </i>
   <i name="Zab_VDW">     -0.84910000</i>
   <i name="PARAM1">      0.12340000</i>
   <i name="PARAM2">      1.00000000</i>
   <i name="PARAM3">      0.00000000</i>
  </separator>
  <separator name="model GW" >
   <i type="int" name="MODEL_GW">     0</i>
   <i name="MODEL_EPS0">     12.00772552</i>
   <i name="MODEL_ALPHA">      1.00000000</i>
  </separator>
  <separator name="linear response parameters" >
   <i type="logical" name="LEPSILON"> F  </i>
   <i type="logical" name="LRPA"> F  </i>
   <i type="logical" name="LNABLA"> F  </i>
   <i type="logical" name="LVEL"> F  </i>
   <i type="int" name="KINTER">     0</i>
   <i name="CSHIFT">      0.10000000</i>
   <i name="OMEGAMAX">     -1.00000000</i>
   <i name="DEG_THRESHOLD">      0.00200000</i>
   <i name="RTIME">     -0.10000000</i>
   <i name="WPLASMAI">      0.00000000</i>
   <v name="DFIELD">      0.00000000      0.00000000      0.00000000</v>
   <v name="WPLASMA">      0.00000000      0.00000000      0.00000000      0.00000000      0.00000000      0.00000000      0.00000000      0.00000000      0.00000000</v>
  </separator>
  <separator name="orbital magnetization" >
   <i type="logical" name="NUCIND"> F  </i>
   <v name="MAGPOS">      0.00000000      0.00000000      0.00000000</v>
   <i type="logical" name="LNICSALL"> T  </i>
   <i type="logical" name="ORBITALMAG"> F  </i>
   <i type="logical" name="LMAGBLOCH"> F  </i>
   <i type="logical" name="LCHIMAG"> F  </i>
   <i type="logical" name="LGAUGE"> T  </i>
   <i type="int" name="MAGATOM">     0</i>
   <v name="MAGDIPOL">      0.00000000      0.00000000      0.00000000</v>
   <v name="AVECCONST">      0.00000000      0.00000000      0.00000000</v>
  </separator>
  <separator name="response functions" >
   <i type="logical" name="LADDER"> F  </i>
   <i type="logical" name="LRPAFORCE"> F  </i>
   <i type="logical" name="LFXC"> F  </i>
   <i type="logical" name="LHARTREE"> T  </i>
   <i type="int" name="IBSE">     0</i>
   <v type="int" name="KPOINT">    -1     0     0     0</v>
   <i type="logical" name="LTCTE"> F  </i>
   <i type="logical" name="LTETE"> F  </i>
   <i type="logical" name="LTRIPLET"> F  </i>
   <i type="logical" name="LFXCEPS"> F  </i>
   <i type="logical" name="LFXHEG"> F  </i>
   <i type="int" name="NATURALO">     2</i>
   <i type="logical" name="L2ORDER"> F  </i>
   <i type="logical" name="LMP2LT"> F  </i>
   <i type="logical" name="LUSEW"> F  </i>
   <i name="ENCUTGW">     -2.00000000</i>
   <i name="ENCUTGWSOFT">     -2.00000000</i>
   <i name="ENCUTLF">     -1.00000000</i>
   <i type="int" name="LMAXMP2">    -1</i>
   <i name="SCISSOR">      0.00000000</i>
   <i type="int" name="NOMEGA">     0</i>
   <i type="int" name="NOMEGAR">     0</i>
   <i type="int" name="NBANDSGW">    -1</i>
   <i type="int" name="NBANDSO">    -1</i>
   <i type="int" name="NBANDSV">    -1</i>
   <i type="int" name="NELM">     1</i>
   <i type="int" name="NELMHF">     1</i>
   <i type="int" name="DIM">     3</i>
   <i type="int" name="ANTIRES">     0</i>
   <i name="OMEGAMAX">    -30.00000000</i>
   <i name="OMEGAMIN">    -30.00000000</i>
   <i name="OMEGATL">   -200.00000000</i>
   <i type="int" name="OMEGAGRID">   140</i>
   <i name="CSHIFT">     -0.10000000</i>
   <i type="logical" name="SELFENERGY"> F  </i>
   <i type="logical" name="LSPECTRAL"> F  </i>
   <i type="logical" name="LSPECTRALGW"> F  </i>
   <i type="logical" name="LSINGLES"> F  </i>
   <i type="logical" name="LFERMIGW"> F  </i>
   <i type="logical" name="ODDONLYGW"> F  </i>
   <i type="logical" name="EVENONLYGW"> F  </i>
   <i type="int" name="NKREDLFX">     1</i>
   <i type="int" name="NKREDLFY">     1</i>
   <i type="int" name="NKREDLFZ">     1</i>
   <i type="int" name="MAXMEM">  2800</i>
   <i type="int" name="TELESCOPE">     0</i>
   <i type="int" name="TAUPAR">     1</i>
   <i type="int" name="OMEGAPAR">    -1</i>
   <i name="LAMBDA">      1.00000000</i>
  </separator>
  <separator name="External order field" >
   <i name="OFIELD_KAPPA">      0.00000000</i>
   <v name="OFIELD_K">      0.00000000      0.00000000      0.00000000</v>
   <i name="OFIELD_Q6_NEAR">      0.00000000</i>
   <i name="OFIELD_Q6_FAR">      0.00000000</i>
   <i name="OFIELD_A">      0.00000000</i>
  </separator>
 </parameters>
 <atominfo>
  <atoms>       2 </atoms>
  <types>       1 </types>
  <array name="atoms" >
   <dimension dim="1">ion</dimension>
   <field type="string">element</field>
   <field type="int">atomtype</field>
   <set>
    <rc><c>Si</c><c>   1</c></rc>
    <rc><c>Si</c><c>   1</c></rc>
   </set>
  </array>
  <array name="atomtypes" >
   <dimension dim="1">type</dimension>
   <field type="int">atomspertype</field>
   <field type="string">element</field>
   <field>mass</field>
   <field>valence</field>
   <field type="string">pseudopotential</field>
   <set>
    <rc><c>   2</c><c>Si</c><c>     28.08500000</c><c>      4.00000000</c><c> PAW_PBE Si 05Jan2001                   </c></rc>
   </set>
  </array>
 </atominfo>
 <structure name="initialpos" >
  <crystal>
   <varray name="basis" >
    <v>       0.00000000       2.71500000       2.71500000 </v>
    <v>       2.71500000       0.00000000       2.71500000 </v>
    <v>       2.71500000       2.71500000       0.00000000 </v>
   </varray>
   <i name="volume">     40.02575175 </i>
   <varray name="rec_basis" >
    <v>      -0.18416206       0.18416206       0.18416206 </v>
    <v>       0.18416206      -0.18416206       0.18416206 </v>
    <v>       0.18416206       0.18416206      -0.18416206 </v>
   </varray>
  </crystal>
  <varray name="positions" >
   <v>       0.50000000       0.50000000       0.50000000 </v>
   <v>       0.75000000       0.75000000       0.75000000 </v>
  </varray>
 </structure>
 <calculation>
  <scstep>
   <time name="dav">    0.05    0.05</time>
   <time name="total">    0.09    0.12</time>
   <energy>
    <i name="alphaZ">      3.36414203 </i>
    <i name="ewald">   -228.56352493 </i>
    <i name="hartreedc">    -15.03533730 </i>
    <i name="XCdc">    -17.92484678 </i>
    <i name="pawpsdc">     75.95865953 </i>
    <i name="pawaedc">    -41.01278515 </i>
    <i name="eentropy">     -0.00093501 </i>
    <i name="bandstr">      6.36742436 </i>
    <i name="atom">    206.11247263 </i>
    <i name="e_fr_energy">    -10.73473063 </i>
    <i name="e_wo_entrp">    -10.73379561 </i>
    <i name="e_0_energy">    -10.73426312 </i>
   </energy>
  </scstep>
  <scstep>
   <time name="dav">    0.04    0.04</time>
   <time name="total">    0.07    0.09</time>
   <energy>
    <i name="alphaZ">      3.36414203 </i>
    <i name="ewald">   -228.56352493 </i>
    <i name="hartreedc">    -15.03521181 </i>
    <i name="XCdc">    -17.92483119 </i>
    <i name="pawpsdc">     75.95718057 </i>
    <i name="pawaedc">    -41.01125163 </i>
    <i name="eentropy">     -0.00093420 </i>
    <i name="bandstr">      6.36722766 </i>
    <i name="atom">    206.11247263 </i>
    <i name="e_fr_energy">    -10.73473088 </i>
    <i name="e_wo_entrp">    -10.73379668 </i>
    <i name="e_0_energy">    -10.73426378 </i>
   </energy>
  </scstep>
  <structure>
   <crystal>
    <varray name="basis" >
     <v>       0.00000000       2.71500000       2.71500000 </v>
     <v>       2.71500000       0.00000000       2.71500000 </v>
     <v>       2.71500000       2.71500000       0.00000000 </v>
    </varray>
    <i name="volume">     40.02575175 </i>
    <varray name="rec_basis" >
     <v>      -0.18416206       0.18416206       0.18416206 </v>
     <v>       0.18416206      -0.18416206       0.18416206 </v>
     <v>       0.18416206       0.18416206      -0.18416206 </v>
    </varray>
   </crystal>
   <varray name="positions" >
    <v>       0.50000000       0.50000000       0.50000000 </v>
    <v>       0.75000000       0.75000000       0.75000000 </v>
   </varray>
  </structure>
  <varray name="forces" >
   <v>      -0.00000000      -0.00000000      -0.00000000 </v>
   <v>       0.00000000       0.00000000       0.00000000 </v>
  </varray>
  <varray name="stress" >
   <v>      20.43834528      -0.00000000       0.00000000 </v>
   <v>      -0.00000000      20.43834528      -0.00000000 </v>
   <v>       0.00000000       0.00000000      20.43834528 </v>
  </varray>
  <energy>
   <i name="e_fr_energy">    -10.73473088 </i>
   <i name="e_wo_entrp">    -10.73426378 </i>
   <i name="e_0_energy">     -0.00093420 </i>
  </energy>
  <time name="totalsc">    0.76    1.73</time>
  <eigenvalues>
   <array>
    <dimension dim="1">band</dimension>
    <dimension dim="2">kpoint</dimension>
    <dimension dim="3">spin</dimension>
    <field>eigene</field>
    <field>occ</field>
    <set>
     <set comment="spin 1">
      <set comment="kpoint 1">
       <r>   -6.1163    1.0000 </r>
       <r>    5.8725    0.9715 </r>
       <r>    5.8726    0.9715 </r>
       <r>    5.8726    0.9715 </r>
       <r>    8.4359    0.0000 </r>
       <r>    8.4359    0.0000 </r>
       <r>    8.4359    0.0000 </r>
       <r>    9.2257    0.0000 </r>
      </set>
      <set comment="kpoint 2">
       <r>   -5.5986    1.0000 </r>
       <r>    2.8465    1.0000 </r>
       <r>    5.2852    1.0000 </r>
       <r>    5.2853    1.0000 </r>
       <r>    8.0945    0.0000 </r>
       <r>    9.2439    0.0000 </r>
       <r>    9.2440    0.0000 </r>
       <r>   11.9239    0.0000 </r>
      </set>
      <set comment="kpoint 3">
       <r>   -4.2342    1.0000 </r>
       <r>   -0.4232    1.0000 </r>
       <r>    4.7326    1.0000 </r>
       <r>    4.7327    1.0000 </r>
       <r>    7.4940    0.0000 </r>
       <r>    9.3101    0.0000 </r>
       <r>    9.3102    0.0000 </r>
       <r>   13.7073    0.0000 </r>
      </set>
      <set comment="kpoint 4">
       <r>   -5.4204    1.0000 </r>
       <r>    3.2389    1.0000 </r>
       <r>    4.3696    1.0000 </r>
       <r>    4.3697    1.0000 </r>
       <r>    7.3341    0.0000 </r>
       <r>    9.7812    0.0000 </r>
       <r>   10.7951    0.0000 </r>
       <r>   10.7951    0.0000 </r>
      </set>
      <set comment="kpoint 5">
       <r>   -4.2778    1.0000 </r>
       <r>    0.5437    1.0000 </r>
       <r>    3.2302    1.0000 </r>
       <r>    3.8584    1.0000 </r>
       <r>    7.6508    0.0000 </r>
       <r>    9.9813    0.0000 </r>
       <r>   10.8273    0.0000 </r>
       <r>   11.3431    0.0000 </r>
      </set>
      <set comment="kpoint 6">
       <r>   -3.3918    1.0000 </r>
       <r>   -0.8530    1.0000 </r>
       <r>    2.4191    1.0000 </r>
       <r>    4.1426    1.0000 </r>
       <r>    7.9350    0.0000 </r>
       <r>   10.5001    0.0000 </r>
       <r>   10.7054    0.0000 </r>
       <r>   13.4919    0.0000 </r>
      </set>
      <set comment="kpoint 7">
       <r>   -4.7662    1.0000 </r>
       <r>    1.3781    1.0000 </r>
       <r>    2.8509    1.0000 </r>
       <r>    5.0159    1.0000 </r>
       <r>    8.7731    0.0000 </r>
       <r>    9.8771    0.0000 </r>
       <r>   10.2092    0.0000 </r>
       <r>   11.6214    0.0000 </r>
      </set>
      <set comment="kpoint 8">
       <r>   -3.4016    1.0000 </r>
       <r>   -0.3255    1.0000 </r>
       <r>    3.1559    1.0000 </r>
       <r>    3.1559    1.0000 </r>
       <r>    6.4515    0.0142 </r>
       <r>    7.1892    0.0000 </r>
       <r>   14.4476    0.0000 </r>
       <r>   14.4476    0.0000 </r>
      </set>
      <set comment="kpoint 9">
       <r>   -2.1942    1.0000 </r>
       <r>   -1.5893    1.0000 </r>
       <r>    1.7836    1.0000 </r>
       <r>    3.2760    1.0000 </r>
       <r>    6.9028    0.0000 </r>
       <r>    9.0420    0.0000 </r>
       <r>   14.0136    0.0000 </r>
       <r>   14.6223    0.0000 </r>
      </set>
      <set comment="kpoint 10">
       <r>   -2.9611    1.0000 </r>
       <r>   -0.7102    1.0000 </r>
       <r>    1.8689    1.0000 </r>
       <r>    2.8593    1.0000 </r>
       <r>    9.2860    0.0000 </r>
       <r>    9.6724    0.0000 </r>
       <r>   10.3235    0.0000 </r>
       <r>   13.7072    0.0000 </r>
      </set>
     </set>
    </set>
   </array>
  </eigenvalues>
  <separator name="orbital magnetization" >
   <v name="MAGDIPOLOUT">      0.00000000      0.00000000      0.00000000</v>
  </separator>
  <dos>
   <i name="efermi">      6.14175889 </i>
   <total>
    <array>
     <dimension dim="1">gridpoints</dimension>
     <dimension dim="2">spin</dimension>
     <field>energy</field>
     <field>total</field>
     <field>integrated</field>
     <set>
      <set comment="spin 1">
       <r>    -8.1163     0.0000     0.0000 </r>
       <r>    -8.0338     0.0000     0.0000 </r>
       <r>    -7.9514     0.0000     0.0000 </r>
       <r>    -7.8689     0.0000     0.0000 </r>
       <r>    -7.7864     0.0000     0.0000 </r>
       <r>    -7.7040     0.0000     0.0000 </r>
       <r>    -7.6215     0.0000     0.0000 </r>
       <r>    -7.5391     0.0000     0.0000 </r>
       <r>    -7.4566     0.0000     0.0000 </r>
       <r>    -7.3741     0.0000     0.0000 </r>
       <r>    -7.2917     0.0000     0.0000 </r>
       <r>    -7.2092     0.0000     0.0000 </r>
       <r>    -7.1268     0.0000     0.0000 </r>
       <r>    -7.0443     0.0000     0.0000 </r>
       <r>    -6.9618     0.0000     0.0000 </r>
       <r>    -6.8794     0.0000     0.0000 </r>
       <r>    -6.7969     0.0000     0.0000 </r>
       <r>    -6.7144     0.0000     0.0000 </r>
       <r>    -6.6320     0.0000     0.0000 </r>
       <r>    -6.5495     0.0002     0.0000 </r>
       <r>    -6.4671     0.0011     0.0001 </r>
       <r>    -6.3846     0.0043     0.0005 </r>
       <r>    -6.3021     0.0127     0.0015 </r>
       <r>    -6.2197     0.0268     0.0037 </r>
       <r>    -6.1372     0.0406     0.0071 </r>
       <r>    -6.0547     0.0449     0.0108 </r>
       <r>    -5.9723     0.0399     0.0141 </r>
       <r>    -5.8898     0.0441     0.0177 </r>
       <r>    -5.8074     0.0889     0.0250 </r>
       <r>    -5.7249     0.1969     0.0413 </r>
       <r>    -5.6424     0.3487     0.0700 </r>
       <r>    -5.5600     0.4767     0.1093 </r>
       <r>    -5.4775     0.5160     0.1519 </r>
       <r>    -5.3951     0.4530     0.1892 </r>
       <r>    -5.3126     0.3228     0.2159 </r>
       <r>    -5.2301     0.1830     0.2309 </r>
       <r>    -5.1477     0.0855     0.2380 </r>
       <r>    -5.0652     0.0573     0.2427 </r>
       <r>    -4.9827     0.1122     0.2520 </r>
       <r>    -4.9003     0.2542     0.2729 </r>
       <r>    -4.8178     0.4336     0.3087 </r>
       <r>    -4.7354     0.5355     0.3528 </r>
       <r>    -4.6529     0.4885     0.3931 </r>
       <r>    -4.5704     0.3811     0.4246 </r>
       <r>    -4.4880     0.4091     0.4583 </r>
       <r>    -4.4055     0.6972     0.5158 </r>
       <r>    -4.3231     1.1371     0.6096 </r>
       <r>    -4.2406     1.4064     0.7255 </r>
       <r>    -4.1581     1.2656     0.8299 </r>
       <r>    -4.0757     0.8242     0.8979 </r>
       <r>    -3.9932     0.3882     0.9299 </r>
       <r>    -3.9107     0.1329     0.9408 </r>
       <r>    -3.8283     0.0380     0.9440 </r>
       <r>    -3.7458     0.0370     0.9470 </r>
       <r>    -3.6634     0.1285     0.9576 </r>
       <r>    -3.5809     0.3763     0.9886 </r>
       <r>    -3.4984     0.7964     1.0543 </r>
       <r>    -3.4160     1.2131     1.1543 </r>
       <r>    -3.3335     1.3396     1.2648 </r>
       <r>    -3.2510     1.1134     1.3566 </r>
       <r>    -3.1686     0.8241     1.4246 </r>
       <r>    -3.0861     0.7835     1.4892 </r>
       <r>    -3.0037     0.9698     1.5692 </r>
       <r>    -2.9212     1.0826     1.6584 </r>
       <r>    -2.8387     0.9125     1.7337 </r>
       <r>    -2.7563     0.5578     1.7797 </r>
       <r>    -2.6738     0.2461     1.8000 </r>
       <r>    -2.5914     0.0825     1.8068 </r>
       <r>    -2.5089     0.0421     1.8102 </r>
       <r>    -2.4264     0.0896     1.8176 </r>
       <r>    -2.3440     0.2204     1.8358 </r>
       <r>    -2.2615     0.4011     1.8689 </r>
       <r>    -2.1790     0.5253     1.9122 </r>
       <r>    -2.0966     0.4947     1.9530 </r>
       <r>    -2.0141     0.3370     1.9808 </r>
       <r>    -1.9317     0.1773     1.9954 </r>
       <r>    -1.8492     0.1156     2.0049 </r>
       <r>    -1.7667     0.1813     2.0199 </r>
       <r>    -1.6843     0.3428     2.0481 </r>
       <r>    -1.6018     0.4982     2.0892 </r>
       <r>    -1.5193     0.5235     2.1324 </r>
       <r>    -1.4369     0.3956     2.1650 </r>
       <r>    -1.3544     0.2155     2.1828 </r>
       <r>    -1.2720     0.0901     2.1902 </r>
       <r>    -1.1895     0.0582     2.1950 </r>
       <r>    -1.1070     0.1431     2.2068 </r>
       <r>    -1.0246     0.4054     2.2402 </r>
       <r>    -0.9421     0.8813     2.3129 </r>
       <r>    -0.8597     1.4531     2.4327 </r>
       <r>    -0.7772     1.8497     2.5853 </r>
       <r>    -0.6947     1.8540     2.7382 </r>
       <r>    -0.6123     1.5114     2.8628 </r>
       <r>    -0.5298     1.0928     2.9529 </r>
       <r>    -0.4473     0.8269     3.0211 </r>
       <r>    -0.3649     0.7027     3.0790 </r>
       <r>    -0.2824     0.5762     3.1266 </r>
       <r>    -0.2000     0.3890     3.1586 </r>
       <r>    -0.1175     0.2015     3.1752 </r>
       <r>    -0.0350     0.0782     3.1817 </r>
       <r>     0.0474     0.0234     3.1836 </r>
       <r>     0.1299     0.0117     3.1846 </r>
       <r>     0.2123     0.0373     3.1877 </r>
       <r>     0.2948     0.1382     3.1991 </r>
       <r>     0.3773     0.3747     3.2300 </r>
       <r>     0.4597     0.7299     3.2902 </r>
       <r>     0.5422     1.0218     3.3744 </r>
       <r>     0.6247     1.0278     3.4592 </r>
       <r>     0.7071     0.7429     3.5204 </r>
       <r>     0.7896     0.3859     3.5522 </r>
       <r>     0.8720     0.1443     3.5641 </r>
       <r>     0.9545     0.0413     3.5676 </r>
       <r>     1.0370     0.0227     3.5694 </r>
       <r>     1.1194     0.0610     3.5745 </r>
       <r>     1.2019     0.1694     3.5884 </r>
       <r>     1.2844     0.3435     3.6168 </r>
       <r>     1.3668     0.5035     3.6583 </r>
       <r>     1.4493     0.5459     3.7033 </r>
       <r>     1.5317     0.4919     3.7439 </r>
       <r>     1.6142     0.5209     3.7868 </r>
       <r>     1.6967     0.7933     3.8522 </r>
       <r>     1.7791     1.2342     3.9540 </r>
       <r>     1.8616     1.5301     4.0802 </r>
       <r>     1.9440     1.4191     4.1972 </r>
       <r>     2.0265     0.9785     4.2779 </r>
       <r>     2.1090     0.5370     4.3222 </r>
       <r>     2.1914     0.3608     4.3519 </r>
       <r>     2.2739     0.5060     4.3936 </r>
       <r>     2.3564     0.8321     4.4623 </r>
       <r>     2.4388     1.0697     4.5505 </r>
       <r>     2.5213     1.0408     4.6363 </r>
       <r>     2.6037     0.8945     4.7100 </r>
       <r>     2.6862     0.9834     4.7911 </r>
       <r>     2.7687     1.4363     4.9096 </r>
       <r>     2.8511     1.9394     5.0695 </r>
       <r>     2.9336     2.0897     5.2418 </r>
       <r>     3.0161     1.9464     5.4023 </r>
       <r>     3.0985     1.9472     5.5629 </r>
       <r>     3.1810     2.2286     5.7467 </r>
       <r>     3.2634     2.3831     5.9432 </r>
       <r>     3.3459     2.0242     6.1101 </r>
       <r>     3.4284     1.2917     6.2166 </r>
       <r>     3.5108     0.6295     6.2685 </r>
       <r>     3.5933     0.3156     6.2946 </r>
       <r>     3.6757     0.3693     6.3250 </r>
       <r>     3.7582     0.6792     6.3810 </r>
       <r>     3.8407     1.0439     6.4671 </r>
       <r>     3.9231     1.2604     6.5710 </r>
       <r>     4.0056     1.3166     6.6796 </r>
       <r>     4.0881     1.3480     6.7908 </r>
       <r>     4.1705     1.3743     6.9041 </r>
       <r>     4.2530     1.2946     7.0108 </r>
       <r>     4.3354     1.0932     7.1010 </r>
       <r>     4.4179     0.8497     7.1711 </r>
       <r>     4.5004     0.6491     7.2246 </r>
       <r>     4.5828     0.5781     7.2723 </r>
       <r>     4.6653     0.6620     7.3268 </r>
       <r>     4.7477     0.7870     7.3917 </r>
       <r>     4.8302     0.8212     7.4595 </r>
       <r>     4.9127     0.7797     7.5238 </r>
       <r>     4.9951     0.7525     7.5858 </r>
       <r>     5.0776     0.7623     7.6487 </r>
       <r>     5.1601     0.7951     7.7142 </r>
       <r>     5.2425     0.8351     7.7831 </r>
       <r>     5.3250     0.8059     7.8496 </r>
       <r>     5.4074     0.6345     7.9019 </r>
       <r>     5.4899     0.3794     7.9332 </r>
       <r>     5.5724     0.1725     7.9474 </r>
       <r>     5.6548     0.0780     7.9538 </r>
       <r>     5.7373     0.0744     7.9600 </r>
       <r>     5.8198     0.1096     7.9690 </r>
       <r>     5.9022     0.1334     7.9800 </r>
       <r>     5.9847     0.1187     7.9898 </r>
       <r>     6.0671     0.0787     7.9963 </r>
       <r>     6.1496     0.0498     8.0004 </r>
       <r>     6.2321     0.0626     8.0055 </r>
       <r>     6.3145     0.1261     8.0159 </r>
       <r>     6.3970     0.2145     8.0336 </r>
       <r>     6.4794     0.2687     8.0558 </r>
       <r>     6.5619     0.2531     8.0766 </r>
       <r>     6.6444     0.2130     8.0942 </r>
       <r>     6.7268     0.2407     8.1141 </r>
       <r>     6.8093     0.3705     8.1446 </r>
       <r>     6.8918     0.5226     8.1877 </r>
       <r>     6.9742     0.5830     8.2358 </r>
       <r>     7.0567     0.5448     8.2807 </r>
       <r>     7.1391     0.5072     8.3225 </r>
       <r>     7.2216     0.5365     8.3668 </r>
       <r>     7.3041     0.6177     8.4177 </r>
       <r>     7.3865     0.7373     8.4785 </r>
       <r>     7.4690     0.9244     8.5547 </r>
       <r>     7.5515     1.1756     8.6517 </r>
       <r>     7.6339     1.3853     8.7659 </r>
       <r>     7.7164     1.4416     8.8848 </r>
       <r>     7.7988     1.3982     9.0001 </r>
       <r>     7.8813     1.3987     9.1154 </r>
       <r>     7.9638     1.4193     9.2324 </r>
       <r>     8.0462     1.2939     9.3391 </r>
       <r>     8.1287     0.9803     9.4200 </r>
       <r>     8.2111     0.6150     9.4707 </r>
       <r>     8.2936     0.3464     9.4993 </r>
       <r>     8.3761     0.2186     9.5173 </r>
       <r>     8.4585     0.1891     9.5329 </r>
       <r>     8.5410     0.2153     9.5506 </r>
       <r>     8.6235     0.3040     9.5757 </r>
       <r>     8.7059     0.4561     9.6133 </r>
       <r>     8.7884     0.6058     9.6633 </r>
       <r>     8.8708     0.6969     9.7207 </r>
       <r>     8.9533     0.7926     9.7861 </r>
       <r>     9.0358     1.0356     9.8715 </r>
       <r>     9.1182     1.5222     9.9970 </r>
       <r>     9.2007     2.1704    10.1760 </r>
       <r>     9.2831     2.6277    10.3927 </r>
       <r>     9.3656     2.5181    10.6003 </r>
       <r>     9.4481     1.9351    10.7599 </r>
       <r>     9.5305     1.4181    10.8768 </r>
       <r>     9.6130     1.3374    10.9871 </r>
       <r>     9.6955     1.5714    11.1167 </r>
       <r>     9.7779     1.8217    11.2669 </r>
       <r>     9.8604     1.9649    11.4289 </r>
       <r>     9.9428     1.9955    11.5935 </r>
       <r>    10.0253     1.8936    11.7496 </r>
       <r>    10.1078     1.7310    11.8924 </r>
       <r>    10.1902     1.6943    12.0321 </r>
       <r>    10.2727     1.8475    12.1844 </r>
       <r>    10.3552     2.0421    12.3528 </r>
       <r>    10.4376     2.1338    12.5288 </r>
       <r>    10.5201     2.1543    12.7064 </r>
       <r>    10.6025     2.2498    12.8920 </r>
       <r>    10.6850     2.4919    13.0974 </r>
       <r>    10.7675     2.6961    13.3198 </r>
       <r>    10.8499     2.5250    13.5280 </r>
       <r>    10.9324     1.8895    13.6838 </r>
       <r>    11.0148     1.1100    13.7753 </r>
       <r>    11.0973     0.6000    13.8248 </r>
       <r>    11.1798     0.5311    13.8686 </r>
       <r>    11.2622     0.7872    13.9335 </r>
       <r>    11.3447     1.0794    14.0225 </r>
       <r>    11.4272     1.1613    14.1183 </r>
       <r>    11.5096     1.0341    14.2036 </r>
       <r>    11.5921     0.8595    14.2744 </r>
       <r>    11.6745     0.7158    14.3335 </r>
       <r>    11.7570     0.5908    14.3822 </r>
       <r>    11.8395     0.4992    14.4233 </r>
       <r>    11.9219     0.4453    14.4601 </r>
       <r>    12.0044     0.3742    14.4909 </r>
       <r>    12.0869     0.2551    14.5120 </r>
       <r>    12.1693     0.1303    14.5227 </r>
       <r>    12.2518     0.0484    14.5267 </r>
       <r>    12.3342     0.0130    14.5278 </r>
       <r>    12.4167     0.0025    14.5280 </r>
       <r>    12.4992     0.0003    14.5280 </r>
       <r>    12.5816     0.0000    14.5280 </r>
       <r>    12.6641     0.0000    14.5280 </r>
       <r>    12.7465     0.0000    14.5280 </r>
       <r>    12.8290     0.0000    14.5280 </r>
       <r>    12.9115     0.0001    14.5280 </r>
       <r>    12.9939     0.0009    14.5281 </r>
       <r>    13.0764     0.0067    14.5286 </r>
       <r>    13.1589     0.0358    14.5316 </r>
       <r>    13.2413     0.1376    14.5429 </r>
       <r>    13.3238     0.3859    14.5748 </r>
       <r>    13.4062     0.8050    14.6411 </r>
       <r>    13.4887     1.2946    14.7479 </r>
       <r>    13.5712     1.6964    14.8878 </r>
       <r>    13.6536     1.9057    15.0449 </r>
       <r>    13.7361     1.8565    15.1980 </r>
       <r>    13.8185     1.5488    15.3257 </r>
       <r>    13.9010     1.1494    15.4205 </r>
       <r>    13.9835     0.8527    15.4908 </r>
       <r>    14.0659     0.6634    15.5455 </r>
       <r>    14.1484     0.4936    15.5862 </r>
       <r>    14.2309     0.3679    15.6166 </r>
       <r>    14.3133     0.3854    15.6484 </r>
       <r>    14.3958     0.5579    15.6944 </r>
       <r>    14.4782     0.7714    15.7580 </r>
       <r>    14.5607     0.8853    15.8310 </r>
       <r>    14.6432     0.8283    15.8993 </r>
       <r>    14.7256     0.6230    15.9506 </r>
       <r>    14.8081     0.3661    15.9808 </r>
       <r>    14.8906     0.1631    15.9943 </r>
       <r>    14.9730     0.0538    15.9987 </r>
       <r>    15.0555     0.0130    15.9998 </r>
       <r>    15.1379     0.0023    16.0000 </r>
       <r>    15.2204     0.0003    16.0000 </r>
       <r>    15.3029     0.0000    16.0000 </r>
       <r>    15.3853     0.0000    16.0000 </r>
       <r>    15.4678     0.0000    16.0000 </r>
       <r>    15.5502     0.0000    16.0000 </r>
       <r>    15.6327     0.0000    16.0000 </r>
       <r>    15.7152     0.0000    16.0000 </r>
       <r>    15.7976     0.0000    16.0000 </r>
       <r>    15.8801     0.0000    16.0000 </r>
       <r>    15.9626     0.0000    16.0000 </r>
       <r>    16.0450     0.0000    16.0000 </r>
       <r>    16.1275     0.0000    16.0000 </r>
       <r>    16.2099     0.0000    16.0000 </r>
       <r>    16.2924     0.0000    16.0000 </r>
       <r>    16.3749     0.0000    16.0000 </r>
       <r>    16.4573     0.0000    16.0000 </r>
       <r>    16.5398     0.0000    16.0000 </r>
       <r>    16.6223     0.0000    16.0000 </r>
      </set>
     </set>
    </array>
   </total>
  </dos>
 </calculation>
 <structure name="finalpos" >
  <crystal>
   <varray name="basis" >
    <v>       0.00000000       2.71500000       2.71500000 </v>
    <v>       2.71500000       0.00000000       2.71500000 </v>
    <v>       2.71500000       2.71500000       0.00000000 </v>
   </varray>
   <i name="volume">     40.02575175 </i>
   <varray name="rec_basis" >
    <v>      -0.18416206       0.18416206       0.18416206 </v>
    <v>       0.18416206      -0.18416206       0.18416206 </v>
    <v>       0.18416206       0.18416206      -0.18416206 </v>
   </varray>
  </crystal>
  <varray name="positions" >
   <v>       0.50000000       0.50000000       0.50000000 </v>
   <v>       0.75000000       0.75000000       0.75000000 </v>
  </varray>
 </structure>
</modeling>
