    2    2   15    1
  0.1529437E+02  0.3691622E-09  0.3691622E-09  0.3691622E-09  0.5000000E-15
  1.000000000000000E-004
  CAR 
 unknown system                          
      8     75      8
 
  0.0000000E+00  0.0000000E+00  0.0000000E+00  0.1371742E-02
    1       -4.614645   1.000000
    2        6.202433   1.000000
    3        6.308489   1.000000
    4        6.308517   1.000000
    5       10.657440   0.000000
    6       17.076085   0.000000
    7       17.379823   0.000000
    8       17.379859   0.000000
 
  0.1111111E+00 -0.9377698E-17  0.9377698E-17  0.1097394E-01
    1       -4.266077   1.000000
    2        5.321580   1.000000
    3        6.258349   1.000000
    4        7.807922   1.000000
    5       11.371934   0.000000
    6       15.288786   0.000000
    7       16.076541   0.000000
    8       17.365405   0.000000
 
  0.2222222E+00  0.6918512E-17 -0.6918512E-17  0.1097394E-01
    1       -3.224083   1.000000
    2        5.031121   1.000000
    3        6.342563   1.000000
    4        9.650170   0.000170
    5       12.191706   0.000000
    6       12.984710   0.000000
    7       13.162458   0.000000
    8       15.212385   0.000000
 
  0.3333333E+00 -0.3591853E-16  0.3591853E-16  0.1097394E-01
    1       -1.502203   1.000000
    2        5.369057   1.000000
    3        6.820119   1.000000
    4        7.498568   1.000000
    5       10.308449   0.000000
    6       12.772459   0.000000
    7       13.072194   0.000000
    8       14.056783   0.000000
 
  0.4444444E+00  0.1383702E-16 -0.1383702E-16  0.1097394E-01
    1        0.867256   1.000000
    2        3.912979   1.000000
    3        6.393234   1.000000
    4        7.592926   1.000000
    5        8.216575   1.000000
    6       10.863158   0.000000
    7       13.578308   0.000000
    8       14.635747   0.000000
 
  0.1111111E+00  0.1111111E+00  0.1875540E-16  0.1097394E-01
    1       -3.370194   1.000000
    2        5.349219   1.000000
    3        7.366955   1.000000
    4        8.573267   0.999972
    5       12.415274   0.000000
    6       12.648782   0.000000
    7       13.077472   0.000000
    8       15.727790   0.000000
 
  0.2222222E+00  0.1111111E+00 -0.2719765E-16  0.2194787E-01
    1       -1.791096   1.000000
    2        5.628914   1.000000
    3        7.914586   1.000000
    4        8.337486   1.000000
    5        9.795501   0.000002
    6       11.433691   0.000000
    7       13.125450   0.000000
    8       14.120987   0.000000
 
  0.3333333E+00  0.1111111E+00  0.2951719E-16  0.2194787E-01
    1        0.446598   1.000000
    2        4.721582   1.000000
    3        6.503068   1.000000
    4        6.948995   1.000000
    5        9.074185   0.687890
    6       11.229842   0.000000
    7       12.690130   0.000000
    8       14.608287   0.000000
 
  0.4444444E+00  0.1111111E+00  0.7517205E-17  0.2194787E-01
    1        1.558143   1.000000
    2        3.366838   1.000000
    3        5.246691   1.000000
    4        7.483108   1.000000
    5        8.723496   0.998509
    6       11.586085   0.000000
    7       12.479383   0.000000
    8       15.909234   0.000000
 
 -0.4444444E+00  0.1111111E+00  0.4279628E-16  0.2194787E-01
    1       -0.926771   1.000000
    2        4.007444   1.000000
    3        6.717278   1.000000
    4        7.034336   1.000000
    5       10.146839   0.000000
    6       12.458271   0.000000
    7       13.660552   0.000000
    8       14.539003   0.000000
 
 -0.3333333E+00  0.1111111E+00 -0.1456430E-16  0.2194787E-01
    1       -2.786699   1.000000
    2        3.486494   1.000000
    3        6.360355   1.000000
    4       10.190062   0.000000
    5       11.982770   0.000000
    6       12.104870   0.000000
    7       14.021174   0.000000
    8       15.242902   0.000000
 
 -0.2222222E+00  0.1111111E+00  0.1629621E-16  0.2194787E-01
    1       -3.972472   1.000000
    2        3.601957   1.000000
    3        6.317656   1.000000
    4        8.944782   0.919974
    5       12.892199   0.000000
    6       13.522674   0.000000
    7       15.417950   0.000000
    8       16.702454   0.000000
 
 -0.1111111E+00  0.1111111E+00  0.7914115E-18  0.5486968E-02
    1       -4.467541   1.000000
    2        4.330832   1.000000
    3        6.446178   1.000000
    4        7.673691   1.000000
    5       11.556614   0.000000
    6       15.009445   0.000000
    7       16.393373   0.000000
    8       19.309118   0.000000
 
  0.2222222E+00  0.2222222E+00 -0.4159260E-16  0.1097394E-01
    1        0.306110   1.000000
    2        5.733235   1.000000
    3        5.790249   1.000000
    4        6.453580   1.000000
    5       10.003396   0.000000
    6       11.672195   0.000000
    7       12.661963   0.000000
    8       12.896940   0.000000
 
  0.3333333E+00  0.2222222E+00  0.4287781E-16  0.2194787E-01
    1        2.452058   1.000000
    2        3.116104   1.000000
    3        3.897758   1.000000
    4        7.533443   1.000000
    5        9.303121   0.129461
    6       10.864015   0.000000
    7       13.678509   0.000000
    8       15.723012   0.000000
 
  0.4444444E+00  0.2222222E+00  0.2087783E-16  0.2194787E-01
    1       -0.068353   1.000000
    2        2.441479   1.000000
    3        6.425628   1.000000
    4        7.605248   1.000000
    5        9.524671   0.003514
    6       11.380091   0.000000
    7       14.847531   0.000000
    8       15.875140   0.000000
 
 -0.4444444E+00  0.2222222E+00  0.6918512E-17  0.2194787E-01
    1       -2.060926   1.000000
    2        1.761210   1.000000
    3        6.980336   1.000000
    4        9.981752   0.000000
    5       10.689249   0.000000
    6       12.565338   0.000000
    7       13.460618   0.000000
    8       15.898033   0.000000
 
 -0.3333333E+00  0.2222222E+00 -0.1251408E-16  0.2194787E-01
    1       -3.387067   1.000000
    2        1.738559   1.000000
    3        6.849696   1.000000
    4        9.789252   0.000002
    5       11.718191   0.000000
    6       14.288204   0.000000
    7       15.268251   0.000000
    8       15.905451   0.000000
 
 -0.2222222E+00  0.2222222E+00  0.1582823E-17  0.5486968E-02
    1       -4.026987   1.000000
    2        2.369055   1.000000
    3        6.859289   1.000000
    4        8.563023   0.999980
    5       13.010356   0.000000
    6       13.794905   0.000000
    7       14.756058   0.000000
    8       19.228717   0.000000
 
  0.3333333E+00  0.3333333E+00  0.7183707E-16  0.1097394E-01
    1        1.052377   1.000000
    2        1.071457   1.000000
    3        6.301071   1.000000
    4        8.266667   1.000000
    5        8.854723   0.979410
    6       11.018736   0.000000
    7       15.547720   0.000000
    8       16.579249   0.000000
 
  0.4444444E+00  0.3333333E+00  0.4983708E-16  0.2194787E-01
    1       -1.052581   1.000000
    2        0.228660   1.000000
    3        7.899526   1.000000
    4        9.036588   0.775093
    5       10.113350   0.000000
    6       13.115774   0.000000
    7       13.442340   0.000000
    8       14.765363   0.000000
 
 -0.4444444E+00  0.3333333E+00  0.6553460E-16  0.2194787E-01
    1       -2.513728   1.000000
    2        0.065911   1.000000
    3        7.670321   1.000000
    4       10.113443   0.000000
    5       10.707346   0.000000
    6       13.041539   0.000000
    7       15.225483   0.000000
    8       16.062485   0.000000
 
 -0.3333333E+00  0.3333333E+00  0.1438931E-16  0.5486968E-02
    1       -3.295711   1.000000
    2        0.574999   1.000000
    3        7.548811   1.000000
    4        9.412606   0.028512
    5       11.255113   0.000000
    6       13.136387   0.000000
    7       16.606271   0.000000
    8       18.940537   0.000000
 
  0.4444444E+00  0.4444444E+00 -0.8318520E-16  0.1097394E-01
    1       -1.359758   1.000000
    2       -1.358603   1.000000
    3        8.748616   0.997381
    4        8.784586   0.994420
    5       11.684280   0.000000
    6       11.901415   0.000000
    7       15.075524   0.000000
    8       15.990353   0.000000
 
 -0.4444444E+00  0.4444444E+00  0.3165646E-17  0.5486968E-02
    1       -2.278686   1.000000
    2       -0.984136   1.000000
    3        8.510393   0.999996
    4        9.751945   0.000008
    5       10.435441   0.000000
    6       11.682654   0.000000
    7       18.800092   0.000000
    8       18.843144   0.000000
 
  0.1111111E+00  0.1111111E+00  0.1111111E+00  0.1097394E-01
    1       -2.932008   1.000000
    2        3.416929   1.000000
    3        7.756859   1.000000
    4        9.391022   0.040016
    5       11.970842   0.000000
    6       12.138160   0.000000
    7       14.583158   0.000000
    8       15.199781   0.000000
 
  0.2222222E+00  0.1111111E+00  0.1111111E+00  0.2194787E-01
    1       -1.213055   1.000000
    2        3.828306   1.000000
    3        7.638875   1.000000
    4        8.245008   1.000000
    5        9.741781   0.000012
    6       12.090425   0.000000
    7       13.894351   0.000000
    8       14.741588   0.000000
 
  0.3333333E+00  0.1111111E+00  0.1111111E+00  0.2194787E-01
    1        1.152680   1.000000
    2        4.143252   1.000000
    3        4.955255   1.000000
    4        6.538875   1.000000
    5       10.044160   0.000000
    6       12.413550   0.000000
    7       13.903668   0.000000
    8       14.426242   0.000000
 
 -0.1111111E+00  0.1111111E+00  0.1111111E+00  0.5486968E-02
    1       -4.320696   1.000000
    2        4.003078   1.000000
    3        5.361364   1.000000
    4        8.995072   0.852977
    5       12.172371   0.000000
    6       13.438434   0.000000
    7       17.625838   0.000000
    8       18.298896   0.000000
 
  0.2222222E+00  0.2222222E+00  0.1111111E+00  0.1097394E-01
    1        1.015543   1.000000
    2        4.661388   1.000000
    3        5.290435   1.000000
    4        5.385620   1.000000
    5       11.158098   0.000000
    6       13.318323   0.000000
    7       13.620142   0.000000
    8       13.775562   0.000000
 
  0.3333333E+00  0.2222222E+00  0.1111111E+00  0.2194787E-01
    1        2.125147   1.000000
    2        3.316248   1.000000
    3        4.050380   1.000000
    4        6.318291   1.000000
    5       10.996628   0.000000
    6       12.502858   0.000000
    7       14.327208   0.000000
    8       15.260783   0.000000
 
  0.4444444E+00  0.2222222E+00  0.1111111E+00  0.2194787E-01
    1       -0.350136   1.000000
    2        2.191243   1.000000
    3        7.315473   1.000000
    4        8.217420   1.000000
    5       10.188177   0.000000
    6       12.493678   0.000000
    7       12.992833   0.000000
    8       14.958398   0.000000
 
 -0.4444444E+00  0.2222222E+00  0.1111111E+00  0.1097394E-01
    1       -2.204581   1.000000
    2        1.640409   1.000000
    3        8.383213   1.000000
    4       10.024935   0.000000
    5       11.329642   0.000000
    6       11.726180   0.000000
    7       13.333659   0.000000
    8       14.266408   0.000000
 
 -0.2222222E+00  0.2222222E+00  0.1111111E+00  0.1097394E-01
    1       -3.881121   1.000000
    2        2.438547   1.000000
    3        5.375227   1.000000
    4       10.188245   0.000000
    5       11.483391   0.000000
    6       14.108425   0.000000
    7       16.341461   0.000000
    8       18.795691   0.000000
 
 -0.1111111E+00  0.2222222E+00  0.1111111E+00  0.1097394E-01
    1       -3.679967   1.000000
    2        3.339534   1.000000
    3        4.884718   1.000000
    4       10.672843   0.000000
    5       11.650158   0.000000
    6       13.865411   0.000000
    7       14.934290   0.000000
    8       17.629789   0.000000
 
  0.3333333E+00  0.3333333E+00  0.1111111E+00  0.1097394E-01
    1        0.786881   1.000000
    2        0.793248   1.000000
    3        7.199842   1.000000
    4        8.177571   1.000000
    5       10.838122   0.000000
    6       11.581894   0.000000
    7       13.639147   0.000000
    8       14.330542   0.000000
 
  0.4444444E+00  0.3333333E+00  0.1111111E+00  0.1097394E-01
    1       -1.193283   1.000000
    2        0.094301   1.000000
    3        9.199157   0.346862
    4       10.009087   0.000000
    5       11.207484   0.000000
    6       11.473690   0.000000
    7       12.686579   0.000000
    8       13.151503   0.000000
 
 -0.3333333E+00  0.3333333E+00  0.1111111E+00  0.1097394E-01
    1       -3.151315   1.000000
    2        0.696160   1.000000
    3        6.015955   1.000000
    4        9.730560   0.000017
    5       11.130034   0.000000
    6       14.794098   0.000000
    7       16.794066   0.000000
    8       18.600207   0.000000
 
 -0.2222222E+00  0.3333333E+00  0.1111111E+00  0.2194787E-01
    1       -3.097192   1.000000
    2        1.925639   1.000000
    3        4.951589   1.000000
    4        9.792629   0.000002
    5       11.837334   0.000000
    6       14.378906   0.000000
    7       16.015113   0.000000
    8       17.275149   0.000000
 
 -0.1111111E+00  0.3333333E+00  0.1111111E+00  0.1097394E-01
    1       -2.352228   1.000000
    2        3.338960   1.000000
    3        4.968866   1.000000
    4        9.838898   0.000000
    5       10.526003   0.000000
    6       13.516865   0.000000
    7       14.840303   0.000000
    8       15.608109   0.000000
 
 -0.4444444E+00  0.4444444E+00  0.1111111E+00  0.1097394E-01
    1       -2.137110   1.000000
    2       -0.848129   1.000000
    3        6.975762   1.000000
    4        8.217131   1.000000
    5       12.161578   0.000000
    6       13.382425   0.000000
    7       18.294662   0.000000
    8       18.392502   0.000000
 
 -0.3333333E+00  0.4444444E+00  0.1111111E+00  0.2194787E-01
    1       -2.228364   1.000000
    2        0.321415   1.000000
    3        5.709760   1.000000
    4        8.171906   1.000000
    5       12.578714   0.000000
    6       14.175677   0.000000
    7       16.113174   0.000000
    8       17.277229   0.000000
 
 -0.2222222E+00  0.4444444E+00  0.1111111E+00  0.2194787E-01
    1       -1.632123   1.000000
    2        2.079323   1.000000
    3        5.131413   1.000000
    4        8.635658   0.999835
    5        9.629940   0.000291
    6       14.513026   0.000000
    7       14.999228   0.000000
    8       17.128395   0.000000
 
 -0.1111111E+00  0.4444444E+00  0.1111111E+00  0.1097394E-01
    1       -0.357547   1.000000
    2        3.975003   1.000000
    3        5.648519   1.000000
    4        6.224760   1.000000
    5        9.586962   0.000856
    6       12.324681   0.000000
    7       13.747077   0.000000
    8       16.224850   0.000000
 
 -0.4444444E+00 -0.4444444E+00  0.1111111E+00  0.1097394E-01
    1       -1.084671   1.000000
    2       -1.081239   1.000000
    3        6.793450   1.000000
    4        6.803496   1.000000
    5       12.869845   0.000000
    6       14.296598   0.000000
    7       15.428420   0.000000
    8       17.259112   0.000000
 
 -0.3333333E+00 -0.4444444E+00  0.1111111E+00  0.2194787E-01
    1       -0.634323   1.000000
    2        0.622768   1.000000
    3        6.004941   1.000000
    4        7.206427   1.000000
    5        9.356451   0.066028
    6       14.509226   0.000000
    7       15.853088   0.000000
    8       17.181782   0.000000
 
 -0.2222222E+00 -0.4444444E+00  0.1111111E+00  0.2194787E-01
    1        0.488964   1.000000
    2        2.888027   1.000000
    3        5.698396   1.000000
    4        6.038270   1.000000
    5        8.218890   1.000000
    6       12.300498   0.000000
    7       15.025639   0.000000
    8       17.328713   0.000000
 
 -0.1111111E+00 -0.4444444E+00  0.1111111E+00  0.1097394E-01
    1        2.169406   1.000000
    2        2.895577   1.000000
    3        5.376370   1.000000
    4        6.855770   1.000000
    5        8.858458   0.978063
    6       11.163030   0.000000
    7       11.803986   0.000000
    8       16.657591   0.000000
 
 -0.3333333E+00 -0.3333333E+00  0.1111111E+00  0.1097394E-01
    1        1.574192   1.000000
    2        1.608932   1.000000
    3        5.621186   1.000000
    4        6.869722   1.000000
    5        7.033891   1.000000
    6       12.222686   0.000000
    7       16.605280   0.000000
    8       16.826796   0.000000
 
 -0.2222222E+00 -0.3333333E+00  0.1111111E+00  0.2194787E-01
    1        2.388247   1.000000
    2        3.337532   1.000000
    3        4.442113   1.000000
    4        7.229521   1.000000
    5        8.203333   1.000000
    6       10.725472   0.000000
    7       13.156011   0.000000
    8       15.266617   0.000000
 
 -0.1111111E+00 -0.3333333E+00  0.1111111E+00  0.1097394E-01
    1        0.020345   1.000000
    2        5.515180   1.000000
    3        7.139247   1.000000
    4        8.081964   1.000000
    5        8.117796   1.000000
    6       11.017109   0.000000
    7       11.314267   0.000000
    8       13.644029   0.000000
 
 -0.2222222E+00 -0.2222222E+00  0.1111111E+00  0.1097394E-01
    1       -0.121715   1.000000
    2        6.465188   1.000000
    3        6.504418   1.000000
    4        7.826116   1.000000
    5        8.872326   0.972396
    6       10.554912   0.000000
    7       11.950917   0.000000
    8       12.273795   0.000000
 
 -0.1111111E+00 -0.2222222E+00  0.1111111E+00  0.1097394E-01
    1       -2.081223   1.000000
    2        7.223511   1.000000
    3        7.985938   1.000000
    4        8.681408   0.999457
    5        9.821971   0.000001
    6       10.733691   0.000000
    7       12.516288   0.000000
    8       13.179686   0.000000
 
 -0.1111111E+00 -0.1111111E+00  0.1111111E+00  0.2743484E-02
    1       -3.516528   1.000000
    2        7.201275   1.000000
    3        7.236961   1.000000
    4        7.236987   1.000000
    5       11.772120   0.000000
    6       12.932489   0.000000
    7       13.291191   0.000000
    8       15.534178   0.000000
 
  0.2222222E+00  0.2222222E+00  0.2222222E+00  0.1097394E-01
    1        1.997687   1.000000
    2        3.235257   1.000000
    3        5.042929   1.000000
    4        5.063559   1.000000
    5       12.351102   0.000000
    6       13.510922   0.000000
    7       14.644798   0.000000
    8       14.675334   0.000000
 
 -0.2222222E+00  0.2222222E+00  0.2222222E+00  0.5486968E-02
    1       -3.443976   1.000000
    2        2.287229   1.000000
    3        3.951500   1.000000
    4        9.526307   0.003394
    5       12.140488   0.000000
    6       15.307598   0.000000
    7       17.622060   0.000000
    8       18.355927   0.000000
 
 -0.3333333E+00  0.3333333E+00  0.2222222E+00  0.1097394E-01
    1       -2.719784   1.000000
    2        1.016630   1.000000
    3        4.113818   1.000000
    4        7.747347   1.000000
    5       13.476326   0.000000
    6       16.744973   0.000000
    7       17.455856   0.000000
    8       18.337774   0.000000
 
 -0.2222222E+00  0.3333333E+00  0.2222222E+00  0.1097394E-01
    1       -2.520013   1.000000
    2        1.900464   1.000000
    3        3.625503   1.000000
    4        7.929540   1.000000
    5       12.831426   0.000000
    6       14.981232   0.000000
    7       17.302627   0.000000
    8       18.491897   0.000000
 
 -0.4444444E+00  0.4444444E+00  0.2222222E+00  0.1097394E-01
    1       -1.716373   1.000000
    2       -0.451659   1.000000
    3        5.002670   1.000000
    4        6.233936   1.000000
    5       14.561082   0.000000
    6       15.658852   0.000000
    7       17.900354   0.000000
    8       18.041328   0.000000
 
 -0.3333333E+00  0.4444444E+00  0.2222222E+00  0.2194787E-01
    1       -1.662941   1.000000
    2        0.779778   1.000000
    3        3.905941   1.000000
    4        6.288606   1.000000
    5       12.772741   0.000000
    6       16.094388   0.000000
    7       18.399956   0.000000
    8       18.671734   0.000000
 
 -0.2222222E+00  0.4444444E+00  0.2222222E+00  0.1097394E-01
    1       -0.924008   1.000000
    2        2.189867   1.000000
    3        3.937945   1.000000
    4        6.956001   1.000000
    5        9.100435   0.619534
    6       15.726583   0.000000
    7       17.113415   0.000000
    8       17.362479   0.000000
 
 -0.4444444E+00 -0.4444444E+00  0.2222222E+00  0.1097394E-01
    1       -0.545928   1.000000
    2       -0.540751   1.000000
    3        4.924279   1.000000
    4        4.926061   1.000000
    5       12.698230   0.000000
    6       16.899315   0.000000
    7       17.646287   0.000000
    8       18.682363   0.000000
 
 -0.3333333E+00 -0.4444444E+00  0.2222222E+00  0.2194787E-01
    1        0.047307   1.000000
    2        1.220685   1.000000
    3        4.340638   1.000000
    4        5.483708   1.000000
    5        8.840513   0.983911
    6       16.090459   0.000000
    7       18.083437   0.000000
    8       18.733170   0.000000
 
 -0.2222222E+00 -0.4444444E+00  0.2222222E+00  0.1097394E-01
    1        1.305470   1.000000
    2        3.123393   1.000000
    3        4.883661   1.000000
    4        5.410988   1.000000
    5        6.711494   1.000000
    6       13.581526   0.000000
    7       15.145584   0.000000
    8       17.784909   0.000000
 
 -0.3333333E+00 -0.3333333E+00  0.2222222E+00  0.1097394E-01
    1        2.288230   1.000000
    2        2.349521   1.000000
    3        5.126738   1.000000
    4        5.411488   1.000000
    5        5.603268   1.000000
    6       13.904900   0.000000
    7       16.219544   0.000000
    8       16.754255   0.000000
 
 -0.2222222E+00 -0.3333333E+00  0.2222222E+00  0.1097394E-01
    1        2.158513   1.000000
    2        4.163109   1.000000
    3        4.839063   1.000000
    4        6.407744   1.000000
    5        7.047730   1.000000
    6       11.947066   0.000000
    7       13.128248   0.000000
    8       14.322926   0.000000
 
 -0.2222222E+00 -0.2222222E+00  0.2222222E+00  0.2743484E-02
    1       -0.264314   1.000000
    2        6.936042   1.000000
    3        7.084613   1.000000
    4        8.139423   1.000000
    5        8.139448   1.000000
    6       10.645404   0.000000
    7       11.716124   0.000000
    8       11.716151   0.000000
 
 -0.3333333E+00  0.3333333E+00  0.3333333E+00  0.5486968E-02
    1       -2.007780   1.000000
    2        1.124618   1.000000
    3        2.901933   1.000000
    4        5.969183   1.000000
    5       15.271645   0.000000
    6       16.871076   0.000000
    7       18.111227   0.000000
    8       19.141827   0.000000
 
 -0.4444444E+00  0.4444444E+00  0.3333333E+00  0.1097394E-01
    1       -1.031348   1.000000
    2        0.149014   1.000000
    3        3.308466   1.000000
    4        4.467325   1.000000
    5       16.136193   0.000000
    6       16.541425   0.000000
    7       18.523525   0.000000
    8       19.261237   0.000000
 
 -0.3333333E+00  0.4444444E+00  0.3333333E+00  0.1097394E-01
    1       -0.833468   1.000000
    2        1.028241   1.000000
    3        2.826314   1.000000
    4        4.656384   1.000000
    5       12.506689   0.000000
    6       18.167917   0.000000
    7       19.623092   0.000000
    8       20.035075   0.000000
 
 -0.4444444E+00 -0.4444444E+00  0.3333333E+00  0.1097394E-01
    1        0.197392   1.000000
    2        0.204522   1.000000
    3        3.363514   1.000000
    4        3.364790   1.000000
    5       12.404001   0.000000
    6       19.302705   0.000000
    7       19.876940   0.000000
    8       19.992975   0.000000
 
 -0.3333333E+00 -0.4444444E+00  0.3333333E+00  0.1097394E-01
    1        0.932519   1.000000
    2        1.611676   1.000000
    3        3.402663   1.000000
    4        4.071768   1.000000
    5        8.579724   0.999966
    6       17.411237   0.000000
    7       18.861560   0.000000
    8       19.381432   0.000000
 
 -0.3333333E+00 -0.3333333E+00  0.3333333E+00  0.2743484E-02
    1        2.787210   1.000000
    2        2.884723   1.000000
    3        4.623409   1.000000
    4        4.623414   1.000000
    5        5.203420   1.000000
    6       15.181411   0.000000
    7       16.083900   0.000000
    8       16.083909   0.000000
 
 -0.4444444E+00  0.4444444E+00  0.4444444E+00  0.5486968E-02
    1       -0.143633   1.000000
    2        0.539546   1.000000
    3        2.362280   1.000000
    4        3.035652   1.000000
    5       16.392763   0.000000
    6       16.465375   0.000000
    7       20.162595   0.000000
    8       20.833284   0.000000
 
 -0.4444444E+00 -0.4444444E+00  0.4444444E+00  0.2743484E-02
    1        0.731085   1.000000
    2        0.740218   1.000000
    3        2.555211   1.000000
    4        2.555218   1.000000
    5       12.295966   0.000000
    6       20.233791   0.000000
    7       21.002567   0.000000
    8       21.014095   0.000000
