<?xml version="1.0" encoding="ISO-8859-1"?>
<modeling>
 <generator>
  <i name="program" type="string">vasp </i>
  <i name="version" type="string">5.4.4.18Apr17-6-g9f103f2a35  </i>
  <i name="subversion" type="string">(build Dec 09 2018 21:25:21) complex            parallel </i>
  <i name="platform" type="string">IFC18.0.1.163_CrayMPICH7.7.0_MKL18.0.1.163 </i>
  <i name="date" type="string">2019 03 19 </i>
  <i name="time" type="string">13:43:01 </i>
 </generator>
 <incar>
  <i type="string" name="PREC">normal</i>
  <i type="int" name="IBRION">     2</i>
  <i name="EDIFF">      0.00040000</i>
  <i name="EDIFFG">     -0.01000000</i>
  <i type="int" name="NSW">    15</i>
  <i type="int" name="ISIF">     2</i>
  <i name="ENCUT">    350.00000000</i>
  <i type="int" name="NBANDS">     8</i>
  <i type="logical" name="LREAL"> F  </i>
  <i type="int" name="ISMEAR">     0</i>
  <i name="SIGMA">      0.20000000</i>
  <v type="int" name="KPOINT_BSE">    -1     0     0     0</v>
 </incar>
 <structure name="primitive_cell" >
  <crystal>
   <varray name="basis" >
    <v>       0.00000000       2.71500000       2.71500000 </v>
    <v>       2.71500000       0.00000000       2.71500000 </v>
    <v>       2.71500000       2.71500000       0.00000000 </v>
   </varray>
   <i name="volume">     40.02575175 </i>
   <varray name="rec_basis" >
    <v>      -0.18416206       0.18416206       0.18416206 </v>
    <v>       0.18416206      -0.18416206       0.18416206 </v>
    <v>       0.18416206       0.18416206      -0.18416206 </v>
   </varray>
  </crystal>
  <varray name="positions" >
   <v>      -0.50000000      -0.50000000      -0.50000000 </v>
   <v>      -0.25000000      -0.25000000      -0.25000000 </v>
  </varray>
 </structure>
 <varray name="primitive_index" >
  <v type="int" >        1 </v>
  <v type="int" >        2 </v>
 </varray>
 <kpoints>
  <generation param="Monkhorst-Pack">
   <v type="int" name="divisions">       3        3        3 </v>
   <v name="usershift">      0.00000000       0.00000000       0.00000000 </v>
   <v name="genvec1">      0.33333333      -0.00000000       0.00000000 </v>
   <v name="genvec2">     -0.00000000       0.33333333      -0.00000000 </v>
   <v name="genvec3">      0.00000000       0.00000000       0.33333333 </v>
   <v name="shift">      0.00000000       0.00000000       0.00000000 </v>
  </generation>
  <varray name="kpointlist" >
   <v>       0.00000000       0.00000000       0.00000000 </v>
   <v>       0.33333333       0.00000000       0.00000000 </v>
   <v>       0.33333333       0.33333333       0.00000000 </v>
   <v>      -0.33333333       0.33333333       0.00000000 </v>
  </varray>
  <varray name="weights" >
   <v>       0.03703704 </v>
   <v>       0.29629630 </v>
   <v>       0.22222222 </v>
   <v>       0.44444444 </v>
  </varray>
 </kpoints>
 <parameters>
  <separator name="general" >
   <i type="string" name="SYSTEM">unknown system</i>
   <i type="logical" name="LCOMPAT"> F  </i>
  </separator>
  <separator name="electronic" >
   <i type="string" name="PREC">normal</i>
   <i name="ENMAX">    350.00000000</i>
   <i name="ENAUG">    322.06900000</i>
   <i name="EDIFF">      0.00040000</i>
   <i type="int" name="IALGO">    38</i>
   <i type="int" name="IWAVPR">    11</i>
   <i type="int" name="NBANDS">     8</i>
   <i name="NELECT">      8.00000000</i>
   <i type="int" name="TURBO">     0</i>
   <i type="int" name="IRESTART">     0</i>
   <i type="int" name="NREBOOT">     0</i>
   <i type="int" name="NMIN">     0</i>
   <i name="EREF">      0.00000000</i>
   <separator name="electronic smearing" >
    <i type="int" name="ISMEAR">     0</i>
    <i name="SIGMA">      0.20000000</i>
    <i name="KSPACING">      0.50000000</i>
    <i type="logical" name="KGAMMA"> T  </i>
   </separator>
   <separator name="electronic projectors" >
    <i type="logical" name="LREAL"> F  </i>
    <v name="ROPT">      0.00000000</v>
    <i type="int" name="LMAXPAW">  -100</i>
    <i type="int" name="LMAXMIX">     2</i>
    <i type="logical" name="NLSPLINE"> F  </i>
   </separator>
   <separator name="electronic startup" >
    <i type="int" name="ISTART">     0</i>
    <i type="int" name="ICHARG">     2</i>
    <i type="int" name="INIWAV">     1</i>
   </separator>
   <separator name="electronic spin" >
    <i type="int" name="ISPIN">     1</i>
    <i type="logical" name="LNONCOLLINEAR"> F  </i>
    <v name="MAGMOM">      1.00000000      1.00000000</v>
    <i name="NUPDOWN">     -1.00000000</i>
    <i type="logical" name="LSORBIT"> F  </i>
    <v name="SAXIS">      0.00000000      0.00000000      1.00000000</v>
    <i type="logical" name="LSPIRAL"> F  </i>
    <v name="QSPIRAL">      0.00000000      0.00000000      0.00000000</v>
    <i type="logical" name="LZEROZ"> F  </i>
   </separator>
   <separator name="electronic exchange-correlation" >
    <i type="logical" name="LASPH"> F  </i>
    <i type="logical" name="LMETAGGA"> F  </i>
   </separator>
   <separator name="electronic convergence" >
    <i type="int" name="NELM">    60</i>
    <i type="int" name="NELMDL">    -5</i>
    <i type="int" name="NELMIN">     2</i>
    <i name="ENINI">    350.00000000</i>
    <separator name="electronic convergence detail" >
     <i type="logical" name="LDIAG"> T  </i>
     <i type="logical" name="LSUBROT"> F  </i>
     <i name="WEIMIN">      0.00100000</i>
     <i name="EBREAK">      0.00001250</i>
     <i name="DEPER">      0.30000000</i>
     <i type="int" name="NRMM">     4</i>
     <i name="TIME">      0.40000000</i>
    </separator>
   </separator>
   <separator name="electronic mixer" >
    <i name="AMIX">      0.40000000</i>
    <i name="BMIX">      1.00000000</i>
    <i name="AMIN">      0.10000000</i>
    <i name="AMIX_MAG">      1.60000000</i>
    <i name="BMIX_MAG">      1.00000000</i>
    <separator name="electronic mixer details" >
     <i type="int" name="IMIX">     4</i>
     <i type="logical" name="MIXFIRST"> F  </i>
     <i type="int" name="MAXMIX">   -45</i>
     <i name="WC">    100.00000000</i>
     <i type="int" name="INIMIX">     1</i>
     <i type="int" name="MIXPRE">     1</i>
     <i type="int" name="MREMOVE">     5</i>
    </separator>
   </separator>
   <separator name="electronic dipolcorrection" >
    <i type="logical" name="LDIPOL"> F  </i>
    <i type="logical" name="LMONO"> F  </i>
    <i type="int" name="IDIPOL">     0</i>
    <i name="EPSILON">      1.00000000</i>
    <v name="DIPOL">   -100.00000000   -100.00000000   -100.00000000</v>
    <i name="EFIELD">      0.00000000</i>
   </separator>
  </separator>
  <separator name="grids" >
   <i type="int" name="NGX">    18</i>
   <i type="int" name="NGY">    18</i>
   <i type="int" name="NGZ">    18</i>
   <i type="int" name="NGXF">    36</i>
   <i type="int" name="NGYF">    36</i>
   <i type="int" name="NGZF">    36</i>
   <i type="logical" name="ADDGRID"> F  </i>
  </separator>
  <separator name="ionic" >
   <i type="int" name="NSW">    15</i>
   <i type="int" name="IBRION">     2</i>
   <i type="int" name="MDALGO">     0</i>
   <i type="int" name="ISIF">     2</i>
   <i name="PSTRESS">      0.00000000</i>
   <i name="EDIFFG">     -0.01000000</i>
   <i type="int" name="NFREE">     1</i>
   <i name="POTIM">      0.50000000</i>
   <i name="SMASS">     -3.00000000</i>
   <i name="SCALEE">      1.00000000</i>
  </separator>
  <separator name="ionic md" >
   <i name="TEBEG">      0.00010000</i>
   <i name="TEEND">      0.00010000</i>
   <i type="int" name="NBLOCK">     1</i>
   <i type="int" name="KBLOCK">    15</i>
   <i type="int" name="NPACO">   256</i>
   <i name="APACO">     16.00000000</i>
  </separator>
  <separator name="symmetry" >
   <i type="int" name="ISYM">     2</i>
   <i name="SYMPREC">      0.00001000</i>
  </separator>
  <separator name="dos" >
   <i type="int" name="LORBIT">     0</i>
   <v name="RWIGS">     -1.00000000</v>
   <i type="int" name="NEDOS">   301</i>
   <i name="EMIN">     10.00000000</i>
   <i name="EMAX">    -10.00000000</i>
   <i name="EFERMI">      0.00000000</i>
  </separator>
  <separator name="writing" >
   <i type="int" name="NWRITE">     2</i>
   <i type="logical" name="LWAVE"> T  </i>
   <i type="logical" name="LDOWNSAMPLE"> F  </i>
   <i type="logical" name="LCHARG"> T  </i>
   <i type="logical" name="LPARD"> F  </i>
   <i type="logical" name="LVTOT"> F  </i>
   <i type="logical" name="LVHAR"> F  </i>
   <i type="logical" name="LELF"> F  </i>
   <i type="logical" name="LOPTICS"> F  </i>
   <v name="STM">      0.00000000      0.00000000      0.00000000      0.00000000      0.00000000      0.00000000      0.00000000</v>
  </separator>
  <separator name="performance" >
   <i type="int" name="NPAR">     8</i>
   <i type="int" name="NSIM">     4</i>
   <i type="int" name="NBLK">    -1</i>
   <i type="logical" name="LPLANE"> T  </i>
   <i type="logical" name="LSCALAPACK"> T  </i>
   <i type="logical" name="LSCAAWARE"> F  </i>
   <i type="logical" name="LSCALU"> F  </i>
   <i type="logical" name="LASYNC"> F  </i>
   <i type="logical" name="LORBITALREAL"> F  </i>
  </separator>
  <separator name="miscellaneous" >
   <i type="int" name="IDIOT">     3</i>
   <i type="int" name="ISPECIAL">     0</i>
   <i type="logical" name="LMUSIC"> F  </i>
   <v name="POMASS">     28.08500000</v>
   <v name="DARWINR">      0.00000000</v>
   <v name="DARWINV">      1.00000000</v>
   <i type="logical" name="LCORR"> T  </i>
  </separator>
  <i type="logical" name="GGA_COMPAT"> T  </i>
  <i type="logical" name="LBERRY"> F  </i>
  <i type="int" name="ICORELEVEL">     0</i>
  <i type="logical" name="LDAU"> F  </i>
  <i type="int" name="I_CONSTRAINED_M">     0</i>
  <separator name="electronic exchange-correlation" >
   <i type="string" name="GGA">--</i>
   <i type="int" name="VOSKOWN">     0</i>
   <i type="logical" name="LHFCALC"> F  </i>
   <i type="string" name="PRECFOCK"></i>
   <i type="logical" name="LSYMGRAD"> F  </i>
   <i type="logical" name="LHFONE"> F  </i>
   <i type="logical" name="LRHFCALC"> F  </i>
   <i type="logical" name="LTHOMAS"> F  </i>
   <i type="logical" name="LMODELHF"> F  </i>
   <i name="ENCUT4O">     -1.00000000</i>
   <i type="int" name="EXXOEP">     0</i>
   <i type="int" name="FOURORBIT">     0</i>
   <i name="AEXX">      0.00000000</i>
   <i name="HFALPHA">      0.00000000</i>
   <i name="MCALPHA">      0.00000000</i>
   <i name="ALDAX">      1.00000000</i>
   <i name="AGGAX">      1.00000000</i>
   <i name="ALDAC">      1.00000000</i>
   <i name="AGGAC">      1.00000000</i>
   <i type="int" name="NKREDX">     1</i>
   <i type="int" name="NKREDY">     1</i>
   <i type="int" name="NKREDZ">     1</i>
   <i type="logical" name="SHIFTRED"> F  </i>
   <i type="logical" name="ODDONLY"> F  </i>
   <i type="logical" name="EVENONLY"> F  </i>
   <i type="int" name="LMAXFOCK">     0</i>
   <i type="int" name="NMAXFOCKAE">     0</i>
   <i type="logical" name="LFOCKAEDFT"> F  </i>
   <i name="HFSCREEN">      0.00000000</i>
   <i name="HFSCREENC">      0.00000000</i>
   <i type="int" name="NBANDSGWLOW">     0</i>
  </separator>
  <separator name="vdW DFT" >
   <i type="logical" name="LUSE_VDW"> F  </i>
   <i name="Zab_VDW">     -0.84910000</i>
   <i name="PARAM1">      0.12340000</i>
   <i name="PARAM2">      1.00000000</i>
   <i name="PARAM3">      0.00000000</i>
  </separator>
  <separator name="model GW" >
   <i type="int" name="MODEL_GW">     0</i>
   <i name="MODEL_EPS0">     12.00772552</i>
   <i name="MODEL_ALPHA">      1.00000000</i>
  </separator>
  <separator name="linear response parameters" >
   <i type="logical" name="LEPSILON"> F  </i>
   <i type="logical" name="LRPA"> F  </i>
   <i type="logical" name="LNABLA"> F  </i>
   <i type="logical" name="LVEL"> F  </i>
   <i type="int" name="KINTER">     0</i>
   <i name="CSHIFT">      0.10000000</i>
   <i name="OMEGAMAX">     -1.00000000</i>
   <i name="DEG_THRESHOLD">      0.00200000</i>
   <i name="RTIME">     -0.10000000</i>
   <i name="WPLASMAI">      0.00000000</i>
   <v name="DFIELD">      0.00000000      0.00000000      0.00000000</v>
   <v name="WPLASMA">      0.00000000      0.00000000      0.00000000      0.00000000      0.00000000      0.00000000      0.00000000      0.00000000      0.00000000</v>
  </separator>
  <separator name="orbital magnetization" >
   <i type="logical" name="NUCIND"> F  </i>
   <v name="MAGPOS">      0.00000000      0.00000000      0.00000000</v>
   <i type="logical" name="LNICSALL"> T  </i>
   <i type="logical" name="ORBITALMAG"> F  </i>
   <i type="logical" name="LMAGBLOCH"> F  </i>
   <i type="logical" name="LCHIMAG"> F  </i>
   <i type="logical" name="LGAUGE"> T  </i>
   <i type="int" name="MAGATOM">     0</i>
   <v name="MAGDIPOL">      0.00000000      0.00000000      0.00000000</v>
   <v name="AVECCONST">      0.00000000      0.00000000      0.00000000</v>
  </separator>
  <separator name="response functions" >
   <i type="logical" name="LADDER"> F  </i>
   <i type="logical" name="LRPAFORCE"> F  </i>
   <i type="logical" name="LFXC"> F  </i>
   <i type="logical" name="LHARTREE"> T  </i>
   <i type="int" name="IBSE">     0</i>
   <v type="int" name="KPOINT">    -1     0     0     0</v>
   <i type="logical" name="LTCTE"> F  </i>
   <i type="logical" name="LTETE"> F  </i>
   <i type="logical" name="LTRIPLET"> F  </i>
   <i type="logical" name="LFXCEPS"> F  </i>
   <i type="logical" name="LFXHEG"> F  </i>
   <i type="int" name="NATURALO">     2</i>
   <i type="logical" name="L2ORDER"> F  </i>
   <i type="logical" name="LMP2LT"> F  </i>
   <i type="logical" name="LUSEW"> F  </i>
   <i name="ENCUTGW">     -2.00000000</i>
   <i name="ENCUTGWSOFT">     -2.00000000</i>
   <i name="ENCUTLF">     -1.00000000</i>
   <i type="int" name="LMAXMP2">    -1</i>
   <i name="SCISSOR">      0.00000000</i>
   <i type="int" name="NOMEGA">     0</i>
   <i type="int" name="NOMEGAR">     0</i>
   <i type="int" name="NBANDSGW">    -1</i>
   <i type="int" name="NBANDSO">    -1</i>
   <i type="int" name="NBANDSV">    -1</i>
   <i type="int" name="NELM">     1</i>
   <i type="int" name="NELMHF">     1</i>
   <i type="int" name="DIM">     3</i>
   <i type="int" name="ANTIRES">     0</i>
   <i name="OMEGAMAX">    -30.00000000</i>
   <i name="OMEGAMIN">    -30.00000000</i>
   <i name="OMEGATL">   -200.00000000</i>
   <i type="int" name="OMEGAGRID">   140</i>
   <i name="CSHIFT">     -0.10000000</i>
   <i type="logical" name="SELFENERGY"> F  </i>
   <i type="logical" name="LSPECTRAL"> F  </i>
   <i type="logical" name="LSPECTRALGW"> F  </i>
   <i type="logical" name="LSINGLES"> F  </i>
   <i type="logical" name="LFERMIGW"> F  </i>
   <i type="logical" name="ODDONLYGW"> F  </i>
   <i type="logical" name="EVENONLYGW"> F  </i>
   <i type="int" name="NKREDLFX">     1</i>
   <i type="int" name="NKREDLFY">     1</i>
   <i type="int" name="NKREDLFZ">     1</i>
   <i type="int" name="MAXMEM">  2800</i>
   <i type="int" name="TELESCOPE">     0</i>
   <i type="int" name="TAUPAR">     1</i>
   <i type="int" name="OMEGAPAR">    -1</i>
   <i name="LAMBDA">      1.00000000</i>
  </separator>
  <separator name="External order field" >
   <i name="OFIELD_KAPPA">      0.00000000</i>
   <v name="OFIELD_K">      0.00000000      0.00000000      0.00000000</v>
   <i name="OFIELD_Q6_NEAR">      0.00000000</i>
   <i name="OFIELD_Q6_FAR">      0.00000000</i>
   <i name="OFIELD_A">      0.00000000</i>
  </separator>
 </parameters>
 <atominfo>
  <atoms>       2 </atoms>
  <types>       1 </types>
  <array name="atoms" >
   <dimension dim="1">ion</dimension>
   <field type="string">element</field>
   <field type="int">atomtype</field>
   <set>
    <rc><c>Si</c><c>   1</c></rc>
    <rc><c>Si</c><c>   1</c></rc>
   </set>
  </array>
  <array name="atomtypes" >
   <dimension dim="1">type</dimension>
   <field type="int">atomspertype</field>
   <field type="string">element</field>
   <field>mass</field>
   <field>valence</field>
   <field type="string">pseudopotential</field>
   <set>
    <rc><c>   2</c><c>Si</c><c>     28.08500000</c><c>      4.00000000</c><c> PAW_PBE Si 05Jan2001                   </c></rc>
   </set>
  </array>
 </atominfo>
 <structure name="initialpos" >
  <crystal>
   <varray name="basis" >
    <v>       0.00000000       2.71500000       2.71500000 </v>
    <v>       2.71500000       0.00000000       2.71500000 </v>
    <v>       2.71500000       2.71500000       0.00000000 </v>
   </varray>
   <i name="volume">     40.02575175 </i>
   <varray name="rec_basis" >
    <v>      -0.18416206       0.18416206       0.18416206 </v>
    <v>       0.18416206      -0.18416206       0.18416206 </v>
    <v>       0.18416206       0.18416206      -0.18416206 </v>
   </varray>
  </crystal>
  <varray name="positions" >
   <v>       0.50000000       0.50000000       0.50000000 </v>
   <v>       0.75000000       0.75000000       0.75000000 </v>
  </varray>
 </structure>
 <calculation>
  <scstep>
   <time name="dav">    0.06    0.06</time>
   <time name="total">    0.10    0.11</time>
   <energy>
    <i name="alphaZ">      3.36414203 </i>
    <i name="ewald">   -228.56352493 </i>
    <i name="hartreedc">    -11.00108243 </i>
    <i name="XCdc">    -18.60185131 </i>
    <i name="pawpsdc">     65.95520812 </i>
    <i name="pawaedc">    -30.76852678 </i>
    <i name="eentropy">     -0.02475661 </i>
    <i name="bandstr">     17.80961837 </i>
    <i name="atom">    206.13125414 </i>
    <i name="e_fr_energy">      4.30048060 </i>
    <i name="e_wo_entrp">      4.32523721 </i>
    <i name="e_0_energy">      4.31285890 </i>
   </energy>
  </scstep>
  <scstep>
   <time name="dav">    0.08    0.09</time>
   <time name="total">    0.09    0.10</time>
   <energy>
    <i name="e_fr_energy">    -10.27834731 </i>
    <i name="e_wo_entrp">    -10.27826416 </i>
    <i name="e_0_energy">    -10.27830573 </i>
   </energy>
  </scstep>
  <scstep>
   <time name="dav">    0.07    0.08</time>
   <time name="total">    0.06    0.08</time>
   <energy>
    <i name="e_fr_energy">    -10.46314750 </i>
    <i name="e_wo_entrp">    -10.46309616 </i>
    <i name="e_0_energy">    -10.46312183 </i>
   </energy>
  </scstep>
  <scstep>
   <time name="dav">    0.08    0.09</time>
   <time name="total">    0.08    0.09</time>
   <energy>
    <i name="e_fr_energy">    -10.46374029 </i>
    <i name="e_wo_entrp">    -10.46368907 </i>
    <i name="e_0_energy">    -10.46371468 </i>
   </energy>
  </scstep>
  <scstep>
   <time name="dav">    0.06    0.08</time>
   <time name="total">    0.08    0.10</time>
   <energy>
    <i name="e_fr_energy">    -10.46374132 </i>
    <i name="e_wo_entrp">    -10.46369010 </i>
    <i name="e_0_energy">    -10.46371571 </i>
   </energy>
  </scstep>
  <scstep>
   <time name="dav">    0.06    0.06</time>
   <time name="total">    0.11    0.12</time>
   <energy>
    <i name="e_fr_energy">    -10.29612631 </i>
    <i name="e_wo_entrp">    -10.29578504 </i>
    <i name="e_0_energy">    -10.29595568 </i>
   </energy>
  </scstep>
  <scstep>
   <time name="dav">    0.06    0.06</time>
   <time name="total">    0.11    0.13</time>
   <energy>
    <i name="e_fr_energy">    -10.22184618 </i>
    <i name="e_wo_entrp">    -10.21947560 </i>
    <i name="e_0_energy">    -10.22066089 </i>
   </energy>
  </scstep>
  <scstep>
   <time name="dav">    0.05    0.05</time>
   <time name="total">    0.10    0.12</time>
   <energy>
    <i name="e_fr_energy">    -10.22463034 </i>
    <i name="e_wo_entrp">    -10.22279902 </i>
    <i name="e_0_energy">    -10.22371468 </i>
   </energy>
  </scstep>
  <scstep>
   <time name="dav">    0.06    0.06</time>
   <time name="total">    0.10    0.16</time>
   <energy>
    <i name="alphaZ">      3.36414203 </i>
    <i name="ewald">   -228.56352493 </i>
    <i name="hartreedc">    -15.70614824 </i>
    <i name="XCdc">    -17.86314368 </i>
    <i name="pawpsdc">     74.84811736 </i>
    <i name="pawaedc">    -39.90735972 </i>
    <i name="eentropy">     -0.00182525 </i>
    <i name="bandstr">      7.47368420 </i>
    <i name="atom">    206.13125414 </i>
    <i name="e_fr_energy">    -10.22480408 </i>
    <i name="e_wo_entrp">    -10.22297882 </i>
    <i name="e_0_energy">    -10.22389145 </i>
   </energy>
  </scstep>
  <structure>
   <crystal>
    <varray name="basis" >
     <v>       0.00000000       2.71500000       2.71500000 </v>
     <v>       2.71500000       0.00000000       2.71500000 </v>
     <v>       2.71500000       2.71500000       0.00000000 </v>
    </varray>
    <i name="volume">     40.02575175 </i>
    <varray name="rec_basis" >
     <v>      -0.18416206       0.18416206       0.18416206 </v>
     <v>       0.18416206      -0.18416206       0.18416206 </v>
     <v>       0.18416206       0.18416206      -0.18416206 </v>
    </varray>
   </crystal>
   <varray name="positions" >
    <v>       0.50000000       0.50000000       0.50000000 </v>
    <v>       0.75000000       0.75000000       0.75000000 </v>
   </varray>
  </structure>
  <varray name="forces" >
   <v>       0.00000000       0.00000000       0.00000000 </v>
   <v>      -0.00000000      -0.00000000      -0.00000000 </v>
  </varray>
  <varray name="stress" >
   <v>      39.50939025       0.00000000       0.00000000 </v>
   <v>       0.00000000      39.50939025       0.00000000 </v>
   <v>       0.00000000      -0.00000000      39.50939025 </v>
  </varray>
  <energy>
   <i name="e_fr_energy">    -10.22480408 </i>
   <i name="e_wo_entrp">    -10.22389145 </i>
   <i name="e_0_energy">     -0.00182525 </i>
  </energy>
  <time name="totalsc">    1.94    2.82</time>
  <eigenvalues>
   <array>
    <dimension dim="1">band</dimension>
    <dimension dim="2">kpoint</dimension>
    <dimension dim="3">spin</dimension>
    <field>eigene</field>
    <field>occ</field>
    <set>
     <set comment="spin 1">
      <set comment="kpoint 1">
       <r>   -6.0450    1.0000 </r>
       <r>    5.9368    0.9895 </r>
       <r>    5.9368    0.9895 </r>
       <r>    5.9368    0.9895 </r>
       <r>    8.4595    0.0000 </r>
       <r>    8.4595    0.0000 </r>
       <r>    8.4595    0.0000 </r>
       <r>    9.3216    0.0000 </r>
      </set>
      <set comment="kpoint 2">
       <r>   -4.6646    1.0000 </r>
       <r>    0.5847    1.0000 </r>
       <r>    4.9274    1.0000 </r>
       <r>    4.9274    1.0000 </r>
       <r>    7.6858    0.0000 </r>
       <r>    9.4008    0.0000 </r>
       <r>    9.4008    0.0000 </r>
       <r>   13.7855    0.0000 </r>
      </set>
      <set comment="kpoint 3">
       <r>   -4.1365    1.0000 </r>
       <r>    0.9228    1.0000 </r>
       <r>    3.4989    1.0000 </r>
       <r>    3.4989    1.0000 </r>
       <r>    6.6249    0.0053 </r>
       <r>    7.8833    0.0000 </r>
       <r>   13.1868    0.0000 </r>
       <r>   13.1868    0.0000 </r>
      </set>
      <set comment="kpoint 4">
       <r>   -2.7705    1.0000 </r>
       <r>   -0.8435    1.0000 </r>
       <r>    1.4903    1.0000 </r>
       <r>    3.8073    1.0000 </r>
       <r>    7.4632    0.0000 </r>
       <r>   11.7159    0.0000 </r>
       <r>   12.3815    0.0000 </r>
       <r>   13.0052    0.0000 </r>
      </set>
     </set>
    </set>
   </array>
  </eigenvalues>
  <separator name="orbital magnetization" >
   <v name="MAGDIPOLOUT">      0.00000000      0.00000000      0.00000000</v>
  </separator>
  <dos>
   <i name="efermi">      6.26308774 </i>
   <total>
    <array>
     <dimension dim="1">gridpoints</dimension>
     <dimension dim="2">spin</dimension>
     <field>energy</field>
     <field>total</field>
     <field>integrated</field>
     <set>
      <set comment="spin 1">
       <r>    -8.0450     0.0000     0.0000 </r>
       <r>    -7.9656     0.0000     0.0000 </r>
       <r>    -7.8861     0.0000     0.0000 </r>
       <r>    -7.8067     0.0000     0.0000 </r>
       <r>    -7.7273     0.0000     0.0000 </r>
       <r>    -7.6478     0.0000     0.0000 </r>
       <r>    -7.5684     0.0000     0.0000 </r>
       <r>    -7.4889     0.0000     0.0000 </r>
       <r>    -7.4095     0.0000     0.0000 </r>
       <r>    -7.3301     0.0000     0.0000 </r>
       <r>    -7.2506     0.0000     0.0000 </r>
       <r>    -7.1712     0.0000     0.0000 </r>
       <r>    -7.0918     0.0000     0.0000 </r>
       <r>    -7.0123     0.0000     0.0000 </r>
       <r>    -6.9329     0.0000     0.0000 </r>
       <r>    -6.8535     0.0000     0.0000 </r>
       <r>    -6.7740     0.0000     0.0000 </r>
       <r>    -6.6946     0.0000     0.0000 </r>
       <r>    -6.6152     0.0000     0.0000 </r>
       <r>    -6.5357     0.0002     0.0000 </r>
       <r>    -6.4563     0.0015     0.0001 </r>
       <r>    -6.3769     0.0071     0.0007 </r>
       <r>    -6.2974     0.0258     0.0028 </r>
       <r>    -6.2180     0.0685     0.0082 </r>
       <r>    -6.1385     0.1338     0.0188 </r>
       <r>    -6.0591     0.1922     0.0341 </r>
       <r>    -5.9797     0.2030     0.0502 </r>
       <r>    -5.9002     0.1577     0.0627 </r>
       <r>    -5.8208     0.0901     0.0699 </r>
       <r>    -5.7414     0.0378     0.0729 </r>
       <r>    -5.6619     0.0117     0.0738 </r>
       <r>    -5.5825     0.0026     0.0740 </r>
       <r>    -5.5031     0.0004     0.0741 </r>
       <r>    -5.4236     0.0001     0.0741 </r>
       <r>    -5.3442     0.0000     0.0741 </r>
       <r>    -5.2648     0.0001     0.0741 </r>
       <r>    -5.1853     0.0008     0.0741 </r>
       <r>    -5.1059     0.0059     0.0746 </r>
       <r>    -5.0265     0.0325     0.0772 </r>
       <r>    -4.9470     0.1317     0.0877 </r>
       <r>    -4.8676     0.3931     0.1189 </r>
       <r>    -4.7882     0.8621     0.1874 </r>
       <r>    -4.7087     1.3906     0.2978 </r>
       <r>    -4.6293     1.6504     0.4289 </r>
       <r>    -4.5498     1.4469     0.5439 </r>
       <r>    -4.4704     0.9640     0.6204 </r>
       <r>    -4.3910     0.5855     0.6669 </r>
       <r>    -4.3115     0.5533     0.7109 </r>
       <r>    -4.2321     0.8306     0.7769 </r>
       <r>    -4.1527     1.1540     0.8685 </r>
       <r>    -4.0732     1.2219     0.9656 </r>
       <r>    -3.9938     0.9560     1.0416 </r>
       <r>    -3.9144     0.5504     1.0853 </r>
       <r>    -3.8349     0.2330     1.1038 </r>
       <r>    -3.7555     0.0725     1.1095 </r>
       <r>    -3.6761     0.0166     1.1109 </r>
       <r>    -3.5966     0.0028     1.1111 </r>
       <r>    -3.5172     0.0003     1.1111 </r>
       <r>    -3.4378     0.0000     1.1111 </r>
       <r>    -3.3583     0.0002     1.1111 </r>
       <r>    -3.2789     0.0016     1.1113 </r>
       <r>    -3.1994     0.0117     1.1122 </r>
       <r>    -3.1200     0.0617     1.1171 </r>
       <r>    -3.0406     0.2389     1.1361 </r>
       <r>    -2.9611     0.6796     1.1901 </r>
       <r>    -2.8817     1.4211     1.3029 </r>
       <r>    -2.8023     2.1852     1.4765 </r>
       <r>    -2.7228     2.4711     1.6728 </r>
       <r>    -2.6434     2.0551     1.8361 </r>
       <r>    -2.5640     1.2569     1.9359 </r>
       <r>    -2.4845     0.5652     1.9808 </r>
       <r>    -2.4051     0.1869     1.9957 </r>
       <r>    -2.3257     0.0454     1.9993 </r>
       <r>    -2.2462     0.0081     1.9999 </r>
       <r>    -2.1668     0.0011     2.0000 </r>
       <r>    -2.0874     0.0001     2.0000 </r>
       <r>    -2.0079     0.0000     2.0000 </r>
       <r>    -1.9285     0.0000     2.0000 </r>
       <r>    -1.8491     0.0000     2.0000 </r>
       <r>    -1.7696     0.0000     2.0000 </r>
       <r>    -1.6902     0.0000     2.0000 </r>
       <r>    -1.6107     0.0000     2.0000 </r>
       <r>    -1.5313     0.0000     2.0000 </r>
       <r>    -1.4519     0.0001     2.0000 </r>
       <r>    -1.3724     0.0009     2.0001 </r>
       <r>    -1.2930     0.0073     2.0007 </r>
       <r>    -1.2136     0.0414     2.0039 </r>
       <r>    -1.1341     0.1734     2.0177 </r>
       <r>    -1.0547     0.5341     2.0601 </r>
       <r>    -0.9753     1.2093     2.1562 </r>
       <r>    -0.8958     2.0135     2.3161 </r>
       <r>    -0.8164     2.4654     2.5120 </r>
       <r>    -0.7370     2.2200     2.6883 </r>
       <r>    -0.6575     1.4701     2.8051 </r>
       <r>    -0.5781     0.7159     2.8620 </r>
       <r>    -0.4987     0.2563     2.8823 </r>
       <r>    -0.4192     0.0674     2.8877 </r>
       <r>    -0.3398     0.0130     2.8887 </r>
       <r>    -0.2603     0.0019     2.8889 </r>
       <r>    -0.1809     0.0002     2.8889 </r>
       <r>    -0.1015     0.0000     2.8889 </r>
       <r>    -0.0220     0.0001     2.8889 </r>
       <r>     0.0574     0.0007     2.8889 </r>
       <r>     0.1368     0.0050     2.8893 </r>
       <r>     0.2163     0.0285     2.8916 </r>
       <r>     0.2957     0.1187     2.9010 </r>
       <r>     0.3751     0.3635     2.9299 </r>
       <r>     0.4546     0.8196     2.9950 </r>
       <r>     0.5340     1.3663     3.1036 </r>
       <r>     0.6134     1.7088     3.2393 </r>
       <r>     0.6929     1.6827     3.3730 </r>
       <r>     0.7723     1.4816     3.4906 </r>
       <r>     0.8517     1.3868     3.6008 </r>
       <r>     0.9312     1.3754     3.7101 </r>
       <r>     1.0106     1.2166     3.8067 </r>
       <r>     1.0900     0.8631     3.8753 </r>
       <r>     1.1695     0.5413     3.9183 </r>
       <r>     1.2489     0.5291     3.9603 </r>
       <r>     1.3284     0.9667     4.0371 </r>
       <r>     1.4078     1.7300     4.1745 </r>
       <r>     1.4872     2.3685     4.3626 </r>
       <r>     1.5667     2.3955     4.5529 </r>
       <r>     1.6461     1.7827     4.6945 </r>
       <r>     1.7255     0.9756     4.7720 </r>
       <r>     1.8050     0.3926     4.8032 </r>
       <r>     1.8844     0.1161     4.8124 </r>
       <r>     1.9638     0.0252     4.8145 </r>
       <r>     2.0433     0.0040     4.8148 </r>
       <r>     2.1227     0.0005     4.8148 </r>
       <r>     2.2021     0.0000     4.8148 </r>
       <r>     2.2816     0.0000     4.8148 </r>
       <r>     2.3610     0.0000     4.8148 </r>
       <r>     2.4404     0.0000     4.8148 </r>
       <r>     2.5199     0.0000     4.8148 </r>
       <r>     2.5993     0.0000     4.8148 </r>
       <r>     2.6788     0.0000     4.8148 </r>
       <r>     2.7582     0.0000     4.8148 </r>
       <r>     2.8376     0.0000     4.8148 </r>
       <r>     2.9171     0.0002     4.8148 </r>
       <r>     2.9965     0.0019     4.8150 </r>
       <r>     3.0759     0.0134     4.8161 </r>
       <r>     3.1554     0.0692     4.8215 </r>
       <r>     3.2348     0.2616     4.8423 </r>
       <r>     3.3142     0.7288     4.9002 </r>
       <r>     3.3937     1.5005     5.0194 </r>
       <r>     3.4731     2.3115     5.2030 </r>
       <r>     3.5525     2.7624     5.4225 </r>
       <r>     3.6320     2.8036     5.6452 </r>
       <r>     3.7114     2.7770     5.8658 </r>
       <r>     3.7908     2.8171     6.0895 </r>
       <r>     3.8703     2.6124     6.2971 </r>
       <r>     3.9497     1.9551     6.4524 </r>
       <r>     4.0291     1.1109     6.5406 </r>
       <r>     4.1086     0.4688     6.5778 </r>
       <r>     4.1880     0.1459     6.5894 </r>
       <r>     4.2675     0.0334     6.5921 </r>
       <r>     4.3469     0.0059     6.5926 </r>
       <r>     4.4263     0.0033     6.5928 </r>
       <r>     4.5058     0.0185     6.5943 </r>
       <r>     4.5852     0.0944     6.6018 </r>
       <r>     4.6646     0.3551     6.6300 </r>
       <r>     4.7441     0.9820     6.7080 </r>
       <r>     4.8235     1.9964     6.8666 </r>
       <r>     4.9029     2.9846     7.1037 </r>
       <r>     4.9824     3.2814     7.3643 </r>
       <r>     5.0618     2.6531     7.5751 </r>
       <r>     5.1412     1.5776     7.7004 </r>
       <r>     5.2207     0.6897     7.7552 </r>
       <r>     5.3001     0.2217     7.7728 </r>
       <r>     5.3795     0.0525     7.7770 </r>
       <r>     5.4590     0.0100     7.7778 </r>
       <r>     5.5384     0.0069     7.7783 </r>
       <r>     5.6179     0.0271     7.7805 </r>
       <r>     5.6973     0.0927     7.7878 </r>
       <r>     5.7767     0.2341     7.8064 </r>
       <r>     5.8562     0.4349     7.8410 </r>
       <r>     5.9356     0.5941     7.8882 </r>
       <r>     6.0150     0.5968     7.9356 </r>
       <r>     6.0945     0.4413     7.9706 </r>
       <r>     6.1739     0.2430     7.9899 </r>
       <r>     6.2533     0.1157     7.9991 </r>
       <r>     6.3328     0.1127     8.0081 </r>
       <r>     6.4122     0.2682     8.0294 </r>
       <r>     6.4916     0.5981     8.0769 </r>
       <r>     6.5711     1.0000     8.1563 </r>
       <r>     6.6505     1.2315     8.2541 </r>
       <r>     6.7299     1.1154     8.3427 </r>
       <r>     6.8094     0.7429     8.4018 </r>
       <r>     6.8888     0.3641     8.4307 </r>
       <r>     6.9682     0.1334     8.4413 </r>
       <r>     7.0477     0.0506     8.4453 </r>
       <r>     7.1271     0.0864     8.4522 </r>
       <r>     7.2066     0.2948     8.4756 </r>
       <r>     7.2860     0.8021     8.5393 </r>
       <r>     7.3654     1.6329     8.6690 </r>
       <r>     7.4449     2.5271     8.8698 </r>
       <r>     7.5243     3.0887     9.1151 </r>
       <r>     7.6037     3.1851     9.3681 </r>
       <r>     7.6832     3.0057     9.6069 </r>
       <r>     7.7626     2.7354     9.8242 </r>
       <r>     7.8420     2.3903    10.0140 </r>
       <r>     7.9215     1.9198    10.1665 </r>
       <r>     8.0009     1.3352    10.2726 </r>
       <r>     8.0803     0.7636    10.3333 </r>
       <r>     8.1598     0.3702    10.3627 </r>
       <r>     8.2392     0.2304    10.3810 </r>
       <r>     8.3186     0.3074    10.4054 </r>
       <r>     8.3981     0.4875    10.4441 </r>
       <r>     8.4775     0.6124    10.4928 </r>
       <r>     8.5570     0.5705    10.5381 </r>
       <r>     8.6364     0.3912    10.5692 </r>
       <r>     8.7158     0.1973    10.5848 </r>
       <r>     8.7953     0.0734    10.5907 </r>
       <r>     8.8747     0.0219    10.5924 </r>
       <r>     8.9541     0.0180    10.5938 </r>
       <r>     9.0336     0.0740    10.5997 </r>
       <r>     9.1130     0.2879    10.6226 </r>
       <r>     9.1924     0.8400    10.6893 </r>
       <r>     9.2719     1.8204    10.8339 </r>
       <r>     9.3513     2.9241    11.0662 </r>
       <r>     9.4307     3.4756    11.3423 </r>
       <r>     9.5102     3.0525    11.5847 </r>
       <r>     9.5896     1.9787    11.7419 </r>
       <r>     9.6690     0.9457    11.8170 </r>
       <r>     9.7485     0.3330    11.8435 </r>
       <r>     9.8279     0.0863    11.8503 </r>
       <r>     9.9073     0.0165    11.8516 </r>
       <r>     9.9868     0.0023    11.8518 </r>
       <r>    10.0662     0.0002    11.8519 </r>
       <r>    10.1457     0.0000    11.8519 </r>
       <r>    10.2251     0.0000    11.8519 </r>
       <r>    10.3045     0.0000    11.8519 </r>
       <r>    10.3840     0.0000    11.8519 </r>
       <r>    10.4634     0.0000    11.8519 </r>
       <r>    10.5428     0.0000    11.8519 </r>
       <r>    10.6223     0.0000    11.8519 </r>
       <r>    10.7017     0.0000    11.8519 </r>
       <r>    10.7811     0.0000    11.8519 </r>
       <r>    10.8606     0.0000    11.8519 </r>
       <r>    10.9400     0.0000    11.8519 </r>
       <r>    11.0194     0.0000    11.8519 </r>
       <r>    11.0989     0.0001    11.8519 </r>
       <r>    11.1783     0.0007    11.8519 </r>
       <r>    11.2577     0.0059    11.8524 </r>
       <r>    11.3372     0.0347    11.8551 </r>
       <r>    11.4166     0.1505    11.8671 </r>
       <r>    11.4961     0.4794    11.9052 </r>
       <r>    11.5755     1.1227    11.9944 </r>
       <r>    11.6549     1.9331    12.1479 </r>
       <r>    11.7344     2.4478    12.3424 </r>
       <r>    11.8138     2.2797    12.5235 </r>
       <r>    11.8932     1.5637    12.6477 </r>
       <r>    11.9727     0.8044    12.7116 </r>
       <r>    12.0521     0.3805    12.7418 </r>
       <r>    12.1315     0.3995    12.7735 </r>
       <r>    12.2110     0.8588    12.8418 </r>
       <r>    12.2904     1.6333    12.9715 </r>
       <r>    12.3698     2.3208    13.1559 </r>
       <r>    12.4493     2.4286    13.3488 </r>
       <r>    12.5287     1.8722    13.4975 </r>
       <r>    12.6081     1.0813    13.5834 </r>
       <r>    12.6876     0.5523    13.6272 </r>
       <r>    12.7670     0.5260    13.6690 </r>
       <r>    12.8464     1.0515    13.7526 </r>
       <r>    12.9259     2.0312    13.9139 </r>
       <r>    13.0053     3.1345    14.1629 </r>
       <r>    13.0848     3.8987    14.4726 </r>
       <r>    13.1642     4.0025    14.7905 </r>
       <r>    13.2436     3.4043    15.0610 </r>
       <r>    13.3231     2.3521    15.2478 </r>
       <r>    13.4025     1.2952    15.3507 </r>
       <r>    13.4819     0.6222    15.4001 </r>
       <r>    13.5614     0.4675    15.4372 </r>
       <r>    13.6408     0.7587    15.4975 </r>
       <r>    13.7202     1.2678    15.5982 </r>
       <r>    13.7997     1.6247    15.7273 </r>
       <r>    13.8791     1.5376    15.8494 </r>
       <r>    13.9585     1.0706    15.9344 </r>
       <r>    14.0380     0.5482    15.9780 </r>
       <r>    14.1174     0.2064    15.9944 </r>
       <r>    14.1968     0.0571    15.9989 </r>
       <r>    14.2763     0.0116    15.9998 </r>
       <r>    14.3557     0.0017    16.0000 </r>
       <r>    14.4352     0.0002    16.0000 </r>
       <r>    14.5146     0.0000    16.0000 </r>
       <r>    14.5940     0.0000    16.0000 </r>
       <r>    14.6735     0.0000    16.0000 </r>
       <r>    14.7529     0.0000    16.0000 </r>
       <r>    14.8323     0.0000    16.0000 </r>
       <r>    14.9118     0.0000    16.0000 </r>
       <r>    14.9912     0.0000    16.0000 </r>
       <r>    15.0706     0.0000    16.0000 </r>
       <r>    15.1501     0.0000    16.0000 </r>
       <r>    15.2295     0.0000    16.0000 </r>
       <r>    15.3089     0.0000    16.0000 </r>
       <r>    15.3884     0.0000    16.0000 </r>
       <r>    15.4678     0.0000    16.0000 </r>
       <r>    15.5472     0.0000    16.0000 </r>
       <r>    15.6267     0.0000    16.0000 </r>
       <r>    15.7061     0.0000    16.0000 </r>
       <r>    15.7855     0.0000    16.0000 </r>
      </set>
     </set>
    </array>
   </total>
  </dos>
 </calculation>
 <structure name="finalpos" >
  <crystal>
   <varray name="basis" >
    <v>       0.00000000       2.71500000       2.71500000 </v>
    <v>       2.71500000       0.00000000       2.71500000 </v>
    <v>       2.71500000       2.71500000       0.00000000 </v>
   </varray>
   <i name="volume">     40.02575175 </i>
   <varray name="rec_basis" >
    <v>      -0.18416206       0.18416206       0.18416206 </v>
    <v>       0.18416206      -0.18416206       0.18416206 </v>
    <v>       0.18416206       0.18416206      -0.18416206 </v>
   </varray>
  </crystal>
  <varray name="positions" >
   <v>       0.50000000       0.50000000       0.50000000 </v>
   <v>       0.75000000       0.75000000       0.75000000 </v>
  </varray>
 </structure>
</modeling>
