   2   2   0   0
  0.1529437E+02  0.3691622E-09  0.3691622E-09  0.3691622E-09  0.5000000E-15
  1.000000000000000E-004
  CAR 
 unknown system                          
     23.63249524     -6.61576874  301      9.06792335      1.00000000
     -6.616  0.0000E+00  0.0000E+00
     -6.515  0.0000E+00  0.0000E+00
     -6.414  0.0000E+00  0.0000E+00
     -6.313  0.0000E+00  0.0000E+00
     -6.212  0.0000E+00  0.0000E+00
     -6.112  0.0000E+00  0.0000E+00
     -6.011  0.0000E+00  0.0000E+00
     -5.910  0.0000E+00  0.0000E+00
     -5.809  0.0000E+00  0.0000E+00
     -5.708  0.1007E-16  0.1015E-17
     -5.607  0.2114E-14  0.2142E-15
     -5.507  0.2691E-12  0.2734E-13
     -5.406  0.2081E-10  0.2126E-11
     -5.305  0.9812E-09  0.1011E-09
     -5.204  0.2831E-07  0.2956E-08
     -5.103  0.5039E-06  0.5376E-07
     -5.003  0.5604E-05  0.6188E-06
     -4.902  0.3993E-04  0.4645E-05
     -4.801  0.1900E-03  0.2380E-04
     -4.700  0.6425E-03  0.8858E-04
     -4.599  0.1660E-02  0.2560E-03
     -4.498  0.3459E-02  0.6047E-03
     -4.398  0.5824E-02  0.1192E-02
     -4.297  0.7713E-02  0.1970E-02
     -4.196  0.8467E-02  0.2823E-02
     -4.095  0.9674E-02  0.3799E-02
     -3.994  0.1238E-01  0.5047E-02
     -3.893  0.1402E-01  0.6461E-02
     -3.793  0.1289E-01  0.7761E-02
     -3.692  0.1111E-01  0.8881E-02
     -3.591  0.1124E-01  0.1001E-01
     -3.490  0.1424E-01  0.1145E-01
     -3.389  0.1863E-01  0.1333E-01
     -3.288  0.2084E-01  0.1543E-01
     -3.188  0.2073E-01  0.1752E-01
     -3.087  0.2136E-01  0.1967E-01
     -2.986  0.2191E-01  0.2188E-01
     -2.885  0.1946E-01  0.2385E-01
     -2.784  0.1499E-01  0.2536E-01
     -2.683  0.1215E-01  0.2658E-01
     -2.583  0.1389E-01  0.2798E-01
     -2.482  0.1958E-01  0.2996E-01
     -2.381  0.2505E-01  0.3248E-01
     -2.280  0.2825E-01  0.3533E-01
     -2.179  0.3139E-01  0.3850E-01
     -2.079  0.3358E-01  0.4188E-01
     -1.978  0.3010E-01  0.4492E-01
     -1.877  0.2235E-01  0.4717E-01
     -1.776  0.1821E-01  0.4901E-01
     -1.675  0.2115E-01  0.5114E-01
     -1.574  0.2602E-01  0.5376E-01
     -1.474  0.2690E-01  0.5647E-01
     -1.373  0.2467E-01  0.5896E-01
     -1.272  0.2443E-01  0.6142E-01
     -1.171  0.2781E-01  0.6423E-01
     -1.070  0.3148E-01  0.6740E-01
     -0.969  0.3225E-01  0.7065E-01
     -0.869  0.3029E-01  0.7371E-01
     -0.768  0.2892E-01  0.7662E-01
     -0.667  0.3180E-01  0.7983E-01
     -0.566  0.3702E-01  0.8356E-01
     -0.465  0.3845E-01  0.8744E-01
     -0.364  0.3479E-01  0.9095E-01
     -0.264  0.2999E-01  0.9397E-01
     -0.163  0.2630E-01  0.9662E-01
     -0.062  0.2442E-01  0.9908E-01
      0.039  0.2624E-01  0.1017E+00
      0.140  0.3185E-01  0.1049E+00
      0.241  0.3858E-01  0.1088E+00
      0.341  0.4404E-01  0.1133E+00
      0.442  0.4645E-01  0.1180E+00
      0.543  0.4540E-01  0.1225E+00
      0.644  0.4307E-01  0.1269E+00
      0.745  0.4052E-01  0.1310E+00
      0.845  0.3737E-01  0.1347E+00
      0.946  0.3621E-01  0.1384E+00
      1.047  0.3788E-01  0.1422E+00
      1.148  0.3774E-01  0.1460E+00
      1.249  0.3473E-01  0.1495E+00
      1.350  0.3391E-01  0.1529E+00
      1.450  0.3676E-01  0.1566E+00
      1.551  0.3985E-01  0.1606E+00
      1.652  0.4137E-01  0.1648E+00
      1.753  0.4133E-01  0.1690E+00
      1.854  0.4053E-01  0.1731E+00
      1.955  0.3915E-01  0.1770E+00
      2.055  0.3732E-01  0.1808E+00
      2.156  0.3768E-01  0.1846E+00
      2.257  0.4095E-01  0.1887E+00
      2.358  0.4284E-01  0.1930E+00
      2.459  0.3970E-01  0.1970E+00
      2.560  0.3408E-01  0.2005E+00
      2.660  0.3344E-01  0.2038E+00
      2.761  0.4118E-01  0.2080E+00
      2.862  0.4868E-01  0.2129E+00
      2.963  0.4500E-01  0.2174E+00
      3.064  0.3366E-01  0.2208E+00
      3.165  0.2561E-01  0.2234E+00
      3.265  0.2303E-01  0.2257E+00
      3.366  0.2367E-01  0.2281E+00
      3.467  0.2820E-01  0.2310E+00
      3.568  0.3665E-01  0.2347E+00
      3.669  0.4700E-01  0.2394E+00
      3.769  0.5620E-01  0.2451E+00
      3.870  0.6030E-01  0.2511E+00
      3.971  0.5991E-01  0.2572E+00
      4.072  0.5847E-01  0.2631E+00
      4.173  0.5419E-01  0.2685E+00
      4.274  0.4677E-01  0.2733E+00
      4.374  0.4070E-01  0.2774E+00
      4.475  0.3588E-01  0.2810E+00
      4.576  0.3189E-01  0.2842E+00
      4.677  0.3400E-01  0.2876E+00
      4.778  0.4284E-01  0.2919E+00
      4.879  0.5132E-01  0.2971E+00
      4.979  0.5463E-01  0.3026E+00
      5.080  0.5564E-01  0.3082E+00
      5.181  0.5848E-01  0.3141E+00
      5.282  0.6006E-01  0.3202E+00
      5.383  0.5769E-01  0.3260E+00
      5.484  0.5671E-01  0.3317E+00
      5.584  0.5872E-01  0.3376E+00
      5.685  0.5679E-01  0.3434E+00
      5.786  0.4879E-01  0.3483E+00
      5.887  0.4408E-01  0.3527E+00
      5.988  0.4881E-01  0.3577E+00
      6.089  0.5434E-01  0.3631E+00
      6.189  0.5243E-01  0.3684E+00
      6.290  0.4897E-01  0.3734E+00
      6.391  0.5305E-01  0.3787E+00
      6.492  0.6406E-01  0.3852E+00
      6.593  0.7212E-01  0.3924E+00
      6.693  0.6917E-01  0.3994E+00
      6.794  0.6042E-01  0.4055E+00
      6.895  0.5794E-01  0.4113E+00
      6.996  0.6504E-01  0.4179E+00
      7.097  0.7445E-01  0.4254E+00
      7.198  0.7761E-01  0.4332E+00
      7.298  0.7264E-01  0.4406E+00
      7.399  0.6422E-01  0.4470E+00
      7.500  0.5756E-01  0.4528E+00
      7.601  0.5383E-01  0.4583E+00
      7.702  0.5153E-01  0.4635E+00
      7.803  0.5131E-01  0.4686E+00
      7.903  0.5515E-01  0.4742E+00
      8.004  0.6156E-01  0.4804E+00
      8.105  0.6518E-01  0.4870E+00
      8.206  0.6245E-01  0.4933E+00
      8.307  0.5720E-01  0.4990E+00
      8.408  0.5553E-01  0.5046E+00
      8.508  0.5574E-01  0.5103E+00
      8.609  0.5095E-01  0.5154E+00
      8.710  0.4218E-01  0.5197E+00
      8.811  0.3703E-01  0.5234E+00
      8.912  0.3664E-01  0.5271E+00
      9.013  0.3879E-01  0.5310E+00
      9.113  0.4350E-01  0.5354E+00
      9.214  0.4722E-01  0.5401E+00
      9.315  0.4606E-01  0.5448E+00
      9.416  0.4412E-01  0.5492E+00
      9.517  0.4724E-01  0.5540E+00
      9.617  0.5393E-01  0.5594E+00
      9.718  0.5920E-01  0.5654E+00
      9.819  0.5991E-01  0.5714E+00
      9.920  0.5416E-01  0.5769E+00
     10.021  0.4374E-01  0.5813E+00
     10.122  0.3591E-01  0.5849E+00
     10.222  0.3512E-01  0.5885E+00
     10.323  0.3860E-01  0.5924E+00
     10.424  0.4094E-01  0.5965E+00
     10.525  0.3992E-01  0.6005E+00
     10.626  0.3918E-01  0.6045E+00
     10.727  0.4290E-01  0.6088E+00
     10.827  0.5001E-01  0.6138E+00
     10.928  0.5718E-01  0.6196E+00
     11.029  0.6353E-01  0.6260E+00
     11.130  0.6950E-01  0.6330E+00
     11.231  0.7356E-01  0.6404E+00
     11.332  0.7099E-01  0.6476E+00
     11.432  0.6069E-01  0.6537E+00
     11.533  0.5101E-01  0.6588E+00
     11.634  0.5165E-01  0.6641E+00
     11.735  0.6380E-01  0.6705E+00
     11.836  0.8031E-01  0.6786E+00
     11.936  0.8972E-01  0.6876E+00
     12.037  0.8354E-01  0.6961E+00
     12.138  0.6900E-01  0.7030E+00
     12.239  0.6366E-01  0.7094E+00
     12.340  0.7270E-01  0.7168E+00
     12.441  0.8331E-01  0.7252E+00
     12.541  0.8090E-01  0.7333E+00
     12.642  0.6769E-01  0.7401E+00
     12.743  0.5794E-01  0.7460E+00
     12.844  0.5627E-01  0.7517E+00
     12.945  0.5693E-01  0.7574E+00
     13.046  0.5476E-01  0.7629E+00
     13.146  0.4962E-01  0.7679E+00
     13.247  0.4662E-01  0.7726E+00
     13.348  0.4830E-01  0.7775E+00
     13.449  0.5306E-01  0.7828E+00
     13.550  0.6177E-01  0.7891E+00
     13.651  0.7558E-01  0.7967E+00
     13.751  0.9099E-01  0.8059E+00
     13.852  0.9942E-01  0.8159E+00
     13.953  0.9156E-01  0.8251E+00
     14.054  0.6909E-01  0.8321E+00
     14.155  0.4859E-01  0.8370E+00
     14.256  0.4460E-01  0.8415E+00
     14.356  0.5483E-01  0.8470E+00
     14.457  0.6862E-01  0.8539E+00
     14.558  0.7998E-01  0.8620E+00
     14.659  0.8791E-01  0.8709E+00
     14.760  0.9126E-01  0.8801E+00
     14.860  0.8779E-01  0.8889E+00
     14.961  0.7949E-01  0.8969E+00
     15.062  0.7416E-01  0.9044E+00
     15.163  0.7500E-01  0.9120E+00
     15.264  0.7583E-01  0.9196E+00
     15.365  0.6983E-01  0.9267E+00
     15.465  0.5747E-01  0.9324E+00
     15.566  0.4647E-01  0.9371E+00
     15.667  0.4375E-01  0.9415E+00
     15.768  0.4765E-01  0.9464E+00
     15.869  0.5063E-01  0.9515E+00
     15.970  0.4872E-01  0.9564E+00
     16.070  0.4431E-01  0.9608E+00
     16.171  0.3995E-01  0.9649E+00
     16.272  0.3663E-01  0.9686E+00
     16.373  0.3849E-01  0.9724E+00
     16.474  0.4866E-01  0.9773E+00
     16.575  0.6158E-01  0.9836E+00
     16.675  0.6853E-01  0.9905E+00
     16.776  0.6564E-01  0.9971E+00
     16.877  0.5400E-01  0.1003E+01
     16.978  0.4004E-01  0.1007E+01
     17.079  0.3163E-01  0.1010E+01
     17.180  0.2910E-01  0.1013E+01
     17.280  0.2829E-01  0.1016E+01
     17.381  0.2843E-01  0.1018E+01
     17.482  0.3122E-01  0.1022E+01
     17.583  0.3607E-01  0.1025E+01
     17.684  0.3974E-01  0.1029E+01
     17.784  0.3981E-01  0.1033E+01
     17.885  0.3710E-01  0.1037E+01
     17.986  0.3299E-01  0.1040E+01
     18.087  0.2674E-01  0.1043E+01
     18.188  0.1875E-01  0.1045E+01
     18.289  0.1205E-01  0.1046E+01
     18.389  0.7857E-02  0.1047E+01
     18.490  0.4967E-02  0.1047E+01
     18.591  0.3548E-02  0.1048E+01
     18.692  0.5563E-02  0.1048E+01
     18.793  0.1182E-01  0.1049E+01
     18.894  0.1967E-01  0.1051E+01
     18.994  0.2389E-01  0.1054E+01
     19.095  0.2085E-01  0.1056E+01
     19.196  0.1288E-01  0.1057E+01
     19.297  0.6098E-02  0.1058E+01
     19.398  0.3172E-02  0.1058E+01
     19.499  0.2280E-02  0.1058E+01
     19.599  0.2002E-02  0.1059E+01
     19.700  0.3280E-02  0.1059E+01
     19.801  0.6928E-02  0.1060E+01
     19.902  0.1081E-01  0.1061E+01
     20.003  0.1133E-01  0.1062E+01
     20.104  0.8570E-02  0.1063E+01
     20.204  0.6021E-02  0.1063E+01
     20.305  0.4864E-02  0.1064E+01
     20.406  0.3543E-02  0.1064E+01
     20.507  0.1787E-02  0.1064E+01
     20.608  0.6248E-03  0.1064E+01
     20.708  0.4486E-03  0.1065E+01
     20.809  0.1196E-02  0.1065E+01
     20.910  0.2636E-02  0.1065E+01
     21.011  0.3766E-02  0.1065E+01
     21.112  0.3464E-02  0.1066E+01
     21.213  0.2061E-02  0.1066E+01
     21.313  0.8580E-03  0.1066E+01
     21.414  0.5492E-03  0.1066E+01
     21.515  0.1059E-02  0.1066E+01
     21.616  0.1818E-02  0.1066E+01
     21.717  0.1966E-02  0.1066E+01
     21.818  0.1308E-02  0.1067E+01
     21.918  0.5347E-03  0.1067E+01
     22.019  0.1341E-03  0.1067E+01
     22.120  0.2059E-04  0.1067E+01
     22.221  0.1936E-05  0.1067E+01
     22.322  0.1111E-06  0.1067E+01
     22.423  0.3890E-08  0.1067E+01
     22.523  0.8291E-10  0.1067E+01
     22.624  0.1074E-11  0.1067E+01
     22.725  0.8450E-14  0.1067E+01
     22.826  0.4028E-16  0.1067E+01
     22.927  0.0000E+00  0.1067E+01
     23.028  0.0000E+00  0.1067E+01
     23.128  0.0000E+00  0.1067E+01
     23.229  0.0000E+00  0.1067E+01
     23.330  0.0000E+00  0.1067E+01
     23.431  0.0000E+00  0.1067E+01
     23.532  0.0000E+00  0.1067E+01
     23.632  0.0000E+00  0.1067E+01
