    2    2   15    1
  0.1529437E+02  0.3691622E-09  0.3691622E-09  0.3691622E-09  0.5000000E-15
  1.000000000000000E-004
  CAR 
 unknown system                          
      8     75      8
 
  0.0000000E+00  0.0000000E+00  0.0000000E+00  0.1371742E-02
    1       -4.615769   1.000000
    2        6.649496   1.000000
    3        6.649496   1.000000
    4        7.173474   1.000000
    5       10.716714   0.000000
    6       16.495476   0.000000
    7       17.957533   0.000000
    8       17.957534   0.000000
 
  0.1111111E+00 -0.9377698E-17  0.9377698E-17  0.1097394E-01
    1       -4.290939   1.000000
    2        5.871026   1.000000
    3        6.521889   1.000000
    4        8.497540   0.999972
    5       11.432162   0.000000
    6       14.687602   0.000000
    7       15.224483   0.000000
    8       17.059127   0.000000
 
  0.2222222E+00  0.6918512E-17 -0.6918512E-17  0.1097394E-01
    1       -3.320732   1.000000
    2        5.454489   1.000000
    3        6.437128   1.000000
    4        9.871620   0.000000
    5       11.661671   0.000000
    6       12.405480   0.000000
    7       13.039057   0.000000
    8       15.077197   0.000000
 
  0.3333333E+00 -0.3591853E-16  0.3591853E-16  0.1097394E-01
    1       -1.720548   1.000000
    2        5.488795   1.000000
    3        6.684137   1.000000
    4        6.991916   1.000000
    5        9.946348   0.000000
    6       12.017873   0.000000
    7       13.365092   0.000000
    8       14.267902   0.000000
 
  0.4444444E+00  0.1383702E-16 -0.1383702E-16  0.1097394E-01
    1        0.453866   1.000000
    2        3.373172   1.000000
    3        6.601544   1.000000
    4        7.167585   1.000000
    5        8.050008   1.000000
    6       10.453167   0.000000
    7       13.594100   0.000000
    8       14.510813   0.000000
 
  0.1111111E+00  0.1111111E+00  0.1875540E-16  0.1097394E-01
    1       -3.474128   1.000000
    2        5.703002   1.000000
    3        7.526449   1.000000
    4        9.161102   0.254988
    5       11.788504   0.000000
    6       11.936675   0.000000
    7       12.770740   0.000000
    8       15.033409   0.000000
 
  0.2222222E+00  0.1111111E+00 -0.2719765E-16  0.2194787E-01
    1       -2.023394   1.000000
    2        5.740620   1.000000
    3        7.505481   1.000000
    4        8.124164   1.000000
    5        9.465820   0.002450
    6       11.600739   0.000000
    7       12.488883   0.000000
    8       13.704396   0.000000
 
  0.3333333E+00  0.1111111E+00  0.2951719E-16  0.2194787E-01
    1        0.023116   1.000000
    2        4.211661   1.000000
    3        6.395945   1.000000
    4        6.807303   1.000000
    5        8.836881   0.948841
    6       10.956282   0.000000
    7       12.459500   0.000000
    8       14.907007   0.000000
 
  0.4444444E+00  0.1111111E+00  0.7517205E-17  0.2194787E-01
    1        1.142108   1.000000
    2        2.825776   1.000000
    3        5.219808   1.000000
    4        7.269860   1.000000
    5        8.541369   0.999902
    6       11.281613   0.000000
    7       12.461218   0.000000
    8       15.811768   0.000000
 
 -0.4444444E+00  0.1111111E+00  0.4279628E-16  0.2194787E-01
    1       -1.117226   1.000000
    2        4.053724   1.000000
    3        6.068541   1.000000
    4        6.992100   1.000000
    5        9.807433   0.000000
    6       12.431302   0.000000
    7       13.348445   0.000000
    8       14.731889   0.000000
 
 -0.3333333E+00  0.1111111E+00 -0.1456430E-16  0.2194787E-01
    1       -2.861551   1.000000
    2        3.758330   1.000000
    3        6.516290   1.000000
    4        9.643100   0.000024
    5       11.836221   0.000000
    6       12.223820   0.000000
    7       13.765756   0.000000
    8       15.069615   0.000000
 
 -0.2222222E+00  0.1111111E+00  0.1629621E-16  0.2194787E-01
    1       -3.982610   1.000000
    2        4.004897   1.000000
    3        6.619072   1.000000
    4        9.597143   0.000091
    5       12.973689   0.000000
    6       13.608126   0.000000
    7       14.614998   0.000000
    8       16.172279   0.000000
 
 -0.1111111E+00  0.1111111E+00  0.7914115E-18  0.5486968E-02
    1       -4.461221   1.000000
    2        4.815940   1.000000
    3        6.789173   1.000000
    4        8.396593   0.999999
    5       11.716870   0.000000
    6       15.142439   0.000000
    7       17.102676   0.000000
    8       17.821564   0.000000
 
  0.2222222E+00  0.2222222E+00 -0.4159260E-16  0.1097394E-01
    1       -0.122183   1.000000
    2        5.182541   1.000000
    3        5.416327   1.000000
    4        6.565181   1.000000
    5        9.770802   0.000000
    6       11.304089   0.000000
    7       12.624877   0.000000
    8       13.074786   0.000000
 
  0.3333333E+00  0.2222222E+00  0.4287781E-16  0.2194787E-01
    1        1.884262   1.000000
    2        2.725990   1.000000
    3        3.793814   1.000000
    4        7.329799   1.000000
    5        9.184583   0.204712
    6       10.740253   0.000000
    7       13.515303   0.000000
    8       15.791405   0.000000
 
  0.4444444E+00  0.2222222E+00  0.2087783E-16  0.2194787E-01
    1       -0.218917   1.000000
    2        2.411065   1.000000
    3        5.649790   1.000000
    4        7.635777   1.000000
    5        9.383599   0.012802
    6       11.224637   0.000000
    7       14.820420   0.000000
    8       15.863051   0.000000
 
 -0.4444444E+00  0.2222222E+00  0.6918512E-17  0.2194787E-01
    1       -2.099536   1.000000
    2        1.922449   1.000000
    3        7.148365   1.000000
    4        9.197689   0.179420
    5       10.800811   0.000000
    6       12.761548   0.000000
    7       12.996794   0.000000
    8       16.233982   0.000000
 
 -0.3333333E+00  0.2222222E+00 -0.1251408E-16  0.2194787E-01
    1       -3.367812   1.000000
    2        2.025734   1.000000
    3        7.166962   1.000000
    4       10.379725   0.000000
    5       11.932365   0.000000
    6       13.815544   0.000000
    7       15.035844   0.000000
    8       15.674940   0.000000
 
 -0.2222222E+00  0.2222222E+00  0.1582823E-17  0.5486968E-02
    1       -3.998473   1.000000
    2        2.733731   1.000000
    3        7.207854   1.000000
    4        9.227357   0.129794
    5       13.299938   0.000000
    6       14.101401   0.000000
    7       15.522448   0.000000
    8       17.475518   0.000000
 
  0.3333333E+00  0.3333333E+00  0.7183707E-16  0.1097394E-01
    1        0.937394   1.000000
    2        0.991933   1.000000
    3        5.508494   1.000000
    4        8.159242   1.000000
    5        9.036847   0.586963
    6       10.659841   0.000000
    7       15.848826   0.000000
    8       16.632791   0.000000
 
  0.4444444E+00  0.3333333E+00  0.4983708E-16  0.2194787E-01
    1       -1.040299   1.000000
    2        0.306554   1.000000
    3        7.990737   1.000000
    4        8.808070   0.966928
    5        9.786569   0.000000
    6       12.307017   0.000000
    7       13.923917   0.000000
    8       15.261104   0.000000
 
 -0.4444444E+00  0.3333333E+00  0.6553460E-16  0.2194787E-01
    1       -2.450421   1.000000
    2        0.261749   1.000000
    3        7.997453   1.000000
    4       10.406275   0.000000
    5       11.273705   0.000000
    6       13.193849   0.000000
    7       14.498725   0.000000
    8       14.850196   0.000000
 
 -0.3333333E+00  0.3333333E+00  0.1438931E-16  0.5486968E-02
    1       -3.230297   1.000000
    2        0.839846   1.000000
    3        7.903425   1.000000
    4       10.070157   0.000000
    5       11.593300   0.000000
    6       13.892130   0.000000
    7       16.774688   0.000000
    8       17.178813   0.000000
 
  0.4444444E+00  0.4444444E+00 -0.8318520E-16  0.1097394E-01
    1       -1.238196   1.000000
    2       -1.235764   1.000000
    3        9.086295   0.448321
    4        9.093192   0.429096
    5       12.037925   0.000000
    6       12.544822   0.000000
    7       14.045217   0.000000
    8       14.700679   0.000000
 
 -0.4444444E+00  0.4444444E+00  0.3165646E-17  0.5486968E-02
    1       -2.161633   1.000000
    2       -0.800498   1.000000
    3        8.872525   0.916464
    4       10.107416   0.000000
    5       11.119900   0.000000
    6       12.401723   0.000000
    7       17.049439   0.000000
    8       17.134866   0.000000
 
  0.1111111E+00  0.1111111E+00  0.1111111E+00  0.1097394E-01
    1       -3.014123   1.000000
    2        3.661270   1.000000
    3        7.880126   1.000000
    4        9.817473   0.000000
    5       11.184466   0.000000
    6       11.404886   0.000000
    7       14.841293   0.000000
    8       15.347664   0.000000
 
  0.2222222E+00  0.1111111E+00  0.1111111E+00  0.2194787E-01
    1       -1.417266   1.000000
    2        3.860669   1.000000
    3        6.978465   1.000000
    4        7.914307   1.000000
    5        9.623309   0.000043
    6       12.369892   0.000000
    7       13.795775   0.000000
    8       14.591608   0.000000
 
  0.3333333E+00  0.1111111E+00  0.1111111E+00  0.2194787E-01
    1        0.750261   1.000000
    2        3.576335   1.000000
    3        4.860253   1.000000
    4        6.272414   1.000000
    5        9.912159   0.000000
    6       12.214904   0.000000
    7       13.917404   0.000000
    8       14.375757   0.000000
 
 -0.1111111E+00  0.1111111E+00  0.1111111E+00  0.5486968E-02
    1       -4.306937   1.000000
    2        4.557164   1.000000
    3        5.599550   1.000000
    4        9.745317   0.000001
    5       12.343062   0.000000
    6       13.818327   0.000000
    7       17.432228   0.000000
    8       18.209787   0.000000
 
  0.2222222E+00  0.2222222E+00  0.1111111E+00  0.1097394E-01
    1        0.612720   1.000000
    2        4.174816   1.000000
    3        4.892472   1.000000
    4        5.294199   1.000000
    5       11.030104   0.000000
    6       13.066642   0.000000
    7       13.764822   0.000000
    8       13.780675   0.000000
 
  0.3333333E+00  0.2222222E+00  0.1111111E+00  0.2194787E-01
    1        1.730475   1.000000
    2        2.868932   1.000000
    3        3.796237   1.000000
    4        6.006796   1.000000
    5       10.945849   0.000000
    6       12.487514   0.000000
    7       14.306821   0.000000
    8       15.264376   0.000000
 
  0.4444444E+00  0.2222222E+00  0.1111111E+00  0.2194787E-01
    1       -0.513707   1.000000
    2        2.147229   1.000000
    3        6.601864   1.000000
    4        7.688712   1.000000
    5       10.285410   0.000000
    6       12.756361   0.000000
    7       13.277392   0.000000
    8       15.177759   0.000000
 
 -0.4444444E+00  0.2222222E+00  0.1111111E+00  0.1097394E-01
    1       -2.250618   1.000000
    2        1.789083   1.000000
    3        8.416882   0.999998
    4        9.899890   0.000000
    5       11.100700   0.000000
    6       11.232596   0.000000
    7       13.465928   0.000000
    8       14.659791   0.000000
 
 -0.2222222E+00  0.2222222E+00  0.1111111E+00  0.1097394E-01
    1       -3.844965   1.000000
    2        2.832140   1.000000
    3        5.678984   1.000000
    4       10.884367   0.000000
    5       11.921412   0.000000
    6       14.384636   0.000000
    7       16.427950   0.000000
    8       17.221221   0.000000
 
 -0.1111111E+00  0.2222222E+00  0.1111111E+00  0.1097394E-01
    1       -3.675336   1.000000
    2        3.824880   1.000000
    3        5.039112   1.000000
    4       11.231059   0.000000
    5       12.038624   0.000000
    6       13.889815   0.000000
    7       14.018415   0.000000
    8       16.551005   0.000000
 
  0.3333333E+00  0.3333333E+00  0.1111111E+00  0.1097394E-01
    1        0.670915   1.000000
    2        0.687706   1.000000
    3        6.471571   1.000000
    4        7.594712   1.000000
    5       11.073997   0.000000
    6       11.708490   0.000000
    7       13.980195   0.000000
    8       14.693989   0.000000
 
  0.4444444E+00  0.3333333E+00  0.1111111E+00  0.1097394E-01
    1       -1.188823   1.000000
    2        0.162644   1.000000
    3        9.014558   0.647043
    4        9.520707   0.000683
    5       11.221356   0.000000
    6       11.691075   0.000000
    7       12.553411   0.000000
    8       13.427496   0.000000
 
 -0.3333333E+00  0.3333333E+00  0.1111111E+00  0.1097394E-01
    1       -3.078231   1.000000
    2        0.974618   1.000000
    3        6.361099   1.000000
    4       10.158791   0.000000
    5       11.765425   0.000000
    6       15.199123   0.000000
    7       16.533371   0.000000
    8       17.196875   0.000000
 
 -0.2222222E+00  0.3333333E+00  0.1111111E+00  0.2194787E-01
    1       -3.062770   1.000000
    2        2.255747   1.000000
    3        5.188345   1.000000
    4       10.154813   0.000000
    5       11.988977   0.000000
    6       13.706061   0.000000
    7       15.962675   0.000000
    8       16.780275   0.000000
 
 -0.1111111E+00  0.3333333E+00  0.1111111E+00  0.1097394E-01
    1       -2.404884   1.000000
    2        3.694754   1.000000
    3        4.990089   1.000000
    4        8.937337   0.822097
    5       10.784539   0.000000
    6       13.865760   0.000000
    7       14.465010   0.000000
    8       14.878703   0.000000
 
 -0.4444444E+00  0.4444444E+00  0.1111111E+00  0.1097394E-01
    1       -2.012037   1.000000
    2       -0.655434   1.000000
    3        7.352724   1.000000
    4        8.625019   0.999131
    5       12.764346   0.000000
    6       13.929995   0.000000
    7       16.618095   0.000000
    8       16.764866   0.000000
 
 -0.3333333E+00  0.4444444E+00  0.1111111E+00  0.2194787E-01
    1       -2.149318   1.000000
    2        0.540661   1.000000
    3        5.999980   1.000000
    4        8.527971   0.999933
    5       11.956781   0.000000
    6       14.240589   0.000000
    7       16.005536   0.000000
    8       16.721125   0.000000
 
 -0.2222222E+00  0.4444444E+00  0.1111111E+00  0.2194787E-01
    1       -1.647790   1.000000
    2        2.290551   1.000000
    3        5.238956   1.000000
    4        8.288677   1.000000
    5        9.257972   0.089499
    6       13.866466   0.000000
    7       15.406119   0.000000
    8       16.551506   0.000000
 
 -0.1111111E+00  0.4444444E+00  0.1111111E+00  0.1097394E-01
    1       -0.520444   1.000000
    2        4.030241   1.000000
    3        5.483025   1.000000
    4        5.613197   1.000000
    5        9.655622   0.000016
    6       12.117701   0.000000
    7       12.995410   0.000000
    8       16.620011   0.000000
 
 -0.4444444E+00 -0.4444444E+00  0.1111111E+00  0.1097394E-01
    1       -0.946692   1.000000
    2       -0.939202   1.000000
    3        7.119734   1.000000
    4        7.136326   1.000000
    5       11.892948   0.000000
    6       14.869288   0.000000
    7       15.694392   0.000000
    8       16.094965   0.000000
 
 -0.3333333E+00 -0.4444444E+00  0.1111111E+00  0.2194787E-01
    1       -0.597494   1.000000
    2        0.731151   1.000000
    3        6.153953   1.000000
    4        7.322017   1.000000
    5        8.471344   0.999988
    6       13.649389   0.000000
    7       16.426216   0.000000
    8       17.639052   0.000000
 
 -0.2222222E+00 -0.4444444E+00  0.1111111E+00  0.2194787E-01
    1        0.364875   1.000000
    2        2.883256   1.000000
    3        4.962124   1.000000
    4        5.991281   1.000000
    5        8.332572   1.000000
    6       11.864643   0.000000
    7       14.466116   0.000000
    8       17.639021   0.000000
 
 -0.1111111E+00 -0.4444444E+00  0.1111111E+00  0.1097394E-01
    1        1.604060   1.000000
    2        2.522634   1.000000
    3        5.512820   1.000000
    4        6.456574   1.000000
    5        8.782664   0.978157
    6       11.106529   0.000000
    7       11.404413   0.000000
    8       16.842338   0.000000
 
 -0.3333333E+00 -0.3333333E+00  0.1111111E+00  0.1097394E-01
    1        1.466800   1.000000
    2        1.576522   1.000000
    3        4.806620   1.000000
    4        6.903415   1.000000
    5        7.143942   1.000000
    6       11.730167   0.000000
    7       16.123386   0.000000
    8       16.814408   0.000000
 
 -0.2222222E+00 -0.3333333E+00  0.1111111E+00  0.2194787E-01
    1        1.645944   1.000000
    2        3.176400   1.000000
    3        4.391718   1.000000
    4        7.007832   1.000000
    5        8.080211   1.000000
    6       10.556483   0.000000
    7       12.921914   0.000000
    8       15.318449   0.000000
 
 -0.1111111E+00 -0.3333333E+00  0.1111111E+00  0.1097394E-01
    1       -0.419039   1.000000
    2        5.068683   1.000000
    3        7.137415   1.000000
    4        7.551347   1.000000
    5        8.117447   1.000000
    6       10.776349   0.000000
    7       11.053979   0.000000
    8       13.953871   0.000000
 
 -0.2222222E+00 -0.2222222E+00  0.1111111E+00  0.1097394E-01
    1       -0.567191   1.000000
    2        6.098383   1.000000
    3        6.195782   1.000000
    4        7.757450   1.000000
    5        8.509949   0.999960
    6       10.331258   0.000000
    7       11.897443   0.000000
    8       12.448017   0.000000
 
 -0.1111111E+00 -0.2222222E+00  0.1111111E+00  0.1097394E-01
    1       -2.327508   1.000000
    2        7.383775   1.000000
    3        7.842903   1.000000
    4        8.583599   0.999692
    5        9.487926   0.001490
    6       10.581364   0.000000
    7       11.905018   0.000000
    8       12.687528   0.000000
 
 -0.1111111E+00 -0.1111111E+00  0.1111111E+00  0.2743484E-02
    1       -3.627795   1.000000
    2        7.404480   1.000000
    3        7.404481   1.000000
    4        8.088943   1.000000
    5       11.708729   0.000000
    6       12.280381   0.000000
    7       12.357390   0.000000
    8       14.573464   0.000000
 
  0.2222222E+00  0.2222222E+00  0.2222222E+00  0.1097394E-01
    1        1.622814   1.000000
    2        2.866358   1.000000
    3        4.656326   1.000000
    4        4.744029   1.000000
    5       12.304872   0.000000
    6       13.548866   0.000000
    7       14.767481   0.000000
    8       14.793443   0.000000
 
 -0.2222222E+00  0.2222222E+00  0.2222222E+00  0.5486968E-02
    1       -3.385463   1.000000
    2        2.766569   1.000000
    3        4.097165   1.000000
    4        9.962372   0.000000
    5       12.839036   0.000000
    6       15.554223   0.000000
    7       16.114721   0.000000
    8       16.826680   0.000000
 
 -0.3333333E+00  0.3333333E+00  0.2222222E+00  0.1097394E-01
    1       -2.623466   1.000000
    2        1.346681   1.000000
    3        4.352631   1.000000
    4        8.155521   1.000000
    5       13.931250   0.000000
    6       15.542237   0.000000
    7       16.535847   0.000000
    8       18.043353   0.000000
 
 -0.2222222E+00  0.3333333E+00  0.2222222E+00  0.1097394E-01
    1       -2.455192   1.000000
    2        2.322522   1.000000
    3        3.712380   1.000000
    4        8.287204   1.000000
    5       11.790110   0.000000
    6       15.459934   0.000000
    7       17.313621   0.000000
    8       17.340837   0.000000
 
 -0.4444444E+00  0.4444444E+00  0.2222222E+00  0.1097394E-01
    1       -1.565874   1.000000
    2       -0.227277   1.000000
    3        5.309080   1.000000
    4        6.592594   1.000000
    5       14.591323   0.000000
    6       15.066815   0.000000
    7       16.801910   0.000000
    8       17.552784   0.000000
 
 -0.3333333E+00  0.4444444E+00  0.2222222E+00  0.2194787E-01
    1       -1.551221   1.000000
    2        1.058599   1.000000
    3        4.091648   1.000000
    4        6.605201   1.000000
    5       11.450627   0.000000
    6       16.671575   0.000000
    7       17.482967   0.000000
    8       18.982643   0.000000
 
 -0.2222222E+00  0.4444444E+00  0.2222222E+00  0.1097394E-01
    1       -0.900702   1.000000
    2        2.494185   1.000000
    3        3.911983   1.000000
    4        7.063292   1.000000
    5        8.164736   1.000000
    6       15.156606   0.000000
    7       16.422562   0.000000
    8       17.744124   0.000000
 
 -0.4444444E+00 -0.4444444E+00  0.2222222E+00  0.1097394E-01
    1       -0.371269   1.000000
    2       -0.357976   1.000000
    3        5.176775   1.000000
    4        5.195935   1.000000
    5       11.327490   0.000000
    6       17.043450   0.000000
    7       17.954487   0.000000
    8       18.362956   0.000000
 
 -0.3333333E+00 -0.4444444E+00  0.2222222E+00  0.2194787E-01
    1        0.128147   1.000000
    2        1.393365   1.000000
    3        4.413897   1.000000
    4        5.619251   1.000000
    5        7.794028   1.000000
    6       15.368168   0.000000
    7       17.834370   0.000000
    8       18.824886   0.000000
 
 -0.2222222E+00 -0.4444444E+00  0.2222222E+00  0.1097394E-01
    1        1.219165   1.000000
    2        3.142525   1.000000
    3        4.691926   1.000000
    4        4.754557   1.000000
    5        6.779403   1.000000
    6       13.288264   0.000000
    7       14.476437   0.000000
    8       17.746623   0.000000
 
 -0.3333333E+00 -0.3333333E+00  0.2222222E+00  0.1097394E-01
    1        2.177856   1.000000
    2        2.402347   1.000000
    3        4.411795   1.000000
    4        5.353856   1.000000
    5        5.565149   1.000000
    6       13.551903   0.000000
    7       15.698838   0.000000
    8       16.537440   0.000000
 
 -0.2222222E+00 -0.3333333E+00  0.2222222E+00  0.1097394E-01
    1        1.420022   1.000000
    2        4.081867   1.000000
    3        4.948843   1.000000
    4        6.000584   1.000000
    5        6.816515   1.000000
    6       11.969845   0.000000
    7       12.853996   0.000000
    8       14.350471   0.000000
 
 -0.2222222E+00 -0.2222222E+00  0.2222222E+00  0.2743484E-02
    1       -0.716084   1.000000
    2        6.830573   1.000000
    3        6.972064   1.000000
    4        7.559923   1.000000
    5        7.559923   1.000000
    6       11.023943   0.000000
    7       11.660872   0.000000
    8       11.660875   0.000000
 
 -0.3333333E+00  0.3333333E+00  0.3333333E+00  0.5486968E-02
    1       -1.871152   1.000000
    2        1.551940   1.000000
    3        2.997123   1.000000
    4        6.323224   1.000000
    5       14.694901   0.000000
    6       15.129754   0.000000
    7       17.732173   0.000000
    8       19.407010   0.000000
 
 -0.4444444E+00  0.4444444E+00  0.3333333E+00  0.1097394E-01
    1       -0.834359   1.000000
    2        0.440691   1.000000
    3        3.509626   1.000000
    4        4.752696   1.000000
    5       14.734939   0.000000
    6       14.840074   0.000000
    7       18.921434   0.000000
    8       19.910039   0.000000
 
 -0.3333333E+00  0.4444444E+00  0.3333333E+00  0.1097394E-01
    1       -0.668357   1.000000
    2        1.408788   1.000000
    3        2.876351   1.000000
    4        4.907538   1.000000
    5       11.072426   0.000000
    6       17.962513   0.000000
    7       19.056821   0.000000
    8       19.845380   0.000000
 
 -0.4444444E+00 -0.4444444E+00  0.3333333E+00  0.1097394E-01
    1        0.442458   1.000000
    2        0.464059   1.000000
    3        3.519742   1.000000
    4        3.532292   1.000000
    5       10.941443   0.000000
    6       18.074933   0.000000
    7       19.964949   0.000000
    8       20.270409   0.000000
 
 -0.3333333E+00 -0.4444444E+00  0.3333333E+00  0.1097394E-01
    1        1.089829   1.000000
    2        1.888635   1.000000
    3        3.355573   1.000000
    4        4.134394   1.000000
    5        7.482731   1.000000
    6       16.899950   0.000000
    7       17.988591   0.000000
    8       19.032137   0.000000
 
 -0.3333333E+00 -0.3333333E+00  0.3333333E+00  0.2743484E-02
    1        2.643888   1.000000
    2        3.075942   1.000000
    3        4.420822   1.000000
    4        4.420822   1.000000
    5        4.666403   1.000000
    6       15.220235   0.000000
    7       15.554141   0.000000
    8       15.554146   0.000000
 
 -0.4444444E+00  0.4444444E+00  0.4444444E+00  0.5486968E-02
    1        0.136602   1.000000
    2        0.938737   1.000000
    3        2.432671   1.000000
    4        3.224205   1.000000
    5       14.592617   0.000000
    6       14.618066   0.000000
    7       20.989831   0.000000
    8       21.632495   0.000000
 
 -0.4444444E+00 -0.4444444E+00  0.4444444E+00  0.2743484E-02
    1        1.085054   1.000000
    2        1.119326   1.000000
    3        2.593538   1.000000
    4        2.593538   1.000000
    5       10.808708   0.000000
    6       18.218367   0.000000
    7       20.929290   0.000000
    8       21.059442   0.000000
