unknown system                          
   1.00000000000000     
    -2.450000    2.450000    1.274000
     2.450000   -2.450000    1.274000
     2.450000    2.450000   -1.274000
   Si
     2
Direct
  0.250000  0.750000  0.500000
  0.000000  0.000000  0.000000
 
   36   36   36
 -.52635144448E+01 -.43301465928E+01 -.17670360851E+01 0.17971633999E+01 0.55503613445E+01
 0.87400975200E+01 0.10860833931E+02 0.11737395749E+02 0.11505475283E+02 0.10518368119E+02
 0.92141147638E+01 0.79016291699E+01 0.66979908681E+01 0.56713718527E+01 0.48523686871E+01
 0.42426252167E+01 0.38276434793E+01 0.35885693642E+01 0.35106978933E+01 0.35885660127E+01
 0.38276469107E+01 0.42426349171E+01 0.48523733957E+01 0.56713701160E+01 0.66979917488E+01
 0.79016323374E+01 0.92141104438E+01 0.10518357399E+02 0.11505469818E+02 0.11737397282E+02
 0.10860832991E+02 0.87400917524E+01 0.55503557937E+01 0.17971546817E+01 -.17670547154E+01
 -.43301653556E+01 -.43301653556E+01 -.48223397993E+01 -.34948140447E+01 -.68661592995E+00
 0.29188284117E+01 0.65160713901E+01 0.94103524840E+01 0.11179585990E+02 0.11730973989E+02
 0.11261669488E+02 0.10154661924E+02 0.88359867007E+01 0.75486840035E+01 0.63909421506E+01
 0.54207879899E+01 0.46602939678E+01 0.41057683676E+01 0.37406409586E+01 0.35464773541E+01
 0.35105606088E+01 0.36300901851E+01 0.39130110597E+01 0.43754972895E+01 0.50361342337E+01
 0.59066940522E+01 0.69798995353E+01 0.82171635254E+01 0.95419112035E+01 0.10813472095E+02
 0.11675839005E+02 0.11700634953E+02 0.10576173138E+02 0.82320931437E+01 0.49181347922E+01
 0.12015966547E+01 -.21412403870E+01 -.17670547154E+01 -.34948282452E+01 -.35473266346E+01
 -.19162933018E+01 0.97911789319E+00 0.44368948165E+01 0.76959393871E+01 0.10147740352E+02
 0.11468234177E+02 0.11648176993E+02 0.10937236128E+02 0.97329494283E+01 0.84197061131E+01
 0.71705778244E+01 0.60697171499E+01 0.51638581309E+01 0.44665745902E+01 0.39695081890E+01
 0.36548294206E+01 0.35051875227E+01 0.35102195631E+01 0.36697777575E+01 0.39939274418E+01
 0.44997503815E+01 0.52049451427E+01 0.61180855548E+01 0.72263340258E+01 0.84841663862E+01
 0.98087563269E+01 0.11035080388E+02 0.11784545493E+02 0.11653778323E+02 0.10380649899E+02
 0.79586456474E+01 0.46982271423E+01 0.12015966547E+01 0.17971546817E+01 -.68662760539E+00
 -.19163000813E+01 -.15777479670E+01 0.23314721962E+00 0.30465119311E+01 0.61790829160E+01
 0.89470480945E+01 0.10848695911E+02 0.11664365461E+02 0.11462995231E+02 0.10533462546E+02
 0.92698455415E+01 0.79785723504E+01 0.67801042021E+01 0.57453142688E+01 0.49092441549E+01
 0.42775628411E+01 0.38382043172E+01 0.35729499298E+01 0.34661022155E+01 0.35098369968E+01
 0.37064659127E+01 0.40677114389E+01 0.46109834536E+01 0.53525647432E+01 0.62976051223E+01
 0.74281537520E+01 0.86931687979E+01 0.10005742017E+02 0.11182082577E+02 0.11843758905E+02
 0.11623114057E+02 0.10311155608E+02 0.79586456474E+01 0.49181347922E+01 0.55503557937E+01
 0.29188239504E+01 0.97911473210E+00 0.23314815610E+00 0.87478267813E+00 0.27243151631E+01
 0.52944217420E+01 0.79547981974E+01 0.10123759673E+02 0.11417370509E+02 0.11718502936E+02
 0.11163121543E+02 0.10062780786E+02 0.87811919860E+01 0.75265788867E+01 0.63900166348E+01
 0.54282191200E+01 0.46649342010E+01 0.40990052668E+01 0.37157922728E+01 0.34975165617E+01
 0.34305477669E+01 0.35095921001E+01 0.37390853677E+01 0.41318899899E+01 0.47052009768E+01
 0.54734844261E+01 0.64384770672E+01 0.75778657070E+01 0.88367523615E+01 0.10126322156E+02
 0.11255174913E+02 0.11862409908E+02 0.11623114057E+02 0.10380649899E+02 0.82320931437E+01
 0.87400917524E+01 0.65160688084E+01 0.44368942658E+01 0.30465160045E+01 0.27243218877E+01
 0.35552698694E+01 0.53029113244E+01 0.74952887101E+01 0.95823160578E+01 0.11099118896E+02
 0.11780743024E+02 0.11603365024E+02 0.10754305601E+02 0.95493945715E+01 0.82816690594E+01
 0.70779364790E+01 0.60124879300E+01 0.51279620451E+01 0.44379348254E+01 0.39358411877E+01
 0.36056384959E+01 0.34306907599E+01 0.33996580228E+01 0.35095996300E+01 0.37666488751E+01
 0.41842842115E+01 0.47790054557E+01 0.55631966700E+01 0.65354081605E+01 0.76699433063E+01
 0.89098339518E+01 0.10166891834E+02 0.11255174913E+02 0.11843758905E+02 0.11653778323E+02
 0.10576173138E+02 0.10860832991E+02 0.94103527321E+01 0.76959391141E+01 0.61790848343E+01
 0.52944300834E+01 0.53029208438E+01 0.62009611461E+01 0.77250553013E+01 0.94467973836E+01
 0.10914070048E+02 0.11782926863E+02 0.11899890226E+02 0.11319394896E+02 0.10261480096E+02
 0.90209124505E+01 0.77869023736E+01 0.66465560220E+01 0.56586627498E+01 0.48528245024E+01
 0.42341073009E+01 0.37921081275E+01 0.35104624758E+01 0.33741956809E+01 0.33742906024E+01
 0.35098586475E+01 0.37882602255E+01 0.42230877274E+01 0.48297360600E+01 0.56183786115E+01
 0.65847870264E+01 0.77010133339E+01 0.89098339518E+01 0.10126322156E+02 0.11182082577E+02
 0.11784545493E+02 0.11700634953E+02 0.11737397282E+02 0.11179591678E+02 0.10147745318E+02
 0.89470493333E+01 0.79548011723E+01 0.74952981991E+01 0.77250647346E+01 0.85775029131E+01
 0.97900119304E+01 0.10998213702E+02 0.11855410951E+02 0.12133244976E+02 0.11775355144E+02
 0.10895399695E+02 0.97260918379E+01 0.84963618036E+01 0.73128967686E+01 0.62455182788E+01
 0.53383338866E+01 0.46097035172E+01 0.40581420921E+01 0.36709464696E+01 0.34323281476E+01
 0.33292856293E+01 0.33549983587E+01 0.35102522855E+01 0.38031531131E+01 0.42469386913E+01
 0.48555658712E+01 0.56369999934E+01 0.65847870264E+01 0.76699433063E+01 0.88367523615E+01
 0.10005742017E+02 0.11035080388E+02 0.11675839005E+02 0.11505469818E+02 0.11730977358E+02
 0.11468244087E+02 0.10848703777E+02 0.10123762078E+02 0.95823193382E+01 0.94468057493E+01
 0.97900192930E+01 0.10508781603E+02 0.11364020674E+02 0.12066786466E+02 0.12373818455E+02
 0.12159583387E+02 0.11445760281E+02 0.10384080003E+02 0.91893583427E+01 0.79945624050E+01
 0.68752440327E+01 0.58865837082E+01 0.50597509576E+01 0.44041108435E+01 0.39136339741E+01
 0.35746753723E+01 0.33726935318E+01 0.32967772332E+01 0.33420651875E+01 0.35105987458E+01
 0.38107546403E+01 0.42549858909E+01 0.48555658712E+01 0.56183786115E+01 0.65354081605E+01
 0.75778657070E+01 0.86931687979E+01 0.98087563269E+01 0.10813472095E+02 0.10518357399E+02
 0.11261663219E+02 0.11648180962E+02 0.11664376782E+02 0.11417379545E+02 0.11099122389E+02
 0.10914073403E+02 0.10998219779E+02 0.11364025133E+02 0.11895217049E+02 0.12391576087E+02
 0.12642217937E+02 0.12497806890E+02 0.11917761337E+02 0.10980100162E+02 0.98511564427E+01
 0.86761028775E+01 0.75343650721E+01 0.64882638263E+01 0.55798024006E+01 0.48295508109E+01
 0.42402629227E+01 0.38032099111E+01 0.35049071451E+01 0.33325001837E+01 0.32771317973E+01
 0.33355907268E+01 0.35107356068E+01 0.38107546403E+01 0.42469386913E+01 0.48297360600E+01
 0.55631966700E+01 0.64384770672E+01 0.74281537520E+01 0.84841663862E+01 0.95419112035E+01
 0.92141104438E+01 0.10154654084E+02 0.10937230424E+02 0.11462998698E+02 0.11718513123E+02
 0.11780751648E+02 0.11782931205E+02 0.11855414348E+02 0.12066790083E+02 0.12391577803E+02
 0.12718474217E+02 0.12893748187E+02 0.12779911573E+02 0.12306751897E+02 0.11497854116E+02
 0.10465009118E+02 0.93417845219E+01 0.82091880086E+01 0.71332269645E+01 0.61642605129E+01
 0.53332726817E+01 0.46527924608E+01 0.41212159860E+01 0.37286736129E+01 0.34626727915E+01
 0.33122849443E+01 0.32705637585E+01 0.33355907268E+01 0.35105987458E+01 0.38031531131E+01
 0.42230877274E+01 0.47790054557E+01 0.54734844261E+01 0.62976051223E+01 0.72263340258E+01
 0.82171635254E+01 0.79016323374E+01 0.88359882654E+01 0.97329455176E+01 0.10533458323E+02
 0.11163123580E+02 0.11603372130E+02 0.11899897084E+02 0.12133249696E+02 0.12373821907E+02
 0.12642219617E+02 0.12893747910E+02 0.13033730796E+02 0.12955702829E+02 0.12585518620E+02
 0.11914130580E+02 0.11007593023E+02 0.99719132011E+01 0.88836484987E+01 0.78095848122E+01
 0.68060195141E+01 0.59130439529E+01 0.51530755481E+01 0.45330699760E+01 0.40490132015E+01
 0.36911407473E+01 0.34485352470E+01 0.33122849443E+01 0.32771317973E+01 0.33420651875E+01
 0.35102522855E+01 0.37882602255E+01 0.41842842115E+01 0.47052009768E+01 0.53525647432E+01
 0.61180855548E+01 0.69798995353E+01 0.66979917488E+01 0.75486903880E+01 0.84197112569E+01
 0.92698451131E+01 0.10062778145E+02 0.10754305652E+02 0.11319398057E+02 0.11775359567E+02
 0.12159588044E+02 0.12497810346E+02 0.12779912034E+02 0.12955701431E+02 0.12952614519E+02
 0.12706841791E+02 0.12194069463E+02 0.11447241629E+02 0.10539583877E+02 0.95360463755E+01
 0.85012018586E+01 0.74947550277E+01 0.65643155255E+01 0.57417655940E+01 0.50433660481E+01
 0.44726597473E+01 0.40248198784E+01 0.36911407473E+01 0.34626727915E+01 0.33325001837E+01
 0.32967772332E+01 0.33549983587E+01 0.35098586475E+01 0.37666488751E+01 0.41318899899E+01
 0.46109834536E+01 0.52049451427E+01 0.59066940522E+01 0.56713701160E+01 0.63909433483E+01
 0.71705838351E+01 0.79785780567E+01 0.87811935367E+01 0.95493931272E+01 0.10261478388E+02
 0.10895399416E+02 0.11445762485E+02 0.11917765531E+02 0.12306755020E+02 0.12585518325E+02
 0.12706839996E+02 0.12620575770E+02 0.12297225510E+02 0.11746870123E+02 0.11010334939E+02
 0.10136765865E+02 0.91847353507E+01 0.82141042218E+01 0.72777905518E+01 0.64161763513E+01
 0.56550150838E+01 0.50065366500E+01 0.44726597473E+01 0.40490132015E+01 0.37286736129E+01
 0.35049071451E+01 0.33726935318E+01 0.33292856293E+01 0.33742906024E+01 0.35095996300E+01
 0.37390853677E+01 0.40677114389E+01 0.44997503815E+01 0.50361342337E+01 0.48523733957E+01
 0.54207874788E+01 0.60697173763E+01 0.67801073694E+01 0.75265826969E+01 0.82816711908E+01
 0.90209121232E+01 0.97260894673E+01 0.10384077706E+02 0.10980100720E+02 0.11497857256E+02
 0.11914132727E+02 0.12194068638E+02 0.12297223923E+02 0.12192345292E+02 0.11871103676E+02
 0.11345885685E+02 0.10648934601E+02 0.98280987919E+01 0.89389621050E+01 0.80363573117E+01
 0.71672256728E+01 0.63662871729E+01 0.56550150838E+01 0.50433660481E+01 0.45330699760E+01
 0.41212159860E+01 0.38032099111E+01 0.35746753723E+01 0.34323281476E+01 0.33741956809E+01
 0.33996580228E+01 0.35095921001E+01 0.37064659127E+01 0.39939274418E+01 0.43754972895E+01
 0.42426349171E+01 0.46603000786E+01 0.51638595405E+01 0.57453136089E+01 0.63900162038E+01
 0.70779375958E+01 0.77869046511E+01 0.84963629739E+01 0.91893565469E+01 0.98511534933E+01
 0.10465008349E+02 0.11007594431E+02 0.11447242300E+02 0.11746869160E+02 0.11871102886E+02
 0.11795006283E+02 0.11511150371E+02 0.11032704239E+02 0.10391885201E+02 0.96345625088E+01
 0.88126439173E+01 0.79762061054E+01 0.71672256728E+01 0.64161763513E+01 0.57417655940E+01
 0.51530755481E+01 0.46527924608E+01 0.42402629227E+01 0.39136339741E+01 0.36709464696E+01
 0.35104624758E+01 0.34306907599E+01 0.34305477669E+01 0.35098369968E+01 0.36697777575E+01
 0.39130110597E+01 0.38276469107E+01 0.41057764117E+01 0.44665823037E+01 0.49092480363E+01
 0.54282183249E+01 0.60124851476E+01 0.66465555814E+01 0.73128997678E+01 0.79945653062E+01
 0.86761022353E+01 0.93417816124E+01 0.99719112519E+01 0.10539583306E+02 0.11010334336E+02
 0.11345885306E+02 0.11511150900E+02 0.11482161326E+02 0.11252175290E+02 0.10834079468E+02
 0.10258545984E+02 0.95686715220E+01 0.88126439173E+01 0.80363573117E+01 0.72777905518E+01
 0.65643155255E+01 0.59130439529E+01 0.53332726817E+01 0.48295508109E+01 0.44041108435E+01
 0.40581420921E+01 0.37921081275E+01 0.36056384959E+01 0.34975165617E+01 0.34661022155E+01
 0.35102195631E+01 0.36300901851E+01 0.35885660127E+01 0.37406423147E+01 0.39695144368E+01
 0.42775711101E+01 0.46649398111E+01 0.51279621379E+01 0.56586601563E+01 0.62455186523E+01
 0.68752486161E+01 0.75343694190E+01 0.82091883191E+01 0.88836458909E+01 0.95360436520E+01
 0.10136763860E+02 0.10648933558E+02 0.11032705125E+02 0.11252177268E+02 0.11282810868E+02
 0.11116990997E+02 0.10766091244E+02 0.10258545984E+02 0.96345625088E+01 0.89389621050E+01
 0.82141042218E+01 0.74947550277E+01 0.68060195141E+01 0.61642605129E+01 0.55798024006E+01
 0.50597509576E+01 0.46097035172E+01 0.42341073009E+01 0.39358411877E+01 0.37157922728E+01
 0.35729499298E+01 0.35051875227E+01 0.35105606088E+01 0.35106978933E+01 0.35464764982E+01
 0.36548293375E+01 0.38382075675E+01 0.40990119827E+01 0.44379411029E+01 0.48528268711E+01
 0.53383344941E+01 0.58865873331E+01 0.64882704802E+01 0.71332320593E+01 0.78095855890E+01
 0.85011997913E+01 0.91847325707E+01 0.98280963227E+01 0.10391884518E+02 0.10834081679E+02
 0.11116993930E+02 0.11214424070E+02 0.11116990997E+02 0.10834079468E+02 0.10391885201E+02
 0.98280987919E+01 0.91847353507E+01 0.85012018586E+01 0.78095848122E+01 0.71332269645E+01
 0.64882638263E+01 0.58865837082E+01 0.53383338866E+01 0.48528245024E+01 0.44379348254E+01
 0.40990052668E+01 0.38382043172E+01 0.36548294206E+01 0.35464773541E+01 0.35885693642E+01
 0.35105647197E+01 0.35051878689E+01 0.35729466728E+01 0.37157905930E+01 0.39358447886E+01
 0.42341140782E+01 0.46097099109E+01 0.50597573539E+01 0.55798107625E+01 0.61642690323E+01
 0.68060245329E+01 0.74947558930E+01 0.82141029000E+01 0.89389598317E+01 0.96345602165E+01
 0.10258545799E+02 0.10766094022E+02 0.11116993930E+02 0.11282810868E+02 0.11252175290E+02
 0.11032704239E+02 0.10648934601E+02 0.10136765865E+02 0.95360463755E+01 0.88836484987E+01
 0.82091880086E+01 0.75343650721E+01 0.68752440327E+01 0.62455182788E+01 0.56586627498E+01
 0.51279620451E+01 0.46649342010E+01 0.42775628411E+01 0.39695081890E+01 0.37406409586E+01
 0.38276434793E+01 0.36300927359E+01 0.35102229631E+01 0.34660996739E+01 0.34975081862E+01
 0.36056319038E+01 0.37921093356E+01 0.40581504673E+01 0.44041226704E+01 0.48295640516E+01
 0.53332857030E+01 0.59130534719E+01 0.65643197967E+01 0.72777912960E+01 0.80363566697E+01
 0.88126421453E+01 0.95686693925E+01 0.10258545799E+02 0.10834081679E+02 0.11252177268E+02
 0.11482161326E+02 0.11511150371E+02 0.11345885685E+02 0.11010334939E+02 0.10539583877E+02
 0.99719132011E+01 0.93417845219E+01 0.86761028775E+01 0.79945624050E+01 0.73128967686E+01
 0.66465560220E+01 0.60124879300E+01 0.54282191200E+01 0.49092441549E+01 0.44665745902E+01
 0.41057683676E+01 0.42426252167E+01 0.39130029949E+01 0.36697743551E+01 0.35098342355E+01
 0.34305396830E+01 0.34306786038E+01 0.35104542350E+01 0.36709482588E+01 0.39136453977E+01
 0.42402802125E+01 0.46528115009E+01 0.51530917574E+01 0.57417751109E+01 0.64161796961E+01
 0.71672262650E+01 0.79762057410E+01 0.88126421453E+01 0.96345602165E+01 0.10391884518E+02
 0.11032705125E+02 0.11511150900E+02 0.11795006283E+02 0.11871103676E+02 0.11746870123E+02
 0.11447241629E+02 0.11007593023E+02 0.10465009118E+02 0.98511564427E+01 0.91893583427E+01
 0.84963618036E+01 0.77869023736E+01 0.70779364790E+01 0.63900166348E+01 0.57453142688E+01
 0.51638581309E+01 0.46602939678E+01 0.48523686871E+01 0.43754853550E+01 0.39939130992E+01
 0.37064542825E+01 0.35095819109E+01 0.33996458873E+01 0.33741837332E+01 0.34323228531E+01
 0.35746804972E+01 0.38032247187E+01 0.41212371333E+01 0.45330924548E+01 0.50433836450E+01
 0.56550242274E+01 0.63662900943E+01 0.71672262650E+01 0.80363566697E+01 0.89389598317E+01
 0.98280963227E+01 0.10648933558E+02 0.11345885306E+02 0.11871102886E+02 0.12192345292E+02
 0.12297225510E+02 0.12194069463E+02 0.11914130580E+02 0.11497854116E+02 0.10980100162E+02
 0.10384080003E+02 0.97260918379E+01 0.90209124505E+01 0.82816690594E+01 0.75265788867E+01
 0.67801042021E+01 0.60697171499E+01 0.54207879899E+01 0.56713718527E+01 0.50361307751E+01
 0.44997375342E+01 0.40676936748E+01 0.37390686469E+01 0.35095851417E+01 0.33742781577E+01
 0.33292777993E+01 0.33726936741E+01 0.35049161170E+01 0.37286906588E+01 0.40490361117E+01
 0.44726835150E+01 0.50065545436E+01 0.56550242274E+01 0.64161796961E+01 0.72777912960E+01
 0.82141029000E+01 0.91847325707E+01 0.10136763860E+02 0.11010334336E+02 0.11746869160E+02
 0.12297223923E+02 0.12620575770E+02 0.12706841791E+02 0.12585518620E+02 0.12306751897E+02
 0.11917761337E+02 0.11445760281E+02 0.10895399695E+02 0.10261480096E+02 0.95493945715E+01
 0.87811919860E+01 0.79785723504E+01 0.71705778244E+01 0.63909421506E+01 0.66979908681E+01
 0.59066974629E+01 0.52049443852E+01 0.46109740217E+01 0.41318749741E+01 0.37666329515E+01
 0.35098444827E+01 0.33549885810E+01 0.32967746290E+01 0.33325051483E+01 0.34626842093E+01
 0.36911586205E+01 0.40248431920E+01 0.44726835150E+01 0.50433836450E+01 0.57417751109E+01
 0.65643197967E+01 0.74947558930E+01 0.85011997913E+01 0.95360436520E+01 0.10539583306E+02
 0.11447242300E+02 0.12194068638E+02 0.12706839996E+02 0.12952614519E+02 0.12955702829E+02
 0.12779911573E+02 0.12497806890E+02 0.12159583387E+02 0.11775355144E+02 0.11319394896E+02
 0.10754305601E+02 0.10062780786E+02 0.92698455415E+01 0.84197061131E+01 0.75486840035E+01
 0.79016291699E+01 0.69799017689E+01 0.61180925033E+01 0.53525696845E+01 0.47052001126E+01
 0.41842777323E+01 0.37882497160E+01 0.35102409867E+01 0.33420584654E+01 0.32771328943E+01
 0.33122924210E+01 0.34485474069E+01 0.36911586205E+01 0.40490361117E+01 0.45330924548E+01
 0.51530917574E+01 0.59130534719E+01 0.68060245329E+01 0.78095855890E+01 0.88836458909E+01
 0.99719112519E+01 0.11007594431E+02 0.11914132727E+02 0.12585518325E+02 0.12955701431E+02
 0.13033730796E+02 0.12893748187E+02 0.12642217937E+02 0.12373818455E+02 0.12133244976E+02
 0.11899890226E+02 0.11603365024E+02 0.11163121543E+02 0.10533462546E+02 0.97329494283E+01
 0.88359867007E+01 0.92141147638E+01 0.82171672803E+01 0.72263425600E+01 0.62976177266E+01
 0.54734972419E+01 0.47790154390E+01 0.42230915341E+01 0.38031487719E+01 0.35105900916E+01
 0.33355857105E+01 0.32705660978E+01 0.33122924210E+01 0.34626842093E+01 0.37286906588E+01
 0.41212371333E+01 0.46528115009E+01 0.53332857030E+01 0.61642690323E+01 0.71332320593E+01
 0.82091883191E+01 0.93417816124E+01 0.10465008349E+02 0.11497857256E+02 0.12306755020E+02
 0.12779912034E+02 0.12893747910E+02 0.12718474217E+02 0.12391576087E+02 0.12066786466E+02
 0.11855410951E+02 0.11782926863E+02 0.11780743024E+02 0.11718502936E+02 0.11462995231E+02
 0.10937236128E+02 0.10154661924E+02 0.10518368119E+02 0.95419222005E+01 0.84841793549E+01
 0.74281703256E+01 0.64384959202E+01 0.55632168472E+01 0.48297551664E+01 0.42469502093E+01
 0.38107540342E+01 0.35107279316E+01 0.33355857105E+01 0.32771328943E+01 0.33325051483E+01
 0.35049161170E+01 0.38032247187E+01 0.42402802125E+01 0.48295640516E+01 0.55798107625E+01
 0.64882704802E+01 0.75343694190E+01 0.86761022353E+01 0.98511534933E+01 0.10980100720E+02
 0.11917765531E+02 0.12497810346E+02 0.12642219617E+02 0.12391577803E+02 0.11895217049E+02
 0.11364020674E+02 0.10998213702E+02 0.10914070048E+02 0.11099118896E+02 0.11417370509E+02
 0.11664365461E+02 0.11648176993E+02 0.11261669488E+02 0.11505475283E+02 0.10813483586E+02
 0.98087730583E+01 0.86931907116E+01 0.75778895220E+01 0.65354317320E+01 0.56184034419E+01
 0.48555898784E+01 0.42550001750E+01 0.38107540342E+01 0.35105900916E+01 0.33420584654E+01
 0.32967746290E+01 0.33726936741E+01 0.35746804972E+01 0.39136453977E+01 0.44041226704E+01
 0.50597573539E+01 0.58865873331E+01 0.68752486161E+01 0.79945653062E+01 0.91893565469E+01
 0.10384077706E+02 0.11445762485E+02 0.12159588044E+02 0.12373821907E+02 0.12066790083E+02
 0.11364025133E+02 0.10508781603E+02 0.97900119304E+01 0.94467973836E+01 0.95823160578E+01
 0.10123759673E+02 0.10848695911E+02 0.11468234177E+02 0.11730973989E+02 0.11737395749E+02
 0.11675842441E+02 0.11035090407E+02 0.10005762314E+02 0.88367807099E+01 0.76699717234E+01
 0.65848128720E+01 0.56370263176E+01 0.48555898784E+01 0.42469502093E+01 0.38031487719E+01
 0.35102409867E+01 0.33549885810E+01 0.33292777993E+01 0.34323228531E+01 0.36709482588E+01
 0.40581504673E+01 0.46097099109E+01 0.53383344941E+01 0.62455186523E+01 0.73128997678E+01
 0.84963629739E+01 0.97260894673E+01 0.10895399416E+02 0.11775359567E+02 0.12133249696E+02
 0.11855414348E+02 0.10998219779E+02 0.97900192930E+01 0.85775029131E+01 0.77250553013E+01
 0.74952887101E+01 0.79547981974E+01 0.89470480945E+01 0.10147740352E+02 0.11179585990E+02
 0.10860833931E+02 0.11700636212E+02 0.11784546288E+02 0.11182089878E+02 0.10126343861E+02
 0.89098654201E+01 0.77010432590E+01 0.65848128720E+01 0.56184034419E+01 0.48297551664E+01
 0.42230915341E+01 0.37882497160E+01 0.35098444827E+01 0.33742781577E+01 0.33741837332E+01
 0.35104542350E+01 0.37921093356E+01 0.42341140782E+01 0.48528268711E+01 0.56586601563E+01
 0.66465555814E+01 0.77869046511E+01 0.90209121232E+01 0.10261478388E+02 0.11319398057E+02
 0.11899897084E+02 0.11782931205E+02 0.10914073403E+02 0.94468057493E+01 0.77250647346E+01
 0.62009611461E+01 0.53029113244E+01 0.52944217420E+01 0.61790829160E+01 0.76959393871E+01
 0.94103524840E+01 0.87400975200E+01 0.10576181569E+02 0.11653782413E+02 0.11843757414E+02
 0.11255180098E+02 0.10166913804E+02 0.89098654201E+01 0.76699717234E+01 0.65354317320E+01
 0.55632168472E+01 0.47790154390E+01 0.41842777323E+01 0.37666329515E+01 0.35095851417E+01
 0.33996458873E+01 0.34306786038E+01 0.36056319038E+01 0.39358447886E+01 0.44379411029E+01
 0.51279621379E+01 0.60124851476E+01 0.70779375958E+01 0.82816711908E+01 0.95493931272E+01
 0.10754305652E+02 0.11603372130E+02 0.11780751648E+02 0.11099122389E+02 0.95823193382E+01
 0.74952981991E+01 0.53029208438E+01 0.35552698694E+01 0.27243151631E+01 0.30465119311E+01
 0.44368948165E+01 0.65160713901E+01 0.55503613445E+01 0.82321047154E+01 0.10380664301E+02
 0.11623119907E+02 0.11862407501E+02 0.11255180098E+02 0.10126343861E+02 0.88367807099E+01
 0.75778895220E+01 0.64384959202E+01 0.54734972419E+01 0.47052001126E+01 0.41318749741E+01
 0.37390686469E+01 0.35095819109E+01 0.34305396830E+01 0.34975081862E+01 0.37157905930E+01
 0.40990119827E+01 0.46649398111E+01 0.54282183249E+01 0.63900162038E+01 0.75265826969E+01
 0.87811935367E+01 0.10062778145E+02 0.11163123580E+02 0.11718513123E+02 0.11417379545E+02
 0.10123762078E+02 0.79548011723E+01 0.52944300834E+01 0.27243218877E+01 0.87478267813E+00
 0.23314721962E+00 0.97911789319E+00 0.29188284117E+01 0.17971633999E+01 0.49181429668E+01
 0.79586608250E+01 0.10311172293E+02 0.11623119907E+02 0.11843757414E+02 0.11182089878E+02
 0.10005762314E+02 0.86931907116E+01 0.74281703256E+01 0.62976177266E+01 0.53525696845E+01
 0.46109740217E+01 0.40676936748E+01 0.37064542825E+01 0.35098342355E+01 0.34660996739E+01
 0.35729466728E+01 0.38382075675E+01 0.42775711101E+01 0.49092480363E+01 0.57453136089E+01
 0.67801073694E+01 0.79785780567E+01 0.92698451131E+01 0.10533458323E+02 0.11462998698E+02
 0.11664376782E+02 0.10848703777E+02 0.89470493333E+01 0.61790848343E+01 0.30465160045E+01
 0.23314815610E+00 -.15777479670E+01 -.19162933018E+01 -.68661592995E+00 -.17670360851E+01
 0.12016081843E+01 0.46982363707E+01 0.79586608250E+01 0.10380664301E+02 0.11653782413E+02
 0.11784546288E+02 0.11035090407E+02 0.98087730583E+01 0.84841793549E+01 0.72263425600E+01
 0.61180925033E+01 0.52049443852E+01 0.44997375342E+01 0.39939130992E+01 0.36697743551E+01
 0.35102229631E+01 0.35051878689E+01 0.36548293375E+01 0.39695144368E+01 0.44665823037E+01
 0.51638595405E+01 0.60697173763E+01 0.71705838351E+01 0.84197112569E+01 0.97329455176E+01
 0.10937230424E+02 0.11648180962E+02 0.11468244087E+02 0.10147745318E+02 0.76959391141E+01
 0.44368942658E+01 0.97911473210E+00 -.19163000813E+01 -.35473266346E+01 -.34948140447E+01
 -.43301465928E+01 -.21412190661E+01 0.12016081843E+01 0.49181429668E+01 0.82321047154E+01
 0.10576181569E+02 0.11700636212E+02 0.11675842441E+02 0.10813483586E+02 0.95419222005E+01
 0.82171672803E+01 0.69799017689E+01 0.59066974629E+01 0.50361307751E+01 0.43754853550E+01
 0.39130029949E+01 0.36300927359E+01 0.35105647197E+01 0.35464764982E+01 0.37406423147E+01
 0.41057764117E+01 0.46603000786E+01 0.54207874788E+01 0.63909433483E+01 0.75486903880E+01
 0.88359882654E+01 0.10154654084E+02 0.11261663219E+02 0.11730977358E+02 0.11179591678E+02
 0.94103527321E+01 0.65160688084E+01 0.29188239504E+01 -.68662760539E+00 -.34948282452E+01
 -.48223397993E+01 -.43301629809E+01 -.36348078221E+01 -.13550223490E+01 0.19463613702E+01
 0.55055300427E+01 0.85890024738E+01 0.10681886737E+02 0.11581481413E+02 0.11390897829E+02
 0.10436805959E+02 0.91438719577E+01 0.78307612854E+01 0.66196771299E+01 0.55810434285E+01
 0.47476023702E+01 0.41222395420E+01 0.36907162052E+01 0.34337166742E+01 0.33355564037E+01
 0.33894232792E+01 0.35993856399E+01 0.39792052642E+01 0.45478968308E+01 0.53218796718E+01
 0.63036161165E+01 0.74685887227E+01 0.87556155355E+01 0.10061681189E+02 0.11124828870E+02
 0.11521999831E+02 0.10892142505E+02 0.90718182128E+01 0.61902928399E+01 0.26957223434E+01
 -.71502327845E+00 -.32659466011E+01 -.36348221753E+01 -.43301726868E+01 -.32659479542E+01
 -.71502061481E+00 0.26957201139E+01 0.61902860955E+01 0.90718205723E+01 0.10892163252E+02
 0.11522030449E+02 0.11124855117E+02 0.10061703030E+02 0.87556397053E+01 0.74686110416E+01
 0.63036276421E+01 0.53218848764E+01 0.45479069825E+01 0.39792178458E+01 0.35993888600E+01
 0.33894176775E+01 0.33355531726E+01 0.34337164519E+01 0.36907088276E+01 0.41222243087E+01
 0.47475892485E+01 0.55810329315E+01 0.66196581264E+01 0.78307314988E+01 0.91438424505E+01
 0.10436781855E+02 0.11390872017E+02 0.11581452394E+02 0.10681866010E+02 0.85889978277E+01
 0.55055336733E+01 0.19463595283E+01 -.13550334375E+01 -.12847566714E+01 -.31908412534E+01
 -.34948450032E+01 -.21253675099E+01 0.56211612255E+00 0.39073418816E+01 0.71577037061E+01
 0.96829768266E+01 0.11120048355E+02 0.11418490809E+02 0.10796634349E+02 0.96370312243E+01
 0.83353740533E+01 0.70862587610E+01 0.59779941895E+01 0.50610450537E+01 0.43514921935E+01
 0.38420529267E+01 0.35148967582E+01 0.33520199121E+01 0.33420335841E+01 0.34836725751E+01
 0.37861978003E+01 0.42666868639E+01 0.49440874230E+01 0.58298086392E+01 0.69154137382E+01
 0.81607282686E+01 0.94881164424E+01 0.10753415383E+02 0.11602304804E+02 0.11626851073E+02
 0.10543999640E+02 0.83113244379E+01 0.51937220801E+01 0.17492613976E+01 0.21290710288E+01
 -.51172961478E+00 -.19832539025E+01 -.19163247222E+01 -.33958793393E+00 0.23316974155E+01
 0.54376515082E+01 0.82825342273E+01 0.10327058787E+02 0.11304516207E+02 0.11242429361E+02
 0.10403805154E+02 0.91768142877E+01 0.78955885338E+01 0.66959177036E+01 0.56533638336E+01
 0.48068679247E+01 0.41644324401E+01 0.37148425531E+01 0.34397312431E+01 0.33227008436E+01
 0.33549801306E+01 0.35379996055E+01 0.38830564822E+01 0.44080070920E+01 0.51307868879E+01
 0.60595606535E+01 0.71805467572E+01 0.84473410252E+01 0.97773456487E+01 0.11006274389E+02
 0.11767653756E+02 0.11682816237E+02 0.10517408131E+02 0.82852393243E+01 0.52975727474E+01
 0.58069018694E+01 0.30424971398E+01 0.87739927525E+00 -.14500611261E+00 0.23311790132E+00
 0.18960914074E+01 0.43970094188E+01 0.71096654524E+01 0.94231637309E+01 0.10905454932E+02
 0.11389714472E+02 0.10974304168E+02 0.99526745121E+01 0.86966301084E+01 0.74491493261E+01
 0.63096148629E+01 0.53397408408E+01 0.45669766871E+01 0.39921537979E+01 0.36012150831E+01
 0.33761047933E+01 0.33024947900E+01 0.33742883328E+01 0.35953216070E+01 0.39784121528E+01
 0.45415909784E+01 0.53012431921E+01 0.62620912902E+01 0.74055339137E+01 0.86804422082E+01
 0.10001440998E+02 0.11191740273E+02 0.11892672928E+02 0.11763168081E+02 0.10618552669E+02
 0.85202514250E+01 0.89880150484E+01 0.66606315375E+01 0.43846377814E+01 0.27286595188E+01
 0.21250265631E+01 0.27242885310E+01 0.43444542672E+01 0.65371197162E+01 0.87388514350E+01
 0.10443295057E+02 0.11332717081E+02 0.11335870316E+02 0.10609456816E+02 0.94603360185E+01
 0.82094223607E+01 0.70089948516E+01 0.59387520750E+01 0.50461520976E+01 0.43479930611E+01
 0.38392539211E+01 0.35042063271E+01 0.33258440416E+01 0.32921833442E+01 0.33996698511E+01
 0.36541350515E+01 0.40693623004E+01 0.46629893942E+01 0.54494324375E+01 0.64299951186E+01
 0.75820438960E+01 0.88513887602E+01 0.10152090219E+02 0.11306292042E+02 0.11977826042E+02
 0.11867996070E+02 0.10838993261E+02 0.11146864762E+02 0.96267237818E+01 0.77555030371E+01
 0.60033460089E+01 0.48416250630E+01 0.45892068766E+01 0.53028873251E+01 0.67598736832E+01
 0.85386031961E+01 0.10160175968E+02 0.11232699381E+02 0.11550718006E+02 0.11127451805E+02
 0.10161378591E+02 0.89524152447E+01 0.77287123862E+01 0.65877840604E+01 0.55937225008E+01
 0.47803732337E+01 0.41553782834E+01 0.37094096615E+01 0.34261805741E+01 0.32902953701E+01
 0.32921892025E+01 0.34305701318E+01 0.37127855332E+01 0.41530318123E+01 0.47680423454E+01
 0.55699766136E+01 0.65569451427E+01 0.77032601134E+01 0.89533876266E+01 0.10223185445E+02
 0.11345665167E+02 0.12017406039E+02 0.11983458753E+02 0.12084153810E+02 0.11491899892E+02
 0.10350118257E+02 0.89604802111E+01 0.77201363437E+01 0.69970159066E+01 0.70041317631E+01
 0.77250353608E+01 0.89226376617E+01 0.10225271690E+02 0.11251151922E+02 0.11723044076E+02
 0.11537831881E+02 0.10776859360E+02 0.96613647630E+01 0.84481358804E+01 0.72686071392E+01
 0.61974909188E+01 0.52836287257E+01 0.45488041079E+01 0.39934079440E+01 0.36053764738E+01
 0.33688083829E+01 0.32702698331E+01 0.33025122101E+01 0.34661310111E+01 0.37694834178E+01
 0.42266497465E+01 0.48530164282E+01 0.56583388571E+01 0.66379368263E+01 0.77641729901E+01
 0.89818651536E+01 0.10210846613E+02 0.11304965111E+02 0.12000355959E+02 0.11912577733E+02
 0.12137630657E+02 0.11813313767E+02 0.11060066056E+02 0.10135206074E+02 0.93549946649E+01
 0.89869938845E+01 0.91539377969E+01 0.97899996341E+01 0.10667542824E+02 0.11480262934E+02
 0.11946672422E+02 0.11895999331E+02 0.11311480929E+02 0.10322851986E+02 0.91510014827E+01
 0.79637697143E+01 0.68432171461E+01 0.58489985007E+01 0.50161274893E+01 0.43564858688E+01
 0.38652556780E+01 0.35290589776E+01 0.33330958642E+01 0.32660394418E+01 0.33227278421E+01
 0.35052175769E+01 0.38223700484E+01 0.42876531572E+01 0.49147501225E+01 0.57110101483E+01
 0.66695184956E+01 0.77618616817E+01 0.89348218154E+01 0.10113853808E+02 0.11179699059E+02
 0.10967490110E+02 0.11740319987E+02 0.12110410824E+02 0.12049575404E+02 0.11661155170E+02
 0.11149984756E+02 0.10751232134E+02 0.10642906399E+02 0.10877771790E+02 0.11364019257E+02