   2   2   0   0
  0.1529437E+02  0.3691622E-09  0.3691622E-09  0.3691622E-09  0.5000000E-15
  1.000000000000000E-004
  CAR 
 unknown system                          
     21.98127625     -6.24241949  301      9.23581253      1.00000000
     -6.242  0.0000E+00  0.0000E+00
     -6.148  0.0000E+00  0.0000E+00
     -6.054  0.0000E+00  0.0000E+00
     -5.960  0.0000E+00  0.0000E+00
     -5.866  0.0000E+00  0.0000E+00
     -5.772  0.0000E+00  0.0000E+00
     -5.678  0.0000E+00  0.0000E+00
     -5.584  0.0000E+00  0.0000E+00
     -5.490  0.0000E+00  0.0000E+00
     -5.396  0.1475E-16  0.1388E-17
     -5.302  0.3044E-14  0.2877E-15
     -5.208  0.3877E-12  0.3676E-13
     -5.113  0.3198E-10  0.3045E-11
     -5.019  0.1708E-08  0.1637E-09
     -4.925  0.5910E-07  0.5724E-08
     -4.831  0.1327E-05  0.1306E-06
     -4.737  0.1935E-04  0.1951E-05
     -4.643  0.1834E-03  0.1921E-04
     -4.549  0.1132E-02  0.1257E-03
     -4.455  0.4552E-02  0.5539E-03
     -4.361  0.1193E-01  0.1677E-02
     -4.267  0.2042E-01  0.3597E-02
     -4.173  0.2280E-01  0.5742E-02
     -4.079  0.1662E-01  0.7305E-02
     -3.985  0.7906E-02  0.8049E-02
     -3.890  0.2454E-02  0.8280E-02
     -3.796  0.4975E-03  0.8327E-02
     -3.702  0.8091E-04  0.8334E-02
     -3.608  0.1409E-03  0.8348E-02
     -3.514  0.7685E-03  0.8420E-02
     -3.420  0.2841E-02  0.8687E-02
     -3.326  0.6859E-02  0.9332E-02
     -3.232  0.1087E-01  0.1035E-01
     -3.138  0.1176E-01  0.1146E-01
     -3.044  0.1111E-01  0.1251E-01
     -2.950  0.1626E-01  0.1404E-01
     -2.856  0.3126E-01  0.1698E-01
     -2.761  0.4833E-01  0.2152E-01
     -2.667  0.5669E-01  0.2686E-01
     -2.573  0.5786E-01  0.3230E-01
     -2.479  0.5604E-01  0.3757E-01
     -2.385  0.4591E-01  0.4189E-01
     -2.291  0.2739E-01  0.4447E-01
     -2.197  0.1119E-01  0.4552E-01
     -2.103  0.4085E-02  0.4590E-01
     -2.009  0.6014E-02  0.4647E-01
     -1.915  0.1717E-01  0.4809E-01
     -1.821  0.3473E-01  0.5135E-01
     -1.727  0.4619E-01  0.5570E-01
     -1.633  0.4118E-01  0.5957E-01
     -1.538  0.2799E-01  0.6221E-01
     -1.444  0.2184E-01  0.6426E-01
     -1.350  0.2349E-01  0.6647E-01
     -1.256  0.2251E-01  0.6859E-01
     -1.162  0.1499E-01  0.7000E-01
     -1.068  0.6578E-02  0.7062E-01
     -0.974  0.1886E-02  0.7080E-01
     -0.880  0.3560E-03  0.7083E-01
     -0.786  0.9334E-04  0.7084E-01
     -0.692  0.4601E-03  0.7088E-01
     -0.598  0.2690E-02  0.7113E-01
     -0.504  0.1032E-01  0.7211E-01
     -0.410  0.2585E-01  0.7454E-01
     -0.315  0.4236E-01  0.7852E-01
     -0.221  0.4624E-01  0.8287E-01
     -0.127  0.3726E-01  0.8638E-01
     -0.033  0.3268E-01  0.8945E-01
      0.061  0.4316E-01  0.9351E-01
      0.155  0.6139E-01  0.9929E-01
      0.249  0.8015E-01  0.1068E+00
      0.343  0.9767E-01  0.1160E+00
      0.437  0.1001E+00  0.1254E+00
      0.531  0.7612E-01  0.1326E+00
      0.625  0.4338E-01  0.1367E+00
      0.719  0.2617E-01  0.1391E+00
      0.814  0.2461E-01  0.1415E+00
      0.908  0.2518E-01  0.1438E+00
      1.002  0.2494E-01  0.1462E+00
      1.096  0.3165E-01  0.1492E+00
      1.190  0.4353E-01  0.1532E+00
      1.284  0.4566E-01  0.1575E+00
      1.378  0.3234E-01  0.1606E+00
      1.472  0.1565E-01  0.1621E+00
      1.566  0.7713E-02  0.1628E+00
      1.660  0.1028E-01  0.1637E+00
      1.754  0.1821E-01  0.1655E+00
      1.848  0.2292E-01  0.1676E+00
      1.942  0.1915E-01  0.1694E+00
      2.037  0.1124E-01  0.1705E+00
      2.131  0.8095E-02  0.1712E+00
      2.225  0.1560E-01  0.1727E+00
      2.319  0.3292E-01  0.1758E+00
      2.413  0.4949E-01  0.1805E+00
      2.507  0.5373E-01  0.1855E+00
      2.601  0.4732E-01  0.1900E+00
      2.695  0.4065E-01  0.1938E+00
      2.789  0.4124E-01  0.1977E+00
      2.883  0.4940E-01  0.2023E+00
      2.977  0.5791E-01  0.2078E+00
      3.071  0.6601E-01  0.2140E+00
      3.165  0.8180E-01  0.2217E+00
      3.260  0.9607E-01  0.2307E+00
      3.354  0.8742E-01  0.2389E+00
      3.448  0.6126E-01  0.2447E+00
      3.542  0.4338E-01  0.2488E+00
      3.636  0.4115E-01  0.2527E+00
      3.730  0.4215E-01  0.2566E+00
      3.824  0.3875E-01  0.2603E+00
      3.918  0.3708E-01  0.2638E+00
      4.012  0.4324E-01  0.2678E+00
      4.106  0.4833E-01  0.2724E+00
      4.200  0.3987E-01  0.2761E+00
      4.294  0.2217E-01  0.2782E+00
      4.389  0.8450E-02  0.2790E+00
      4.483  0.4060E-02  0.2794E+00
      4.577  0.8335E-02  0.2802E+00
      4.671  0.2118E-01  0.2822E+00
      4.765  0.4049E-01  0.2860E+00
      4.859  0.5829E-01  0.2914E+00
      4.953  0.6514E-01  0.2976E+00
      5.047  0.6165E-01  0.3034E+00
      5.141  0.6008E-01  0.3090E+00
      5.235  0.6642E-01  0.3153E+00
      5.329  0.7189E-01  0.3220E+00
      5.423  0.7013E-01  0.3286E+00
      5.517  0.6482E-01  0.3347E+00
      5.612  0.5536E-01  0.3399E+00
      5.706  0.3858E-01  0.3436E+00
      5.800  0.2386E-01  0.3458E+00
      5.894  0.2698E-01  0.3484E+00
      5.988  0.5334E-01  0.3534E+00
      6.082  0.9036E-01  0.3619E+00
      6.176  0.1179E+00  0.3730E+00
      6.270  0.1286E+00  0.3851E+00
      6.364  0.1218E+00  0.3965E+00
      6.458  0.9296E-01  0.4053E+00
      6.552  0.5154E-01  0.4101E+00
      6.646  0.1950E-01  0.4120E+00
      6.740  0.4892E-02  0.4124E+00
      6.835  0.8064E-03  0.4125E+00
      6.929  0.1127E-03  0.4125E+00
      7.023  0.2896E-03  0.4125E+00
      7.117  0.2021E-02  0.4127E+00
      7.211  0.9524E-02  0.4136E+00
      7.305  0.2978E-01  0.4164E+00
      7.399  0.6199E-01  0.4222E+00
      7.493  0.8636E-01  0.4304E+00
      7.587  0.8115E-01  0.4380E+00
      7.681  0.5242E-01  0.4429E+00
      7.775  0.2616E-01  0.4454E+00
      7.869  0.1940E-01  0.4472E+00
      7.964  0.3223E-01  0.4503E+00
      8.058  0.5342E-01  0.4553E+00
      8.152  0.7005E-01  0.4619E+00
      8.246  0.7877E-01  0.4693E+00
      8.340  0.8205E-01  0.4770E+00
      8.434  0.7902E-01  0.4844E+00
      8.528  0.6954E-01  0.4910E+00
      8.622  0.6410E-01  0.4970E+00
      8.716  0.7550E-01  0.5041E+00
      8.810  0.9250E-01  0.5128E+00
      8.904  0.8689E-01  0.5210E+00
      8.998  0.5651E-01  0.5263E+00
      9.092  0.2877E-01  0.5290E+00
      9.187  0.2521E-01  0.5314E+00
      9.281  0.4699E-01  0.5358E+00
      9.375  0.7956E-01  0.5433E+00
      9.469  0.1017E+00  0.5529E+00
      9.563  0.1033E+00  0.5626E+00
      9.657  0.9154E-01  0.5712E+00
      9.751  0.7499E-01  0.5782E+00
      9.845  0.5361E-01  0.5833E+00
      9.939  0.2962E-01  0.5861E+00
     10.033  0.1156E-01  0.5872E+00
     10.127  0.3214E-02  0.5875E+00
     10.221  0.1821E-02  0.5876E+00
     10.315  0.6079E-02  0.5882E+00
     10.410  0.1833E-01  0.5899E+00
     10.504  0.3703E-01  0.5934E+00
     10.598  0.5188E-01  0.5983E+00
     10.692  0.5667E-01  0.6036E+00
     10.786  0.5864E-01  0.6091E+00
     10.880  0.6451E-01  0.6152E+00
     10.974  0.7911E-01  0.6227E+00
     11.068  0.1127E+00  0.6333E+00
     11.162  0.1557E+00  0.6479E+00
     11.256  0.1693E+00  0.6638E+00
     11.350  0.1347E+00  0.6765E+00
     11.444  0.7966E-01  0.6840E+00
     11.539  0.4353E-01  0.6881E+00
     11.633  0.3880E-01  0.6917E+00
     11.727  0.4914E-01  0.6964E+00
     11.821  0.5246E-01  0.7013E+00
     11.915  0.4469E-01  0.7055E+00
     12.009  0.3796E-01  0.7091E+00
     12.103  0.4244E-01  0.7131E+00
     12.197  0.5766E-01  0.7185E+00
     12.291  0.7224E-01  0.7253E+00
     12.385  0.7320E-01  0.7322E+00
     12.479  0.6188E-01  0.7380E+00
     12.573  0.5387E-01  0.7431E+00
     12.667  0.5877E-01  0.7486E+00
     12.762  0.6612E-01  0.7548E+00
     12.856  0.5970E-01  0.7604E+00
     12.950  0.3954E-01  0.7642E+00
     13.044  0.1876E-01  0.7659E+00
     13.138  0.6274E-02  0.7665E+00
     13.232  0.1455E-02  0.7666E+00
     13.326  0.2910E-03  0.7667E+00
     13.420  0.6156E-03  0.7667E+00
     13.514  0.3676E-02  0.7671E+00
     13.608  0.1534E-01  0.7685E+00
     13.702  0.4363E-01  0.7726E+00
     13.796  0.8598E-01  0.7807E+00
     13.890  0.1196E+00  0.7920E+00
     13.985  0.1200E+00  0.8032E+00
     14.079  0.9276E-01  0.8120E+00
     14.173  0.7252E-01  0.8188E+00
     14.267  0.8560E-01  0.8269E+00
     14.361  0.1188E+00  0.8380E+00
     14.455  0.1338E+00  0.8506E+00
     14.549  0.1159E+00  0.8615E+00
     14.643  0.9312E-01  0.8703E+00
     14.737  0.9196E-01  0.8789E+00
     14.831  0.1023E+00  0.8886E+00
     14.925  0.1025E+00  0.8982E+00
     15.019  0.9012E-01  0.9067E+00
     15.114  0.7322E-01  0.9136E+00
     15.208  0.5723E-01  0.9189E+00
     15.302  0.4945E-01  0.9236E+00
     15.396  0.5049E-01  0.9283E+00
     15.490  0.4704E-01  0.9328E+00
     15.584  0.3278E-01  0.9359E+00
     15.678  0.1937E-01  0.9377E+00
     15.772  0.1725E-01  0.9393E+00
     15.866  0.2201E-01  0.9414E+00
     15.960  0.2252E-01  0.9435E+00
     16.054  0.1550E-01  0.9449E+00
     16.148  0.7235E-02  0.9456E+00
     16.242  0.3657E-02  0.9460E+00
     16.337  0.6726E-02  0.9466E+00
     16.431  0.1731E-01  0.9482E+00
     16.525  0.3418E-01  0.9514E+00
     16.619  0.5134E-01  0.9563E+00
     16.713  0.5897E-01  0.9618E+00
     16.807  0.5024E-01  0.9666E+00
     16.901  0.3119E-01  0.9695E+00
     16.995  0.1636E-01  0.9710E+00
     17.089  0.1197E-01  0.9722E+00
     17.183  0.1260E-01  0.9733E+00
     17.277  0.1344E-01  0.9746E+00
     17.371  0.2025E-01  0.9765E+00
     17.465  0.4411E-01  0.9807E+00
     17.560  0.8255E-01  0.9884E+00
     17.654  0.1095E+00  0.9987E+00
     17.748  0.1010E+00  0.1008E+01
     17.842  0.6905E-01  0.1015E+01
     17.936  0.4459E-01  0.1019E+01
     18.030  0.3903E-01  0.1023E+01
     18.124  0.4464E-01  0.1027E+01
     18.218  0.5562E-01  0.1032E+01
     18.312  0.6857E-01  0.1038E+01
     18.406  0.7441E-01  0.1045E+01
     18.500  0.6457E-01  0.1052E+01
     18.594  0.4248E-01  0.1056E+01
     18.689  0.2053E-01  0.1057E+01
     18.783  0.7093E-02  0.1058E+01
     18.877  0.1706E-02  0.1058E+01
     18.971  0.2793E-03  0.1058E+01
     19.065  0.3057E-04  0.1058E+01
     19.159  0.2211E-05  0.1058E+01
     19.253  0.1161E-06  0.1058E+01
     19.347  0.3153E-06  0.1058E+01
     19.441  0.5603E-05  0.1058E+01
     19.535  0.6538E-04  0.1058E+01
     19.629  0.4963E-03  0.1058E+01
     19.723  0.2453E-02  0.1059E+01
     19.817  0.7906E-02  0.1059E+01
     19.912  0.1662E-01  0.1061E+01
     20.006  0.2280E-01  0.1063E+01
     20.100  0.2042E-01  0.1065E+01
     20.194  0.1193E-01  0.1066E+01
     20.288  0.4552E-02  0.1067E+01
     20.382  0.1132E-02  0.1067E+01
     20.476  0.1834E-03  0.1067E+01
     20.570  0.1935E-04  0.1067E+01
     20.664  0.1327E-05  0.1067E+01
     20.758  0.5910E-07  0.1067E+01
     20.852  0.1708E-08  0.1067E+01
     20.946  0.3198E-10  0.1067E+01
     21.040  0.3877E-12  0.1067E+01
     21.135  0.3039E-14  0.1067E+01
     21.229  0.1967E-16  0.1067E+01
     21.323  0.0000E+00  0.1067E+01
     21.417  0.0000E+00  0.1067E+01
     21.511  0.0000E+00  0.1067E+01
     21.605  0.0000E+00  0.1067E+01
     21.699  0.0000E+00  0.1067E+01
     21.793  0.0000E+00  0.1067E+01
     21.887  0.0000E+00  0.1067E+01
     21.981  0.0000E+00  0.1067E+01
