   2   2   0   0
  0.1529437E+02  0.3691622E-09  0.3691622E-09  0.3691622E-09  0.5000000E-15
  1.000000000000000E-004
  CAR 
 unknown system                          
     22.31750477     -6.32062097  301      8.49141683      1.00000000
     -6.321  0.0000E+00  0.0000E+00
     -6.225  0.0000E+00  0.0000E+00
     -6.130  0.0000E+00  0.0000E+00
     -6.034  0.0000E+00  0.0000E+00
     -5.939  0.0000E+00  0.0000E+00
     -5.843  0.0000E+00  0.0000E+00
     -5.748  0.0000E+00  0.0000E+00
     -5.652  0.0000E+00  0.0000E+00
     -5.557  0.0000E+00  0.0000E+00
     -5.461  0.2908E-16  0.2776E-17
     -5.366  0.6280E-14  0.6023E-15
     -5.271  0.8031E-12  0.7726E-13
     -5.175  0.6561E-10  0.6340E-11
     -5.080  0.3427E-08  0.3335E-09
     -4.984  0.1146E-06  0.1127E-07
     -4.889  0.2454E-05  0.2456E-06
     -4.793  0.3373E-04  0.3465E-05
     -4.698  0.2977E-03  0.3189E-04
     -4.602  0.1690E-02  0.1932E-03
     -4.507  0.6175E-02  0.7827E-03
     -4.411  0.1454E-01  0.2170E-02
     -4.316  0.2206E-01  0.4277E-02
     -4.220  0.2161E-01  0.6339E-02
     -4.125  0.1376E-01  0.7653E-02
     -4.030  0.6303E-02  0.8254E-02
     -3.934  0.4308E-02  0.8666E-02
     -3.839  0.7180E-02  0.9351E-02
     -3.743  0.1089E-01  0.1039E-01
     -3.648  0.1098E-01  0.1144E-01
     -3.552  0.7149E-02  0.1212E-01
     -3.457  0.3010E-02  0.1241E-01
     -3.361  0.9155E-03  0.1250E-01
     -3.266  0.9831E-03  0.1259E-01
     -3.170  0.4439E-02  0.1301E-01
     -3.075  0.1506E-01  0.1445E-01
     -2.980  0.3366E-01  0.1766E-01
     -2.884  0.5148E-01  0.2258E-01
     -2.789  0.5960E-01  0.2827E-01
     -2.693  0.6037E-01  0.3403E-01
     -2.598  0.5515E-01  0.3930E-01
     -2.502  0.4008E-01  0.4312E-01
     -2.407  0.2176E-01  0.4520E-01
     -2.311  0.1386E-01  0.4652E-01
     -2.216  0.2201E-01  0.4862E-01
     -2.120  0.3851E-01  0.5230E-01
     -2.025  0.4609E-01  0.5670E-01
     -1.929  0.3575E-01  0.6011E-01
     -1.834  0.1788E-01  0.6182E-01
     -1.739  0.5764E-02  0.6237E-01
     -1.643  0.1197E-02  0.6248E-01
     -1.548  0.1636E-03  0.6250E-01
     -1.452  0.6259E-04  0.6250E-01
     -1.357  0.4033E-03  0.6254E-01
     -1.261  0.2132E-02  0.6275E-01
     -1.166  0.7271E-02  0.6344E-01
     -1.070  0.1598E-01  0.6497E-01
     -0.975  0.2269E-01  0.6713E-01
     -0.879  0.2123E-01  0.6916E-01
     -0.784  0.1574E-01  0.7066E-01
     -0.688  0.1978E-01  0.7255E-01
     -0.593  0.4323E-01  0.7668E-01
     -0.498  0.7656E-01  0.8399E-01
     -0.402  0.9064E-01  0.9264E-01
     -0.307  0.7033E-01  0.9935E-01
     -0.211  0.3572E-01  0.1028E+00
     -0.116  0.1226E-01  0.1039E+00
     -0.020  0.5318E-02  0.1044E+00
      0.075  0.1173E-01  0.1056E+00
      0.171  0.3157E-01  0.1086E+00
      0.266  0.6154E-01  0.1144E+00
      0.362  0.9075E-01  0.1231E+00
      0.457  0.1113E+00  0.1337E+00
      0.553  0.1214E+00  0.1453E+00
      0.648  0.1144E+00  0.1562E+00
      0.743  0.8497E-01  0.1644E+00
      0.839  0.4577E-01  0.1687E+00
      0.934  0.1701E-01  0.1704E+00
      1.030  0.4248E-02  0.1708E+00
      1.125  0.7022E-03  0.1708E+00
      1.221  0.7738E-04  0.1708E+00
      1.316  0.2686E-04  0.1708E+00
      1.412  0.2281E-03  0.1709E+00
      1.507  0.1580E-02  0.1710E+00
      1.603  0.7255E-02  0.1717E+00
      1.698  0.2241E-01  0.1738E+00
      1.794  0.4738E-01  0.1784E+00
      1.889  0.6960E-01  0.1850E+00
      1.984  0.7140E-01  0.1918E+00
      2.080  0.5088E-01  0.1967E+00
      2.175  0.2512E-01  0.1991E+00
      2.271  0.9832E-02  0.2000E+00
      2.366  0.6911E-02  0.2007E+00
      2.462  0.1047E-01  0.2017E+00
      2.557  0.1481E-01  0.2031E+00
      2.653  0.1879E-01  0.2049E+00
      2.748  0.2382E-01  0.2072E+00
      2.844  0.2815E-01  0.2098E+00
      2.939  0.3181E-01  0.2129E+00
      3.035  0.4063E-01  0.2168E+00
      3.130  0.5302E-01  0.2218E+00
      3.225  0.5869E-01  0.2274E+00
      3.321  0.5759E-01  0.2329E+00
      3.416  0.5956E-01  0.2386E+00
      3.512  0.6694E-01  0.2450E+00
      3.607  0.7286E-01  0.2519E+00
      3.703  0.7170E-01  0.2588E+00
      3.798  0.6072E-01  0.2646E+00
      3.894  0.4131E-01  0.2685E+00
      3.989  0.2541E-01  0.2710E+00
      4.085  0.2582E-01  0.2734E+00
      4.180  0.3900E-01  0.2771E+00
      4.275  0.4629E-01  0.2816E+00
      4.371  0.3649E-01  0.2851E+00
      4.466  0.1984E-01  0.2869E+00
      4.562  0.1270E-01  0.2882E+00
      4.657  0.2165E-01  0.2902E+00
      4.753  0.4228E-01  0.2943E+00
      4.848  0.6363E-01  0.3003E+00
      4.944  0.7880E-01  0.3079E+00
      5.039  0.8486E-01  0.3160E+00
      5.135  0.7566E-01  0.3232E+00
      5.230  0.5762E-01  0.3287E+00
      5.326  0.5287E-01  0.3337E+00
      5.421  0.6823E-01  0.3402E+00
      5.516  0.8334E-01  0.3482E+00
      5.612  0.7851E-01  0.3557E+00
      5.707  0.5794E-01  0.3612E+00
      5.803  0.3790E-01  0.3648E+00
      5.898  0.3237E-01  0.3679E+00
      5.994  0.5013E-01  0.3727E+00
      6.089  0.8067E-01  0.3804E+00
      6.185  0.9326E-01  0.3893E+00
      6.280  0.7631E-01  0.3966E+00
      6.376  0.5564E-01  0.4019E+00
      6.471  0.5197E-01  0.4069E+00
      6.567  0.5613E-01  0.4122E+00
      6.662  0.5969E-01  0.4179E+00
      6.757  0.6981E-01  0.4246E+00
      6.853  0.8324E-01  0.4325E+00
      6.948  0.8167E-01  0.4403E+00
      7.044  0.5974E-01  0.4460E+00
      7.139  0.3616E-01  0.4495E+00
      7.235  0.3684E-01  0.4530E+00
      7.330  0.7458E-01  0.4601E+00
      7.426  0.1307E+00  0.4726E+00
      7.521  0.1563E+00  0.4875E+00
      7.617  0.1242E+00  0.4994E+00
      7.712  0.6528E-01  0.5056E+00
      7.808  0.2259E-01  0.5078E+00
      7.903  0.5249E-02  0.5083E+00
      7.998  0.1834E-02  0.5084E+00
      8.094  0.6018E-02  0.5090E+00
      8.189  0.2160E-01  0.5111E+00
      8.285  0.5179E-01  0.5160E+00
      8.380  0.8228E-01  0.5239E+00
      8.476  0.8676E-01  0.5322E+00
      8.571  0.6075E-01  0.5380E+00
      8.667  0.2820E-01  0.5407E+00
      8.762  0.8648E-02  0.5415E+00
      8.858  0.1745E-02  0.5416E+00
      8.953  0.2306E-03  0.5417E+00
      9.049  0.1995E-04  0.5417E+00
      9.144  0.3481E-05  0.5417E+00
      9.239  0.3742E-04  0.5417E+00
      9.335  0.3792E-03  0.5417E+00
      9.430  0.2477E-02  0.5419E+00
      9.526  0.1044E-01  0.5429E+00
      9.621  0.2845E-01  0.5457E+00
      9.717  0.5034E-01  0.5505E+00
      9.812  0.5943E-01  0.5561E+00
      9.908  0.5425E-01  0.5613E+00
     10.003  0.5935E-01  0.5670E+00
     10.099  0.8909E-01  0.5755E+00
     10.194  0.1198E+00  0.5869E+00
     10.289  0.1224E+00  0.5986E+00
     10.385  0.1005E+00  0.6082E+00
     10.480  0.7497E-01  0.6154E+00
     10.576  0.6186E-01  0.6213E+00
     10.671  0.6868E-01  0.6278E+00
     10.767  0.8438E-01  0.6359E+00
     10.862  0.8495E-01  0.6440E+00
     10.958  0.6210E-01  0.6499E+00
     11.053  0.3278E-01  0.6530E+00
     11.149  0.1675E-01  0.6546E+00
     11.244  0.1875E-01  0.6564E+00
     11.340  0.3235E-01  0.6595E+00
     11.435  0.4900E-01  0.6642E+00
     11.530  0.6182E-01  0.6701E+00
     11.626  0.6756E-01  0.6765E+00
     11.721  0.7273E-01  0.6835E+00
     11.817  0.8838E-01  0.6919E+00
     11.912  0.1120E+00  0.7026E+00
     12.008  0.1251E+00  0.7146E+00
     12.103  0.1147E+00  0.7255E+00
     12.199  0.9114E-01  0.7342E+00
     12.294  0.7124E-01  0.7410E+00
     12.390  0.5648E-01  0.7464E+00
     12.485  0.4806E-01  0.7510E+00
     12.581  0.5519E-01  0.7563E+00
     12.676  0.7491E-01  0.7634E+00
     12.771  0.9263E-01  0.7722E+00
     12.867  0.9950E-01  0.7817E+00
     12.962  0.9484E-01  0.7908E+00
     13.058  0.8683E-01  0.7991E+00
     13.153  0.8316E-01  0.8070E+00
     13.249  0.7751E-01  0.8144E+00
     13.344  0.6670E-01  0.8208E+00
     13.440  0.5945E-01  0.8265E+00
     13.535  0.5497E-01  0.8317E+00
     13.631  0.4772E-01  0.8363E+00
     13.726  0.4716E-01  0.8408E+00
     13.822  0.6120E-01  0.8466E+00
     13.917  0.7708E-01  0.8540E+00
     14.012  0.7656E-01  0.8613E+00
     14.108  0.5676E-01  0.8667E+00
     14.203  0.3223E-01  0.8698E+00
     14.299  0.2349E-01  0.8720E+00
     14.394  0.4575E-01  0.8764E+00
     14.490  0.9798E-01  0.8857E+00
     14.585  0.1494E+00  0.9000E+00
     14.681  0.1611E+00  0.9154E+00
     14.776  0.1327E+00  0.9280E+00
     14.872  0.9243E-01  0.9369E+00
     14.967  0.5579E-01  0.9422E+00
     15.063  0.2666E-01  0.9447E+00
     15.158  0.9107E-02  0.9456E+00
     15.253  0.2168E-02  0.9458E+00
     15.349  0.9687E-03  0.9459E+00
     15.444  0.3663E-02  0.9463E+00
     15.540  0.1300E-01  0.9475E+00
     15.635  0.2999E-01  0.9504E+00
     15.731  0.4488E-01  0.9546E+00
     15.826  0.4496E-01  0.9589E+00
     15.922  0.3599E-01  0.9624E+00
     16.017  0.3797E-01  0.9660E+00
     16.113  0.5745E-01  0.9715E+00
     16.208  0.8003E-01  0.9791E+00
     16.303  0.9027E-01  0.9877E+00
     16.399  0.8707E-01  0.9960E+00
     16.494  0.7596E-01  0.1003E+01
     16.590  0.5998E-01  0.1009E+01
     16.685  0.4162E-01  0.1013E+01
     16.781  0.2397E-01  0.1015E+01
     16.876  0.1055E-01  0.1016E+01
     16.972  0.3637E-02  0.1017E+01
     17.067  0.3150E-02  0.1017E+01
     17.163  0.1004E-01  0.1018E+01
     17.258  0.2601E-01  0.1020E+01
     17.354  0.4552E-01  0.1025E+01
     17.449  0.5750E-01  0.1030E+01
     17.544  0.6033E-01  0.1036E+01
     17.640  0.5802E-01  0.1042E+01
     17.735  0.4694E-01  0.1046E+01
     17.831  0.2766E-01  0.1049E+01
     17.926  0.1097E-01  0.1050E+01
     18.022  0.2837E-02  0.1050E+01
     18.117  0.4743E-03  0.1050E+01
     18.213  0.5104E-04  0.1050E+01
     18.308  0.3529E-05  0.1050E+01
     18.404  0.1565E-06  0.1050E+01
     18.499  0.4447E-08  0.1050E+01
     18.595  0.8087E-10  0.1050E+01
     18.690  0.9401E-12  0.1050E+01
     18.785  0.6978E-14  0.1050E+01
     18.881  0.3877E-16  0.1050E+01
     18.976  0.0000E+00  0.1050E+01
     19.072  0.0000E+00  0.1050E+01
     19.167  0.4361E-16  0.1050E+01
     19.263  0.9105E-14  0.1050E+01
     19.358  0.1197E-11  0.1050E+01
     19.454  0.1005E-09  0.1050E+01
     19.549  0.5395E-08  0.1050E+01
     19.645  0.1854E-06  0.1050E+01
     19.740  0.4084E-05  0.1050E+01
     19.836  0.5772E-04  0.1050E+01
     19.931  0.5240E-03  0.1050E+01
     20.026  0.3059E-02  0.1050E+01
     20.122  0.1150E-01  0.1051E+01
     20.217  0.2785E-01  0.1054E+01
     20.313  0.4350E-01  0.1058E+01
     20.408  0.4383E-01  0.1062E+01
     20.504  0.2848E-01  0.1065E+01
     20.599  0.1193E-01  0.1066E+01
     20.695  0.3222E-02  0.1067E+01
     20.790  0.5601E-03  0.1067E+01
     20.886  0.6262E-04  0.1067E+01
     20.981  0.4498E-05  0.1067E+01
     21.077  0.2073E-06  0.1067E+01
     21.172  0.6122E-08  0.1067E+01
     21.267  0.1157E-09  0.1067E+01
     21.363  0.1399E-11  0.1067E+01
     21.458  0.1082E-13  0.1067E+01
     21.554  0.4846E-16  0.1067E+01
     21.649  0.0000E+00  0.1067E+01
     21.745  0.0000E+00  0.1067E+01
     21.840  0.0000E+00  0.1067E+01
     21.936  0.0000E+00  0.1067E+01
     22.031  0.0000E+00  0.1067E+01
     22.127  0.0000E+00  0.1067E+01
     22.222  0.0000E+00  0.1067E+01
     22.318  0.0000E+00  0.1067E+01
