    2    2   15    1
  0.1529437E+02  0.3691622E-09  0.3691622E-09  0.3691622E-09  0.5000000E-15
  1.000000000000000E-004
  CAR 
 unknown system                          
      8     11      8
 
  0.1250000E+00  0.1250000E+00  0.1250000E+00  0.1250000E+00
    1       -2.488252   1.000000
    2        3.220924   1.000000
    3        8.058252   1.000000
    4        9.541563   0.015310
    5       11.175377   0.000000
    6       11.299951   0.000000
    7       14.312700   0.000000
    8       15.078423   0.000000
 
  0.3750000E+00  0.1250000E+00  0.1250000E+00  0.1250000E+00
    1        2.396497   1.000000
    2        2.920719   1.000000
    3        5.301640   1.000000
    4        5.553052   1.000000
    5       10.559340   0.000000
    6       12.252135   0.000000
    7       13.884065   0.000000
    8       14.420095   0.000000
 
 -0.1250000E+00  0.1250000E+00  0.1250000E+00  0.6250000E-01
    1       -4.242419   1.000000
    2        3.747752   1.000000
    3        5.163421   1.000000
    4        9.337716   0.235588
    5       12.371265   0.000000
    6       12.837519   0.000000
    7       17.674973   0.000000
    8       17.999119   0.000000
 
  0.3750000E+00  0.3750000E+00  0.1250000E+00  0.6250000E-01
    1       -0.301341   1.000000
    2       -0.301341   1.000000
    3        9.402434   0.119360
    4        9.402435   0.119359
    5       11.122924   0.000000
    6       11.122928   0.000000
    7       12.708314   0.000000
    8       12.708320   0.000000
 
 -0.3750000E+00  0.3750000E+00  0.1250000E+00  0.1250000E+00
    1       -2.766780   1.000000
    2        0.117657   1.000000
    3        6.062749   1.000000
    4        8.827048   0.998076
    5       11.723733   0.000000
    6       14.431516   0.000000
    7       17.573597   0.000000
    8       18.360279   0.000000
 
 -0.1250000E+00  0.3750000E+00  0.1250000E+00  0.1250000E+00
    1       -1.758899   1.000000
    2        3.263551   1.000000
    3        4.915667   1.000000
    4        8.784357   0.999294
    5        9.743346   0.000166
    6       13.806203   0.000000
    7       14.874741   0.000000
    8       15.408828   0.000000
 
 -0.3750000E+00 -0.3750000E+00  0.1250000E+00  0.1250000E+00
    1        0.378315   1.000000
    2        0.392051   1.000000
    3        6.343994   1.000000
    4        6.344018   1.000000
    5        8.269911   1.000000
    6       13.975653   0.000000
    7       16.709748   0.000000
    8       17.658866   0.000000
 
 -0.1250000E+00 -0.3750000E+00  0.1250000E+00  0.1250000E+00
    1        1.208609   1.000000
    2        4.072357   1.000000
    3        6.138390   1.000000
    4        7.482763   1.000000
    5        8.457431   1.000000
    6       10.844310   0.000000
    7       11.198308   0.000000
    8       14.765040   0.000000
 
 -0.1250000E+00 -0.1250000E+00  0.1250000E+00  0.3125000E-01
    1       -3.225920   1.000000
    2        7.422538   1.000000
    3        7.452636   1.000000
    4        7.452637   1.000000
    5       11.914527   0.000000
    6       12.068890   0.000000
    7       12.457752   0.000000
    8       14.671861   0.000000
 
 -0.3750000E+00  0.3750000E+00  0.3750000E+00  0.6250000E-01
    1       -1.343377   1.000000
    2        0.822464   1.000000
    3        2.629441   1.000000
    4        4.755269   1.000000
    5       15.878265   0.000000
    6       16.530651   0.000000
    7       18.491994   0.000000
    8       19.981276   0.000000
 
 -0.3750000E+00 -0.3750000E+00  0.3750000E+00  0.3125000E-01
    1        1.790040   1.000000
    2        1.824027   1.000000
    3        3.595096   1.000000
    4        3.595096   1.000000
    5        7.585691   1.000000
    6       17.151419   0.000000
    7       18.195959   0.000000
    8       18.195966   0.000000
