 vasp.5.4.4.18Apr17-6-g9f103f2a35 (build Dec 09 2018 21:25:21) complex          
  
 executed on IFC18.0.1.163_CrayMP date 2019.03.20  09:36:21
 running on    8 total cores
 distrk:  each k-point on    8 cores,    1 groups
 distr:  one band on NCORES_PER_BAND=   1 cores,    8 groups


--------------------------------------------------------------------------------------------------------


 INCAR:
 POTCAR:   PAW_PBE Si 05Jan2001                   

 ----------------------------------------------------------------------------- 
|                                                                             |
|           W    W    AA    RRRRR   N    N  II  N    N   GGGG   !!!           |
|           W    W   A  A   R    R  NN   N  II  NN   N  G    G  !!!           |
|           W    W  A    A  R    R  N N  N  II  N N  N  G       !!!           |
|           W WW W  AAAAAA  RRRRR   N  N N  II  N  N N  G  GGG   !            |
|           WW  WW  A    A  R   R   N   NN  II  N   NN  G    G                |
|           W    W  A    A  R    R  N    N  II  N    N   GGGG   !!!           |
|                                                                             |
|      For optimal performance we recommend to set                            |
|        NCORE= 4 - approx SQRT( number of cores)                             |
|      NCORE specifies how many cores store one orbital (NPAR=cpu/NCORE).     |
|      This setting can  greatly improve the performance of VASP for DFT.     |
|      The default,   NCORE=1            might be grossly inefficient         |
|      on modern multi-core architectures or massively parallel machines.     |
|      Do your own testing !!!!                                               |
|      Unfortunately you need to use the default for GW and RPA calculations. |
|      (for HF NCORE is supported but not extensively tested yet)             |
|                                                                             |
 ----------------------------------------------------------------------------- 

 POTCAR:   PAW_PBE Si 05Jan2001                   
   VRHFIN =Si: s2p2                                                             
   LEXCH  = PE                                                                  
   EATOM  =   103.0669 eV,    7.5752 Ry                                         
                                                                                
   TITEL  = PAW_PBE Si 05Jan2001                                                
   LULTRA =        F    use ultrasoft PP ?                                      
   IUNSCR =        1    unscreen: 0-lin 1-nonlin 2-no                           
   RPACOR =    1.500    partial core radius                                     
   POMASS =   28.085; ZVAL   =    4.000    mass and valenz                      
   RCORE  =    1.900    outmost cutoff radius                                   
   RWIGS  =    2.480; RWIGS  =    1.312    wigner-seitz radius (au A)           
   ENMAX  =  245.345; ENMIN  =  184.009 eV                                      
   ICORE  =        2    local potential                                         
   LCOR   =        T    correct aug charges                                     
   LPAW   =        T    paw PP                                                  
   EAUG   =  322.069                                                            
   DEXC   =    -.007                                                            
   RMAX   =    2.944    core radius for proj-oper                               
   RAUG   =    1.300    factor for augmentation sphere                          
   RDEP   =    1.993    radius for radial grids                                 
   QCUT   =   -4.246; QGAM   =    8.493    optimization parameters              
                                                                                
   Description                                                                  
     l     E      TYP  RCUT    TYP  RCUT                                        
     0   .000     23  1.900                                                     
     0   .000     23  1.900                                                     
     1   .000     23  1.900                                                     
     1   .000     23  1.900                                                     
     2   .000      7  1.900                                                     
  local pseudopotential read in
  partial core-charges read in
  atomic valenz-charges read in
  non local Contribution for L=           0  read in
    real space projection operators read in
  non local Contribution for L=           0  read in
    real space projection operators read in
  non local Contribution for L=           1  read in
    real space projection operators read in
  non local Contribution for L=           1  read in
    real space projection operators read in
    PAW grid and wavefunctions read in
 
   number of l-projection  operators is LMAX  =           4
   number of lm-projection operators is LMMAX =           8
 
 PAW_PBE Si 05Jan2001                   :
 energy of atom  1       EATOM= -103.0669
 kinetic energy error for atom=    0.0013 (will be added to EATOM!!)
 
 
 POSCAR: Si2                                     
  positions in direct lattice
  No initial velocities read in
 exchange correlation table for  LEXCH =        8
   RHO(1)=    0.500       N(1)  =     2000
   RHO(2)=  100.500       N(2)  =     4000
 


--------------------------------------------------------------------------------------------------------


 ion  position               nearest neighbor table
   1  0.250  0.750  0.500-   2 2.53   2 2.53   2 2.53   2 2.53   2 3.11   2 3.11   2 3.11   2 3.11

   2  0.000  0.000  0.000-   1 2.53   1 2.53   1 2.53   1 2.53   1 3.11   1 3.11   1 3.11   1 3.11

 
  LATTYP: Found a body centered tetragonal cell.
 ALAT       =     4.9000000000
 C/A-ratio  =     0.5200000000
  
  Lattice vectors:
  
 A1 = (  -2.4500000000,   2.4500000000,   1.2740000000)
 A2 = (   2.4500000000,  -2.4500000000,   1.2740000000)
 A3 = (   2.4500000000,   2.4500000000,  -1.2740000000)


Analysis of symmetry for initial positions (statically):
=====================================================================
 Subroutine PRICEL returns:
 Original cell was already a primitive cell.
 

 Routine SETGRP: Setting up the symmetry group for a 
 body centered tetragonal supercell.


 Subroutine GETGRP returns: Found 16 space group operations
 (whereof  8 operations were pure point group operations)
 out of a pool of 16 trial point group operations.


The static configuration has the point symmetry D_2d.
 The point group associated with its full space group is D_4h.


Analysis of symmetry for dynamics (positions and initial velocities):
=====================================================================
 Subroutine PRICEL returns:
 Original cell was already a primitive cell.
 

 Routine SETGRP: Setting up the symmetry group for a 
 body centered tetragonal supercell.


 Subroutine GETGRP returns: Found 16 space group operations
 (whereof  8 operations were pure point group operations)
 out of a pool of 16 trial point group operations.


The dynamic configuration has the point symmetry D_2d.
 The point group associated with its full space group is D_4h.


 Subroutine INISYM returns: Found 16 space group operations
 (whereof  8 operations are pure point group operations),
 and found     1 'primitive' translations

 
 
 KPOINTS: Automatic kpoint scheme                 

Automatic generation of k-mesh.
Space group operators:
 irot       det(A)        alpha          n_x          n_y          n_z        tau_x        tau_y        tau_z
    1     1.000000     0.000000     1.000000     0.000000     0.000000     0.000000     0.000000     0.000000
    2    -1.000000    90.000000    -0.000000    -0.000000    -1.000000     0.000000     0.000000     0.000000
    3     1.000000   180.000000    -0.000000    -0.000000    -1.000000     0.000000     0.000000     0.000000
    4    -1.000000    90.000000    -0.000000     0.000000     1.000000     0.000000     0.000000     0.000000
    5    -1.000000   180.000000     0.000000    -1.000000     0.000000     0.000000     0.000000     0.000000
    6     1.000000   180.000000     0.707107     0.707107    -0.000000     0.000000     0.000000     0.000000
    7    -1.000000   180.000000     1.000000     0.000000     0.000000     0.000000     0.000000     0.000000
    8     1.000000   180.000000     0.707107    -0.707107     0.000000     0.000000     0.000000     0.000000
    9    -1.000000     0.000000     1.000000     0.000000     0.000000     0.250000     0.750000     0.500000
   10     1.000000    90.000000    -0.000000    -0.000000    -1.000000     0.250000     0.750000     0.500000
   11    -1.000000   180.000000    -0.000000    -0.000000    -1.000000     0.250000     0.750000     0.500000
   12     1.000000    90.000000    -0.000000     0.000000     1.000000     0.250000     0.750000     0.500000
   13     1.000000   180.000000     0.000000    -1.000000     0.000000     0.250000     0.750000     0.500000
   14    -1.000000   180.000000     0.707107     0.707107    -0.000000     0.250000     0.750000     0.500000
   15     1.000000   180.000000     1.000000     0.000000     0.000000     0.250000     0.750000     0.500000
   16    -1.000000   180.000000     0.707107    -0.707107     0.000000     0.250000     0.750000     0.500000
 
 Subroutine IBZKPT returns following result:
 ===========================================
 
 Found     11 irreducible k-points:
 
 Following reciprocal coordinates:
            Coordinates               Weight
  0.125000  0.125000  0.125000    128.000000
  0.375000  0.125000  0.125000    128.000000
 -0.125000  0.125000  0.125000     64.000000
  0.375000  0.375000  0.125000     64.000000
 -0.375000  0.375000  0.125000    128.000000
 -0.125000  0.375000  0.125000    128.000000
 -0.375000 -0.375000  0.125000    128.000000
 -0.125000 -0.375000  0.125000    128.000000
 -0.125000 -0.125000  0.125000     32.000000
 -0.375000  0.375000  0.375000     64.000000
 -0.375000 -0.375000  0.375000     32.000000
 
 Following cartesian coordinates:
            Coordinates               Weight
  0.051020  0.051020  0.098116    128.000000
  0.051020  0.102041  0.196232    128.000000
  0.051020  0.000000  0.000000     64.000000
  0.102041  0.102041  0.294349     64.000000
  0.102041 -0.051020  0.000000    128.000000
  0.102041  0.000000  0.098116    128.000000
 -0.051020 -0.051020 -0.294349    128.000000
 -0.051020  0.000000 -0.196232    128.000000
 -0.000000  0.000000 -0.098116     32.000000
  0.153061  0.000000  0.000000     64.000000
  0.000000  0.000000 -0.294349     32.000000
 


--------------------------------------------------------------------------------------------------------




 Dimension of arrays:
   k-points           NKPTS =     11   k-points in BZ     NKDIM =     11   number of bands    NBANDS=      8
   number of dos      NEDOS =    301   number of ions     NIONS =      2
   non local maximal  LDIM  =      4   non local SUM 2l+1 LMDIM =      8
   total plane-waves  NPLWV =   5832
   max r-space proj   IRMAX =      1   max aug-charges    IRDMAX=   6573
   dimension x,y,z NGX =    18 NGY =   18 NGZ =   18
   dimension x,y,z NGXF=    36 NGYF=   36 NGZF=   36
   support grid    NGXF=    36 NGYF=   36 NGZF=   36
   ions per type =               2
   NGX,Y,Z   is equivalent  to a cutoff of   8.11,  8.11,  8.11 a.u.
   NGXF,Y,Z  is equivalent  to a cutoff of  16.21, 16.21, 16.21 a.u.

 SYSTEM =  unknown system                          
 POSCAR =  Si2                                     

 Startparameter for this run:
   NWRITE =      2    write-flag & timer
   PREC   = normal    normal or accurate (medium, high low for compatibility)
   ISTART =      0    job   : 0-new  1-cont  2-samecut
   ICHARG =      2    charge: 1-file 2-atom 10-const
   ISPIN  =      1    spin polarized calculation?
   LNONCOLLINEAR =      F non collinear calculations
   LSORBIT =      F    spin-orbit coupling
   INIWAV =      1    electr: 0-lowe 1-rand  2-diag
   LASPH  =      F    aspherical Exc in radial PAW
   METAGGA=      F    non-selfconsistent MetaGGA calc.

 Electronic Relaxation 1
   ENCUT  =  350.0 eV  25.72 Ry    5.07 a.u.   5.63  5.63  5.63*2*pi/ulx,y,z
   ENINI  =  350.0     initial cutoff
   ENAUG  =  322.1 eV  augmentation charge cutoff
   NELM   =     60;   NELMIN=  2; NELMDL= -5     # of ELM steps 
   EDIFF  = 0.4E-03   stopping-criterion for ELM
   LREAL  =      F    real-space projection
   NLSPLINE    = F    spline interpolate recip. space projectors
   LCOMPAT=      F    compatible to vasp.4.4
   GGA_COMPAT  = T    GGA compatible to vasp.4.4-vasp.4.6
   LMAXPAW     = -100 max onsite density
   LMAXMIX     =    2 max onsite mixed and CHGCAR
   VOSKOWN=      0    Vosko Wilk Nusair interpolation
   ROPT   =    0.00000
 Ionic relaxation
   EDIFFG = -.1E-01   stopping-criterion for IOM
   NSW    =     15    number of steps for IOM
   NBLOCK =      1;   KBLOCK =     15    inner block; outer block 
   IBRION =      2    ionic relax: 0-MD 1-quasi-New 2-CG
   NFREE  =      1    steps in history (QN), initial steepest desc. (CG)
   ISIF   =      3    stress and relaxation
   IWAVPR =     11    prediction:  0-non 1-charg 2-wave 3-comb
   ISYM   =      2    0-nonsym 1-usesym 2-fastsym
   LCORR  =      T    Harris-Foulkes like correction to forces

   POTIM  = 0.5000    time-step for ionic-motion
   TEIN   =    0.0    initial temperature
   TEBEG  =    0.0;   TEEND  =   0.0 temperature during run
   SMASS  =  -3.00    Nose mass-parameter (am)
   estimated Nose-frequenzy (Omega)   =  0.10E-29 period in steps =****** mass=  -0.311E-27a.u.
   SCALEE = 1.0000    scale energy and forces
   NPACO  =    256;   APACO  = 16.0  distance and # of slots for P.C.
   PSTRESS=    0.0 pullay stress

  Mass of Ions in am
   POMASS =  28.09
  Ionic Valenz
   ZVAL   =   4.00
  Atomic Wigner-Seitz radii
   RWIGS  =  -1.00
  virtual crystal weights 
   VCA    =   1.00
   NELECT =       8.0000    total number of electrons
   NUPDOWN=      -1.0000    fix difference up-down

 DOS related values:
   EMIN   =  10.00;   EMAX   =-10.00  energy-range for DOS
   EFERMI =   0.00
   ISMEAR =     0;   SIGMA  =   0.20  broadening in eV -4-tet -1-fermi 0-gaus

 Electronic relaxation 2 (details)
   IALGO  =     38    algorithm
   LDIAG  =      T    sub-space diagonalisation (order eigenvalues)
   LSUBROT=      F    optimize rotation matrix (better conditioning)
   TURBO    =      0    0=normal 1=particle mesh
   IRESTART =      0    0=no restart 2=restart with 2 vectors
   NREBOOT  =      0    no. of reboots
   NMIN     =      0    reboot dimension
   EREF     =   0.00    reference energy to select bands
   IMIX   =      4    mixing-type and parameters
     AMIX     =   0.40;   BMIX     =  1.00
     AMIX_MAG =   1.60;   BMIX_MAG =  1.00
     AMIN     =   0.10
     WC   =   100.;   INIMIX=   1;  MIXPRE=   1;  MAXMIX= -45

 Intra band minimization:
   WEIMIN = 0.0010     energy-eigenvalue tresh-hold
   EBREAK =  0.13E-04  absolut break condition
   DEPER  =   0.30     relativ break condition  

   TIME   =   0.40     timestep for ELM

  volume/ion in A,a.u.               =      15.29       103.21
  Fermi-wavevector in a.u.,A,eV,Ry     =   1.046930  1.978411 14.912834  1.096062
  Thomas-Fermi vector in A             =   2.181789
 
 Write flags
   LWAVE        =      T    write WAVECAR
   LDOWNSAMPLE  =      F    k-point downsampling of WAVECAR
   LCHARG       =      T    write CHGCAR
   LVTOT        =      F    write LOCPOT, total local potential
   LVHAR        =      F    write LOCPOT, Hartree potential only
   LELF         =      F    write electronic localiz. function (ELF)
   LORBIT       =      0    0 simple, 1 ext, 2 COOP (PROOUT), +10 PAW based schemes


 Dipole corrections
   LMONO  =      F    monopole corrections only (constant potential shift)
   LDIPOL =      F    correct potential (dipole corrections)
   IDIPOL =      0    1-x, 2-y, 3-z, 4-all directions 
   EPSILON=  1.0000000 bulk dielectric constant

 Exchange correlation treatment:
   GGA     =    --    GGA type
   LEXCH   =     8    internal setting for exchange type
   VOSKOWN=      0    Vosko Wilk Nusair interpolation
   LHFCALC =     F    Hartree Fock is set to
   LHFONE  =     F    Hartree Fock one center treatment
   AEXX    =    0.0000 exact exchange contribution

 Linear response parameters
   LEPSILON=     F    determine dielectric tensor
   LRPA    =     F    only Hartree local field effects (RPA)
   LNABLA  =     F    use nabla operator in PAW spheres
   LVEL    =     F    velocity operator in full k-point grid
   LINTERFAST=   F  fast interpolation
   KINTER  =     0    interpolate to denser k-point grid
   CSHIFT  =0.1000    complex shift for real part using Kramers Kronig
   OMEGAMAX=  -1.0    maximum frequency
   DEG_THRESHOLD= 0.2000000E-02 threshold for treating states as degnerate
   RTIME   =   -0.100 relaxation time in fs
  (WPLASMAI=    0.000 imaginary part of plasma frequency in eV, 0.658/RTIME)
   DFIELD  = 0.0000000 0.0000000 0.0000000 field for delta impulse in time
 
 Orbital magnetization related:
   ORBITALMAG=     F  switch on orbital magnetization
   LCHIMAG   =     F  perturbation theory with respect to B field
   DQ        =  0.001000  dq finite difference perturbation B field
   LLRAUG    =     F  two centre corrections for induced B field



--------------------------------------------------------------------------------------------------------


 conjugate gradient relaxation of ions
 charge density and potential will be updated during run
 non-spin polarized calculation
 Variant of blocked Davidson
 Davidson routine will perform the subspace rotation
 perform sub-space diagonalisation
    after iterative eigenvector-optimisation
 modified Broyden-mixing scheme, WC =      100.0
 initial mixing is a Kerker type mixing with AMIX =  0.4000 and BMIX =      1.0000
 Hartree-type preconditioning will be used
 using additional bands            4
 reciprocal scheme for non local part
 use partial core corrections
 calculate Harris-corrections to forces 
   (improved forces if not selfconsistent)
 use gradient corrections 
 use of overlap-Matrix (Vanderbilt PP)
 Gauss-broadening in eV      SIGMA  =   0.20


--------------------------------------------------------------------------------------------------------


  energy-cutoff  :      350.00
  volume of cell :       30.59
      direct lattice vectors                 reciprocal lattice vectors
    -2.450000000  2.450000000  1.274000000     0.000000000  0.204081633  0.392464678
     2.450000000 -2.450000000  1.274000000     0.204081633  0.000000000  0.392464678
     2.450000000  2.450000000 -1.274000000     0.204081633  0.204081633 -0.000000000

  length of vectors
     3.691622408  3.691622408  3.691622408     0.442354876  0.442354876  0.288615013


 
 k-points in units of 2pi/SCALE and weight: Automatic kpoint scheme                 
   0.05102041  0.05102041  0.09811617       0.125
   0.05102041  0.10204082  0.19623234       0.125
   0.05102041  0.00000000 -0.00000000       0.062
   0.10204082  0.10204082  0.29434851       0.062
   0.10204082 -0.05102041  0.00000000       0.125
   0.10204082  0.00000000  0.09811617       0.125
  -0.05102041 -0.05102041 -0.29434851       0.125
  -0.05102041 -0.00000000 -0.19623234       0.125
   0.00000000  0.00000000 -0.09811617       0.031
   0.15306122  0.00000000  0.00000000       0.062
   0.00000000 -0.00000000 -0.29434851       0.031
 
 k-points in reciprocal lattice and weights: Automatic kpoint scheme                 
   0.12500000  0.12500000  0.12500000       0.125
   0.37500000  0.12500000  0.12500000       0.125
  -0.12500000  0.12500000  0.12500000       0.062
   0.37500000  0.37500000  0.12500000       0.062
  -0.37500000  0.37500000  0.12500000       0.125
  -0.12500000  0.37500000  0.12500000       0.125
  -0.37500000 -0.37500000  0.12500000       0.125
  -0.12500000 -0.37500000  0.12500000       0.125
  -0.12500000 -0.12500000  0.12500000       0.031
  -0.37500000  0.37500000  0.37500000       0.062
  -0.37500000 -0.37500000  0.37500000       0.031
 
 position of ions in fractional coordinates (direct lattice) 
   0.25000000  0.75000000  0.50000000
   0.00000000  0.00000000  0.00000000
 
 position of ions in cartesian coordinates  (Angst):
   2.45000000  0.00000000  0.63700000
   0.00000000  0.00000000  0.00000000
 


--------------------------------------------------------------------------------------------------------


 k-point  1 :   0.1250 0.1250 0.1250  plane waves:     462
 k-point  2 :   0.3750 0.1250 0.1250  plane waves:     456
 k-point  3 :  -0.1250 0.1250 0.1250  plane waves:     457
 k-point  4 :   0.3750 0.3750 0.1250  plane waves:     456
 k-point  5 :  -0.3750 0.3750 0.1250  plane waves:     446
 k-point  6 :  -0.1250 0.3750 0.1250  plane waves:     453
 k-point  7 :  -0.3750-0.3750 0.1250  plane waves:     449
 k-point  8 :  -0.1250-0.3750 0.1250  plane waves:     459
 k-point  9 :  -0.1250-0.1250 0.1250  plane waves:     460
 k-point 10 :  -0.3750 0.3750 0.3750  plane waves:     450
 k-point 11 :  -0.3750-0.3750 0.3750  plane waves:     460

 maximum and minimum number of plane-waves per node :       462      446

 maximum number of plane-waves:       462
 maximum index in each direction: 
   IXMAX=    6   IYMAX=    6   IZMAX=    5
   IXMIN=   -5   IYMIN=   -5   IZMIN=   -6


 serial   3D FFT for wavefunctions
 parallel 3D FFT for charge:
    minimum data exchange during FFTs selected (reduces bandwidth)


 total amount of memory used by VASP MPI-rank0    31239. kBytes
=======================================================================

   base      :      30000. kBytes
   nonl-proj :        341. kBytes
   fftplans  :        247. kBytes
   grid      :        561. kBytes
   one-center:          6. kBytes
   wavefun   :         84. kBytes
 
     INWAV:  cpu time    0.0000: real time    0.0004
 Broyden mixing: mesh for mixing (old mesh)
   NGX = 11   NGY = 11   NGZ = 11
  (NGX  = 36   NGY  = 36   NGZ  = 36)
  gives a total of   1331 points

 initial charge density was supplied:
 charge density of overlapping atoms calculated
 number of electron       8.0000000 magnetization 
 keeping initial charge density in first step


--------------------------------------------------------------------------------------------------------


 Maximum index for augmentation-charges          911 (set IRDMAX)


--------------------------------------------------------------------------------------------------------


 First call to EWALD:  gamma=   0.567
 Maximum number of real-space cells 4x 4x 3
 Maximum number of reciprocal cells 3x 3x 3

    FEWALD:  cpu time    0.0080: real time    0.0072


--------------------------------------- Iteration      1(   1)  ---------------------------------------


    POTLOK:  cpu time    0.0480: real time    0.0564
    SETDIJ:  cpu time    0.0080: real time    0.0095
     EDDAV:  cpu time    0.1440: real time    0.1483
       DOS:  cpu time    0.0040: real time    0.0021
    --------------------------------------------
      LOOP:  cpu time    0.2040: real time    0.2170

 eigenvalue-minimisations  :   176
 total energy-change (2. order) : 0.6058267E+00  (-0.2847636E+03)
 number of electron       8.0000000 magnetization 
 augmentation part        8.0000000 magnetization 

 Free energy of the ion-electron system (eV)
  ---------------------------------------------------
  alpha Z        PSCENC =         4.40202223
  Ewald energy   TEWEN  =      -265.18101312
  -Hartree energ DENC   =        -2.30415367
  -exchange      EXHF   =         0.00000000
  -V(xc)+E(xc)   XCENC  =       -17.81549222
  PAW double counting   =        65.95520812      -30.76852678
  entropy T*S    EENTRO =        -0.03724131
  eigenvalues    EBANDS =        40.22376933
  atomic energy  EATOM  =       206.13125414
  Solvation  Ediel_sol  =         0.00000000
  ---------------------------------------------------
  free energy    TOTEN  =         0.60582672 eV

  energy without entropy =        0.64306803  energy(sigma->0) =        0.62444738


--------------------------------------------------------------------------------------------------------




--------------------------------------- Iteration      1(   2)  ---------------------------------------


     EDDAV:  cpu time    0.1880: real time    0.1989
       DOS:  cpu time    0.0040: real time    0.0016
    --------------------------------------------
      LOOP:  cpu time    0.1920: real time    0.2007

 eigenvalue-minimisations  :   232
 total energy-change (2. order) :-0.1040392E+02  (-0.9993923E+01)
 number of electron       8.0000000 magnetization 
 augmentation part        8.0000000 magnetization 

 Free energy of the ion-electron system (eV)
  ---------------------------------------------------
  alpha Z        PSCENC =         4.40202223
  Ewald energy   TEWEN  =      -265.18101312
  -Hartree energ DENC   =        -2.30415367
  -exchange      EXHF   =         0.00000000
  -V(xc)+E(xc)   XCENC  =       -17.81549222
  PAW double counting   =        65.95520812      -30.76852678
  entropy T*S    EENTRO =        -0.01356862
  eigenvalues    EBANDS =        29.79617601
  atomic energy  EATOM  =       206.13125414
  Solvation  Ediel_sol  =         0.00000000
  ---------------------------------------------------
  free energy    TOTEN  =        -9.79809391 eV

  energy without entropy =       -9.78452528  energy(sigma->0) =       -9.79130959


--------------------------------------------------------------------------------------------------------




--------------------------------------- Iteration      1(   3)  ---------------------------------------


     EDDAV:  cpu time    0.2000: real time    0.2063
       DOS:  cpu time    0.0000: real time    0.0017
    --------------------------------------------
      LOOP:  cpu time    0.2040: real time    0.2079

 eigenvalue-minimisations  :   248
 total energy-change (2. order) :-0.2079444E+00  (-0.2077903E+00)
 number of electron       8.0000000 magnetization 
 augmentation part        8.0000000 magnetization 

 Free energy of the ion-electron system (eV)
  ---------------------------------------------------
  alpha Z        PSCENC =         4.40202223
  Ewald energy   TEWEN  =      -265.18101312
  -Hartree energ DENC   =        -2.30415367
  -exchange      EXHF   =         0.00000000
  -V(xc)+E(xc)   XCENC  =       -17.81549222
  PAW double counting   =        65.95520812      -30.76852678
  entropy T*S    EENTRO =        -0.01421979
  eigenvalues    EBANDS =        29.58888279
  atomic energy  EATOM  =       206.13125414
  Solvation  Ediel_sol  =         0.00000000
  ---------------------------------------------------
  free energy    TOTEN  =       -10.00603829 eV

  energy without entropy =       -9.99181851  energy(sigma->0) =       -9.99892840


--------------------------------------------------------------------------------------------------------




--------------------------------------- Iteration      1(   4)  ---------------------------------------


     EDDAV:  cpu time    0.1800: real time    0.1859
       DOS:  cpu time    0.0040: real time    0.0018
    --------------------------------------------
      LOOP:  cpu time    0.1800: real time    0.1877

 eigenvalue-minimisations  :   224
 total energy-change (2. order) :-0.6241789E-03  (-0.6241770E-03)
 number of electron       8.0000000 magnetization 
 augmentation part        8.0000000 magnetization 

 Free energy of the ion-electron system (eV)
  ---------------------------------------------------
  alpha Z        PSCENC =         4.40202223
  Ewald energy   TEWEN  =      -265.18101312
  -Hartree energ DENC   =        -2.30415367
  -exchange      EXHF   =         0.00000000
  -V(xc)+E(xc)   XCENC  =       -17.81549222
  PAW double counting   =        65.95520812      -30.76852678
  entropy T*S    EENTRO =        -0.01422171
  eigenvalues    EBANDS =        29.58826054
  atomic energy  EATOM  =       206.13125414
  Solvation  Ediel_sol  =         0.00000000
  ---------------------------------------------------
  free energy    TOTEN  =       -10.00666247 eV

  energy without entropy =       -9.99244076  energy(sigma->0) =       -9.99955162


--------------------------------------------------------------------------------------------------------




--------------------------------------- Iteration      1(   5)  ---------------------------------------


     EDDAV:  cpu time    0.2120: real time    0.2214
       DOS:  cpu time    0.0040: real time    0.0018
    CHARGE:  cpu time    0.0200: real time    0.0222
    MIXING:  cpu time    0.0040: real time    0.0023
    --------------------------------------------
      LOOP:  cpu time    0.2400: real time    0.2479

 eigenvalue-minimisations  :   264
 total energy-change (2. order) :-0.1374703E-05  (-0.1375653E-05)
 number of electron       7.9999995 magnetization 
 augmentation part       -0.4708708 magnetization 

 Broyden mixing:
  rms(total) = 0.14997E+00    rms(broyden)= 0.14996E+00
  rms(prec ) = 0.33527E+00
  weight for this iteration     100.00

 Free energy of the ion-electron system (eV)
  ---------------------------------------------------
  alpha Z        PSCENC =         4.40202223
  Ewald energy   TEWEN  =      -265.18101312
  -Hartree energ DENC   =        -2.30415367
  -exchange      EXHF   =         0.00000000
  -V(xc)+E(xc)   XCENC  =       -17.81549222
  PAW double counting   =        65.95520812      -30.76852678
  entropy T*S    EENTRO =        -0.01422172
  eigenvalues    EBANDS =        29.58825917
  atomic energy  EATOM  =       206.13125414
  Solvation  Ediel_sol  =         0.00000000
  ---------------------------------------------------
  free energy    TOTEN  =       -10.00666385 eV

  energy without entropy =       -9.99244213  energy(sigma->0) =       -9.99955299


--------------------------------------------------------------------------------------------------------




--------------------------------------- Iteration      1(   6)  ---------------------------------------


    POTLOK:  cpu time    0.0280: real time    0.0367
    SETDIJ:  cpu time    0.0080: real time    0.0091
     EDDAV:  cpu time    0.1880: real time    0.1894
       DOS:  cpu time    0.0040: real time    0.0019
    CHARGE:  cpu time    0.0200: real time    0.0210
    MIXING:  cpu time    0.0000: real time    0.0020
    --------------------------------------------
      LOOP:  cpu time    0.2480: real time    0.2599

 eigenvalue-minimisations  :   240
 total energy-change (2. order) : 0.4053490E-02  (-0.1700294E-03)
 number of electron       7.9999995 magnetization 
 augmentation part       -0.4724006 magnetization 

 Broyden mixing:
  rms(total) = 0.93793E-01    rms(broyden)= 0.93793E-01
  rms(prec ) = 0.20996E+00
  weight for this iteration     100.00

 eigenvalues of (default mixing * dielectric matrix)
  average eigenvalue GAMMA=   2.6652
  2.6652

 Free energy of the ion-electron system (eV)
  ---------------------------------------------------
  alpha Z        PSCENC =         4.40202223
  Ewald energy   TEWEN  =      -265.18101312
  -Hartree energ DENC   =        -2.33921661
  -exchange      EXHF   =         0.00000000
  -V(xc)+E(xc)   XCENC  =       -17.73440804
  PAW double counting   =        67.68191658      -32.53234130
  entropy T*S    EENTRO =        -0.01420796
  eigenvalues    EBANDS =        29.58338370
  atomic energy  EATOM  =       206.13125414
  Solvation  Ediel_sol  =         0.00000000
  ---------------------------------------------------
  free energy    TOTEN  =       -10.00261036 eV

  energy without entropy =       -9.98840240  energy(sigma->0) =       -9.99550638


--------------------------------------------------------------------------------------------------------




--------------------------------------- Iteration      1(   7)  ---------------------------------------


    POTLOK:  cpu time    0.0280: real time    0.0344
    SETDIJ:  cpu time    0.0120: real time    0.0093
     EDDAV:  cpu time    0.1760: real time    0.1780
       DOS:  cpu time    0.0000: real time    0.0020
    CHARGE:  cpu time    0.0200: real time    0.0204
    MIXING:  cpu time    0.0040: real time    0.0019
    --------------------------------------------
      LOOP:  cpu time    0.2400: real time    0.2460

 eigenvalue-minimisations  :   224
 total energy-change (2. order) : 0.3451898E-02  (-0.5133240E-03)
 number of electron       7.9999995 magnetization 
 augmentation part       -0.4753079 magnetization 

 Broyden mixing:
  rms(total) = 0.33876E-02    rms(broyden)= 0.33872E-02
  rms(prec ) = 0.89221E-02
  weight for this iteration     100.00

 eigenvalues of (default mixing * dielectric matrix)
  average eigenvalue GAMMA=   2.6443
  2.6443  2.6443

 Free energy of the ion-electron system (eV)
  ---------------------------------------------------
  alpha Z        PSCENC =         4.40202223
  Ewald energy   TEWEN  =      -265.18101312
  -Hartree energ DENC   =        -2.49319958
  -exchange      EXHF   =         0.00000000
  -V(xc)+E(xc)   XCENC  =       -17.58128739
  PAW double counting   =        70.43007559      -35.34340761
  entropy T*S    EENTRO =        -0.01417259
  eigenvalues    EBANDS =        29.65056986
  atomic energy  EATOM  =       206.13125414
  Solvation  Ediel_sol  =         0.00000000
  ---------------------------------------------------
  free energy    TOTEN  =        -9.99915846 eV

  energy without entropy =       -9.98498587  energy(sigma->0) =       -9.99207217


--------------------------------------------------------------------------------------------------------




--------------------------------------- Iteration      1(   8)  ---------------------------------------


    POTLOK:  cpu time    0.0280: real time    0.0389
    SETDIJ:  cpu time    0.0080: real time    0.0091
     EDDAV:  cpu time    0.1120: real time    0.1100
       DOS:  cpu time    0.0000: real time    0.0017
    --------------------------------------------
      LOOP:  cpu time    0.1480: real time    0.1597

 eigenvalue-minimisations  :   120
 total energy-change (2. order) : 0.1754187E-04  (-0.1001867E-04)
 number of electron       7.9999995 magnetization 
 augmentation part       -0.4753079 magnetization 

 Free energy of the ion-electron system (eV)
  ---------------------------------------------------
  alpha Z        PSCENC =         4.40202223
  Ewald energy   TEWEN  =      -265.18101312
  -Hartree energ DENC   =        -2.51223185
  -exchange      EXHF   =         0.00000000
  -V(xc)+E(xc)   XCENC  =       -17.58209596
  PAW double counting   =        70.21561669      -35.12867776
  entropy T*S    EENTRO =        -0.01417368
  eigenvalues    EBANDS =        29.67015839
  atomic energy  EATOM  =       206.13125414
  Solvation  Ediel_sol  =         0.00000000
  ---------------------------------------------------
  free energy    TOTEN  =        -9.99914092 eV

  energy without entropy =       -9.98496723  energy(sigma->0) =       -9.99205408


--------------------------------------------------------------------------------------------------------




 average (electrostatic) potential at core
  the test charge radii are     0.9892
  (the norm of the test charge is              1.0000)
       1 -80.5314       2 -80.5314
 
 
 
 E-fermi :   9.2358     XC(G=0): -10.8898     alpha+bet :-15.6819


 k-point     1 :       0.1250    0.1250    0.1250
  band No.  band energies     occupation 
      1      -2.4883      2.00000
      2       3.2209      2.00000
      3       8.0583      2.00000
      4       9.5416      0.03062
      5      11.1754      0.00000
      6      11.3000      0.00000
      7      14.3127      0.00000
      8      15.0784      0.00000

 k-point     2 :       0.3750    0.1250    0.1250
  band No.  band energies     occupation 
      1       2.3965      2.00000
      2       2.9207      2.00000
      3       5.3016      2.00000
      4       5.5531      2.00000
      5      10.5593      0.00000
      6      12.2521      0.00000
      7      13.8841      0.00000
      8      14.4201      0.00000

 k-point     3 :      -0.1250    0.1250    0.1250
  band No.  band energies     occupation 
      1      -4.2424      2.00000
      2       3.7478      2.00000
      3       5.1634      2.00000
      4       9.3377      0.47118
      5      12.3713      0.00000
      6      12.8375      0.00000
      7      17.6750      0.00000
      8      17.9991      0.00000

 k-point     4 :       0.3750    0.3750    0.1250
  band No.  band energies     occupation 
      1      -0.3013      2.00000
      2      -0.3013      2.00000
      3       9.4024      0.23872
      4       9.4024      0.23872
      5      11.1229      0.00000
      6      11.1229      0.00000
      7      12.7083      0.00000
      8      12.7083      0.00000

 k-point     5 :      -0.3750    0.3750    0.1250
  band No.  band energies     occupation 
      1      -2.7668      2.00000
      2       0.1177      2.00000
      3       6.0627      2.00000
      4       8.8270      1.99615
      5      11.7237      0.00000
      6      14.4315      0.00000
      7      17.5736      0.00000
      8      18.3603      0.00000

 k-point     6 :      -0.1250    0.3750    0.1250
  band No.  band energies     occupation 
      1      -1.7589      2.00000
      2       3.2636      2.00000
      3       4.9157      2.00000
      4       8.7844      1.99859
      5       9.7433      0.00033
      6      13.8062      0.00000
      7      14.8747      0.00000
      8      15.4088      0.00000

 k-point     7 :      -0.3750   -0.3750    0.1250
  band No.  band energies     occupation 
      1       0.3783      2.00000
      2       0.3921      2.00000
      3       6.3440      2.00000
      4       6.3440      2.00000
      5       8.2699      2.00000
      6      13.9757      0.00000
      7      16.7097      0.00000
      8      17.6589      0.00000

 k-point     8 :      -0.1250   -0.3750    0.1250
  band No.  band energies     occupation 
      1       1.2086      2.00000
      2       4.0724      2.00000
      3       6.1384      2.00000
      4       7.4828      2.00000
      5       8.4574      2.00000
      6      10.8443      0.00000
      7      11.1983      0.00000
      8      14.7650      0.00000

 k-point     9 :      -0.1250   -0.1250    0.1250
  band No.  band energies     occupation 
      1      -3.2259      2.00000
      2       7.4225      2.00000
      3       7.4526      2.00000
      4       7.4526      2.00000
      5      11.9145      0.00000
      6      12.0689      0.00000
      7      12.4578      0.00000
      8      14.6719      0.00000

 k-point    10 :      -0.3750    0.3750    0.3750
  band No.  band energies     occupation 
      1      -1.3434      2.00000
      2       0.8225      2.00000
      3       2.6294      2.00000
      4       4.7553      2.00000
      5      15.8783      0.00000
      6      16.5307      0.00000
      7      18.4920      0.00000
      8      19.9813      0.00000

 k-point    11 :      -0.3750   -0.3750    0.3750
  band No.  band energies     occupation 
      1       1.7900      2.00000
      2       1.8240      2.00000
      3       3.5951      2.00000
      4       3.5951      2.00000
      5       7.5857      2.00000
      6      17.1514      0.00000
      7      18.1960      0.00000
      8      18.1960      0.00000


--------------------------------------------------------------------------------------------------------


 soft charge-density along one line, spin component           1
         0         1         2         3         4         5         6         7         8         9
 total charge-density along one line
 
 pseudopotential strength for first ion, spin component:           1
 18.062  -0.003   0.000  -0.000  -0.000  -0.000   0.000   0.000
 -0.003   0.005  -0.000   0.000   0.000   0.000  -0.000  -0.000
  0.000  -0.000   4.116   0.000   0.000  -0.006  -0.000  -0.000
 -0.000   0.000   0.000   4.117   0.000  -0.000  -0.006  -0.000
 -0.000   0.000   0.000   0.000   4.116  -0.000  -0.000  -0.006
 -0.000   0.000  -0.006  -0.000  -0.000   0.005   0.000   0.000
  0.000  -0.000  -0.000  -0.006  -0.000   0.000   0.005   0.000
  0.000  -0.000  -0.000  -0.000  -0.006   0.000   0.000   0.005
 total augmentation occupancy for first ion, spin component:           1
  1.621  -0.463   0.000   0.000   0.000   0.000   0.000  -0.000
 -0.463   0.912   0.000   0.000   0.000   0.000   0.000   0.000
  0.000   0.000   0.887  -0.000  -0.000  -0.470   0.000   0.000
  0.000   0.000  -0.000   0.881   0.000   0.000  -0.482   0.000
  0.000   0.000  -0.000   0.000   0.887   0.000   0.000  -0.470
  0.000   0.000  -0.470   0.000   0.000   0.331  -0.000  -0.000
  0.000   0.000   0.000  -0.482   0.000  -0.000   0.361  -0.000
 -0.000   0.000   0.000   0.000  -0.470  -0.000  -0.000   0.331


------------------------ aborting loop because EDIFF is reached ----------------------------------------


    CHARGE:  cpu time    0.0200: real time    0.0194
    FORLOC:  cpu time    0.0000: real time    0.0010
    FORNL :  cpu time    0.0120: real time    0.0110
    STRESS:  cpu time    0.0640: real time    0.0628
    FORCOR:  cpu time    0.0200: real time    0.0218
    FORHAR:  cpu time    0.0080: real time    0.0056
    MIXING:  cpu time    0.0000: real time    0.0015
    OFIELD:  cpu time    0.0000: real time    0.0005

  FORCE on cell =-STRESS in cart. coord.  units (eV):
  Direction    XX          YY          ZZ          XY          YZ          ZX
  --------------------------------------------------------------------------------------
  Alpha Z     4.40202     4.40202     4.40202
  Ewald     -90.96023   -90.96023   -83.26083    -0.00000     0.00000     0.00000
  Hartree     0.56143     0.56143     1.39252    -0.00000    -0.00000    -0.00000
  E(xc)     -25.43354   -25.43354   -25.36333    -0.00000     0.00000     0.00000
  Local     -11.39062   -11.39062   -17.11672    -0.00002    -0.00002    -0.00002
  n-local    77.11059    77.26564    76.20400    -0.30520    -0.20823    -0.31845
  augment   -12.10238   -12.10238   -12.06563     0.00002     0.00002     0.00002
  Kinetic    55.03919    58.28218    58.84159     1.02583    -0.70423    -0.82309
  Fock        0.00000     0.00000     0.00000     0.00000     0.00000     0.00000
  -------------------------------------------------------------------------------------
  Total      -1.07451    -1.07451     3.03363     0.00000    -0.00000     0.00000
  in kB     -56.28073   -56.28073   158.89535     0.00000    -0.00000     0.00000
  external pressure =       15.44 kB  Pullay stress =        0.00 kB


 VOLUME and BASIS-vectors are now :
 -----------------------------------------------------------------------------
  energy-cutoff  :      350.00
  volume of cell :       30.59
      direct lattice vectors                 reciprocal lattice vectors
    -2.450000000  2.450000000  1.274000000     0.000000000  0.204081633  0.392464678
     2.450000000 -2.450000000  1.274000000     0.204081633  0.000000000  0.392464678
     2.450000000  2.450000000 -1.274000000     0.204081633  0.204081633 -0.000000000

  length of vectors
     3.691622408  3.691622408  3.691622408     0.442354876  0.442354876  0.288615013


 FORCES acting on ions
    electron-ion (+dipol)            ewald-force                    non-local-force                 convergence-correction
 -----------------------------------------------------------------------------------------------
   -.175E-06 0.175E-06 0.279E-14   0.198E-14 0.156E-15 0.342E-17   0.660E-16 0.244E-16 -.449E-16   -.229E-08 0.229E-08 0.132E-15
   0.175E-06 -.175E-06 0.209E-14   -.185E-14 0.943E-16 0.891E-15   -.553E-16 -.136E-16 0.501E-16   0.229E-08 -.229E-08 0.957E-16
 -----------------------------------------------------------------------------------------------
   -.157E-13 -.177E-14 0.488E-14   0.139E-15 0.250E-15 0.894E-15   0.108E-16 0.108E-16 0.523E-17   -.695E-16 -.301E-15 0.228E-15
 
 
 POSITION                                       TOTAL-FORCE (eV/Angst)
 -----------------------------------------------------------------------------------
      2.45000      0.00000      0.63700        -0.000000      0.000000      0.000000
      0.00000      0.00000      0.00000         0.000000     -0.000000     -0.000000
 -----------------------------------------------------------------------------------
    total drift:                               -0.000000     -0.000000      0.000000


--------------------------------------------------------------------------------------------------------



  FREE ENERGIE OF THE ION-ELECTRON SYSTEM (eV)
  ---------------------------------------------------
  free  energy   TOTEN  =        -9.99914092 eV

  energy  without entropy=       -9.98496723  energy(sigma->0) =       -9.99205408
 


--------------------------------------------------------------------------------------------------------


    POTLOK:  cpu time    0.0440: real time    0.0650


--------------------------------------------------------------------------------------------------------




--------------------------------------------------------------------------------------------------------


    WAVPRE:  cpu time    0.9760: real time    1.6048
    FEWALD:  cpu time    0.0000: real time    0.0007
    GENKIN:  cpu time    0.0080: real time    0.0078
    ORTHCH:  cpu time    0.0080: real time    0.0086
     LOOP+:  cpu time    2.8600: real time    3.6152


--------------------------------------- Iteration      2(   1)  ---------------------------------------


    POTLOK:  cpu time    0.0280: real time    0.0328
    SETDIJ:  cpu time    0.0080: real time    0.0090
     EDDAV:  cpu time    0.1880: real time    0.1885
       DOS:  cpu time    0.0040: real time    0.0028
    CHARGE:  cpu time    0.0200: real time    0.0203
    MIXING:  cpu time    0.0000: real time    0.0016
    --------------------------------------------
      LOOP:  cpu time    0.2480: real time    0.2557

 eigenvalue-minimisations  :   240
 total energy-change (2. order) :-0.3336329E+00  (-0.6405062E+00)
 number of electron       8.0000002 magnetization 
 augmentation part       -0.4729417 magnetization 

 Broyden mixing:
  rms(total) = 0.14745E+00    rms(broyden)= 0.14744E+00
  rms(prec ) = 0.46448E+00
  weight for this iteration     100.00

 Free energy of the ion-electron system (eV)
  ---------------------------------------------------
  alpha Z        PSCENC =         4.32305897
  Ewald energy   TEWEN  =      -263.57046015
  -Hartree energ DENC   =        -2.44811707
  -exchange      EXHF   =         0.00000000
  -V(xc)+E(xc)   XCENC  =       -17.67961167
  PAW double counting   =        70.22218786      -35.13555443
  entropy T*S    EENTRO =        -0.01317287
  eigenvalues    EBANDS =        27.83762386
  atomic energy  EATOM  =       206.13125414
  Solvation  Ediel_sol  =         0.00000000
  ---------------------------------------------------
  free energy    TOTEN  =       -10.33279135 eV

  energy without entropy =      -10.31961848  energy(sigma->0) =      -10.32620492


--------------------------------------------------------------------------------------------------------




--------------------------------------- Iteration      2(   2)  ---------------------------------------


    POTLOK:  cpu time    0.0280: real time    0.0595
    SETDIJ:  cpu time    0.0080: real time    0.0094
     EDDAV:  cpu time    0.1600: real time    0.1581
       DOS:  cpu time    0.0000: real time    0.0030
    CHARGE:  cpu time    0.0200: real time    0.0203
    MIXING:  cpu time    0.0040: real time    0.0017
    --------------------------------------------
      LOOP:  cpu time    0.2200: real time    0.2522

 eigenvalue-minimisations  :   200
 total energy-change (2. order) : 0.6238780E-01  (-0.1463882E-01)
 number of electron       8.0000002 magnetization 
 augmentation part       -0.4742041 magnetization 

 Broyden mixing:
  rms(total) = 0.82870E-01    rms(broyden)= 0.82869E-01
  rms(prec ) = 0.26085E+00
  weight for this iteration     100.00

 eigenvalues of (default mixing * dielectric matrix)
  average eigenvalue GAMMA=   2.2761
  2.2761

 Free energy of the ion-electron system (eV)
  ---------------------------------------------------
  alpha Z        PSCENC =         4.32305897
  Ewald energy   TEWEN  =      -263.57046015
  -Hartree energ DENC   =        -2.49996091
  -exchange      EXHF   =         0.00000000
  -V(xc)+E(xc)   XCENC  =       -17.67464502
  PAW double counting   =        70.33073741      -35.24719649
  entropy T*S    EENTRO =        -0.01400402
  eigenvalues    EBANDS =        27.95081251
  atomic energy  EATOM  =       206.13125414
  Solvation  Ediel_sol  =         0.00000000
  ---------------------------------------------------
  free energy    TOTEN  =       -10.27040355 eV

  energy without entropy =      -10.25639954  energy(sigma->0) =      -10.26340155


--------------------------------------------------------------------------------------------------------




--------------------------------------- Iteration      2(   3)  ---------------------------------------


    POTLOK:  cpu time    0.0280: real time    0.0458
    SETDIJ:  cpu time    0.0080: real time    0.0090
     EDDAV:  cpu time    0.1760: real time    0.1764
       DOS:  cpu time    0.0000: real time    0.0025
    CHARGE:  cpu time    0.0200: real time    0.0202
    MIXING:  cpu time    0.0040: real time    0.0017
    --------------------------------------------
      LOOP:  cpu time    0.2360: real time    0.2554

 eigenvalue-minimisations  :   224
 total energy-change (2. order) : 0.3080600E-01  (-0.8449001E-02)
 number of electron       8.0000002 magnetization 
 augmentation part       -0.4727585 magnetization 

 Broyden mixing:
  rms(total) = 0.86659E-02    rms(broyden)= 0.86657E-02
  rms(prec ) = 0.20244E-01
  weight for this iteration     100.00

 eigenvalues of (default mixing * dielectric matrix)
  average eigenvalue GAMMA=   1.3521
  2.2426  0.4616

 Free energy of the ion-electron system (eV)
  ---------------------------------------------------
  alpha Z        PSCENC =         4.32305897
  Ewald energy   TEWEN  =      -263.57046015
  -Hartree energ DENC   =        -2.66650776
  -exchange      EXHF   =         0.00000000
  -V(xc)+E(xc)   XCENC  =       -17.66144538
  PAW double counting   =        70.34492131      -35.26459778
  entropy T*S    EENTRO =        -0.01454910
  eigenvalues    EBANDS =        28.13872820
  atomic energy  EATOM  =       206.13125414
  Solvation  Ediel_sol  =         0.00000000
  ---------------------------------------------------
  free energy    TOTEN  =       -10.23959755 eV

  energy without entropy =      -10.22504845  energy(sigma->0) =      -10.23232300


--------------------------------------------------------------------------------------------------------




--------------------------------------- Iteration      2(   4)  ---------------------------------------


    POTLOK:  cpu time    0.0280: real time    0.0477
    SETDIJ:  cpu time    0.0080: real time    0.0091
     EDDAV:  cpu time    0.1600: real time    0.1588
       DOS:  cpu time    0.0000: real time    0.0026
    --------------------------------------------
      LOOP:  cpu time    0.1960: real time    0.2182

 eigenvalue-minimisations  :   200
 total energy-change (2. order) :-0.2165850E-03  (-0.2909630E-03)
 number of electron       8.0000002 magnetization 
 augmentation part       -0.4727585 magnetization 

 Free energy of the ion-electron system (eV)
  ---------------------------------------------------
  alpha Z        PSCENC =         4.32305897
  Ewald energy   TEWEN  =      -263.57046015
  -Hartree energ DENC   =        -2.65959533
  -exchange      EXHF   =         0.00000000
  -V(xc)+E(xc)   XCENC  =       -17.66264921
  PAW double counting   =        70.31495021      -35.23348071
  entropy T*S    EENTRO =        -0.01454588
  eigenvalues    EBANDS =        28.13165383
  atomic energy  EATOM  =       206.13125414
  Solvation  Ediel_sol  =         0.00000000
  ---------------------------------------------------
  free energy    TOTEN  =       -10.23981414 eV

  energy without entropy =      -10.22526825  energy(sigma->0) =      -10.23254119


--------------------------------------------------------------------------------------------------------




 average (electrostatic) potential at core
  the test charge radii are     0.9892
  (the norm of the test charge is              1.0000)
       1 -80.7491       2 -80.7491
 
 
 
 E-fermi :   9.1400     XC(G=0): -10.8144     alpha+bet :-15.4006


 k-point     1 :       0.1250    0.1250    0.1250
  band No.  band energies     occupation 
      1      -2.6915      2.00000
      2       3.3567      2.00000
      3       7.9098      2.00000
      4       9.3081      0.23441
      5      10.3770      0.00000
      6      10.8636      0.00000
      7      14.7975      0.00000
      8      14.9926      0.00000

 k-point     2 :       0.3750    0.1250    0.1250
  band No.  band energies     occupation 
      1       1.4494      2.00000
      2       2.4496      2.00000
      3       4.6688      2.00000
      4       5.4709      2.00000
      5      10.2040      0.00000
      6      12.1623      0.00000
      7      13.7510      0.00000
      8      14.2919      0.00000

 k-point     3 :      -0.1250    0.1250    0.1250
  band No.  band energies     occupation 
      1      -4.2718      2.00000
      2       4.3414      2.00000
      3       5.3759      2.00000
      4      10.2023      0.00000
      5      12.6667      0.00000
      6      13.2746      0.00000
      7      16.7314      0.00000
      8      18.1122      0.00000

 k-point     4 :       0.3750    0.3750    0.1250
  band No.  band energies     occupation 
      1      -0.3775      2.00000
      2      -0.3775      2.00000
      3       8.4748      2.00000
      4       8.4748      2.00000
      5      11.3632      0.00000
      6      11.3632      0.00000
      7      13.0030      0.00000
      8      13.0030      0.00000

 k-point     5 :      -0.3750    0.3750    0.1250
  band No.  band energies     occupation 
      1      -2.7083      2.00000
      2       0.3583      2.00000
      3       6.4354      2.00000
      4       9.2974      0.26560
      5      12.4355      0.00000
      6      14.7115      0.00000
      7      15.8776      0.00000
      8      16.5377      0.00000

 k-point     6 :      -0.1250    0.3750    0.1250
  band No.  band energies     occupation 
      1      -1.9189      2.00000
      2       3.5335      2.00000
      3       4.8131      2.00000
      4       7.4902      2.00000
      5      10.0221      0.00000
      6      13.2217      0.00000
      7      14.2172      0.00000
      8      15.2968      0.00000

 k-point     7 :      -0.3750   -0.3750    0.1250
  band No.  band energies     occupation 
      1       0.3325      2.00000
      2       0.3877      2.00000
      3       6.0483      2.00000
      4       6.4911      2.00000
      5       7.3450      2.00000
      6      12.9038      0.00000
      7      17.1952      0.00000
      8      17.7343      0.00000

 k-point     8 :      -0.1250   -0.3750    0.1250
  band No.  band energies     occupation 
      1       0.3623      2.00000
      2       3.5690      2.00000
      3       6.0505      2.00000
      4       6.7264      2.00000
      5       8.2847      2.00000
      6      10.6077      0.00000
      7      10.9269      0.00000
      8      15.0294      0.00000

 k-point     9 :      -0.1250   -0.1250    0.1250
  band No.  band energies     occupation 
      1      -3.4717      2.00000
      2       7.4765      2.00000
      3       7.4765      2.00000
      4       8.4244      2.00000
      5      11.1893      0.00000
      6      11.1947      0.00000
      7      11.8819      0.00000
      8      13.5034      0.00000

 k-point    10 :      -0.3750    0.3750    0.3750
  band No.  band energies     occupation 
      1      -1.1837      2.00000
      2       1.2720      2.00000
      3       2.6741      2.00000
      4       5.0713      2.00000
      5      14.0224      0.00000
      6      14.1492      0.00000
      7      18.9059      0.00000
      8      20.5848      0.00000

 k-point    11 :      -0.3750   -0.3750    0.3750
  band No.  band energies     occupation 
      1       1.9032      2.00000
      2       2.0966      2.00000
      3       3.4260      2.00000
      4       3.4260      2.00000
      5       6.2411      2.00000
      6      16.6977      0.00000
      7      17.2469      0.00000
      8      17.2469      0.00000


--------------------------------------------------------------------------------------------------------


 soft charge-density along one line, spin component           1
         0         1         2         3         4         5         6         7         8         9
 total charge-density along one line
 
 pseudopotential strength for first ion, spin component:           1
 18.089  -0.003  -0.000  -0.000   0.000   0.000   0.000  -0.000
 -0.003   0.005   0.000   0.000  -0.000  -0.000  -0.000   0.000
 -0.000   0.000   4.121   0.000   0.000  -0.006  -0.000  -0.000
 -0.000   0.000   0.000   4.121   0.000  -0.000  -0.006  -0.000
  0.000  -0.000   0.000   0.000   4.121  -0.000  -0.000  -0.006
  0.000  -0.000  -0.006  -0.000  -0.000   0.005   0.000   0.000
  0.000  -0.000  -0.000  -0.006  -0.000   0.000   0.005   0.000
 -0.000   0.000  -0.000  -0.000  -0.006   0.000   0.000   0.005
 total augmentation occupancy for first ion, spin component:           1
  1.607  -0.478   0.000   0.000  -0.000   0.000   0.000   0.000
 -0.478   0.848   0.000   0.000   0.000   0.000   0.000   0.000
  0.000   0.000   0.913   0.000   0.000  -0.489   0.000  -0.000
  0.000   0.000  -0.000   0.848  -0.000   0.000  -0.442  -0.000
  0.000  -0.000   0.000  -0.000   0.913  -0.000  -0.000  -0.489
  0.000   0.000  -0.489   0.000  -0.000   0.340   0.000   0.000
  0.000   0.000   0.000  -0.442  -0.000   0.000   0.312   0.000
 -0.000   0.000  -0.000  -0.000  -0.489   0.000   0.000   0.340


------------------------ aborting loop because EDIFF is reached ----------------------------------------


    CHARGE:  cpu time    0.0200: real time    0.0194
    FORLOC:  cpu time    0.0000: real time    0.0009
    FORNL :  cpu time    0.0120: real time    0.0109
    STRESS:  cpu time    0.0640: real time    0.0621
    FORCOR:  cpu time    0.0200: real time    0.0215
    FORHAR:  cpu time    0.0040: real time    0.0054
    MIXING:  cpu time    0.0040: real time    0.0014
    OFIELD:  cpu time    0.0000: real time    0.0005

  FORCE on cell =-STRESS in cart. coord.  units (eV):
  Direction    XX          YY          ZZ          XY          YZ          ZX
  --------------------------------------------------------------------------------------
  Alpha Z     4.32306     4.32306     4.32306
  Ewald     -85.31125   -85.31125   -92.94817    -0.00000     0.00000    -0.00000
  Hartree     1.00013     1.00013     0.64515    -0.00000    -0.00000    -0.00000
  E(xc)     -25.37670   -25.37670   -25.20818     0.00000     0.00000     0.00000
  Local     -16.89788   -16.89788    -7.14967    -0.00002    -0.00002    -0.00002
  n-local    78.03453    77.72741    74.27724    -0.05309    -0.26038    -0.54666
  augment   -12.08863   -12.08863   -11.91995     0.00002     0.00002     0.00002
  Kinetic    50.65535    60.08470    59.74426     1.42891    -0.43838    -0.46342
  Fock        0.00000     0.00000     0.00000     0.00000     0.00000     0.00000
  -------------------------------------------------------------------------------------
  Total      -1.10028    -1.10028     1.76375     0.00000     0.00000     0.00000
  in kB     -56.59658   -56.59658    90.72471     0.00000     0.00000     0.00000
  external pressure =       -7.49 kB  Pullay stress =        0.00 kB


 VOLUME and BASIS-vectors are now :
 -----------------------------------------------------------------------------
  energy-cutoff  :      350.00
  volume of cell :       31.15
      direct lattice vectors                 reciprocal lattice vectors
    -2.386499371  2.386499371  1.367225091    -0.000000000  0.209511893  0.365704231
     2.386499371 -2.386499371  1.367225091     0.209511893 -0.000000000  0.365704231
     2.386499371  2.386499371 -1.367225091     0.209511893  0.209511893  0.000000000

  length of vectors
     3.641436934  3.641436934  3.641436934     0.421467457  0.421467457  0.296294560


 FORCES acting on ions
    electron-ion (+dipol)            ewald-force                    non-local-force                 convergence-correction
 -----------------------------------------------------------------------------------------------
   -.204E-07 0.204E-07 -.195E-13   -.182E-13 0.777E-15 -.582E-14   -.956E-16 0.154E-16 -.367E-16   0.266E-07 -.266E-07 -.153E-15
   0.204E-07 -.204E-07 0.338E-13   0.184E-13 -.625E-15 0.528E-14   0.805E-16 -.305E-16 0.737E-16   -.266E-07 0.266E-07 0.113E-15
 -----------------------------------------------------------------------------------------------
   -.212E-13 -.149E-14 0.143E-13   0.152E-15 0.153E-15 -.535E-15   -.151E-16 -.151E-16 0.370E-16   -.520E-16 -.122E-15 -.400E-16
 
 
 POSITION                                       TOTAL-FORCE (eV/Angst)
 -----------------------------------------------------------------------------------
      2.38650     -0.00000      0.68361        -0.000000     -0.000000     -0.000000
      0.00000     -0.00000     -0.00000         0.000000      0.000000      0.000000
 -----------------------------------------------------------------------------------
    total drift:                               -0.000000     -0.000000      0.000000


--------------------------------------------------------------------------------------------------------



  FREE ENERGIE OF THE ION-ELECTRON SYSTEM (eV)
  ---------------------------------------------------
  free  energy   TOTEN  =       -10.23981414 eV

  energy  without entropy=      -10.22526825  energy(sigma->0) =      -10.23254119
 
 d Force = 0.0000000E+00[ 0.000E+00, 0.000E+00]  d Energy = 0.2406732E+00-0.241E+00
 d Force = 0.0000000E+00[ 0.000E+00, 0.000E+00]  d Ewald  =-0.1610553E+01 0.161E+01


--------------------------------------------------------------------------------------------------------


    POTLOK:  cpu time    0.0400: real time    0.0558


--------------------------------------------------------------------------------------------------------


 Steepest descent step on ions:
 trial-energy change:   -0.240673  1 .order   -0.231892   -0.277686   -0.186098
  (g-gl).g = 0.278E+00      g.g   = 0.278E+00  gl.gl    = 0.000E+00
 g(Force)  = 0.150E-47   g(Stress)= 0.278E+00 ortho     = 0.000E+00
 gamma     =   0.00000
 trial     =   1.00000
 opt step  =   1.95607  (harmonic =   3.03192) maximal distance =0.00000000
 next E    =   -10.336450   (d E  =  -0.33731)


--------------------------------------------------------------------------------------------------------


    WAVPRE:  cpu time    0.0120: real time    0.0266
    FEWALD:  cpu time    0.0000: real time    0.0006
    GENKIN:  cpu time    0.0080: real time    0.0078
    ORTHCH:  cpu time    0.0080: real time    0.0085
     LOOP+:  cpu time    1.1400: real time    1.3197


--------------------------------------- Iteration      3(   1)  ---------------------------------------


    POTLOK:  cpu time    0.0280: real time    0.0318
    SETDIJ:  cpu time    0.0080: real time    0.0092
     EDDAV:  cpu time    0.2080: real time    0.2074
       DOS:  cpu time    0.0040: real time    0.0018
    CHARGE:  cpu time    0.0160: real time    0.0200
    MIXING:  cpu time    0.0040: real time    0.0016
    --------------------------------------------
      LOOP:  cpu time    0.2680: real time    0.2727

 eigenvalue-minimisations  :   264
 total energy-change (2. order) :-0.1935972E+00  (-0.5294327E+00)
 number of electron       8.0000003 magnetization 
 augmentation part       -0.4704275 magnetization 

 Broyden mixing:
  rms(total) = 0.12784E+00    rms(broyden)= 0.12784E+00
  rms(prec ) = 0.41965E+00
  weight for this iteration     100.00

 Free energy of the ion-electron system (eV)
  ---------------------------------------------------
  alpha Z        PSCENC =         4.27313148
  Ewald energy   TEWEN  =      -261.75214414
  -Hartree energ DENC   =        -2.66002925
  -exchange      EXHF   =         0.00000000
  -V(xc)+E(xc)   XCENC  =       -17.72766839
  PAW double counting   =        70.21720677      -35.13084382
  entropy T*S    EENTRO =        -0.01520614
  eigenvalues    EBANDS =        26.23110464
  atomic energy  EATOM  =       206.13125414
  Solvation  Ediel_sol  =         0.00000000
  ---------------------------------------------------
  free energy    TOTEN  =       -10.43319471 eV

  energy without entropy =      -10.41798857  energy(sigma->0) =      -10.42559164


--------------------------------------------------------------------------------------------------------




--------------------------------------- Iteration      3(   2)  ---------------------------------------


    POTLOK:  cpu time    0.0280: real time    0.0374
    SETDIJ:  cpu time    0.0080: real time    0.0090
     EDDAV:  cpu time    0.1480: real time    0.1455
       DOS:  cpu time    0.0000: real time    0.0018
    CHARGE:  cpu time    0.0200: real time    0.0201
    MIXING:  cpu time    0.0000: real time    0.0018
    --------------------------------------------
      LOOP:  cpu time    0.2040: real time    0.2158

 eigenvalue-minimisations  :   184
 total energy-change (2. order) : 0.4803261E-01  (-0.1144059E-01)
 number of electron       8.0000003 magnetization 
 augmentation part       -0.4707411 magnetization 

 Broyden mixing:
  rms(total) = 0.73188E-01    rms(broyden)= 0.73188E-01
  rms(prec ) = 0.23967E+00
  weight for this iteration     100.00

 eigenvalues of (default mixing * dielectric matrix)
  average eigenvalue GAMMA=   2.3304
  2.3304

 Free energy of the ion-electron system (eV)
  ---------------------------------------------------
  alpha Z        PSCENC =         4.27313148
  Ewald energy   TEWEN  =      -261.75214414
  -Hartree energ DENC   =        -2.83406009
  -exchange      EXHF   =         0.00000000
  -V(xc)+E(xc)   XCENC  =       -17.70840331
  PAW double counting   =        70.48361664      -35.40520294
  entropy T*S    EENTRO =        -0.01533135
  eigenvalues    EBANDS =        26.44197747
  atomic energy  EATOM  =       206.13125414
  Solvation  Ediel_sol  =         0.00000000
  ---------------------------------------------------
  free energy    TOTEN  =       -10.38516210 eV

  energy without entropy =      -10.36983075  energy(sigma->0) =      -10.37749643


--------------------------------------------------------------------------------------------------------




--------------------------------------- Iteration      3(   3)  ---------------------------------------


    POTLOK:  cpu time    0.0280: real time    0.0391
    SETDIJ:  cpu time    0.0120: real time    0.0090
     EDDAV:  cpu time    0.1880: real time    0.1883
       DOS:  cpu time    0.0000: real time    0.0020
    CHARGE:  cpu time    0.0200: real time    0.0200
    MIXING:  cpu time    0.0000: real time    0.0018
    --------------------------------------------
      LOOP:  cpu time    0.2480: real time    0.2600

 eigenvalue-minimisations  :   240
 total energy-change (2. order) : 0.2476812E-01  (-0.6870260E-02)
 number of electron       8.0000003 magnetization 
 augmentation part       -0.4694166 magnetization 

 Broyden mixing:
  rms(total) = 0.76741E-02    rms(broyden)= 0.76739E-02
  rms(prec ) = 0.18881E-01
  weight for this iteration     100.00

 eigenvalues of (default mixing * dielectric matrix)
  average eigenvalue GAMMA=   1.3986
  2.2892  0.5081

 Free energy of the ion-electron system (eV)
  ---------------------------------------------------
  alpha Z        PSCENC =         4.27313148
  Ewald energy   TEWEN  =      -261.75214414
  -Hartree energ DENC   =        -3.13307510
  -exchange      EXHF   =         0.00000000
  -V(xc)+E(xc)   XCENC  =       -17.67866388
  PAW double counting   =        70.67683090      -35.60555331
  entropy T*S    EENTRO =        -0.01553092
  eigenvalues    EBANDS =        26.74335684
  atomic energy  EATOM  =       206.13125414
  Solvation  Ediel_sol  =         0.00000000
  ---------------------------------------------------
  free energy    TOTEN  =       -10.36039399 eV

  energy without entropy =      -10.34486307  energy(sigma->0) =      -10.35262853


--------------------------------------------------------------------------------------------------------




--------------------------------------- Iteration      3(   4)  ---------------------------------------


    POTLOK:  cpu time    0.0280: real time    0.0349
    SETDIJ:  cpu time    0.0080: real time    0.0088
     EDDAV:  cpu time    0.1200: real time    0.1190
       DOS:  cpu time    0.0000: real time    0.0019
    --------------------------------------------
      LOOP:  cpu time    0.1560: real time    0.1646

 eigenvalue-minimisations  :   176
 total energy-change (2. order) :-0.1367110E-03  (-0.2064009E-03)
 number of electron       8.0000003 magnetization 
 augmentation part       -0.4694166 magnetization 

 Free energy of the ion-electron system (eV)
  ---------------------------------------------------
  alpha Z        PSCENC =         4.27313148
  Ewald energy   TEWEN  =      -261.75214414
  -Hartree energ DENC   =        -3.11950434
  -exchange      EXHF   =         0.00000000
  -V(xc)+E(xc)   XCENC  =       -17.68068247
  PAW double counting   =        70.63485050      -35.56207863
  entropy T*S    EENTRO =        -0.01552383
  eigenvalues    EBANDS =        26.73016659
  atomic energy  EATOM  =       206.13125414
  Solvation  Ediel_sol  =         0.00000000
  ---------------------------------------------------
  free energy    TOTEN  =       -10.36053070 eV

  energy without entropy =      -10.34500686  energy(sigma->0) =      -10.35276878


--------------------------------------------------------------------------------------------------------




 average (electrostatic) potential at core
  the test charge radii are     0.9892
  (the norm of the test charge is              1.0000)
       1 -80.9136       2 -80.9136
 
 
 
 E-fermi :   8.5653     XC(G=0): -10.7571     alpha+bet :-15.2228


 k-point     1 :       0.1250    0.1250    0.1250
  band No.  band energies     occupation 
      1      -2.8849      2.00000
      2       3.4449      2.00000
      3       7.5330      2.00000
      4       8.5596      1.03241
      5      10.0787      0.00000
      6      11.2748      0.00000
      7      14.6502      0.00000
      8      14.8000      0.00000

 k-point     2 :       0.3750    0.1250    0.1250
  band No.  band energies     occupation 
      1       0.7028      2.00000
      2       2.0130      2.00000
      3       4.2548      2.00000
      4       5.4269      2.00000
      5      10.0754      0.00000
      6      12.1893      0.00000
      7      13.8257      0.00000
      8      14.3753      0.00000

 k-point     3 :      -0.1250    0.1250    0.1250
  band No.  band energies     occupation 
      1      -4.3273      2.00000
      2       4.8428      2.00000
      3       5.5814      2.00000
      4      11.0138      0.00000
      5      12.9604      0.00000
      6      13.0299      0.00000
      7      14.9831      0.00000
      8      15.9998      0.00000

 k-point     4 :       0.3750    0.3750    0.1250
  band No.  band energies     occupation 
      1      -0.4561      2.00000
      2      -0.4561      2.00000
      3       7.5745      2.00000
      4       7.5745      2.00000
      5      11.7337      0.00000
      6      11.7337      0.00000
      7      13.5492      0.00000
      8      13.5492      0.00000

 k-point     5 :      -0.3750    0.3750    0.1250
  band No.  band energies     occupation 
      1      -2.6803      2.00000
      2       0.5523      2.00000
      3       6.7690      2.00000
      4       9.6147      0.00000
      5      12.6803      0.00000
      6      13.6893      0.00000
      7      14.5742      0.00000
      8      16.4403      0.00000

 k-point     6 :      -0.1250    0.3750    0.1250
  band No.  band energies     occupation 
      1      -2.0738      2.00000
      2       3.6631      2.00000
      3       4.7562      2.00000
      4       6.6118      2.00000
      5      10.2381      0.00000
      6      12.8014      0.00000
      7      13.3240      0.00000
      8      15.9326      0.00000

 k-point     7 :      -0.3750   -0.3750    0.1250
  band No.  band energies     occupation 
      1       0.2538      2.00000
      2       0.3793      2.00000
      3       5.2153      2.00000
      4       6.6689      2.00000
      5       7.3624      2.00000
      6      12.1224      0.00000
      7      17.3461      0.00000
      8      17.5102      0.00000

 k-point     8 :      -0.1250   -0.3750    0.1250
  band No.  band energies     occupation 
      1      -0.3487      2.00000
      2       3.1661      2.00000
      3       6.0449      2.00000
      4       6.1757      2.00000
      5       8.2628      1.96759
      6      10.5942      0.00000
      7      10.7930      0.00000
      8      15.4531      0.00000

 k-point     9 :      -0.1250   -0.1250    0.1250
  band No.  band energies     occupation 
      1      -3.7047      2.00000
      2       7.4504      2.00000
      3       7.4504      2.00000
      4       9.3805      0.00000
      5      10.2776      0.00000
      6      10.5581      0.00000
      7      11.9424      0.00000
      8      12.7780      0.00000

 k-point    10 :      -0.3750    0.3750    0.3750
  band No.  band energies     occupation 
      1      -1.0661      2.00000
      2       1.6553      2.00000
      3       2.7336      2.00000
      4       5.3646      2.00000
      5      12.1475      0.00000
      6      12.2319      0.00000
      7      19.8699      0.00000
      8      20.3627      0.00000

 k-point    11 :      -0.3750   -0.3750    0.3750
  band No.  band energies     occupation 
      1       1.8151      2.00000
      2       2.3575      2.00000
      3       3.3140      2.00000
      4       3.3140      2.00000
      5       5.4288      2.00000
      6      16.1681      0.00000
      7      16.6504      0.00000
      8      16.6505      0.00000


--------------------------------------------------------------------------------------------------------


 soft charge-density along one line, spin component           1
         0         1         2         3         4         5         6         7         8         9
 total charge-density along one line
 
 pseudopotential strength for first ion, spin component:           1
 18.111  -0.002  -0.000  -0.000   0.000   0.000   0.000  -0.000
 -0.002   0.005   0.000   0.000  -0.000  -0.000  -0.000   0.000
 -0.000   0.000   4.124   0.000   0.000  -0.006  -0.000  -0.000
 -0.000   0.000   0.000   4.125   0.000  -0.000  -0.006  -0.000
  0.000  -0.000   0.000   0.000   4.124  -0.000  -0.000  -0.006
  0.000  -0.000  -0.006  -0.000  -0.000   0.005   0.000   0.000
  0.000  -0.000  -0.000  -0.006  -0.000   0.000   0.005   0.000
 -0.000   0.000  -0.000  -0.000  -0.006   0.000   0.000   0.005
 total augmentation occupancy for first ion, spin component:           1
  1.589  -0.533   0.000   0.000   0.000   0.000   0.000   0.000
 -0.533   0.814   0.000   0.000   0.000   0.000   0.000  -0.000
  0.000   0.000   0.951   0.000  -0.000  -0.521   0.000   0.000
  0.000   0.000   0.000   0.811  -0.000   0.000  -0.419   0.000
  0.000   0.000  -0.000  -0.000   0.951   0.000   0.000  -0.521
  0.000   0.000  -0.521  -0.000   0.000   0.365   0.000  -0.000
  0.000   0.000  -0.000  -0.419   0.000   0.000   0.282  -0.000
  0.000  -0.000   0.000   0.000  -0.521  -0.000  -0.000   0.365


------------------------ aborting loop because EDIFF is reached ----------------------------------------


    CHARGE:  cpu time    0.0200: real time    0.0190
    FORLOC:  cpu time    0.0000: real time    0.0006
    FORNL :  cpu time    0.0080: real time    0.0099
    STRESS:  cpu time    0.0560: real time    0.0583
    FORCOR:  cpu time    0.0200: real time    0.0201
    FORHAR:  cpu time    0.0040: real time    0.0046
    MIXING:  cpu time    0.0040: real time    0.0013
    OFIELD:  cpu time    0.0000: real time    0.0005

  FORCE on cell =-STRESS in cart. coord.  units (eV):
  Direction    XX          YY          ZZ          XY          YZ          ZX
  --------------------------------------------------------------------------------------
  Alpha Z     4.27313     4.27313     4.27313
  Ewald     -80.93741   -80.93741   -99.87749    -0.00000    -0.00000     0.00000
  Hartree     1.52367     1.52367     0.04042    -0.00000    -0.00000    -0.00000
  E(xc)     -25.40075   -25.40075   -25.15188     0.00000     0.00000     0.00000
  Local     -21.83991   -21.83991     0.64836    -0.00002    -0.00002    -0.00002
  n-local    78.77842    78.03529    72.88201     0.04304    -0.36389    -0.67093
  augment   -12.06632   -12.06632   -11.70334     0.00002     0.00002     0.00002
  Kinetic    50.30482    60.65651    59.08187     1.58582     0.10276     0.11858
  Fock        0.00000     0.00000     0.00000     0.00000     0.00000     0.00000
  -------------------------------------------------------------------------------------
  Total      -0.56006    -0.56006     0.19308     0.00000    -0.00000     0.00000
  in kB     -28.47569   -28.47569     9.81726     0.00000    -0.00000     0.00000
  external pressure =      -15.71 kB  Pullay stress =        0.00 kB


 VOLUME and BASIS-vectors are now :
 -----------------------------------------------------------------------------
  energy-cutoff  :      350.00
  volume of cell :       31.51
      direct lattice vectors                 reciprocal lattice vectors
    -2.325788205  2.325788205  1.456354980    -0.000000000  0.214980882  0.343322890
     2.325788205 -2.325788205  1.456354980     0.214980882 -0.000000000  0.343322890
     2.325788205  2.325788205 -1.456354980     0.214980882  0.214980882 -0.000000000

  length of vectors
     3.597158792  3.597158792  3.597158792     0.405077013  0.405077013  0.304028879


 FORCES acting on ions
    electron-ion (+dipol)            ewald-force                    non-local-force                 convergence-correction
 -----------------------------------------------------------------------------------------------
   0.923E-07 -.923E-07 0.152E-14   0.136E-14 -.259E-14 -.192E-15   0.115E-15 -.513E-16 0.275E-16   0.406E-08 -.406E-08 -.298E-15
   -.923E-07 0.923E-07 0.159E-13   -.156E-14 0.240E-14 -.403E-15   -.948E-16 0.578E-16 -.236E-16   -.406E-08 0.406E-08 0.283E-15
 -----------------------------------------------------------------------------------------------
   -.228E-13 0.310E-15 0.174E-13   -.193E-15 -.193E-15 -.595E-15   0.204E-16 0.656E-17 0.386E-17   -.316E-15 0.132E-15 -.149E-16
 
 
 POSITION                                       TOTAL-FORCE (eV/Angst)
 -----------------------------------------------------------------------------------
      2.32579      0.00000      0.72818         0.000000     -0.000000     -0.000000
      0.00000     -0.00000     -0.00000        -0.000000      0.000000      0.000000
 -----------------------------------------------------------------------------------
    total drift:                               -0.000000      0.000000      0.000000


--------------------------------------------------------------------------------------------------------



  FREE ENERGIE OF THE ION-ELECTRON SYSTEM (eV)
  ---------------------------------------------------
[...]
 total augmentation occupancy for first ion, spin component:           1
  1.591  -0.555   0.000   0.000  -0.000   0.000   0.000  -0.000
 -0.555   0.838   0.000   0.000  -0.000   0.000   0.000   0.000
  0.000   0.000   0.962   0.000   0.000  -0.542  -0.000   0.000
  0.000   0.000   0.000   0.806   0.000   0.000  -0.413   0.000
 -0.000  -0.000   0.000   0.000   0.962   0.000   0.000  -0.542
  0.000  -0.000  -0.542   0.000   0.000   0.388  -0.000   0.000
  0.000   0.000  -0.000  -0.413   0.000   0.000   0.273   0.000
 -0.000   0.000   0.000   0.000  -0.542   0.000   0.000   0.388


------------------------ aborting loop because EDIFF is reached ----------------------------------------


    CHARGE:  cpu time    0.0200: real time    0.0187
    FORLOC:  cpu time    0.0000: real time    0.0006
    FORNL :  cpu time    0.0080: real time    0.0087
    STRESS:  cpu time    0.0520: real time    0.0509
    FORCOR:  cpu time    0.0160: real time    0.0173
    FORHAR:  cpu time    0.0040: real time    0.0038
    MIXING:  cpu time    0.0000: real time    0.0010
    OFIELD:  cpu time    0.0000: real time    0.0003

  FORCE on cell =-STRESS in cart. coord.  units (eV):
  Direction    XX          YY          ZZ          XY          YZ          ZX
  --------------------------------------------------------------------------------------
  Alpha Z     4.28997     4.28997     4.28997
  Ewald     -80.03350   -80.03350  -101.69251    -0.00000     0.00000     0.00000
  Hartree     1.66673     1.66673    -0.09494    -0.00000    -0.00000    -0.00000
  E(xc)     -25.46400   -25.46400   -25.19336     0.00000     0.00000     0.00000
  Local     -23.03236   -23.03236     2.39880    -0.00002    -0.00002    -0.00002
  n-local    79.17636    78.46622    72.93190     0.11290    -0.41708    -0.63042
  augment   -12.10753   -12.10753   -11.69402     0.00002     0.00002     0.00002
  Kinetic    50.52370    61.15746    59.00670     1.65612     0.26267     0.67448
  Fock        0.00000     0.00000     0.00000     0.00000     0.00000     0.00000
  -------------------------------------------------------------------------------------
  Total      -0.01882    -0.01882    -0.04746     0.00000     0.00000     0.00000
  in kB      -0.96068    -0.96068    -2.42270     0.00000     0.00000     0.00000
  external pressure =       -1.45 kB  Pullay stress =        0.00 kB


 VOLUME and BASIS-vectors are now :
 -----------------------------------------------------------------------------
  energy-cutoff  :      350.00
  volume of cell :       31.39
      direct lattice vectors                 reciprocal lattice vectors
    -2.303623435  2.303623435  1.478689863    -0.000000000  0.217049363  0.338137166
     2.303623435 -2.303623435  1.478689863     0.217049363 -0.000000000  0.338137166
     2.303623435  2.303623435 -1.478689863     0.217049363  0.217049363 -0.000000000

  length of vectors
     3.577692772  3.577692772  3.577692772     0.401804890  0.401804890  0.306954153


 FORCES acting on ions
    electron-ion (+dipol)            ewald-force                    non-local-force                 convergence-correction
 -----------------------------------------------------------------------------------------------
   0.687E-07 -.687E-07 0.111E-13   0.456E-15 0.721E-15 0.900E-16   0.517E-16 -.593E-16 -.120E-16   0.142E-08 -.142E-08 0.994E-15
   -.687E-07 0.687E-07 0.123E-13   -.642E-15 -.135E-14 0.151E-15   -.671E-16 0.509E-16 0.188E-16   -.142E-08 0.142E-08 0.231E-16
 -----------------------------------------------------------------------------------------------
   -.231E-13 -.267E-14 0.234E-13   -.186E-15 -.631E-15 0.241E-15   -.153E-16 -.838E-17 0.682E-17   0.112E-16 0.205E-16 0.102E-14
 
 
 POSITION                                       TOTAL-FORCE (eV/Angst)
 -----------------------------------------------------------------------------------
      2.30362      0.00000      0.73934        -0.000000     -0.000000     -0.000000
      0.00000     -0.00000     -0.00000         0.000000      0.000000      0.000000
 -----------------------------------------------------------------------------------
    total drift:                               -0.000000     -0.000000      0.000000


--------------------------------------------------------------------------------------------------------



  FREE ENERGIE OF THE ION-ELECTRON SYSTEM (eV)
  ---------------------------------------------------
  free  energy   TOTEN  =       -10.36683555 eV

  energy  without entropy=      -10.34514040  energy(sigma->0) =      -10.35598797
 
 d Force = 0.0000000E+00[ 0.000E+00, 0.000E+00]  d Energy = 0.1263897E-04-0.126E-04
 d Force = 0.0000000E+00[ 0.000E+00, 0.000E+00]  d Ewald  = 0.4791473E-01-0.479E-01


--------------------------------------------------------------------------------------------------------


    POTLOK:  cpu time    0.0320: real time    0.0459


--------------------------------------------------------------------------------------------------------




--------------------------------------------------------------------------------------------------------


    WAVPRE:  cpu time    0.0080: real time    0.0193
    FEWALD:  cpu time    0.0000: real time    0.0005
    GENKIN:  cpu time    0.0000: real time    0.0029
    ORTHCH:  cpu time    0.0080: real time    0.0096
     LOOP+:  cpu time    0.3720: real time    0.4767


--------------------------------------- Iteration     15(   1)  ---------------------------------------


    POTLOK:  cpu time    0.0200: real time    0.0243
    SETDIJ:  cpu time    0.0080: real time    0.0077
     EDDAV:  cpu time    0.0560: real time    0.0586
       DOS:  cpu time    0.0040: real time    0.0014
    CHARGE:  cpu time    0.0120: real time    0.0151
    MIXING:  cpu time    0.0040: real time    0.0035
    --------------------------------------------
      LOOP:  cpu time    0.1040: real time    0.1114

 eigenvalue-minimisations  :    88
 total energy-change (2. order) :-0.7611644E-05  (-0.3020888E-05)
 number of electron       7.9999999 magnetization 
 augmentation part       -0.4704485 magnetization 

 Broyden mixing:
  rms(total) = 0.40610E-03    rms(broyden)= 0.40607E-03
  rms(prec ) = 0.12505E-02
  weight for this iteration     100.00

 Free energy of the ion-electron system (eV)
  ---------------------------------------------------
  alpha Z        PSCENC =         4.29174371
  Ewald energy   TEWEN  =      -261.79449299
  -Hartree energ DENC   =        -3.23950086
  -exchange      EXHF   =         0.00000000
  -V(xc)+E(xc)   XCENC  =       -17.64541701
  PAW double counting   =        70.88113039      -35.81307766
  entropy T*S    EENTRO =        -0.02171378
  eigenvalues    EBANDS =        26.84323064
  atomic energy  EATOM  =       206.13125414
  Solvation  Ediel_sol  =         0.00000000
  ---------------------------------------------------
  free energy    TOTEN  =       -10.36684342 eV

  energy without entropy =      -10.34512964  energy(sigma->0) =      -10.35598653


--------------------------------------------------------------------------------------------------------




--------------------------------------- Iteration     15(   2)  ---------------------------------------


    POTLOK:  cpu time    0.0200: real time    0.0309
    SETDIJ:  cpu time    0.0080: real time    0.0077
     EDDAV:  cpu time    0.0600: real time    0.0586
       DOS:  cpu time    0.0000: real time    0.0013
    --------------------------------------------
      LOOP:  cpu time    0.0880: real time    0.0986

 eigenvalue-minimisations  :    88
 total energy-change (2. order) : 0.2419947E-06  (-0.1041312E-06)
 number of electron       7.9999999 magnetization 
 augmentation part       -0.4704485 magnetization 

 Free energy of the ion-electron system (eV)
  ---------------------------------------------------
  alpha Z        PSCENC =         4.29174371
  Ewald energy   TEWEN  =      -261.79449299
  -Hartree energ DENC   =        -3.23839648
  -exchange      EXHF   =         0.00000000
  -V(xc)+E(xc)   XCENC  =       -17.64535967
  PAW double counting   =        70.88549975      -35.81756540
  entropy T*S    EENTRO =        -0.02171313
  eigenvalues    EBANDS =        26.84218689
  atomic energy  EATOM  =       206.13125414
  Solvation  Ediel_sol  =         0.00000000
  ---------------------------------------------------
  free energy    TOTEN  =       -10.36684318 eV

  energy without entropy =      -10.34513005  energy(sigma->0) =      -10.35598661


--------------------------------------------------------------------------------------------------------




 average (electrostatic) potential at core
  the test charge radii are     0.9892
  (the norm of the test charge is              1.0000)
       1 -80.8626       2 -80.8626
 
 
 
 E-fermi :   8.4914     XC(G=0): -10.7708     alpha+bet :-15.2891


 k-point     1 :       0.1250    0.1250    0.1250
  band No.  band energies     occupation 
      1      -2.9059      2.00000
      2       3.5284      2.00000
      3       7.4695      2.00000
      4       8.4300      1.33592
      5      10.1501      0.00000
      6      11.5421      0.00000
      7      14.5907      0.00000
      8      14.8457      0.00000

 k-point     2 :       0.3750    0.1250    0.1250
  band No.  band energies     occupation 
      1       0.5730      2.00000
      2       1.9469      2.00000
      3       4.2233      2.00000
      4       5.4777      2.00000
      5      10.1630      0.00000
      6      12.2923      0.00000
      7      13.9994      0.00000
      8      14.5341      0.00000

 k-point     3 :      -0.1250    0.1250    0.1250
  band No.  band energies     occupation 
      1      -4.3206      2.00000
      2       5.0545      2.00000
      3       5.6983      2.00000
      4      11.3438      0.00000
      5      12.9025      0.00000
      6      13.1113      0.00000
      7      14.6993      0.00000
      8      16.1206      0.00000

 k-point     4 :       0.3750    0.3750    0.1250
  band No.  band energies     occupation 
      1      -0.4332      2.00000
      2      -0.4332      2.00000
      3       7.4130      2.00000
      4       7.4130      2.00000
      5      11.9451      0.00000
      6      11.9451      0.00000
      7      13.8390      0.00000
      8      13.8390      0.00000

 k-point     5 :      -0.3750    0.3750    0.1250
  band No.  band energies     occupation 
      1      -2.6417      2.00000
      2       0.6531      2.00000
      3       6.9274      2.00000
      4       9.7388      0.00000
      5      12.6453      0.00000
      6      13.4827      0.00000
      7      14.5900      0.00000
      8      16.4361      0.00000

 k-point     6 :      -0.1250    0.3750    0.1250
  band No.  band energies     occupation 
      1      -2.0802      2.00000
      2       3.7427      2.00000
      3       4.7984      2.00000
      4       6.5016      2.00000
      5      10.3639      0.00000
      6      12.8613      0.00000
      7      13.1921      0.00000
      8      16.2456      0.00000

 k-point     7 :      -0.3750   -0.3750    0.1250
  band No.  band energies     occupation 
      1       0.2768      2.00000
      2       0.4262      2.00000
      3       5.0328      2.00000
      4       6.7947      2.00000
      5       7.5001      2.00000
      6      12.0412      0.00000
      7      17.3679      0.00000
      8      17.6336      0.00000

 k-point     8 :      -0.1250   -0.3750    0.1250
  band No.  band energies     occupation 
      1      -0.4849      2.00000
      2       3.1216      2.00000
      3       6.1050      2.00000
      4       6.1366      2.00000
      5       8.3553      1.66408
      6      10.7251      0.00000
      7      10.8422      0.00000
      8      15.7215      0.00000

 k-point     9 :      -0.1250   -0.1250    0.1250
  band No.  band energies     occupation 
      1      -3.7410      2.00000
      2       7.5058      2.00000
      3       7.5058      2.00000
      4       9.7711      0.00000
      5      10.1743      0.00000
      6      10.5088      0.00000
      7      12.0321      0.00000
      8      12.7139      0.00000

 k-point    10 :      -0.3750    0.3750    0.3750
  band No.  band energies     occupation 
      1      -0.9945      2.00000
      2       1.8252      2.00000
      3       2.7946      2.00000
      4       5.5086      2.00000
      5      11.7582      0.00000
      6      11.8483      0.00000
      7      20.3114      0.00000
      8      20.3175      0.00000

 k-point    11 :      -0.3750   -0.3750    0.3750
  band No.  band energies     occupation 
      1       1.8192      2.00000
      2       2.5035      2.00000
      3       3.3337      2.00000
      4       3.3337      2.00000
      5       5.3402      2.00000
      6      16.1226      0.00000
      7      16.6350      0.00000
      8      16.6350      0.00000


--------------------------------------------------------------------------------------------------------


 soft charge-density along one line, spin component           1
         0         1         2         3         4         5         6         7         8         9
 total charge-density along one line
 
 pseudopotential strength for first ion, spin component:           1
 18.106  -0.003   0.000  -0.000  -0.000  -0.000   0.000   0.000
 -0.003   0.005  -0.000   0.000   0.000   0.000  -0.000  -0.000
  0.000  -0.000   4.124   0.000   0.000  -0.006  -0.000  -0.000
 -0.000   0.000   0.000   4.125   0.000  -0.000  -0.006  -0.000
 -0.000   0.000   0.000   0.000   4.124  -0.000  -0.000  -0.006
 -0.000   0.000  -0.006  -0.000  -0.000   0.005   0.000   0.000
  0.000  -0.000  -0.000  -0.006  -0.000   0.000   0.005   0.000
  0.000  -0.000  -0.000  -0.000  -0.006   0.000   0.000   0.005
 total augmentation occupancy for first ion, spin component:           1
  1.591  -0.556   0.000   0.000   0.000   0.000   0.000   0.000
 -0.556   0.839   0.000   0.000   0.000   0.000   0.000   0.000
  0.000   0.000   0.962  -0.000  -0.000  -0.543   0.000   0.000
  0.000   0.000  -0.000   0.806  -0.000   0.000  -0.414   0.000
  0.000  -0.000  -0.000  -0.000   0.962   0.000   0.000  -0.543
  0.000   0.000  -0.543   0.000   0.000   0.388  -0.000  -0.000
  0.000   0.000   0.000  -0.414   0.000   0.000   0.274  -0.000
  0.000   0.000   0.000   0.000  -0.543  -0.000  -0.000   0.388


------------------------ aborting loop because EDIFF is reached ----------------------------------------


    CHARGE:  cpu time    0.0200: real time    0.0168
    FORLOC:  cpu time    0.0000: real time    0.0004
    FORNL :  cpu time    0.0080: real time    0.0088
    STRESS:  cpu time    0.0520: real time    0.0517
    FORCOR:  cpu time    0.0160: real time    0.0172
    FORHAR:  cpu time    0.0040: real time    0.0037
    MIXING:  cpu time    0.0000: real time    0.0010
    OFIELD:  cpu time    0.0000: real time    0.0004

  FORCE on cell =-STRESS in cart. coord.  units (eV):
  Direction    XX          YY          ZZ          XY          YZ          ZX
  --------------------------------------------------------------------------------------
  Alpha Z     4.29174     4.29174     4.29174
  Ewald     -80.04172   -80.04172  -101.71121     0.00000     0.00000     0.00000
  Hartree     1.66595     1.66595    -0.09511    -0.00000    -0.00000    -0.00000
  E(xc)     -25.46690   -25.46690   -25.19591     0.00000     0.00000     0.00000
  Local     -23.03010   -23.03010     2.40989    -0.00002    -0.00002    -0.00002
  n-local    79.18560    78.47364    72.93504     0.11308    -0.41740    -0.63049
  augment   -12.10755   -12.10755   -11.69378     0.00002     0.00002     0.00002
  Kinetic    50.53277    61.17113    59.01793     1.65670     0.26381     0.67846
  Fock        0.00000     0.00000     0.00000     0.00000     0.00000     0.00000
  -------------------------------------------------------------------------------------
  Total      -0.00700    -0.00700    -0.04142     0.00000    -0.00000     0.00000
  in kB      -0.35756    -0.35756    -2.11495     0.00000    -0.00000     0.00000
  external pressure =       -0.94 kB  Pullay stress =        0.00 kB


 VOLUME and BASIS-vectors are now :
 -----------------------------------------------------------------------------
  energy-cutoff  :      350.00
  volume of cell :       31.37
      direct lattice vectors                 reciprocal lattice vectors
    -2.303250094  2.303250094  1.478556261    -0.000000000  0.217084546  0.338167720
     2.303250094 -2.303250094  1.478556261     0.217084546 -0.000000000  0.338167720
     2.303250094  2.303250094 -1.478556261     0.217084546  0.217084546  0.000000000

  length of vectors
     3.577156777  3.577156777  3.577156777     0.401849607  0.401849607  0.307003909


 FORCES acting on ions
    electron-ion (+dipol)            ewald-force                    non-local-force                 convergence-correction
 -----------------------------------------------------------------------------------------------
   0.684E-07 -.684E-07 0.414E-13   0.912E-15 0.928E-16 -.516E-15   -.211E-16 -.309E-18 0.170E-16   0.151E-08 -.151E-08 0.880E-16
   -.684E-07 0.684E-07 -.261E-13   -.694E-15 -.963E-16 -.850E-15   0.350E-16 -.205E-16 -.363E-16   -.151E-08 0.151E-08 0.110E-14
 -----------------------------------------------------------------------------------------------
   -.261E-13 -.121E-14 0.153E-13   0.218E-15 -.353E-17 -.137E-14   0.139E-16 -.208E-16 -.193E-16   -.135E-16 -.336E-15 0.119E-14
 
 
 POSITION                                       TOTAL-FORCE (eV/Angst)
 -----------------------------------------------------------------------------------
      2.30325      0.00000      0.73928         0.000000      0.000000     -0.000000
      0.00000     -0.00000     -0.00000        -0.000000     -0.000000      0.000000
 -----------------------------------------------------------------------------------
    total drift:                               -0.000000     -0.000000      0.000000


--------------------------------------------------------------------------------------------------------



  FREE ENERGIE OF THE ION-ELECTRON SYSTEM (eV)
  ---------------------------------------------------
  free  energy   TOTEN  =       -10.36684318 eV

  energy  without entropy=      -10.34513005  energy(sigma->0) =      -10.35598661
 
 d Force = 0.0000000E+00[ 0.000E+00, 0.000E+00]  d Energy = 0.7631268E-05-0.763E-05
 d Force = 0.0000000E+00[ 0.000E+00, 0.000E+00]  d Ewald  = 0.3513432E-01-0.351E-01


--------------------------------------------------------------------------------------------------------


    POTLOK:  cpu time    0.0320: real time    0.0435


--------------------------------------------------------------------------------------------------------




--------------------------------------------------------------------------------------------------------


 writing wavefunctions
     LOOP+:  cpu time    0.3720: real time    0.5341
    4ORBIT:  cpu time    0.0000: real time    0.0000

 total amount of memory used by VASP MPI-rank0    31239. kBytes
=======================================================================

   base      :      30000. kBytes
   nonl-proj :        341. kBytes
   fftplans  :        247. kBytes
   grid      :        561. kBytes
   one-center:          6. kBytes
   wavefun   :         84. kBytes
 
  
  
 General timing and accounting informations for this job:
 ========================================================
  
                  Total CPU time used (sec):       14.980
                            User time (sec):       12.444
                          System time (sec):        2.536
                         Elapsed time (sec):       19.743
  
                   Maximum memory used (kb):       10040.
                   Average memory used (kb):           0.
  
                          Minor page faults:        38275
                          Major page faults:           29
                 Voluntary context switches:        58848
