unknown system                          
   1.00000000000000     
     0.000000    2.745557    2.745557
     2.745557    0.000000    2.745557
     2.745557    2.745557    0.000000
   Si
     2
Direct
  0.500000  0.500000  0.500000
  0.750000  0.750000  0.750000
 
   28   28   28
 0.88986     0.91683      1.0000      1.1465      1.3683      1.6812      2.1011      2.6376      3.2863      4.0225    
  4.7970      5.5377      6.1582      6.5731      6.7193      6.5731      6.1581      5.5377      4.7969      4.0225    
  3.2863      2.6376      2.1012      1.6813      1.3683      1.1465     0.99997     0.91681     0.91683     0.96231    
  1.0567      1.2072      1.4244      1.7205      2.1055      2.5816      3.1374      3.7430      4.3498      4.8940    
  5.3074      5.5311      5.5311      5.3074      4.8940      4.3498      3.7431      3.1374      2.5817      2.1055    
  1.7205      1.4244      1.2072      1.0567     0.96229     0.91683      1.0000      1.0567      1.1558      1.3042    
  1.5104      1.7831      2.1268      2.5379      3.0003      3.4825      3.9399      4.3201      4.5728      4.6615    
  4.5728      4.3201      3.9399      3.4825      3.0003      2.5380      2.1268      1.7831      1.5104      1.3042    
  1.1558      1.0567      1.0000     0.98155      1.1465      1.2072      1.3042      1.4436      1.6319      1.8743    
  2.1709      2.5142      2.8855      3.2551      3.5846      3.8337      3.9681      3.9681      3.8337      3.5846    
  3.2551      2.8855      2.5142      2.1710      1.8743      1.6319      1.4435      1.3042      1.2072      1.1465    
  1.1173      1.1173      1.3683      1.4244      1.5104      1.6319      1.7936      1.9976      2.2410      2.5142    
  2.7985      3.0678      3.2913      3.4398      3.4918      3.4397      3.2913      3.0678      2.7985      2.5142    
  2.2410      1.9975      1.7935      1.6319      1.5104      1.4244      1.3683      1.3370      1.3269      1.3369    
  1.6812      1.7205      1.7831      1.8743      1.9976      2.1532      2.3367      2.5379      2.7403      2.9221    
  3.0603      3.1352      3.1352      3.0603      2.9221      2.7403      2.5379      2.3367      2.1531      1.9975    
  1.8743      1.7831      1.7205      1.6812      1.6594      1.6500      1.6499      1.6594      2.1011      2.1055    
  2.1268      2.1709      2.2410      2.3367      2.4533      2.5816      2.7078      2.8154      2.8881      2.9139    
  2.8881      2.8154      2.7078      2.5816      2.4533      2.3367      2.2411      2.1710      2.1268      2.1055    
  2.1011      2.1062      2.1132      2.1162      2.1132      2.1062      2.6376      2.5816      2.5379      2.5142    
  2.5142      2.5379      2.5816      2.6376      2.6953      2.7429      2.7699      2.7699      2.7429      2.6953    
  2.6376      2.5816      2.5380      2.5143      2.5143      2.5380      2.5816      2.6376      2.6953      2.7429    
  2.7699      2.7699      2.7429      2.6953      3.2863      3.1374      3.0003      2.8855      2.7985      2.7403    
  2.7078      2.6953      2.6950      2.6989      2.7010      2.6989      2.6950      2.6953      2.7079      2.7404    
  2.7986      2.8856      3.0003      3.1374      3.2863      3.4318      3.5554      3.6387      3.6682      3.6387    
  3.5554      3.4318      4.0225      3.7430      3.4825      3.2551      3.0678      2.9221      2.8154      2.7429    
  2.6989      2.6784      2.6784      2.6990      2.7430      2.8155      2.9222      3.0679      3.2551      3.4825    
  3.7430      4.0224      4.2992      4.5455      4.7318      4.8325      4.8325      4.7319      4.5456      4.2992    
  4.7970      4.3498      3.9399      3.5846      3.2913      3.0603      2.8881      2.7699      2.7010      2.6784    
  2.7010      2.7699      2.8882      3.0605      3.2914      3.5847      3.9399      4.3497      4.7968      5.2526    
  5.6780      6.0277      6.2587      6.3395      6.2587      6.0277      5.6780      5.2528      5.5377      4.8940    
  4.3201      3.8337      3.4398      3.1352      2.9139      2.7699      2.6989      2.6990      2.7699      2.9140    
  3.1353      3.4399      3.8338      4.3200      4.8938      5.5375      6.2166      6.8801      7.4640      7.9018    
  8.1369      8.1369      7.9017      7.4640      6.8802      6.2168      6.1582      5.3074      4.5728      3.9681    
  3.4918      3.1352      2.8881      2.7429      2.6950      2.7430      2.8882      3.1353      3.4920      3.9682    
  4.5728      5.3072      6.1579      7.0896      8.0418      8.9317      9.6641      10.148      10.318      10.148    
  9.6640      8.9316      8.0418      7.0898      6.5731      5.5311      4.6615      3.9681      3.4397      3.0603    
  2.8154      2.6953      2.6953      2.8155      3.0605      3.4399      3.9682      4.6615      5.5309      6.5729    
  7.7582      9.0249      10.276      11.389      12.229      12.683      12.683      12.229      11.388      10.276    
  9.0249      7.7584      6.7193      5.5311      4.5728      3.8337      3.2913      2.9221      2.7078      2.6376    
  2.7079      2.9222      3.2914      3.8338      4.5728      5.5309      6.7190      8.1223      9.6880      11.317    
  12.866      14.161      15.027      15.331      15.027      14.161      12.866      11.317      9.6880      8.1225    
  6.5731      5.3074      4.3201      3.5846      3.0678      2.7403      2.5816      2.5816      2.7404      3.0679    
  3.5847      4.3200      5.3072      6.5729      8.1223      9.9227      11.888      13.873      15.674      17.045    
  17.781      17.781      17.045      15.675      13.873      11.888      9.9226      8.1225      6.1581      4.8940    
  3.9399      3.2551      2.7985      2.5379      2.4533      2.5380      2.7986      3.2551      3.9399      4.8938    
  6.1579      7.7582      9.6880      11.888      14.232      16.507      18.407      19.658      20.093      19.658    
  18.408      16.507      14.232      11.888      9.6880      7.7583      5.5377      4.3498      3.4825      2.8855    
  2.5142      2.3367      2.3367      2.5143      2.8856      3.4825      4.3497      5.5375      7.0896      9.0249    
  11.317      13.873      16.507      18.888      20.675      21.628      21.628      20.675      18.889      16.507    
  13.873      11.317      9.0248      7.0897      4.7969      3.7431      3.0003      2.5142      2.2410      2.1531    
  2.2411      2.5143      3.0003      3.7430      4.7968      6.2166      8.0418      10.276      12.866      15.674    
  18.407      20.675      22.164      22.683      22.165      20.675      18.407      15.674      12.866      10.276    
  8.0417      6.2167      4.0225      3.1374      2.5380      2.1710      1.9975      1.9975      2.1710      2.5380    
  3.1374      4.0224      5.2526      6.8801      8.9317      11.389      14.161      17.045      19.658      21.628    
  22.683      22.683      21.628      19.658      17.045      14.161      11.388      8.9315      6.8800      5.2527    
  3.2863      2.5817      2.1268      1.8743      1.7935      1.8743      2.1268      2.5816      3.2863      4.2992    
  5.6780      7.4640      9.6641      12.229      15.027      17.781      20.093      21.628      22.165      21.628    
  20.093      17.781      15.027      12.229      9.6639      7.4639      5.6779      4.2992      2.6376      2.1055    
  1.7831      1.6319      1.6319      1.7831      2.1055      2.6376      3.4318      4.5455      6.0277      7.9018    
  10.148      12.683      15.331      17.781      19.658      20.675      20.675      19.658      17.781      15.331    
  12.683      10.148      7.9016      6.0276      4.5455      3.4318      2.1012      1.7205      1.5104      1.4435    
  1.5104      1.7205      2.1011      2.6953      3.5554      4.7318      6.2587      8.1369      10.318      12.683    
  15.027      17.045      18.408      18.889      18.407      17.045      15.027      12.683      10.318      8.1368    
  6.2586      4.7318      3.5553      2.6953      1.6813      1.4244      1.3042      1.3042      1.4244      1.6812    
  2.1062      2.7429      3.6387      4.8325      6.3395      8.1369      10.148      12.229      14.161      15.675    
  16.507      16.507      15.674      14.161      12.229      10.148      8.1368      6.3395      4.8324      3.6387    
  2.7429      2.1063      1.3683      1.2072      1.1558      1.2072      1.3683      1.6594      2.1132      2.7699    
  3.6682      4.8325      6.2587      7.9017      9.6640      11.388      12.866      13.873      14.232      13.873    
  12.866      11.388      9.6639      7.9016      6.2586      4.8324      3.6682      2.7699      2.1132      1.6594    
  1.1465      1.0567      1.0567      1.1465      1.3370      1.6500      2.1162      2.7699      3.6387      4.7319    
  6.0277      7.4640      8.9316      10.276      11.317      11.888      11.888      11.317      10.276      8.9315    
  7.4639      6.0276      4.7318      3.6387      2.7699      2.1163      1.6500      1.3370     0.99997     0.96229    
  1.0000      1.1173      1.3269      1.6499      2.1132      2.7429      3.5554      4.5456      5.6780      6.8802    
  8.0418      9.0249      9.6880      9.9226      9.6880      9.0248      8.0417      6.8800      5.6779      4.5455    
  3.5553      2.7429      2.1132      1.6500      1.3269      1.1173     0.91681     0.91683     0.98155      1.1173    
  1.3369      1.6594      2.1062      2.6953      3.4318      4.2992      5.2528      6.2168      7.0898      7.7584    
  8.1225      8.1225      7.7583      7.0897      6.2167      5.2527      4.2992      3.4318      2.6953      2.1063    
  1.6594      1.3370      1.1173     0.98151     0.91683     0.96231      1.0567      1.2072      1.4244      1.7205    
  2.1055      2.5816      3.1374      3.7430      4.3498      4.8940      5.3074      5.5311      5.5311      5.3074    
  4.8940      4.3498      3.7431      3.1374      2.5817      2.1055      1.7205      1.4244      1.2072      1.0567    
 0.96229     0.91683     0.96231      1.0175      1.1139      1.2577      1.4576      1.7217      2.0547      2.4533    
  2.9016      3.3690      3.8120      4.1800      4.4245      4.5103      4.4245      4.1800      3.8120      3.3690    
  2.9016      2.4534      2.0548      1.7217      1.4576      1.2577      1.1139      1.0175     0.96231     0.94432    
  1.0567      1.1139      1.2046      1.3348      1.5106      1.7371      2.0149      2.3367      2.6850      3.0312    
  3.3395      3.5721      3.6974      3.6974      3.5721      3.3395      3.0312      2.6850      2.3368      2.0149    
  1.7371      1.5106      1.3347      1.2046      1.1139      1.0567      1.0292      1.0292      1.2072      1.2577    
  1.3348      1.4435      1.5886      1.7725      1.9931      2.2410      2.4992      2.7431      2.9450      3.0787    
  3.1255      3.0787      2.9450      2.7431      2.4992      2.2411      1.9931      1.7725      1.5885      1.4434    
  1.3347      1.2577      1.2073      1.1789      1.1697      1.1788      1.4244      1.4576      1.5106      1.5886    
  1.6952      1.8313      1.9931      2.1709      2.3496      2.5096      2.6307      2.6960      2.6960      2.6307    
  2.5096      2.3496      2.1710      1.9931      1.8313      1.6952      1.5885      1.5105      1.4576      1.4244    
  1.4059      1.3978      1.3978      1.4059      1.7205      1.7217      1.7371      1.7725      1.8313      1.9135    
  2.0149      2.1268      2.2367      2.3299      2.3926      2.4147      2.3926      2.3299      2.2367      2.1268    
  2.0149      1.9135      1.8313      1.7725      1.7371      1.7217      1.7205      1.7266      1.7335      1.7364    
  1.7335      1.7266      2.1055      2.0547      2.0149      1.9931      1.9931      2.0149      2.0547      2.1055    
  2.1573      2.1997      2.2236      2.2236      2.1997      2.1573      2.1055      2.0547      2.0149      1.9931    
  1.9931      2.0149      2.0547      2.1055      2.1573      2.1997      2.2236      2.2236      2.1997      2.1573    
  2.5816      2.4533      2.3367      2.2410      2.1709      2.1268      2.1055      2.1011      2.1062      2.1132    
  2.1162      2.1132      2.1062      2.1011      2.1055      2.1268      2.1710      2.2411      2.3367      2.4533    
  2.5816      2.7078      2.8154      2.8881      2.9139      2.8881      2.8154      2.7078      3.1374      2.9016    
  2.6850      2.4992      2.3496      2.2367      2.1573      2.1062      2.0771      2.0642      2.0643      2.0771    
  2.1063      2.1574      2.2367      2.3496      2.4992      2.6849      2.9015      3.1373      3.3738      3.5864    
  3.7483      3.8362      3.8362      3.7483      3.5864      3.3738      3.7430      3.3690      3.0312      2.7431    
  2.5096      2.3299      2.1997      2.1132      2.0642      2.0485      2.0643      2.1132      2.1998      2.3300    
  2.5096      2.7431      3.0311      3.3688      3.7430      4.1300      4.4960      4.8004      5.0031      5.0744    
  5.0032      4.8004      4.4960      4.1300      4.3498      3.8120      3.3395      2.9450      2.6307      2.3926    
  2.2236      2.1162      2.0643      2.0643      2.1163      2.2237      2.3927      2.6307      2.9449      3.3394    
  3.8118      4.3496      4.9259      5.4975      6.0078      6.3948      6.6043      6.6043      6.3949      6.0078    
  5.4975      4.9259      4.8940      4.1800      3.5721      3.0787      2.6960      2.4147      2.2236      2.1132    
  2.0771      2.1132      2.2237      2.4148      2.6961      3.0786      3.5719      4.1798      4.8938      5.6876    
  6.5117      7.2940      7.9466      8.3823      8.5357      8.3823      7.9466      7.2939      6.5117      5.6877    
  5.3074      4.4245      3.6974      3.1255      2.6960      2.3926      2.1997      2.1062      2.1063      2.1998    
  2.3927      2.6961      3.1254      3.6972      4.4242      5.3072      6.3261      7.4315      8.5406      9.5405    
  10.305      10.720      10.720      10.305      9.5404      8.5405      7.4315      6.3261      5.5311      4.5103    
  3.6974      3.0787      2.6307      2.3299      2.1573      2.1011      2.1574      2.3300      2.6307      3.0786    
  3.6972      4.5100      5.5309      6.7533      8.1369      9.5982      11.007      12.198      13.001      13.285    
  13.001      12.198      11.007      9.5980      8.1369      6.7534      5.5311      4.4245      3.5721      2.9450    
  2.5096      2.2367      2.1055      2.1055      2.2367      2.5096      2.9449      3.5719      4.4242      5.5309    
  6.9038      8.5213      10.313      12.145      13.828      15.133      15.849      15.849      15.133      13.828    
  12.145      10.312      8.5212      6.9039      5.3074      4.1800      3.3395      2.7431      2.3496      2.1268    
  2.0547      2.1268      2.3496      2.7431      3.3394      4.1798      5.3072      6.7533      8.5213      10.566    
  12.771      14.942      16.810      18.087      18.542      18.087      16.810      14.942      12.771      10.565    
  8.5212      6.7533      4.8940      3.8120      3.0312      2.4992      2.1710      2.0149      2.0149      2.1710    
  2.4992      3.0311      3.8118      4.8938      6.3261      8.1369      10.313      12.771      15.339      17.740    
  19.630      20.674      20.674      19.630      17.740      15.339      12.771      10.312      8.1368      6.3261    
  4.3498      3.3690      2.6850      2.2411      1.9931      1.9135      1.9931      2.2411      2.6849      3.3688    
  4.3496      5.6876      7.4315      9.5982      12.145      14.942      17.740      20.181      21.854      22.450    
  21.855      20.181      17.740      14.942      12.145      9.5979      7.4314      5.6876      3.7431      2.9016    
  2.3368      1.9931      1.8313      1.8313      1.9931      2.3367      2.9015      3.7430      4.9259      6.5117    
  8.5406      11.007      13.828      16.810      19.630      21.854      23.083      23.083      21.855      19.630    
  16.810      13.828      11.007      8.5404      6.5116      4.9259      3.1374      2.4534      2.0149      1.7725    
  1.6952      1.7725      2.0149      2.4533      3.1373      4.1300      5.4975      7.2940      9.5405      12.198    
  15.133      18.087      20.674      22.450      23.083      22.450      20.674      18.087      15.133      12.198    
  9.5404      7.2939      5.4974      4.1300      2.5817      2.0548      1.7371      1.5885      1.5885      1.7371    
  2.0547      2.5816      3.3738      4.4960      6.0078      7.9466      10.305      13.001      15.849      18.542    
  20.674      21.855      21.855      20.674      18.541      15.849      13.001      10.305      7.9465      6.0078    
  4.4960      3.3739      2.1055      1.7217      1.5106      1.4434      1.5105      1.7217      2.1055      2.7078    
  3.5864      4.8004      6.3948      8.3823      10.720      13.285      15.849      18.087      19.630      20.181    
  19.630      18.087      15.849      13.285      10.720      8.3823      6.3948      4.8004      3.5865      2.7079    
  1.7205      1.4576      1.3347      1.3347      1.4576      1.7205      2.1573      2.8154      3.7483      5.0031    
  6.6043      8.5357      10.720      13.001      15.133      16.810      17.740      17.740      16.810      15.133    
  13.001      10.720      8.5357      6.6043      5.0031      3.7484      2.8155      2.1574      1.4244      1.2577    
  1.2046      1.2577      1.4244      1.7266      2.1997      2.8881      3.8362      5.0744      6.6043      8.3823    
  10.305      12.198      13.828      14.942      15.339      14.942      13.828      12.198      10.305      8.3823    
  6.6043      5.0744      3.8362      2.8882      2.1998      1.7267      1.2072      1.1139      1.1139      1.2073    
  1.4059      1.7335      2.2236      2.9139      3.8362      5.0032      6.3949      7.9466      9.5404      11.007    
  12.145      12.771      12.771      12.145      11.007      9.5404      7.9465      6.3948      5.0031      3.8362    
  2.9140      2.2237      1.7336      1.4059      1.0567      1.0175      1.0567      1.1789      1.3978      1.7364    
  2.2236      2.8881      3.7483      4.8004      6.0078      7.2939      8.5405      9.5980      10.312      10.565    
  10.312      9.5979      8.5404      7.2939      6.0078      4.8004      3.7484      2.8882      2.2237      1.7365    
  1.3978      1.1788     0.96229     0.96231      1.0292      1.1697      1.3978      1.7335      2.1997      2.8154    
  3.5864      4.4960      5.4975      6.5117      7.4315      8.1369      8.5212      8.5212      8.1368      7.4314    
  6.5116      5.4974      4.4960      3.5865      2.8155      2.1998      1.7336      1.3978      1.1697      1.0291    
 0.91683     0.94432      1.0292      1.1788      1.4059      1.7266      2.1573      2.7078      3.3738      4.1300    
  4.9259      5.6877      6.3261      6.7534      6.9039      6.7533      6.3261      5.6876      4.9259      4.1300    
  3.3739      2.7079      2.1574      1.7267      1.4059      1.1788      1.0291     0.94429      1.0000      1.0567    
  1.1558      1.3042      1.5104      1.7831      2.1268      2.5379      3.0003      3.4825      3.9399      4.3201    
  4.5728      4.6615      4.5728      4.3201      3.9399      3.4825      3.0003      2.5380      2.1268      1.7831    
  1.5104      1.3042      1.1558      1.0567      1.0000     0.98155      1.0567      1.1139      1.2046      1.3348    
  1.5106      1.7371      2.0149      2.3367      2.6850      3.0312      3.3395      3.5721      3.6974      3.6974    
  3.5721      3.3395      3.0312      2.6850      2.3368      2.0149      1.7371      1.5106      1.3347      1.2046    
  1.1139      1.0567      1.0292      1.0292      1.1558      1.2046      1.2788      1.3834      1.5231      1.7005    
  1.9135      2.1532      2.4026      2.6381      2.8328      2.9615      3.0065      2.9615      2.8327      2.6381    
  2.4026      2.1532      1.9135      1.7005      1.5231      1.3834      1.2788      1.2046      1.1559      1.1284    
  1.1195      1.1283      1.3042      1.3348      1.3834      1.4551      1.5538      1.6803      1.8313      1.9976    
  2.1643      2.3133      2.4257      2.4861      2.4861      2.4256      2.3133      2.1643      1.9976      1.8313    
  1.6803      1.5537      1.4551      1.3834      1.3348      1.3042      1.2870      1.2793      1.2793      1.2869    
  1.5104      1.5106      1.5231      1.5538      1.6061      1.6803      1.7725      1.8743      1.9738      2.0578    
  2.1139      2.1336      2.1139      2.0577      1.9738      1.8743      1.7725      1.6803      1.6061      1.5537    
  1.5231      1.5106      1.5105      1.5164      1.5225      1.5251      1.5225      1.5163      1.7831      1.7371    
  1.7005      1.6803      1.6803      1.7005      1.7371      1.7831      1.8294      1.8669      1.8878      1.8878    
  1.8669      1.8294      1.7831      1.7371      1.7005      1.6803      1.6803      1.7005      1.7371      1.7831    
  1.8294      1.8669      1.8878      1.8878      1.8669      1.8294      2.1268      2.0149      1.9135      1.8313    
  1.7725      1.7371      1.7217      1.7205      1.7266      1.7335      1.7364      1.7335      1.7266      1.7205    
  1.7217      1.7371      1.7725      1.8313      1.9135      2.0149      2.1268      2.2367      2.3299      2.3926    
  2.4147      2.3926      2.3299      2.2367      2.5379      2.3367      2.1532      1.9976      1.8743      1.7831    
  1.7205      1.6812      1.6594      1.6499      1.6500      1.6594      1.6812      1.7205      1.7831      1.8743    
  1.9975      2.1531      2.3367      2.5379      2.7403      2.9221      3.0603      3.1352      3.1352      3.0603    
  2.9221      2.7403      3.0003      2.6850      2.4026      2.1643      1.9738      1.8294      1.7266      1.6594    
  1.6219      1.6099      1.6219      1.6594      1.7267      1.8295      1.9738      2.1642      2.4025      2.6849    
  3.0002      3.3282      3.6391      3.8980      4.0705      4.1311      4.0705      3.8980      3.6391      3.3281    
  3.4825      3.0312      2.6381      2.3133      2.0578      1.8669      1.7335      1.6499      1.6099      1.6100    
  1.6500      1.7336      1.8669      2.0577      2.3131      2.6379      3.0311      3.4825      3.9692      4.4542    
  4.8885      5.2184      5.3971      5.3972      5.2184      4.8885      4.4541      3.9691      3.9399      3.3395    
  2.8328      2.4257      2.1139      1.8878      1.7364      1.6500      1.6219      1.6500      1.7365      1.8878    
  2.1138      2.4255      2.8325      3.3394      3.9399      4.6119      5.3135      5.9820      6.5413      6.9154    
  7.0471      6.9154      6.5413      5.9820      5.3134      4.6119      4.3201      3.5721      2.9615      2.4861    
  2.1336      1.8878      1.7335      1.6594      1.6594      1.7336      1.8878      2.1335      2.4860      2.9613    
  3.5719      4.3200      5.1892      6.1374      7.0926      7.9565      8.6180      8.9782      8.9782      8.6180    
  7.9565      7.0926      6.1373      5.1892      4.5728      3.6974      3.0065      2.4861      2.1139      1.8669    
  1.7266      1.6812      1.7267      1.8669      2.1138      2.4860      3.0063      3.6972      4.5728      5.6282    
  6.8292      8.1026      9.3336      10.376      11.080      11.329      11.080      10.376      9.3336      8.1025    
  6.8291      5.6281      4.6615      3.6974      2.9615      2.4256      2.0577      1.8294      1.7205      1.7205    
  1.8295      2.0577      2.4255      2.9613      3.6972      4.6615      5.8660      7.2928      8.8788      10.506    
  12.001      13.161      13.798      13.798      13.161      12.001      10.506      8.8787      7.2926      5.8659    
  4.5728      3.5721      2.8327      2.3133      1.9738      1.7831      1.7217      1.7831      1.9738      2.3131    
  2.8325      3.5719      4.5728      5.8660      7.4562      9.3024      11.299      13.267      14.960      16.117    
  16.529      16.117      14.960      13.267      11.299      9.3022      7.4561      5.8659      4.3201      3.3395    
  2.6381      2.1643      1.8743      1.7371      1.7371      1.8743      2.1642      2.6379      3.3394      4.3200    
  5.6282      7.2928      9.3024      11.581      13.964      16.193      17.946      18.918      18.918      17.946    
  16.193      13.964      11.581      9.3022      7.2926      5.6281      3.9399      3.0312      2.4026      1.9976    
  1.7725      1.7005      1.7725      1.9975      2.4025      3.0311      3.9399      5.1892      6.8292      8.8788    
  11.299      13.964      16.632      18.962      20.570      21.145      20.569      18.962      16.632      13.964    
  11.299      8.8787      6.8290      5.1892      3.4825      2.6850      2.1532      1.8313      1.6803      1.6803    
  1.8313      2.1531      2.6849      3.4825      4.6119      6.1374      8.1026      10.506      13.267      16.193    
  18.962      21.161      22.387      22.387      21.161      18.962      16.193      13.267      10.506      8.1024    
  6.1373      4.6119      3.0003      2.3368      1.9135      1.6803      1.6061      1.6803      1.9135      2.3367    
  3.0002      3.9692      5.3135      7.0926      9.3336      12.001      14.960      17.946      20.570      22.387    
  23.040      22.387      20.569      17.946      14.960      12.001      9.3336      7.0925      5.3134      3.9692    
  2.5380      2.0149      1.7005      1.5537      1.5537      1.7005      2.0149      2.5379      3.3282      4.4542    
  5.9820      7.9565      10.376      13.161      16.117      18.918      21.145      22.387      22.387      21.145    
  18.918      16.117      13.161      10.376      7.9565      5.9819      4.4542      3.3282      2.1268      1.7371    
  1.5231      1.4551      1.5231      1.7371      2.1268      2.7403      3.6391      4.8885      6.5413      8.6180    
  11.080      13.798      16.529      18.918      20.569      21.161      20.569      18.918      16.529      13.798    
  11.080      8.6180      6.5413      4.8885      3.6392      2.7404      1.7831      1.5106      1.3834      1.3834    
  1.5106      1.7831      2.2367      2.9221      3.8980      5.2184      6.9154      8.9782      11.329      13.798    
  16.117      17.946      18.962      18.962      17.946      16.117      13.798      11.329      8.9782      6.9154    
  5.2185      3.8981      2.9222      2.2367      1.5104      1.3347      1.2788      1.3348      1.5105      1.8294    
  2.3299      3.0603      4.0705      5.3971      7.0471      8.9782      11.080      13.161      14.960      16.193    
  16.632      16.193      14.960      13.161      11.080      8.9782      7.0472      5.3972      4.0706      3.0605    
  2.3300      1.8295      1.3042      1.2046      1.2046      1.3042      1.5164      1.8669      2.3926      3.1352    
  4.1311      5.3972      6.9154      8.6180      10.376      12.001      13.267      13.964      13.964      13.267    
  12.001      10.376      8.6180      6.9154      5.3972      4.1312      3.1353      2.3927      1.8670      1.5163    
  1.1558      1.1139      1.1559      1.2870      1.5225      1.8878      2.4147      3.1352      4.0705      5.2184    
  6.5413      7.9565      9.3336      10.506      11.299      11.581      11.299      10.506      9.3336      7.9565    
  6.5413      5.2185      4.0706      3.1353      2.4148      1.8879      1.5225      1.2869      1.0567      1.0567    
  1.1284      1.2793      1.5251      1.8878      2.3926      3.0603      3.8980      4.8885      5.9820      7.0926    
  8.1025      8.8787      9.3022      9.3022      8.8787      8.1024      7.0925      5.9819      4.8885      3.8981    
  3.0605      2.3927      1.8879      1.5251      1.2793      1.1283      1.0000      1.0292      1.1195      1.2793    
  1.5225      1.8669      2.3299      2.9221      3.6391      4.4541      5.3134      6.1373      6.8291      7.2926    
  7.4561      7.2926      6.8290      6.1373      5.3134      4.4542      3.6392      2.9222      2.3300      1.8670    
  1.5225      1.2793      1.1194      1.0292     0.98155      1.0292      1.1283      1.2869      1.5163      1.8294    
  2.2367      2.7403      3.3281      3.9691      4.6119      5.1892      5.6281      5.8659      5.8659      5.6281    
  5.1892      4.6119      3.9692      3.3282      2.7404      2.2367      1.8295      1.5163      1.2869      1.1283    
  1.0292     0.98155      1.1465      1.2072      1.3042      1.4436      1.6319      1.8743      2.1709      2.5142    
  2.8855      3.2551      3.5846      3.8337      3.9681      3.9681      3.8337      3.5846      3.2551      2.8855    
  2.5142      2.1710      1.8743      1.6319      1.4435      1.3042      1.2072      1.1465      1.1173      1.1173    
  1.2072      1.2577      1.3348      1.4435      1.5886      1.7725      1.9931      2.2410      2.4992      2.7431    
  2.9450      3.0787      3.1255      3.0787      2.9450      2.7431      2.4992      2.2411      1.9931      1.7725    
  1.5885      1.4434      1.3347      1.2577      1.2073      1.1789      1.1697      1.1789      1.3042      1.3348    
  1.3834      1.4551      1.5538      1.6803      1.8313      1.9976      2.1643      2.3133      2.4257      2.4861    
  2.4861      2.4256      2.3133      2.1643      1.9976      1.8313      1.6803      1.5537      1.4551      1.3834    
  1.3348      1.3042      1.2870      1.2793      1.2793      1.2869      1.4436      1.4435      1.4551      1.4843    
  1.5345      1.6061      1.6952      1.7936      1.8896      1.9704      2.0243      2.0432      2.0243      1.9704    