unknown system                          
   1.00000000000000     
     0.000000    2.733509    2.733509
     2.733509    0.000000    2.733509
     2.733509    2.733509    0.000000
   Si
     2
Direct
  0.500000  0.500000  0.500000
  0.750000  0.750000  0.750000
 
   28   28   28
 0.86481043788E+00 0.89133581688E+00 0.97319771805E+00 0.11174850217E+01 0.13362317496E+01
 0.16452463043E+01 0.20604738520E+01 0.25917558223E+01 0.32352405076E+01 0.39665745577E+01
 0.47370825542E+01 0.54750067513E+01 0.60937648155E+01 0.65079048072E+01 0.66538179562E+01
 0.65078927702E+01 0.60937750281E+01 0.54750540150E+01 0.47371333177E+01 0.39665839617E+01
 0.32352034201E+01 0.25917074172E+01 0.20604481996E+01 0.16452479218E+01 0.13362440834E+01
 0.11174930377E+01 0.97319830580E+00 0.89133374083E+00 0.89133581688E+00 0.93602668144E+00
 0.10288766844E+01 0.11770316412E+01 0.13910513792E+01 0.16831883608E+01 0.20635923001E+01
 0.25347389328E+01 0.30854260917E+01 0.36863114975E+01 0.42889795286E+01 0.48301106884E+01
 0.52414301992E+01 0.54641960602E+01 0.54641977264E+01 0.52414433558E+01 0.48301392258E+01
 0.42889999660E+01 0.36862954972E+01 0.30853803830E+01 0.25347015933E+01 0.20635891712E+01
 0.16832094841E+01 0.13910719448E+01 0.11770407421E+01 0.10288793616E+01 0.93602882590E+00
 0.89133704995E+00 0.97319771805E+00 0.10288766844E+01 0.11262646528E+01 0.12721671418E+01
 0.14752809029E+01 0.17441509424E+01 0.20836267493E+01 0.24902828312E+01 0.29480975712E+01
 0.34261667966E+01 0.38800545723E+01 0.42576020909E+01 0.45087134446E+01 0.45968866186E+01
 0.45087193698E+01 0.42576093358E+01 0.38800500608E+01 0.34261412591E+01 0.29480643426E+01
 0.24902695049E+01 0.20836432723E+01 0.17441782162E+01 0.14752956047E+01 0.12721663468E+01
 0.11262604500E+01 0.10288769571E+01 0.97320021482E+00 0.95509420036E+00 0.11174850217E+01
 0.11770316412E+01 0.12721671418E+01 0.14091182562E+01 0.15945523403E+01 0.18335367541E+01
 0.21265583861E+01 0.24660824004E+01 0.28338239268E+01 0.32002224957E+01 0.35272282655E+01
 0.37745238786E+01 0.39079917452E+01 0.39079920992E+01 0.37745236472E+01 0.35272240724E+01
 0.32002135844E+01 0.28338180687E+01 0.24660896925E+01 0.21265758445E+01 0.18335478642E+01
 0.15945470629E+01 0.14091049600E+01 0.12721590956E+01 0.11770307213E+01 0.11174855775E+01
 0.10889178925E+01 0.10889179425E+01 0.13362317496E+01 0.13910513792E+01 0.14752809029E+01
 0.15945523403E+01 0.17536829272E+01 0.19549053329E+01 0.21956187645E+01 0.24660809417E+01
 0.27480196952E+01 0.30153044351E+01 0.32373401088E+01 0.33848552297E+01 0.34366174237E+01
 0.33848563862E+01 0.32373461968E+01 0.30153162883E+01 0.27480327321E+01 0.24660890220E+01
 0.21956171822E+01 0.19548927919E+01 0.17536656104E+01 0.15945425115E+01 0.14752845634E+01
 0.13910601218E+01 0.13362340078E+01 0.13057117782E+01 0.12959617597E+01 0.13057150655E+01
 0.16452463043E+01 0.16831883608E+01 0.17441509424E+01 0.18335367541E+01 0.19549053329E+01
 0.21086437847E+01 0.22905001166E+01 0.24902819537E+01 0.26914576892E+01 0.28724807428E+01
 0.30101981101E+01 0.30847977726E+01 0.30848000735E+01 0.30102066480E+01 0.28724940989E+01
 0.26914649216E+01 0.24902714258E+01 0.22904742203E+01 0.21086191676E+01 0.19548979486E+01
 0.18335491768E+01 0.17441725877E+01 0.16832046964E+01 0.16452493933E+01 0.16243601737E+01
 0.16154117098E+01 0.16154157287E+01 0.16243662389E+01 0.20604738520E+01 0.20635923001E+01
 0.20836267493E+01 0.21265583861E+01 0.21956187645E+01 0.22905001166E+01 0.24066410082E+01
 0.25347421156E+01 0.26610274131E+01 0.27688390250E+01 0.28417514426E+01 0.28675665093E+01
 0.28417586592E+01 0.27688441646E+01 0.26610172196E+01 0.25347119999E+01 0.24066053614E+01
 0.22904842345E+01 0.21956350024E+01 0.21265924471E+01 0.20836518177E+01 0.20635952150E+01
 0.20604632684E+01 0.20665977992E+01 0.20742329929E+01 0.20775082530E+01 0.20742360552E+01
 0.20666070402E+01 0.25917558223E+01 0.25347389328E+01 0.24902828312E+01 0.24660824004E+01
 0.24660809417E+01 0.24902819537E+01 0.25347421156E+01 0.25917594572E+01 0.26505941692E+01
 0.26991430242E+01 0.27266316451E+01 0.27266371973E+01 0.26991476717E+01 0.26505782535E+01
 0.25917241781E+01 0.25347143540E+01 0.24902882051E+01 0.24661189525E+01 0.24661211641E+01
 0.24902913012E+01 0.25347146610E+01 0.25917248092E+01 0.26505821567E+01 0.26991508023E+01
 0.27266357075E+01 0.27266290098E+01 0.26991430538E+01 0.26505938751E+01 0.32352405076E+01
 0.30854260917E+01 0.29480975712E+01 0.28338239268E+01 0.27480196952E+01 0.26914576892E+01
 0.26610274131E+01 0.26505941692E+01 0.26521215698E+01 0.26573319762E+01 0.26598740201E+01
 0.26573369676E+01 0.26521102140E+01 0.26505634522E+01 0.26610083792E+01 0.26914788735E+01
 0.27480679898E+01 0.28338561632E+01 0.29480865391E+01 0.30853851418E+01 0.32352051815E+01
 0.33820309192E+01 0.35070251594E+01 0.35914636788E+01 0.36213393782E+01 0.35914442284E+01
 0.35070066401E+01 0.33820369805E+01 0.39665745577E+01 0.36863114975E+01 0.34261667966E+01
 0.32002224957E+01 0.30153044351E+01 0.28724807428E+01 0.27688390250E+01 0.26991430242E+01
 0.26573319762E+01 0.26380282939E+01 0.26380266880E+01 0.26573176990E+01 0.26991114153E+01
 0.27688166199E+01 0.28724986134E+01 0.30153518762E+01 0.32002533869E+01 0.34261539025E+01
 0.36862748048E+01 0.39665515470E+01 0.42451302411E+01 0.44938425532E+01 0.46822910364E+01
 0.47841974247E+01 0.47841923444E+01 0.46822760389E+01 0.44938240968E+01 0.42451257023E+01
 0.47370825542E+01 0.42889795286E+01 0.38800545723E+01 0.35272282655E+01 0.32373401088E+01
 0.30101981101E+01 0.28417514426E+01 0.27266316451E+01 0.26598740201E+01 0.26380266880E+01
 0.26598508461E+01 0.27265902507E+01 0.28417179033E+01 0.30102052357E+01 0.32373860288E+01
 0.35272709267E+01 0.38800594040E+01 0.42889563472E+01 0.47370645200E+01 0.51956148566E+01
 0.56248759583E+01 0.59787235422E+01 0.62128509072E+01 0.62948689289E+01 0.62128531005E+01
 0.59787206241E+01 0.56248670539E+01 0.51956134707E+01 0.54750067513E+01 0.48301106884E+01
 0.42576020909E+01 0.37745238786E+01 0.33848552297E+01 0.30847977726E+01 0.28675665093E+01
 0.27266371973E+01 0.26573369676E+01 0.26573176990E+01 0.27265902507E+01 0.28675245303E+01
 0.30847990586E+01 0.33849065671E+01 0.37745862101E+01 0.42576282078E+01 0.48300914968E+01
 0.54749702179E+01 0.61581831138E+01 0.68279540020E+01 0.74191776400E+01 0.78632724374E+01
 0.81021021949E+01 0.81020938384E+01 0.78632543685E+01 0.74191642215E+01 0.68279571768E+01
 0.61582078008E+01 0.60937648155E+01 0.52414301992E+01 0.45087134446E+01 0.39079917452E+01
 0.34366174237E+01 0.30848000735E+01 0.28417586592E+01 0.26991476717E+01 0.26521102140E+01
 0.26991114153E+01 0.28417179033E+01 0.30847990586E+01 0.34366734104E+01 0.39080690415E+01
 0.45087509506E+01 0.52413999853E+01 0.60936950281E+01 0.70309745299E+01 0.79924996309E+01
 0.88939358491E+01 0.96375529993E+01 0.10129726492E+02 0.10302138169E+02 0.10129674727E+02
 0.96374846311E+01 0.88938937342E+01 0.79925089058E+01 0.70310316626E+01 0.65079048072E+01
 0.54641960602E+01 0.45968866186E+01 0.39079920992E+01 0.33848563862E+01 0.30102066480E+01
 0.27688441646E+01 0.26505782535E+01 0.26505634522E+01 0.27688166199E+01 0.30102052357E+01
 0.33849065671E+01 0.39080690415E+01 0.45969250584E+01 0.54641536363E+01 0.65078107993E+01
 0.77001749430E+01 0.89792870823E+01 0.10247010042E+02 0.11376597459E+02 0.12231441604E+02
 0.12693430956E+02 0.12693405665E+02 0.12231372505E+02 0.11376507889E+02 0.10246941877E+02
 0.89792843518E+01 0.77002458524E+01 0.66538179562E+01 0.54641977264E+01 0.45087193698E+01
 0.37745236472E+01 0.32373461968E+01 0.28724940989E+01 0.26610172196E+01 0.25917241781E+01
 0.26610083792E+01 0.28724986134E+01 0.32373860288E+01 0.37745862101E+01 0.45087509506E+01
 0.54641536363E+01 0.66537239093E+01 0.80647961167E+01 0.96453840361E+01 0.11295601651E+02
 0.12868601081E+02 0.14185457825E+02 0.15066821525E+02 0.15377062830E+02 0.15066844525E+02
 0.14185449497E+02 0.12868527264E+02 0.11295505348E+02 0.96453491942E+01 0.80648548097E+01
 0.65078927702E+01 0.52414433558E+01 0.42576093358E+01 0.35272240724E+01 0.30153162883E+01
 0.26914649216E+01 0.25347119999E+01 0.25347143540E+01 0.26914788735E+01 0.30153518762E+01
 0.35272709267E+01 0.42576282078E+01 0.52413999853E+01 0.65078107993E+01 0.80647961167E+01
 0.98811996449E+01 0.11871211269E+02 0.13885830883E+02 0.15717103457E+02 0.17114523013E+02
 0.17866835959E+02 0.17866900454E+02 0.17114647646E+02 0.15717155777E+02 0.13885755115E+02
 0.11871081405E+02 0.98811335772E+01 0.80648345554E+01 0.60937750281E+01 0.48301392258E+01
 0.38800500608E+01 0.32002135844E+01 0.27480327321E+01 0.24902714258E+01 0.24066053614E+01
 0.24902882051E+01 0.27480679898E+01 0.32002533869E+01 0.38800594040E+01 0.48300914968E+01
 0.60936950281E+01 0.77001749430E+01 0.96453840361E+01 0.11871211269E+02 0.14247961195E+02
 0.16561534094E+02 0.18500122041E+02 0.19778683769E+02 0.20223955113E+02 0.19778829961E+02
 0.18500282932E+02 0.16561571510E+02 0.14247854842E+02 0.11871063658E+02 0.96453130580E+01
 0.77002104747E+01 0.54750540150E+01 0.42889999660E+01 0.34261412591E+01 0.28338180687E+01
 0.24660890220E+01 0.22904742203E+01 0.22904842345E+01 0.24661189525E+01 0.28338561632E+01
 0.34261539025E+01 0.42889563472E+01 0.54749702179E+01 0.70309745299E+01 0.89792870823E+01
 0.11295601651E+02 0.13885830883E+02 0.16561534094E+02 0.18989617361E+02 0.20814747384E+02
 0.21789163959E+02 0.21789242979E+02 0.20814918564E+02 0.18989741001E+02 0.16561516649E+02
 0.13885698178E+02 0.11295465007E+02 0.89792421992E+01 0.70310282214E+01 0.47371333177E+01
 0.36862954972E+01 0.29480643426E+01 0.24660896925E+01 0.21956171822E+01 0.21086191676E+01
 0.21956350024E+01 0.24661211641E+01 0.29480865391E+01 0.36862748048E+01 0.47370645200E+01
 0.61581831138E+01 0.79924996309E+01 0.10247010042E+02 0.12868601081E+02 0.15717103457E+02
 0.18500122041E+02 0.20814747384E+02 0.22336901907E+02 0.22866707544E+02 0.22337048418E+02
 0.20814922384E+02 0.18500193635E+02 0.15717033300E+02 0.12868461469E+02 0.10246910480E+02
 0.79924976255E+01 0.61582519309E+01 0.39665839617E+01 0.30853803830E+01 0.24902695049E+01
 0.21265758445E+01 0.19548927919E+01 0.19548979486E+01 0.21265924471E+01 0.24902913012E+01
 0.30853851418E+01 0.39665515470E+01 0.51956148566E+01 0.68279540020E+01 0.88939358491E+01
 0.11376597459E+02 0.14185457825E+02 0.17114523013E+02 0.19778683769E+02 0.21789163959E+02
 0.22866707544E+02 0.22866796450E+02 0.21789354480E+02 0.19778822747E+02 0.17114521821E+02
 0.14185352740E+02 0.11376490381E+02 0.88938995526E+01 0.68279891722E+01 0.51956725962E+01
 0.32352034201E+01 0.25347015933E+01 0.20836432723E+01 0.18335478642E+01 0.17536656104E+01
 0.18335491768E+01 0.20836518177E+01 0.25347146610E+01 0.32352051815E+01 0.42451302411E+01
 0.56248759583E+01 0.74191776400E+01 0.96375529993E+01 0.12231441604E+02 0.15066821525E+02
 0.17866835959E+02 0.20223955113E+02 0.21789242979E+02 0.22337048418E+02 0.21789354480E+02
 0.20224070886E+02 0.17866860126E+02 0.15066760174E+02 0.12231371740E+02 0.96375332120E+01
 0.74192067940E+01 0.56249178277E+01 0.42451536188E+01 0.25917074172E+01 0.20635891712E+01
 0.17441782162E+01 0.15945470629E+01 0.15945425115E+01 0.17441725877E+01 0.20635952150E+01
 0.25917248092E+01 0.33820309192E+01 0.44938425532E+01 0.59787235422E+01 0.78632724374E+01
 0.10129726492E+02 0.12693430956E+02 0.15377062830E+02 0.17866900454E+02 0.19778829961E+02
 0.20814918564E+02 0.20814922384E+02 0.19778822747E+02 0.17866860126E+02 0.15377010375E+02
 0.12693413883E+02 0.10129762774E+02 0.78633331965E+01 0.59787683073E+01 0.44938540957E+01
 0.33820179920E+01 0.20604481996E+01 0.16832094841E+01 0.14752956047E+01 0.14091049600E+01
 0.14752845634E+01 0.16832046964E+01 0.20604632684E+01 0.26505821567E+01 0.35070251594E+01
 0.46822910364E+01 0.62128509072E+01 0.81021021949E+01 0.10302138169E+02 0.12693405665E+02
 0.15066844525E+02 0.17114647646E+02 0.18500282932E+02 0.18989741001E+02 0.18500193635E+02
 0.17114521821E+02 0.15066760174E+02 0.12693413883E+02 0.10302223827E+02 0.81022012483E+01
 0.62129080978E+01 0.46822953984E+01 0.35069982315E+01 0.26505514235E+01 0.16452479218E+01
 0.13910719448E+01 0.12721663468E+01 0.12721590956E+01 0.13910601218E+01 0.16452493933E+01
 0.20665977992E+01 0.26991508023E+01 0.35914636788E+01 0.47841974247E+01 0.62948689289E+01
 0.81020938384E+01 0.10129674727E+02 0.12231372505E+02 0.14185449497E+02 0.15717155777E+02
 0.16561571510E+02 0.16561516649E+02 0.15717033300E+02 0.14185352740E+02 0.12231371740E+02
 0.10129762774E+02 0.81022012483E+01 0.62949304918E+01 0.47841989244E+01 0.35914308639E+01
 0.26991139828E+01 0.20665754274E+01 0.13362440834E+01 0.11770407421E+01 0.11262604500E+01
 0.11770307213E+01 0.13362340078E+01 0.16243601737E+01 0.20742329929E+01 0.27266357075E+01
 0.36213393782E+01 0.47841923444E+01 0.62128531005E+01 0.78632543685E+01 0.96374846311E+01
 0.11376507889E+02 0.12868527264E+02 0.13885755115E+02 0.14247854842E+02 0.13885698178E+02
 0.12868461469E+02 0.11376490381E+02 0.96375332120E+01 0.78633331965E+01 0.62129080978E+01
 0.47841989244E+01 0.36213131972E+01 0.27266056841E+01 0.20742162286E+01 0.16243595289E+01
 0.11174930377E+01 0.10288793616E+01 0.10288769571E+01 0.11174855775E+01 0.13057117782E+01
 0.16154117098E+01 0.20775082530E+01 0.27266290098E+01 0.35914442284E+01 0.46822760389E+01
 0.59787206241E+01 0.74191642215E+01 0.88938937342E+01 0.10246941877E+02 0.11295505348E+02
 0.11871081405E+02 0.11871063658E+02 0.11295465007E+02 0.10246910480E+02 0.88938995526E+01
 0.74192067940E+01 0.59787683073E+01 0.46822953984E+01 0.35914308639E+01 0.27266056841E+01
 0.20774972483E+01 0.16154162871E+01 0.13057220819E+01 0.97319830580E+00 0.93602882590E+00
 0.97320021482E+00 0.10889178925E+01 0.12959617597E+01 0.16154157287E+01 0.20742360552E+01
 0.26991430538E+01 0.35070066401E+01 0.44938240968E+01 0.56248670539E+01 0.68279571768E+01
 0.79925089058E+01 0.89792843518E+01 0.96453491942E+01 0.98811335772E+01 0.96453130580E+01
 0.89792421992E+01 0.79924976255E+01 0.68279891722E+01 0.56249178277E+01 0.44938540957E+01
 0.35069982315E+01 0.26991139828E+01 0.20742162286E+01 0.16154162871E+01 0.12959708184E+01
 0.10889214789E+01 0.89133374083E+00 0.89133704995E+00 0.95509420036E+00 0.10889179425E+01
 0.13057150655E+01 0.16243662389E+01 0.20666070402E+01 0.26505938751E+01 0.33820369805E+01
 0.42451257023E+01 0.51956134707E+01 0.61582078008E+01 0.70310316626E+01 0.77002458524E+01
 0.80648548097E+01 0.80648345554E+01 0.77002104747E+01 0.70310282214E+01 0.61582519309E+01
 0.51956725962E+01 0.42451536188E+01 0.33820179920E+01 0.26505514235E+01 0.20665754274E+01
 0.16243595289E+01 0.13057220819E+01 0.10889214789E+01 0.95509008985E+00 0.89133598857E+00
 0.93602802840E+00 0.10288780263E+01 0.11770325767E+01 0.13910527259E+01 0.16831902130E+01
 0.20635935144E+01 0.25347389989E+01 0.30854256742E+01 0.36863107182E+01 0.42889776411E+01
 0.48301079456E+01 0.52414281451E+01 0.54641954267E+01 0.54641978090E+01 0.52414438556E+01
 0.48301408007E+01 0.42890024956E+01 0.36862977037E+01 0.30853816946E+01 0.25347025827E+01
 0.20635897558E+01 0.16832086191E+01 0.13910696060E+01 0.11770383493E+01 0.10288777359E+01
 0.93602751472E+00 0.89133604387E+00 0.93602802840E+00 0.99026649367E+00 0.10849181110E+01
 0.12264319015E+01 0.14232084342E+01 0.16836265045E+01 0.20125236174E+01 0.24066395372E+01
 0.28503647493E+01 0.33135764108E+01 0.37530909986E+01 0.41184204604E+01 0.43612546384E+01
 0.44464918870E+01 0.43612644659E+01 0.41184360449E+01 0.37530946061E+01 0.33135496406E+01
 0.28503175476E+01 0.24066082252E+01 0.20125312834E+01 0.16836585540E+01 0.14232346865E+01
 0.12264403052E+01 0.10849177315E+01 0.99026753853E+00 0.93603065193E+00 0.91836604649E+00
 0.10288780263E+01 0.10849181110E+01 0.11740214066E+01 0.13018935427E+01 0.14749222715E+01
 0.16981778857E+01 0.19723894035E+01 0.22905024781E+01 0.26350923538E+01 0.29780856079E+01
 0.32836899551E+01 0.35143909410E+01 0.36387396586E+01 0.36387424816E+01 0.35143936285E+01
 0.32836797094E+01 0.29780566259E+01 0.26350588573E+01 0.22904899734E+01 0.19724072595E+01
 0.16982079254E+01 0.14749404276E+01 0.13018949602E+01 0.11740175006E+01 0.10849174604E+01
 0.10288798026E+01 0.10018740427E+01 0.10018730869E+01 0.11770325767E+01 0.12264319015E+01
 0.13018935427E+01 0.14086065946E+01 0.15513527051E+01 0.17326609308E+01 0.19504278688E+01
 0.21956211589E+01 0.24511399131E+01 0.26928307403E+01 0.28929658995E+01 0.30255409302E+01
 0.30719816617E+01 0.30255413262E+01 0.28929594369E+01 0.26928158024E+01 0.24511282618E+01
 0.21956266676E+01 0.19504479744E+01 0.17326768658E+01 0.15513514601E+01 0.14085954243E+01
 0.13018872058E+01 0.12264330504E+01 0.11770336405E+01 0.11493085474E+01 0.11403978842E+01
 0.11493100908E+01 0.13910527259E+01 0.14232084342E+01 0.14749222715E+01 0.15513527051E+01
 0.16562683709E+01 0.17905208072E+01 0.19504268508E+01 0.21265583055E+01 0.23036888568E+01
 0.24624572572E+01 0.25826854743E+01 0.26475772603E+01 0.26475781876E+01 0.25826859434E+01
 0.24624552341E+01 0.23036883714E+01 0.21265643340E+01 0.19504355870E+01 0.17905217913E+01
 0.16562584453E+01 0.15513420548E+01 0.14749219542E+01 0.14232160005E+01 0.13910566621E+01
 0.13732082717E+01 0.13654595458E+01 0.13654626993E+01 0.13732118447E+01 0.16831902130E+01
 0.16836265045E+01 0.16981778857E+01 0.17326609308E+01 0.17905208072E+01 0.18718089037E+01
 0.19723888674E+01 0.20836276737E+01 0.21929979398E+01 0.22858736555E+01 0.23483500816E+01
 0.23703967694E+01 0.23483513241E+01 0.22858723352E+01 0.21929923967E+01 0.20836202877E+01
 0.19723819982E+01 0.18718033228E+01 0.17905185863E+01 0.17326650501E+01 0.16981870762E+01
 0.16836341514E+01 0.16831907903E+01 0.16899082233E+01 0.16971603624E+01 0.17001624902E+01
 0.16971654796E+01 0.16899135102E+01 0.20635935144E+01 0.20125236174E+01 0.19723894035E+01
 0.19504278688E+01 0.19504268508E+01 0.19723888674E+01 0.20125260810E+01 0.20635964031E+01
 0.21158132717E+01 0.21585300313E+01 0.21825652285E+01 0.21825653851E+01 0.21585259428E+01
 0.21157996324E+01 0.20635784886E+01 0.20125160162E+01 0.19723930769E+01 0.19504414141E+01
 0.19504430969E+01 0.19723955846E+01 0.20125166853E+01 0.20635794696E+01 0.21158029153E+01
 0.21585285063E+01 0.21825643972E+01 0.21825631832E+01 0.21585297409E+01 0.21158127143E+01
 0.25347389989E+01 0.24066395372E+01 0.22905024781E+01 0.21956211589E+01 0.21265583055E+01
 0.20836276737E+01 0.20635964031E+01 0.20604771795E+01 0.20666067063E+01 0.20742351254E+01
 0.20775088107E+01 0.20742316124E+01 0.20665927337E+01 0.20604589541E+01 0.20635947667E+01
 0.20836520698E+01 0.21265911015E+01 0.21956354686E+01 0.22904885709E+01 0.24066095804E+01
 0.25347132099E+01 0.26610183620E+01 0.27688469891E+01 0.28417592540E+01 0.28675626684E+01
 0.28417473592E+01 0.27688378635E+01 0.26610262710E+01 0.30854256742E+01 0.28503647493E+01
 0.26350923538E+01 0.24511399131E+01 0.23036888568E+01 0.21929979398E+01 0.21158132717E+01
 0.20666067063E+01 0.20388824185E+01 0.20267785040E+01 0.20267755807E+01 0.20388709614E+01
 0.20665920918E+01 0.21158181714E+01 0.21930349792E+01 0.23037326495E+01 0.24511487232E+01
 0.26350565489E+01 0.28503170133E+01 0.30854030051E+01 0.33216755740E+01 0.35344658772E+01
 0.36967016474E+01 0.37847560700E+01 0.37847486655E+01 0.36966811782E+01 0.35344411970E+01
 0.33216657730E+01 0.36863107182E+01 0.33135764108E+01 0.29780856079E+01 0.26928307403E+01
 0.24624572572E+01 0.22858736555E+01 0.21585300313E+01 0.20742351254E+01 0.20267785040E+01
 0.20115293989E+01 0.20267667259E+01 0.20742208547E+01 0.21585351978E+01 0.22859114595E+01
 0.24625029982E+01 0.26928379648E+01 0.29780417142E+01 0.33135233360E+01 0.36862979612E+01
 0.40728854114E+01 0.44392854966E+01 0.47444905646E+01 0.49479706643E+01 0.50195375068E+01
 0.49479694282E+01 0.47444719128E+01 0.44392461183E+01 0.40728540815E+01 0.42889776411E+01
 0.37530909986E+01 0.32836899551E+01 0.28929658995E+01 0.25826854743E+01 0.23483500816E+01
 0.21825652285E+01 0.20775088107E+01 0.20267755807E+01 0.20267667259E+01 0.20774932668E+01
 0.21825684394E+01 0.23483867042E+01 0.25827332815E+01 0.28929789751E+01 0.32836512784E+01
 0.37530395535E+01 0.42889669066E+01 0.48647635752E+01 0.54373260703E+01 0.59495122404E+01
 0.63384583856E+01 0.65491410420E+01 0.65491496786E+01 0.63384685589E+01 0.59494955827E+01
 0.54372800661E+01 0.48647257224E+01 0.48301079456E+01 0.41184204604E+01 0.35143909410E+01
 0.30255409302E+01 0.26475772603E+01 0.23703967694E+01 0.21825653851E+01 0.20742316124E+01
 0.20388709614E+01 0.20742208547E+01 0.21825684394E+01 0.23704329205E+01 0.26476295148E+01
 0.30255639503E+01 0.35143603555E+01 0.41183668797E+01 0.48300866838E+01 0.56236050063E+01
 0.64496889314E+01 0.72355490812E+01 0.78922861226E+01 0.83312028818E+01 0.84857820560E+01
 0.83312165339E+01 0.78922912063E+01 0.72355232819E+01 0.64496402482E+01 0.56235748886E+01
 0.52414281451E+01 0.43612546384E+01 0.36387396586E+01 0.30719816617E+01 0.26475781876E+01
 0.23483513241E+01 0.21585259428E+01 0.20665927337E+01 0.20665920918E+01 0.21585351978E+01
 0.23483867042E+01 0.26476295148E+01 0.30720088030E+01 0.36387121464E+01 0.43611929326E+01
 0.52413907699E+01 0.62602728381E+01 0.73689788605E+01 0.84840697827E+01 0.94913316961E+01
 0.10262079402E+02 0.10681624117E+02 0.10681636828E+02 0.10262100878E+02 0.94913270679E+01
 0.84840224337E+01 0.73689168823E+01 0.62602492936E+01 0.54641954267E+01 0.44464918870E+01
 0.36387424816E+01 0.30255413262E+01 0.25826859434E+01 0.22858723352E+01 0.21157996324E+01
 0.20604589541E+01 0.21158181714E+01 0.22859114595E+01 0.25827332815E+01 0.30255639503E+01
 0.36387121464E+01 0.44464229702E+01 0.54641476860E+01 0.66866054118E+01 0.80746528987E+01
 0.95444908258E+01 0.10964530709E+02 0.12166872693E+02 0.12978209010E+02 0.13265433106E+02
 0.12978277928E+02 0.12166940608E+02 0.10964525433E+02 0.95444083549E+01 0.80745612862E+01
 0.66865781517E+01 0.54641978090E+01 0.43612644659E+01 0.35143936285E+01 0.28929594369E+01
 0.24624552341E+01 0.21929923967E+01 0.20635784886E+01 0.20635947667E+01 0.21930349792E+01
 0.24625029982E+01 0.28929789751E+01 0.35143603555E+01 0.43611929326E+01 0.54641476860E+01
 0.68368635950E+01 0.84594333843E+01 0.10261432046E+02 0.12109561286E+02 0.13808748922E+02
 0.15127691375E+02 0.15852415491E+02 0.15852495740E+02 0.15127863074E+02 0.13808869256E+02
 0.12109541889E+02 0.10261306951E+02 0.84593121034E+01 0.68368290700E+01 0.52414438556E+01
 0.41184360449E+01 0.32836797094E+01 0.26928158024E+01 0.23036883714E+01 0.20836202877E+01
 0.20125160162E+01 0.20836520698E+01 0.23037326495E+01 0.26928379648E+01 0.32836512784E+01
 0.41183668797E+01 0.52413907699E+01 0.66866054118E+01 0.84594333843E+01 0.10515450572E+02
 0.12739179765E+02 0.14931422931E+02 0.16820478159E+02 0.18111920019E+02 0.18572307027E+02
 0.18112094314E+02 0.16820694961E+02 0.14931530882E+02 0.12739125846E+02 0.10515303416E+02
 0.84593097003E+01 0.66865765785E+01 0.48301408007E+01 0.37530946061E+01 0.29780566259E+01
 0.24511282618E+01 0.21265643340E+01 0.19723819982E+01 0.19723930769E+01 0.21265911015E+01
 0.24511487232E+01 0.29780417142E+01 0.37530395535E+01 0.48300866838E+01 0.62602728381E+01
 0.80746528987E+01 0.10261432046E+02 0.12739179765E+02 0.15331635162E+02 0.17759403921E+02
 0.19671498718E+02 0.20729124652E+02 0.20729195728E+02 0.19671664136E+02 0.17759556176E+02
 0.15331684395E+02 0.12739111889E+02 0.10261309684E+02 0.80745641388E+01 0.62602659936E+01
 0.42890024956E+01 0.33135496406E+01 0.26350588573E+01 0.21956266676E+01 0.19504355870E+01
 0.18718033228E+01 0.19504414141E+01 0.21956354686E+01 0.26350565489E+01 0.33135233360E+01
 0.42889669066E+01 0.56236050063E+01 0.73689788605E+01 0.95444908258E+01 0.12109561286E+02
 0.14931422931E+02 0.17759403921E+02 0.20229350429E+02 0.21925138743E+02 0.22529128965E+02
 0.21925187464E+02 0.20229426185E+02 0.17759470358E+02 0.14931444586E+02 0.12109526891E+02
 0.95444283358E+01 0.73689377239E+01 0.56236119005E+01 0.36862977037E+01 0.28503175476E+01
 0.22904899734E+01 0.19504479744E+01 0.17905217913E+01 0.17905185863E+01 0.19504430969E+01
 0.22904885709E+01 0.28503170133E+01 0.36862979612E+01 0.48647635752E+01 0.64496889314E+01
 0.84840697827E+01 0.10964530709E+02 0.13808748922E+02 0.16820478159E+02 0.19671498718E+02
 0.21925138743E+02 0.23170891858E+02 0.23170884067E+02 0.21925126793E+02 0.19671505893E+02
 0.16820514106E+02 0.13808794067E+02 0.10964553626E+02 0.84840614771E+01 0.64496696293E+01
 0.48647539036E+01 0.30853816946E+01 0.24066082252E+01 0.19724072595E+01 0.17326768658E+01
 0.16562584453E+01 0.17326650501E+01 0.19723955846E+01 0.24066095804E+01 0.30854030051E+01
 0.40728854114E+01 0.54373260703E+01 0.72355490812E+01 0.94913316961E+01 0.12166872693E+02
 0.15127691375E+02 0.18111920019E+02 0.20729124652E+02 0.22529128965E+02 0.23170884067E+02
 0.22529073053E+02 0.20729056778E+02 0.18111899324E+02 0.15127743909E+02 0.12166964287E+02
 0.94913986006E+01 0.72355573804E+01 0.54372927908E+01 0.40728471717E+01 0.25347025827E+01
 0.20125312834E+01 0.16982079254E+01 0.15513514601E+01 0.15513420548E+01 0.16981870762E+01
 0.20125166853E+01 0.25347132099E+01 0.33216755740E+01 0.44392854966E+01 0.59495122404E+01
 0.78922861226E+01 0.10262079402E+02 0.12978209010E+02 0.15852415491E+02 0.18572307027E+02
 0.20729195728E+02 0.21925187464E+02 0.21925126793E+02 0.20729056778E+02 0.18572190832E+02
 0.15852408177E+02 0.12978312055E+02 0.10262209982E+02 0.78923546675E+01 0.59494968823E+01
 0.44392298882E+01 0.33216319505E+01 0.20635897558E+01 0.16836585540E+01 0.14749404276E+01
 0.14085954243E+01 0.14749219542E+01 0.16836341514E+01 0.20635794696E+01 0.26610183620E+01
 0.35344658772E+01 0.47444905646E+01 0.63384583856E+01 0.83312028818E+01 0.10681624117E+02
 0.13265433106E+02 0.15852495740E+02 0.18112094314E+02 0.19671664136E+02 0.20229426185E+02
 0.19671505893E+02 0.18111899324E+02 0.15852408177E+02 0.13265503540E+02 0.10681777640E+02
 0.83313183635E+01 0.63384751099E+01 0.47444381206E+01 0.35344090309E+01 0.26609953830E+01
 0.16832086191E+01 0.14232346865E+01 0.13018949602E+01 0.13018872058E+01 0.14232160005E+01
 0.16831907903E+01 0.21158029153E+01 0.27688469891E+01 0.36967016474E+01 0.49479706643E+01
 0.65491410420E+01 0.84857820560E+01 0.10681636828E+02 0.12978277928E+02 0.15127863074E+02
 0.16820694961E+02 0.17759556176E+02 0.17759470358E+02 0.16820514106E+02 0.15127743909E+02
 0.12978312055E+02 0.10681777640E+02 0.84859071180E+01 0.65491710712E+01 0.49479213916E+01
 0.36966378037E+01 0.27688132851E+01 0.21158031565E+01 0.13910696060E+01 0.12264403052E+01
 0.11740175006E+01 0.12264330504E+01 0.13910566621E+01 0.16899082233E+01 0.21585285063E+01
 0.28417592540E+01 0.37847560700E+01 0.50195375068E+01 0.65491496786E+01 0.83312165339E+01
 0.10262100878E+02 0.12166940608E+02 0.13808869256E+02 0.14931530882E+02 0.15331684395E+02
 0.14931444586E+02 0.13808794067E+02 0.12166964287E+02 0.10262209982E+02 0.83313183635E+01
 0.65491710712E+01 0.50194859693E+01 0.37846904539E+01 0.28417240637E+01 0.21585266919E+01
 0.16899211865E+01 0.11770383493E+01 0.10849177315E+01 0.10849174604E+01 0.11770336405E+01
 0.13732082717E+01 0.16971603624E+01 0.21825643972E+01 0.28675626684E+01 0.37847486655E+01
 0.49479694282E+01 0.63384685589E+01 0.78922912063E+01 0.94913270679E+01 0.10964525433E+02
 0.12109541889E+02 0.12739125846E+02 0.12739111889E+02 0.12109526891E+02 0.10964553626E+02
 0.94913986006E+01 0.78923546675E+01 0.63384751099E+01 0.49479213916E+01 0.37846904539E+01
 0.28675340939E+01 0.21825706100E+01 0.16971808417E+01 0.13732231891E+01 0.10288777359E+01
 0.99026753853E+00 0.10288798026E+01 0.11493085474E+01 0.13654595458E+01 0.17001624902E+01
 0.21825631832E+01 0.28417473592E+01 0.36966811782E+01 0.47444719128E+01 0.59494955827E+01
 0.72355232819E+01 0.84840224337E+01 0.95444083549E+01 0.10261306951E+02 0.10515303416E+02
 0.10261309684E+02 0.95444283358E+01 0.84840614771E+01 0.72355573804E+01 0.59494968823E+01
 0.47444381206E+01 0.36966378037E+01 0.28417240637E+01 0.21825706100E+01 0.17001880384E+01
 0.13654815502E+01 0.11493155815E+01 0.93602751472E+00 0.93603065193E+00 0.10018740427E+01
 0.11403978842E+01 0.13654626993E+01 0.16971654796E+01 0.21585297409E+01 0.27688378635E+01
 0.35344411970E+01 0.44392461183E+01 0.54372800661E+01 0.64496402482E+01 0.73689168823E+01
 0.80745612862E+01 0.84593121034E+01 0.84593097003E+01 0.80745641388E+01 0.73689377239E+01
 0.64496696293E+01 0.54372927908E+01 0.44392298882E+01 0.35344090309E+01 0.27688132851E+01
 0.21585266919E+01 0.16971808417E+01 0.13654815502E+01 0.11404063677E+01 0.10018713775E+01
 0.89133604387E+00 0.91836604649E+00 0.10018730869E+01 0.11493100908E+01 0.13732118447E+01
 0.16899135102E+01 0.21158127143E+01 0.26610262710E+01 0.33216657730E+01 0.40728540815E+01
 0.48647257224E+01 0.56235748886E+01 0.62602492936E+01 0.66865781517E+01 0.68368290700E+01
 0.66865765785E+01 0.62602659936E+01 0.56236119005E+01 0.48647539036E+01 0.40728471717E+01
 0.33216319505E+01 0.26609953830E+01 0.21158031565E+01 0.16899211865E+01 0.13732231891E+01
 0.11493155815E+01 0.10018713775E+01 0.91836227771E+00 0.97319974782E+00 0.10288798186E+01
 0.11262668050E+01 0.12721680451E+01 0.14752821698E+01 0.17441524895E+01 0.20836266146E+01
 0.24902807406E+01 0.29480952715E+01 0.34261647270E+01 0.38800516894E+01 0.42575991268E+01
 0.45087127482E+01 0.45968884409E+01 0.45087216721E+01 0.42576114380E+01 0.38800530520E+01
 0.34261446881E+01 0.29480660740E+01 0.24902691457E+01 0.20836423602E+01 0.17441768797E+01
 0.14752925246E+01 0.12721621894E+01 0.11262577925E+01 0.10288765000E+01 0.97320040422E+00
 0.95509469665E+00 0.10288798186E+01 0.10849198273E+01 0.11740221680E+01 0.13018934896E+01
 0.14749221887E+01 0.16981775985E+01 0.19723881038E+01 0.22905003892E+01 0.26350905312E+01
 0.29780843614E+01 0.32836889955E+01 0.35143907401E+01 0.36387410062E+01 0.36387449048E+01
 0.35143958159E+01 0.32836812847E+01 0.29780580124E+01 0.26350597341E+01 0.22904895014E+01
 0.19724056144E+01 0.16982060532E+01 0.14749385369E+01 0.13018927837E+01 0.11740157168E+01
 0.10849172036E+01 0.10288809509E+01 0.10018755097E+01 0.10018745432E+01 0.11262668050E+01
 0.11740221680E+01 0.12467335883E+01 0.13494166276E+01 0.14868312014E+01 0.16616067942E+01