<?xml version="1.0" encoding="ISO-8859-1"?>
<modeling>
 <generator>
  <i name="program" type="string">vasp </i>
  <i name="version" type="string">5.4.4.18Apr17-6-g9f103f2a35  </i>
  <i name="subversion" type="string">(build Dec 09 2018 21:25:21) complex            parallel </i>
  <i name="platform" type="string">IFC18.0.1.163_CrayMPICH7.7.0_MKL18.0.1.163 </i>
  <i name="date" type="string">2019 03 20 </i>
  <i name="time" type="string">09:45:33 </i>
 </generator>
 <incar>
  <i type="string" name="PREC">normal</i>
  <i type="int" name="IBRION">     2</i>
  <i name="EDIFF">      0.00040000</i>
  <i name="EDIFFG">     -0.01000000</i>
  <i type="int" name="NSW">    15</i>
  <i type="int" name="ISIF">     3</i>
  <i name="ENCUT">    200.00000000</i>
  <i type="int" name="NBANDS">     8</i>
  <i type="logical" name="LREAL"> F  </i>
  <i type="int" name="ISMEAR">     0</i>
  <i name="SIGMA">      0.20000000</i>
  <v type="int" name="KPOINT_BSE">    -1     0     0     0</v>
 </incar>
 <structure name="primitive_cell" >
  <crystal>
   <varray name="basis" >
    <v>       0.00000000       2.71500000       2.71500000 </v>
    <v>       2.71500000       0.00000000       2.71500000 </v>
    <v>       2.71500000       2.71500000       0.00000000 </v>
   </varray>
   <i name="volume">     40.02575175 </i>
   <varray name="rec_basis" >
    <v>      -0.18416206       0.18416206       0.18416206 </v>
    <v>       0.18416206      -0.18416206       0.18416206 </v>
    <v>       0.18416206       0.18416206      -0.18416206 </v>
   </varray>
  </crystal>
  <varray name="positions" >
   <v>      -0.50000000      -0.50000000      -0.50000000 </v>
   <v>      -0.25000000      -0.25000000      -0.25000000 </v>
  </varray>
 </structure>
 <varray name="primitive_index" >
  <v type="int" >        1 </v>
  <v type="int" >        2 </v>
 </varray>
 <kpoints>
  <generation param="Monkhorst-Pack">
   <v type="int" name="divisions">      11       11       11 </v>
   <v name="usershift">      0.00000000       0.00000000       0.00000000 </v>
   <v name="genvec1">      0.09090909       0.00000000      -0.00000000 </v>
   <v name="genvec2">      0.00000000       0.09090909       0.00000000 </v>
   <v name="genvec3">     -0.00000000      -0.00000000       0.09090909 </v>
   <v name="shift">      0.00000000       0.00000000       0.00000000 </v>
  </generation>
  <varray name="kpointlist" >
   <v>       0.00000000       0.00000000       0.00000000 </v>
   <v>       0.09090909      -0.00000000       0.00000000 </v>
   <v>       0.18181818      -0.00000000       0.00000000 </v>
   <v>       0.27272727       0.00000000       0.00000000 </v>
   <v>       0.36363636      -0.00000000       0.00000000 </v>
   <v>       0.45454545       0.00000000       0.00000000 </v>
   <v>       0.09090909       0.09090909       0.00000000 </v>
   <v>       0.18181818       0.09090909       0.00000000 </v>
   <v>       0.27272727       0.09090909       0.00000000 </v>
   <v>       0.36363636       0.09090909       0.00000000 </v>
   <v>       0.45454545       0.09090909       0.00000000 </v>
   <v>      -0.45454545       0.09090909      -0.00000000 </v>
   <v>      -0.36363636       0.09090909      -0.00000000 </v>
   <v>      -0.27272727       0.09090909      -0.00000000 </v>
   <v>      -0.18181818       0.09090909      -0.00000000 </v>
   <v>      -0.09090909       0.09090909      -0.00000000 </v>
   <v>       0.18181818       0.18181818       0.00000000 </v>
   <v>       0.27272727       0.18181818       0.00000000 </v>
   <v>       0.36363636       0.18181818       0.00000000 </v>
   <v>       0.45454545       0.18181818       0.00000000 </v>
   <v>      -0.45454545       0.18181818       0.00000000 </v>
   <v>      -0.36363636       0.18181818      -0.00000000 </v>
   <v>      -0.27272727       0.18181818      -0.00000000 </v>
   <v>      -0.18181818       0.18181818      -0.00000000 </v>
   <v>       0.27272727       0.27272727       0.00000000 </v>
   <v>       0.36363636       0.27272727       0.00000000 </v>
   <v>       0.45454545       0.27272727       0.00000000 </v>
   <v>      -0.45454545       0.27272727       0.00000000 </v>
   <v>      -0.36363636       0.27272727       0.00000000 </v>
   <v>      -0.27272727       0.27272727      -0.00000000 </v>
   <v>       0.36363636       0.36363636       0.00000000 </v>
   <v>       0.45454545       0.36363636       0.00000000 </v>
   <v>      -0.45454545       0.36363636      -0.00000000 </v>
   <v>      -0.36363636       0.36363636      -0.00000000 </v>
   <v>       0.45454545       0.45454545       0.00000000 </v>
   <v>      -0.45454545       0.45454545      -0.00000000 </v>
   <v>       0.27272727       0.18181818       0.09090909 </v>
   <v>       0.36363636       0.18181818       0.09090909 </v>
   <v>       0.45454545       0.18181818       0.09090909 </v>
   <v>      -0.45454545       0.18181818       0.09090909 </v>
   <v>       0.36363636       0.27272727       0.09090909 </v>
   <v>       0.45454545       0.27272727       0.09090909 </v>
   <v>      -0.45454545       0.27272727       0.09090909 </v>
   <v>      -0.36363636       0.27272727       0.09090909 </v>
   <v>      -0.27272727       0.27272727       0.09090909 </v>
   <v>      -0.18181818       0.27272727       0.09090909 </v>
   <v>       0.45454545       0.36363636       0.09090909 </v>
   <v>      -0.45454545       0.36363636       0.09090909 </v>
   <v>      -0.36363636       0.36363636       0.09090909 </v>
   <v>      -0.27272727       0.36363636       0.09090909 </v>
   <v>      -0.45454545       0.45454545       0.09090909 </v>
   <v>      -0.36363636       0.45454545       0.09090909 </v>
   <v>      -0.45454545       0.36363636       0.18181818 </v>
   <v>      -0.36363636       0.36363636       0.18181818 </v>
   <v>      -0.36363636       0.45454545       0.18181818 </v>
   <v>      -0.27272727       0.45454545       0.18181818 </v>
  </varray>
  <varray name="weights" >
   <v>       0.00075131 </v>
   <v>       0.00601052 </v>
   <v>       0.00601052 </v>
   <v>       0.00601052 </v>
   <v>       0.00601052 </v>
   <v>       0.00601052 </v>
   <v>       0.00450789 </v>
   <v>       0.01803156 </v>
   <v>       0.01803156 </v>
   <v>       0.01803156 </v>
   <v>       0.01803156 </v>
   <v>       0.01803156 </v>
   <v>       0.01803156 </v>
   <v>       0.01803156 </v>
   <v>       0.01803156 </v>
   <v>       0.00901578 </v>
   <v>       0.00450789 </v>
   <v>       0.01803156 </v>
   <v>       0.01803156 </v>
   <v>       0.01803156 </v>
   <v>       0.01803156 </v>
   <v>       0.01803156 </v>
   <v>       0.01803156 </v>
   <v>       0.00901578 </v>
   <v>       0.00450789 </v>
   <v>       0.01803156 </v>
   <v>       0.01803156 </v>
   <v>       0.01803156 </v>
   <v>       0.01803156 </v>
   <v>       0.00901578 </v>
   <v>       0.00450789 </v>
   <v>       0.01803156 </v>
   <v>       0.01803156 </v>
   <v>       0.00901578 </v>
   <v>       0.00450789 </v>
   <v>       0.00901578 </v>
   <v>       0.01803156 </v>
   <v>       0.03606311 </v>
   <v>       0.03606311 </v>
   <v>       0.03606311 </v>
   <v>       0.01803156 </v>
   <v>       0.03606311 </v>
   <v>       0.03606311 </v>
   <v>       0.03606311 </v>
   <v>       0.03606311 </v>
   <v>       0.01803156 </v>
   <v>       0.01803156 </v>
   <v>       0.03606311 </v>
   <v>       0.03606311 </v>
   <v>       0.01803156 </v>
   <v>       0.01803156 </v>
   <v>       0.01803156 </v>
   <v>       0.01803156 </v>
   <v>       0.03606311 </v>
   <v>       0.01803156 </v>
   <v>       0.01803156 </v>
  </varray>
 </kpoints>
 <parameters>
  <separator name="general" >
   <i type="string" name="SYSTEM">unknown system</i>
   <i type="logical" name="LCOMPAT"> F  </i>
  </separator>
  <separator name="electronic" >
   <i type="string" name="PREC">normal</i>
   <i name="ENMAX">    200.00000000</i>
   <i name="ENAUG">    322.06900000</i>
   <i name="EDIFF">      0.00040000</i>
   <i type="int" name="IALGO">    38</i>
   <i type="int" name="IWAVPR">    11</i>
   <i type="int" name="NBANDS">     8</i>
   <i name="NELECT">      8.00000000</i>
   <i type="int" name="TURBO">     0</i>
   <i type="int" name="IRESTART">     0</i>
   <i type="int" name="NREBOOT">     0</i>
   <i type="int" name="NMIN">     0</i>
   <i name="EREF">      0.00000000</i>
   <separator name="electronic smearing" >
    <i type="int" name="ISMEAR">     0</i>
    <i name="SIGMA">      0.20000000</i>
    <i name="KSPACING">      0.50000000</i>
    <i type="logical" name="KGAMMA"> T  </i>
   </separator>
   <separator name="electronic projectors" >
    <i type="logical" name="LREAL"> F  </i>
    <v name="ROPT">      0.00000000</v>
    <i type="int" name="LMAXPAW">  -100</i>
    <i type="int" name="LMAXMIX">     2</i>
    <i type="logical" name="NLSPLINE"> F  </i>
   </separator>
   <separator name="electronic startup" >
    <i type="int" name="ISTART">     0</i>
    <i type="int" name="ICHARG">     2</i>
    <i type="int" name="INIWAV">     1</i>
   </separator>
   <separator name="electronic spin" >
    <i type="int" name="ISPIN">     1</i>
    <i type="logical" name="LNONCOLLINEAR"> F  </i>
    <v name="MAGMOM">      1.00000000      1.00000000</v>
    <i name="NUPDOWN">     -1.00000000</i>
    <i type="logical" name="LSORBIT"> F  </i>
    <v name="SAXIS">      0.00000000      0.00000000      1.00000000</v>
    <i type="logical" name="LSPIRAL"> F  </i>
    <v name="QSPIRAL">      0.00000000      0.00000000      0.00000000</v>
    <i type="logical" name="LZEROZ"> F  </i>
   </separator>
   <separator name="electronic exchange-correlation" >
    <i type="logical" name="LASPH"> F  </i>
    <i type="logical" name="LMETAGGA"> F  </i>
   </separator>
   <separator name="electronic convergence" >
    <i type="int" name="NELM">    60</i>
    <i type="int" name="NELMDL">    -5</i>
    <i type="int" name="NELMIN">     2</i>
    <i name="ENINI">    200.00000000</i>
    <separator name="electronic convergence detail" >
     <i type="logical" name="LDIAG"> T  </i>
     <i type="logical" name="LSUBROT"> F  </i>
     <i name="WEIMIN">      0.00100000</i>
     <i name="EBREAK">      0.00001250</i>
     <i name="DEPER">      0.30000000</i>
     <i type="int" name="NRMM">     4</i>
     <i name="TIME">      0.40000000</i>
    </separator>
   </separator>
   <separator name="electronic mixer" >
    <i name="AMIX">      0.40000000</i>
    <i name="BMIX">      1.00000000</i>
    <i name="AMIN">      0.10000000</i>
    <i name="AMIX_MAG">      1.60000000</i>
    <i name="BMIX_MAG">      1.00000000</i>
    <separator name="electronic mixer details" >
     <i type="int" name="IMIX">     4</i>
     <i type="logical" name="MIXFIRST"> F  </i>
     <i type="int" name="MAXMIX">   -45</i>
     <i name="WC">    100.00000000</i>
     <i type="int" name="INIMIX">     1</i>
     <i type="int" name="MIXPRE">     1</i>
     <i type="int" name="MREMOVE">     5</i>
    </separator>
   </separator>
   <separator name="electronic dipolcorrection" >
    <i type="logical" name="LDIPOL"> F  </i>
    <i type="logical" name="LMONO"> F  </i>
    <i type="int" name="IDIPOL">     0</i>
    <i name="EPSILON">      1.00000000</i>
    <v name="DIPOL">   -100.00000000   -100.00000000   -100.00000000</v>
    <i name="EFIELD">      0.00000000</i>
   </separator>
  </separator>
  <separator name="grids" >
   <i type="int" name="NGX">    14</i>
   <i type="int" name="NGY">    14</i>
   <i type="int" name="NGZ">    14</i>
   <i type="int" name="NGXF">    28</i>
   <i type="int" name="NGYF">    28</i>
   <i type="int" name="NGZF">    28</i>
   <i type="logical" name="ADDGRID"> F  </i>
  </separator>
  <separator name="ionic" >
   <i type="int" name="NSW">    15</i>
   <i type="int" name="IBRION">     2</i>
   <i type="int" name="MDALGO">     0</i>
   <i type="int" name="ISIF">     3</i>
   <i name="PSTRESS">      0.00000000</i>
   <i name="EDIFFG">     -0.01000000</i>
   <i type="int" name="NFREE">     1</i>
   <i name="POTIM">      0.50000000</i>
   <i name="SMASS">     -3.00000000</i>
   <i name="SCALEE">      1.00000000</i>
  </separator>
  <separator name="ionic md" >
   <i name="TEBEG">      0.00010000</i>
   <i name="TEEND">      0.00010000</i>
   <i type="int" name="NBLOCK">     1</i>
   <i type="int" name="KBLOCK">    15</i>
   <i type="int" name="NPACO">   256</i>
   <i name="APACO">     16.00000000</i>
  </separator>
  <separator name="symmetry" >
   <i type="int" name="ISYM">     2</i>
   <i name="SYMPREC">      0.00001000</i>
  </separator>
  <separator name="dos" >
   <i type="int" name="LORBIT">     0</i>
   <v name="RWIGS">     -1.00000000</v>
   <i type="int" name="NEDOS">   301</i>
   <i name="EMIN">     10.00000000</i>
   <i name="EMAX">    -10.00000000</i>
   <i name="EFERMI">      0.00000000</i>
  </separator>
  <separator name="writing" >
   <i type="int" name="NWRITE">     2</i>
   <i type="logical" name="LWAVE"> T  </i>
   <i type="logical" name="LDOWNSAMPLE"> F  </i>
   <i type="logical" name="LCHARG"> T  </i>
   <i type="logical" name="LPARD"> F  </i>
   <i type="logical" name="LVTOT"> F  </i>
   <i type="logical" name="LVHAR"> F  </i>
   <i type="logical" name="LELF"> F  </i>
   <i type="logical" name="LOPTICS"> F  </i>
   <v name="STM">      0.00000000      0.00000000      0.00000000      0.00000000      0.00000000      0.00000000      0.00000000</v>
  </separator>
  <separator name="performance" >
   <i type="int" name="NPAR">     8</i>
   <i type="int" name="NSIM">     4</i>
   <i type="int" name="NBLK">    -1</i>
   <i type="logical" name="LPLANE"> T  </i>
   <i type="logical" name="LSCALAPACK"> T  </i>
   <i type="logical" name="LSCAAWARE"> F  </i>
   <i type="logical" name="LSCALU"> F  </i>
   <i type="logical" name="LASYNC"> F  </i>
   <i type="logical" name="LORBITALREAL"> F  </i>
  </separator>
  <separator name="miscellaneous" >
   <i type="int" name="IDIOT">     3</i>
   <i type="int" name="ISPECIAL">     0</i>
   <i type="logical" name="LMUSIC"> F  </i>
   <v name="POMASS">     28.08500000</v>
   <v name="DARWINR">      0.00000000</v>
   <v name="DARWINV">      1.00000000</v>
   <i type="logical" name="LCORR"> T  </i>
  </separator>
  <i type="logical" name="GGA_COMPAT"> T  </i>
  <i type="logical" name="LBERRY"> F  </i>
  <i type="int" name="ICORELEVEL">     0</i>
  <i type="logical" name="LDAU"> F  </i>
  <i type="int" name="I_CONSTRAINED_M">     0</i>
  <separator name="electronic exchange-correlation" >
   <i type="string" name="GGA">--</i>
   <i type="int" name="VOSKOWN">     0</i>
   <i type="logical" name="LHFCALC"> F  </i>
   <i type="string" name="PRECFOCK"></i>
   <i type="logical" name="LSYMGRAD"> F  </i>
   <i type="logical" name="LHFONE"> F  </i>
   <i type="logical" name="LRHFCALC"> F  </i>
   <i type="logical" name="LTHOMAS"> F  </i>
   <i type="logical" name="LMODELHF"> F  </i>
   <i name="ENCUT4O">     -1.00000000</i>
   <i type="int" name="EXXOEP">     0</i>
   <i type="int" name="FOURORBIT">     0</i>
   <i name="AEXX">      0.00000000</i>
   <i name="HFALPHA">      0.00000000</i>
   <i name="MCALPHA">      0.00000000</i>
   <i name="ALDAX">      1.00000000</i>
   <i name="AGGAX">      1.00000000</i>
   <i name="ALDAC">      1.00000000</i>
   <i name="AGGAC">      1.00000000</i>
   <i type="int" name="NKREDX">     1</i>
   <i type="int" name="NKREDY">     1</i>
   <i type="int" name="NKREDZ">     1</i>
   <i type="logical" name="SHIFTRED"> F  </i>
   <i type="logical" name="ODDONLY"> F  </i>
   <i type="logical" name="EVENONLY"> F  </i>
   <i type="int" name="LMAXFOCK">     0</i>
   <i type="int" name="NMAXFOCKAE">     0</i>
   <i type="logical" name="LFOCKAEDFT"> F  </i>
   <i name="HFSCREEN">      0.00000000</i>
   <i name="HFSCREENC">      0.00000000</i>
   <i type="int" name="NBANDSGWLOW">     0</i>
  </separator>
  <separator name="vdW DFT" >
   <i type="logical" name="LUSE_VDW"> F  </i>
   <i name="Zab_VDW">     -0.84910000</i>
   <i name="PARAM1">      0.12340000</i>
   <i name="PARAM2">      1.00000000</i>
   <i name="PARAM3">      0.00000000</i>
  </separator>
  <separator name="model GW" >
   <i type="int" name="MODEL_GW">     0</i>
   <i name="MODEL_EPS0">     12.00772552</i>
   <i name="MODEL_ALPHA">      1.00000000</i>
  </separator>
  <separator name="linear response parameters" >
   <i type="logical" name="LEPSILON"> F  </i>
   <i type="logical" name="LRPA"> F  </i>
   <i type="logical" name="LNABLA"> F  </i>
   <i type="logical" name="LVEL"> F  </i>
   <i type="int" name="KINTER">     0</i>
   <i name="CSHIFT">      0.10000000</i>
   <i name="OMEGAMAX">     -1.00000000</i>
   <i name="DEG_THRESHOLD">      0.00200000</i>
   <i name="RTIME">     -0.10000000</i>
   <i name="WPLASMAI">      0.00000000</i>
   <v name="DFIELD">      0.00000000      0.00000000      0.00000000</v>
   <v name="WPLASMA">      0.00000000      0.00000000      0.00000000      0.00000000      0.00000000      0.00000000      0.00000000      0.00000000      0.00000000</v>
  </separator>
  <separator name="orbital magnetization" >
   <i type="logical" name="NUCIND"> F  </i>
   <v name="MAGPOS">      0.00000000      0.00000000      0.00000000</v>
   <i type="logical" name="LNICSALL"> T  </i>
   <i type="logical" name="ORBITALMAG"> F  </i>
   <i type="logical" name="LMAGBLOCH"> F  </i>
   <i type="logical" name="LCHIMAG"> F  </i>
   <i type="logical" name="LGAUGE"> T  </i>
   <i type="int" name="MAGATOM">     0</i>
   <v name="MAGDIPOL">      0.00000000      0.00000000      0.00000000</v>
   <v name="AVECCONST">      0.00000000      0.00000000      0.00000000</v>
  </separator>
  <separator name="response functions" >
   <i type="logical" name="LADDER"> F  </i>
   <i type="logical" name="LRPAFORCE"> F  </i>
   <i type="logical" name="LFXC"> F  </i>
   <i type="logical" name="LHARTREE"> T  </i>
   <i type="int" name="IBSE">     0</i>
   <v type="int" name="KPOINT">    -1     0     0     0</v>
   <i type="logical" name="LTCTE"> F  </i>
   <i type="logical" name="LTETE"> F  </i>
   <i type="logical" name="LTRIPLET"> F  </i>
   <i type="logical" name="LFXCEPS"> F  </i>
   <i type="logical" name="LFXHEG"> F  </i>
   <i type="int" name="NATURALO">     2</i>
   <i type="logical" name="L2ORDER"> F  </i>
   <i type="logical" name="LMP2LT"> F  </i>
   <i type="logical" name="LUSEW"> F  </i>
   <i name="ENCUTGW">     -2.00000000</i>
   <i name="ENCUTGWSOFT">     -2.00000000</i>
   <i name="ENCUTLF">     -1.00000000</i>
   <i type="int" name="LMAXMP2">    -1</i>
   <i name="SCISSOR">      0.00000000</i>
   <i type="int" name="NOMEGA">     0</i>
   <i type="int" name="NOMEGAR">     0</i>
   <i type="int" name="NBANDSGW">    -1</i>
   <i type="int" name="NBANDSO">    -1</i>
   <i type="int" name="NBANDSV">    -1</i>
   <i type="int" name="NELM">     1</i>
   <i type="int" name="NELMHF">     1</i>
   <i type="int" name="DIM">     3</i>
   <i type="int" name="ANTIRES">     0</i>
   <i name="OMEGAMAX">    -30.00000000</i>
   <i name="OMEGAMIN">    -30.00000000</i>
   <i name="OMEGATL">   -200.00000000</i>
   <i type="int" name="OMEGAGRID">   140</i>
   <i name="CSHIFT">     -0.10000000</i>
   <i type="logical" name="SELFENERGY"> F  </i>
   <i type="logical" name="LSPECTRAL"> F  </i>
   <i type="logical" name="LSPECTRALGW"> F  </i>
   <i type="logical" name="LSINGLES"> F  </i>
   <i type="logical" name="LFERMIGW"> F  </i>
   <i type="logical" name="ODDONLYGW"> F  </i>
   <i type="logical" name="EVENONLYGW"> F  </i>
   <i type="int" name="NKREDLFX">     1</i>
   <i type="int" name="NKREDLFY">     1</i>
   <i type="int" name="NKREDLFZ">     1</i>
   <i type="int" name="MAXMEM">  2800</i>
   <i type="int" name="TELESCOPE">     0</i>
   <i type="int" name="TAUPAR">     1</i>
   <i type="int" name="OMEGAPAR">    -1</i>
   <i name="LAMBDA">      1.00000000</i>
  </separator>
  <separator name="External order field" >
   <i name="OFIELD_KAPPA">      0.00000000</i>
   <v name="OFIELD_K">      0.00000000      0.00000000      0.00000000</v>
   <i name="OFIELD_Q6_NEAR">      0.00000000</i>
   <i name="OFIELD_Q6_FAR">      0.00000000</i>
   <i name="OFIELD_A">      0.00000000</i>
  </separator>
 </parameters>
 <atominfo>
  <atoms>       2 </atoms>
  <types>       1 </types>
  <array name="atoms" >
   <dimension dim="1">ion</dimension>
   <field type="string">element</field>
   <field type="int">atomtype</field>
   <set>
    <rc><c>Si</c><c>   1</c></rc>
    <rc><c>Si</c><c>   1</c></rc>
   </set>
  </array>
  <array name="atomtypes" >
   <dimension dim="1">type</dimension>
   <field type="int">atomspertype</field>
   <field type="string">element</field>
   <field>mass</field>
   <field>valence</field>
   <field type="string">pseudopotential</field>
   <set>
    <rc><c>   2</c><c>Si</c><c>     28.08500000</c><c>      4.00000000</c><c> PAW_PBE Si 05Jan2001                   </c></rc>
   </set>
  </array>
 </atominfo>
 <structure name="initialpos" >
  <crystal>
   <varray name="basis" >
    <v>       0.00000000       2.71500000       2.71500000 </v>
    <v>       2.71500000       0.00000000       2.71500000 </v>
    <v>       2.71500000       2.71500000       0.00000000 </v>
   </varray>
   <i name="volume">     40.02575175 </i>
   <varray name="rec_basis" >
    <v>      -0.18416206       0.18416206       0.18416206 </v>
    <v>       0.18416206      -0.18416206       0.18416206 </v>
    <v>       0.18416206       0.18416206      -0.18416206 </v>
   </varray>
  </crystal>
  <varray name="positions" >
   <v>       0.50000000       0.50000000       0.50000000 </v>
   <v>       0.75000000       0.75000000       0.75000000 </v>
  </varray>
 </structure>
 <calculation>
  <scstep>
   <time name="dav">    0.46    0.47</time>
   <time name="total">    0.50    0.54</time>
   <energy>
    <i name="alphaZ">      3.36414203 </i>
    <i name="ewald">   -228.56352493 </i>
    <i name="hartreedc">    -11.00108243 </i>
    <i name="XCdc">    -18.60172597 </i>
    <i name="pawpsdc">     65.95520812 </i>
    <i name="pawaedc">    -30.76852678 </i>
    <i name="eentropy">     -0.00992756 </i>
    <i name="bandstr">     11.46279927 </i>
    <i name="atom">    206.11247263 </i>
    <i name="e_fr_energy">     -2.05016563 </i>
    <i name="e_wo_entrp">     -2.04023807 </i>
    <i name="e_0_energy">     -2.04520185 </i>
   </energy>
  </scstep>
  <scstep>
   <time name="dav">    0.72    0.73</time>
   <time name="total">    0.72    0.73</time>
   <energy>
    <i name="e_fr_energy">    -10.89340542 </i>
    <i name="e_wo_entrp">    -10.89339839 </i>
    <i name="e_0_energy">    -10.89340190 </i>
   </energy>
  </scstep>
  <scstep>
   <time name="dav">    0.57    0.58</time>
   <time name="total">    0.58    0.58</time>
   <energy>
    <i name="e_fr_energy">    -10.97650231 </i>
    <i name="e_wo_entrp">    -10.97649707 </i>
    <i name="e_0_energy">    -10.97649969 </i>
   </energy>
  </scstep>
  <scstep>
   <time name="dav">    0.73    0.73</time>
   <time name="total">    0.73    0.74</time>
   <energy>
    <i name="e_fr_energy">    -10.97673574 </i>
    <i name="e_wo_entrp">    -10.97673051 </i>
    <i name="e_0_energy">    -10.97673313 </i>
   </energy>
  </scstep>
  <scstep>
   <time name="dav">    0.56    0.57</time>
   <time name="total">    0.59    0.60</time>
   <energy>
    <i name="e_fr_energy">    -10.97673596 </i>
    <i name="e_wo_entrp">    -10.97673073 </i>
    <i name="e_0_energy">    -10.97673334 </i>
   </energy>
  </scstep>
  <scstep>
   <time name="dav">    0.51    0.51</time>
   <time name="total">    0.56    0.56</time>
   <energy>
    <i name="e_fr_energy">    -10.85271188 </i>
    <i name="e_wo_entrp">    -10.85268609 </i>
    <i name="e_0_energy">    -10.85269899 </i>
   </energy>
  </scstep>
  <scstep>
   <time name="dav">    0.56    0.55</time>
   <time name="total">    0.60    0.64</time>
   <energy>
    <i name="e_fr_energy">    -10.79612064 </i>
    <i name="e_wo_entrp">    -10.79597955 </i>
    <i name="e_0_energy">    -10.79605009 </i>
   </energy>
  </scstep>
  <scstep>
   <time name="dav">    0.47    0.47</time>
   <time name="total">    0.51    0.52</time>
   <energy>
    <i name="e_fr_energy">    -10.79740613 </i>
    <i name="e_wo_entrp">    -10.79729039 </i>
    <i name="e_0_energy">    -10.79734826 </i>
   </energy>
  </scstep>
  <scstep>
   <time name="dav">    0.38    0.38</time>
   <time name="total">    0.41    0.42</time>
   <energy>
    <i name="alphaZ">      3.36414203 </i>
    <i name="ewald">   -228.56352493 </i>
    <i name="hartreedc">    -14.89363523 </i>
    <i name="XCdc">    -17.94057723 </i>
    <i name="pawpsdc">     75.91298201 </i>
    <i name="pawaedc">    -40.96319179 </i>
    <i name="eentropy">     -0.00011501 </i>
    <i name="bandstr">      6.17394877 </i>
    <i name="atom">    206.11247263 </i>
    <i name="e_fr_energy">    -10.79749875 </i>
    <i name="e_wo_entrp">    -10.79738374 </i>
    <i name="e_0_energy">    -10.79744125 </i>
   </energy>
  </scstep>
  <structure>
   <crystal>
    <varray name="basis" >
     <v>       0.00000000       2.71500000       2.71500000 </v>
     <v>       2.71500000       0.00000000       2.71500000 </v>
     <v>       2.71500000       2.71500000       0.00000000 </v>
    </varray>
    <i name="volume">     40.02575175 </i>
    <varray name="rec_basis" >
     <v>      -0.18416206       0.18416206       0.18416206 </v>
     <v>       0.18416206      -0.18416206       0.18416206 </v>
     <v>       0.18416206       0.18416206      -0.18416206 </v>
    </varray>
   </crystal>
   <varray name="positions" >
    <v>       0.50000000       0.50000000       0.50000000 </v>
    <v>       0.75000000       0.75000000       0.75000000 </v>
   </varray>
  </structure>
  <varray name="forces" >
   <v>       0.00000000       0.00000000       0.00000000 </v>
   <v>      -0.00000000      -0.00000000      -0.00000000 </v>
  </varray>
  <varray name="stress" >
   <v>      18.67730862      -0.00000000       0.00000000 </v>
   <v>       0.00000000      18.67730862       0.00000000 </v>
   <v>       0.00000000       0.00000000      18.67730862 </v>
  </varray>
  <energy>
   <i name="e_fr_energy">    -10.79749875 </i>
   <i name="e_wo_entrp">    -10.79744125 </i>
   <i name="e_0_energy">     -0.00011501 </i>
  </energy>
  <time name="totalsc">    5.95    6.41</time>
 </calculation>
 <calculation>
  <scstep>
   <time name="dav">    0.48    0.48</time>
   <time name="total">    0.52    0.53</time>
   <energy>
    <i name="alphaZ">      3.25306179 </i>
    <i name="ewald">   -226.01967983 </i>
    <i name="hartreedc">    -14.73953992 </i>
    <i name="XCdc">    -18.10461408 </i>
    <i name="pawpsdc">     75.90340056 </i>
    <i name="pawaedc">    -40.95454984 </i>
    <i name="eentropy">     -0.00004221 </i>
    <i name="bandstr">      3.74337053 </i>
    <i name="atom">    206.11247263 </i>
    <i name="e_fr_energy">    -10.80612037 </i>
    <i name="e_wo_entrp">    -10.80607815 </i>
    <i name="e_0_energy">    -10.80609926 </i>
   </energy>
  </scstep>
  <scstep>
   <time name="dav">    0.50    0.50</time>
   <time name="total">    0.55    0.55</time>
   <energy>
    <i name="e_fr_energy">    -10.80202729 </i>
    <i name="e_wo_entrp">    -10.80197430 </i>
    <i name="e_0_energy">    -10.80200080 </i>
   </energy>
  </scstep>
  <scstep>
   <time name="dav">    0.45    0.45</time>
   <time name="total">    0.50    0.50</time>
   <energy>
    <i name="e_fr_energy">    -10.79992558 </i>
    <i name="e_wo_entrp">    -10.79985572 </i>
    <i name="e_0_energy">    -10.79989065 </i>
   </energy>
  </scstep>
  <scstep>
   <time name="dav">    0.22    0.22</time>
   <time name="total">    0.25    0.27</time>
   <energy>
    <i name="alphaZ">      3.25306179 </i>
    <i name="ewald">   -226.01967983 </i>
    <i name="hartreedc">    -15.30083328 </i>
    <i name="XCdc">    -18.09292713 </i>
    <i name="pawpsdc">     74.87792462 </i>
    <i name="pawaedc">    -39.90049205 </i>
    <i name="eentropy">     -0.00006879 </i>
    <i name="bandstr">      4.27062823 </i>
    <i name="atom">    206.11247263 </i>
    <i name="e_fr_energy">    -10.79991381 </i>
    <i name="e_wo_entrp">    -10.79984502 </i>
    <i name="e_0_energy">    -10.79987942 </i>
   </energy>
  </scstep>
  <structure>
   <crystal>
    <varray name="basis" >
     <v>       0.00000000       2.74555725       2.74555725 </v>
     <v>       2.74555725       0.00000000       2.74555725 </v>
     <v>       2.74555725       2.74555725       0.00000000 </v>
    </varray>
    <i name="volume">     41.39248564 </i>
    <varray name="rec_basis" >
     <v>      -0.18211239       0.18211239       0.18211239 </v>
     <v>       0.18211239      -0.18211239       0.18211239 </v>
     <v>       0.18211239       0.18211239      -0.18211239 </v>
    </varray>
   </crystal>
   <varray name="positions" >
    <v>       0.50000000       0.50000000       0.50000000 </v>
    <v>       0.75000000       0.75000000       0.75000000 </v>
   </varray>
  </structure>
  <varray name="forces" >
   <v>      -0.00000000       0.00000000       0.00000000 </v>
   <v>       0.00000000      -0.00000000      -0.00000000 </v>
  </varray>
  <varray name="stress" >
   <v>     -11.75710713       0.00000000      -0.00000000 </v>
   <v>       0.00000000     -11.75710713       0.00000000 </v>
   <v>      -0.00000000       0.00000000     -11.75710713 </v>
  </varray>
  <energy>
   <i name="e_fr_energy">    -10.79991381 </i>
   <i name="e_wo_entrp">    -10.79987942 </i>
   <i name="e_0_energy">     -0.00006879 </i>
  </energy>
  <time name="totalsc">    2.14    2.49</time>
 </calculation>
 <calculation>
  <scstep>
   <time name="dav">    0.46    0.46</time>
   <time name="total">    0.51    0.53</time>
   <energy>
    <i name="alphaZ">      3.29626803 </i>
    <i name="ewald">   -227.01592499 </i>
    <i name="hartreedc">    -15.37057199 </i>
    <i name="XCdc">    -18.02966556 </i>
    <i name="pawpsdc">     74.84098643 </i>
    <i name="pawaedc">    -39.86206566 </i>
    <i name="eentropy">     -0.00010026 </i>
    <i name="bandstr">      5.22560566 </i>
    <i name="atom">    206.11247263 </i>
    <i name="e_fr_energy">    -10.80299571 </i>
    <i name="e_wo_entrp">    -10.80289545 </i>
    <i name="e_0_energy">    -10.80294558 </i>
   </energy>
  </scstep>
  <scstep>
   <time name="dav">    0.48    0.48</time>
   <time name="total">    0.53    0.57</time>
   <energy>
    <i name="e_fr_energy">    -10.80236176 </i>
    <i name="e_wo_entrp">    -10.80226945 </i>
    <i name="e_0_energy">    -10.80231560 </i>
   </energy>
  </scstep>
  <scstep>
   <time name="dav">    0.30    0.30</time>
   <time name="total">    0.33    0.35</time>
   <energy>
    <i name="alphaZ">      3.29626803 </i>
    <i name="ewald">   -227.01592499 </i>
    <i name="hartreedc">    -15.14424885 </i>
    <i name="XCdc">    -18.03522102 </i>
    <i name="pawpsdc">     75.17887643 </i>
    <i name="pawaedc">    -40.20862865 </i>
    <i name="eentropy">     -0.00008308 </i>
    <i name="bandstr">      5.01446038 </i>
    <i name="atom">    206.11247263 </i>
    <i name="e_fr_energy">    -10.80202912 </i>
    <i name="e_wo_entrp">    -10.80194604 </i>
    <i name="e_0_energy">    -10.80198758 </i>
   </energy>
  </scstep>
  <structure>
   <crystal>
    <varray name="basis" >
     <v>       0.00000000       2.73350854       2.73350854 </v>
     <v>       2.73350854       0.00000000       2.73350854 </v>
     <v>       2.73350854       2.73350854       0.00000000 </v>
    </varray>
    <i name="volume">     40.84992861 </i>
    <varray name="rec_basis" >
     <v>      -0.18291510       0.18291510       0.18291510 </v>
     <v>       0.18291510      -0.18291510       0.18291510 </v>
     <v>       0.18291510       0.18291510      -0.18291510 </v>
    </varray>
   </crystal>
   <varray name="positions" >
    <v>       0.50000000       0.50000000       0.50000000 </v>
    <v>       0.75000000       0.75000000       0.75000000 </v>
   </varray>
  </structure>
  <varray name="forces" >
   <v>      -0.00000000      -0.00000000      -0.00000000 </v>
   <v>       0.00000000       0.00000000       0.00000000 </v>
  </varray>
  <varray name="stress" >
   <v>      -0.51679469       0.00000000      -0.00000000 </v>
   <v>       0.00000000      -0.51679469      -0.00000000 </v>
   <v>       0.00000000      -0.00000000      -0.51679469 </v>
  </varray>
  <energy>
   <i name="e_fr_energy">    -10.80202912 </i>
   <i name="e_wo_entrp">    -10.80198758 </i>
   <i name="e_0_energy">     -0.00008308 </i>
  </energy>
  <time name="totalsc">    1.75    2.12</time>
  <eigenvalues>
   <array>
    <dimension dim="1">band</dimension>
    <dimension dim="2">kpoint</dimension>
    <dimension dim="3">spin</dimension>
    <field>eigene</field>
    <field>occ</field>
    <set>
     <set comment="spin 1">
      <set comment="kpoint 1">
       <r>   -6.1964    1.0000 </r>
       <r>    5.6498    0.9827 </r>
       <r>    5.6499    0.9827 </r>
       <r>    5.6499    0.9827 </r>
       <r>    8.2122    0.0000 </r>
       <r>    8.2123    0.0000 </r>
       <r>    8.2123    0.0000 </r>
       <r>    8.7676    0.0000 </r>
      </set>
      <set comment="kpoint 2">
       <r>   -6.0900    1.0000 </r>
       <r>    4.6577    1.0000 </r>
       <r>    5.4830    0.9995 </r>
       <r>    5.4831    0.9995 </r>
       <r>    8.1993    0.0000 </r>
       <r>    8.4558    0.0000 </r>
       <r>    8.4558    0.0000 </r>
       <r>    9.5974    0.0000 </r>
      </set>
      <set comment="kpoint 3">
       <r>   -5.7751    1.0000 </r>
       <r>    2.9871    1.0000 </r>
       <r>    5.1438    1.0000 </r>
       <r>    5.1438    1.0000 </r>
       <r>    7.8788    0.0000 </r>
       <r>    8.9276    0.0000 </r>
       <r>    8.9277    0.0000 </r>
       <r>   11.2009    0.0000 </r>
      </set>
      <set comment="kpoint 4">
       <r>   -5.2677    1.0000 </r>
       <r>    1.3463    1.0000 </r>
       <r>    4.8215    1.0000 </r>
       <r>    4.8216    1.0000 </r>
       <r>    7.5302    0.0000 </r>
       <r>    9.1904    0.0000 </r>
       <r>    9.1905    0.0000 </r>
       <r>   12.7700    0.0000 </r>
      </set>
      <set comment="kpoint 5">
       <r>   -4.6195    1.0000 </r>
       <r>   -0.0894    1.0000 </r>
       <r>    4.5903    1.0000 </r>
       <r>    4.5904    1.0000 </r>
       <r>    7.2722    0.0000 </r>
       <r>    9.1460    0.0000 </r>
       <r>    9.1461    0.0000 </r>
       <r>   13.4952    0.0000 </r>
      </set>
      <set comment="kpoint 6">
       <r>   -4.0227    1.0000 </r>
       <r>   -1.0875    1.0000 </r>
       <r>    4.4699    1.0000 </r>
       <r>    4.4699    1.0000 </r>
       <r>    7.1356    0.0000 </r>
       <r>    9.0360    0.0000 </r>
       <r>    9.0361    0.0000 </r>
       <r>   13.3784    0.0000 </r>
      </set>
      <set comment="kpoint 7">
       <r>   -6.0543    1.0000 </r>
       <r>    4.8258    1.0000 </r>
       <r>    5.1622    1.0000 </r>
       <r>    5.1622    1.0000 </r>
       <r>    7.8972    0.0000 </r>
       <r>    8.8744    0.0000 </r>
       <r>    8.8744    0.0000 </r>
       <r>    9.5209    0.0000 </r>
      </set>
      <set comment="kpoint 8">
       <r>   -5.8080    1.0000 </r>
       <r>    3.4789    1.0000 </r>
       <r>    4.7688    1.0000 </r>
       <r>    4.9437    1.0000 </r>
       <r>    7.9323    0.0000 </r>
       <r>    8.8967    0.0000 </r>
       <r>    9.4632    0.0000 </r>
       <r>   10.5282    0.0000 </r>
      </set>
      <set comment="kpoint 9">
       <r>   -5.3623    1.0000 </r>
       <r>    1.8728    1.0000 </r>
       <r>    4.4519    1.0000 </r>
       <r>    4.5720    1.0000 </r>
       <r>    8.0393    0.0000 </r>
       <r>    8.9065    0.0000 </r>
       <r>    9.8251    0.0000 </r>
       <r>   11.0194    0.0000 </r>
      </set>
      <set comment="kpoint 10">
       <r>   -4.7514    1.0000 </r>
       <r>    0.3846    1.0000 </r>
       <r>    4.1911    1.0000 </r>
       <r>    4.2630    1.0000 </r>
       <r>    7.8732    0.0000 </r>
       <r>    8.9713    0.0000 </r>
       <r>    9.7671    0.0000 </r>
       <r>   11.7887    0.0000 </r>
      </set>
      <set comment="kpoint 11">
       <r>   -4.0953    1.0000 </r>
       <r>   -0.7894    1.0000 </r>
       <r>    3.8958    1.0000 </r>
       <r>    4.2207    1.0000 </r>
       <r>    7.7291    0.0000 </r>
       <r>    8.9450    0.0000 </r>
       <r>    9.5458    0.0000 </r>
       <r>   13.0125    0.0000 </r>
      </set>
      <set comment="kpoint 12">
       <r>   -3.8323    1.0000 </r>
       <r>   -1.1825    1.0000 </r>
       <r>    3.7209    1.0000 </r>
       <r>    4.3203    1.0000 </r>
       <r>    7.6999    0.0000 </r>
       <r>    9.0046    0.0000 </r>
       <r>    9.3634    0.0000 </r>
       <r>   13.6879    0.0000 </r>
      </set>
      <set comment="kpoint 13">
       <r>   -4.3042    1.0000 </r>
       <r>   -0.4480    1.0000 </r>
       <r>    3.6869    1.0000 </r>
       <r>    4.5456    1.0000 </r>
       <r>    7.7984    0.0000 </r>
       <r>    9.1971    0.0000 </r>
       <r>    9.2813    0.0000 </r>
       <r>   13.3753    0.0000 </r>
      </set>
      <set comment="kpoint 14">
       <r>   -4.9707    1.0000 </r>
       <r>    0.8607    1.0000 </r>
       <r>    3.8099    1.0000 </r>
       <r>    4.8677    1.0000 </r>
       <r>    8.0126    0.0000 </r>
       <r>    9.2022    0.0000 </r>
       <r>    9.4015    0.0000 </r>
       <r>   12.3206    0.0000 </r>
      </set>
      <set comment="kpoint 15">
       <r>   -5.5328    1.0000 </r>
       <r>    2.3915    1.0000 </r>
       <r>    4.1088    1.0000 </r>
       <r>    5.2298    1.0000 </r>
       <r>    8.3100    0.0000 </r>
       <r>    8.9077    0.0000 </r>
       <r>    9.2612    0.0000 </r>
       <r>   11.4123    0.0000 </r>
      </set>
      <set comment="kpoint 16">
       <r>   -5.9137    1.0000 </r>
       <r>    3.8513    1.0000 </r>
       <r>    4.6704    1.0000 </r>
       <r>    5.5043    0.9992 </r>
       <r>    8.5066    0.0000 </r>
       <r>    8.5382    0.0000 </r>
       <r>    8.6718    0.0000 </r>
       <r>   10.4953    0.0000 </r>
      </set>
      <set comment="kpoint 17">
       <r>   -5.6307    1.0000 </r>
       <r>    3.3223    1.0000 </r>
       <r>    4.3395    1.0000 </r>
       <r>    4.3395    1.0000 </r>
       <r>    7.2590    0.0000 </r>
       <r>    9.7411    0.0000 </r>
       <r>   10.2134    0.0000 </r>
       <r>   10.2134    0.0000 </r>
      </set>
      <set comment="kpoint 18">
       <r>   -5.2500    1.0000 </r>
       <r>    2.1742    1.0000 </r>
       <r>    3.9215    1.0000 </r>
       <r>    3.9984    1.0000 </r>
       <r>    7.3141    0.0000 </r>
       <r>    9.3475    0.0000 </r>
       <r>   10.5087    0.0000 </r>
       <r>   10.8062    0.0000 </r>
      </set>
      <set comment="kpoint 19">
       <r>   -4.6884    1.0000 </r>
       <r>    0.8216    1.0000 </r>
       <r>    3.3939    1.0000 </r>
       <r>    3.8026    1.0000 </r>
       <r>    7.5516    0.0000 </r>
       <r>    9.7081    0.0000 </r>
       <r>   10.3103    0.0000 </r>
       <r>   10.8979    0.0000 </r>
      </set>
      <set comment="kpoint 20">
       <r>   -4.0210    1.0000 </r>
       <r>   -0.3969    1.0000 </r>
       <r>    2.9207    1.0000 </r>
       <r>    3.7688    1.0000 </r>
       <r>    7.5886    0.0000 </r>
       <r>   10.0666    0.0000 </r>
       <r>   10.6529    0.0000 </r>
       <r>   10.9280    0.0000 </r>
      </set>
      <set comment="kpoint 21">
       <r>   -3.5496    1.0000 </r>
       <r>   -1.0923    1.0000 </r>
       <r>    2.5897    1.0000 </r>
       <r>    3.8977    1.0000 </r>
       <r>    7.6851    0.0000 </r>
       <r>    9.9428    0.0000 </r>
       <r>   10.3664    0.0000 </r>
       <r>   12.5456    0.0000 </r>
      </set>
      <set comment="kpoint 22">
       <r>   -3.8282    1.0000 </r>
       <r>   -0.6892    1.0000 </r>
       <r>    2.4402    1.0000 </r>
       <r>    4.1723    1.0000 </r>
       <r>    7.9300    0.0000 </r>
       <r>    9.9390    0.0000 </r>
       <r>   10.1386    0.0000 </r>
       <r>   13.3390    0.0000 </r>
      </set>
      <set comment="kpoint 23">
       <r>   -4.4865    1.0000 </r>
       <r>    0.4087    1.0000 </r>
       <r>    2.5246    1.0000 </r>
       <r>    4.5549    1.0000 </r>
       <r>    8.2853    0.0000 </r>
       <r>    9.8820    0.0000 </r>
       <r>    9.9978    0.0000 </r>
       <r>   11.9433    0.0000 </r>
      </set>
      <set comment="kpoint 24">
       <r>   -5.0926    1.0000 </r>
       <r>    1.5834    1.0000 </r>
       <r>    3.0047    1.0000 </r>
       <r>    4.9639    1.0000 </r>
       <r>    8.5968    0.0000 </r>
       <r>    9.3876    0.0000 </r>
       <r>    9.6878    0.0000 </r>
       <r>   11.2670    0.0000 </r>
      </set>
      <set comment="kpoint 25">
       <r>   -4.9337    1.0000 </r>
       <r>    1.7107    1.0000 </r>
       <r>    3.6241    1.0000 </r>
       <r>    3.6241    1.0000 </r>
       <r>    6.6792    0.0000 </r>
       <r>    8.4803    0.0000 </r>
       <r>   11.7787    0.0000 </r>
       <r>   11.7787    0.0000 </r>
      </set>
      <set comment="kpoint 26">
       <r>   -4.4286    1.0000 </r>
       <r>    0.7664    1.0000 </r>
       <r>    3.0942    1.0000 </r>
       <r>    3.3943    1.0000 </r>
       <r>    6.8124    0.0000 </r>
       <r>    8.1930    0.0000 </r>
       <r>   12.0573    0.0000 </r>
       <r>   12.2504    0.0000 </r>
      </set>
      <set comment="kpoint 27">
       <r>   -3.7804    1.0000 </r>
       <r>   -0.2480    1.0000 </r>
       <r>    2.3784    1.0000 </r>
       <r>    3.3327    1.0000 </r>
       <r>    7.0159    0.0000 </r>
       <r>    8.9384    0.0000 </r>
       <r>   11.8862    0.0000 </r>
       <r>   12.1261    0.0000 </r>
      </set>
      <set comment="kpoint 28">
       <r>   -3.1790    1.0000 </r>
       <r>   -1.0351    1.0000 </r>
       <r>    1.8143    1.0000 </r>
       <r>    3.4437    1.0000 </r>
       <r>    7.1494    0.0000 </r>
       <r>   10.4139    0.0000 </r>
       <r>   11.7101    0.0000 </r>
       <r>   11.8022    0.0000 </r>
      </set>
      <set comment="kpoint 29">
       <r>   -3.2348    1.0000 </r>
       <r>   -0.9561    1.0000 </r>
       <r>    1.5349    1.0000 </r>
       <r>    3.7152    1.0000 </r>
       <r>    7.4340    0.0000 </r>
       <r>   11.4429    0.0000 </r>
       <r>   11.4725    0.0000 </r>
       <r>   12.3385    0.0000 </r>
      </set>
      <set comment="kpoint 30">
       <r>   -3.8570    1.0000 </r>
       <r>   -0.2086    1.0000 </r>
       <r>    1.6945    1.0000 </r>
       <r>    4.1122    1.0000 </r>
       <r>    7.8690    0.0000 </r>
       <r>   10.8339    0.0000 </r>
       <r>   11.2008    0.0000 </r>
       <r>   11.9813    0.0000 </r>
      </set>
      <set comment="kpoint 31">
       <r>   -3.9794    1.0000 </r>
       <r>    0.1108    1.0000 </r>
       <r>    3.1208    1.0000 </r>
       <r>    3.1208    1.0000 </r>
       <r>    6.3271    0.0037 </r>
       <r>    7.3536    0.0000 </r>
       <r>   13.4408    0.0000 </r>
       <r>   13.4408    0.0000 </r>
      </set>
      <set comment="kpoint 32">
       <r>   -3.3674    1.0000 </r>
       <r>   -0.6931    1.0000 </r>
       <r>    2.5980    1.0000 </r>
       <r>    3.0167    1.0000 </r>
       <r>    6.5380    0.0000 </r>
       <r>    7.3655    0.0000 </r>
       <r>   13.7520    0.0000 </r>
       <r>   13.7773    0.0000 </r>
      </set>
      <set comment="kpoint 33">
       <r>   -2.7056    1.0000 </r>
       <r>   -1.4004    1.0000 </r>
       <r>    1.8350    1.0000 </r>
       <r>    3.0888    1.0000 </r>
       <r>    6.7078    0.0000 </r>
       <r>    8.5364    0.0000 </r>
       <r>   13.4857    0.0000 </r>
       <r>   13.6084    0.0000 </r>
      </set>
      <set comment="kpoint 34">
       <r>   -2.6453    1.0000 </r>
       <r>   -1.4293    1.0000 </r>
       <r>    1.3593    1.0000 </r>
       <r>    3.3315    1.0000 </r>
       <r>    6.9863    0.0000 </r>
       <r>   10.2515    0.0000 </r>
       <r>   12.7992    0.0000 </r>
       <r>   13.3503    0.0000 </r>
      </set>
      <set comment="kpoint 35">
       <r>   -2.7922    1.0000 </r>
       <r>   -1.4115    1.0000 </r>
       <r>    2.8646    1.0000 </r>
       <r>    2.8647    1.0000 </r>
       <r>    6.2916    0.0077 </r>
       <r>    6.6204    0.0000 </r>
       <r>   15.1076    0.0000 </r>
       <r>   15.1076    0.0000 </r>
      </set>
      <set comment="kpoint 36">
       <r>   -2.1574    1.0000 </r>
       <r>   -2.0458    1.0000 </r>
       <r>    2.4347    1.0000 </r>
       <r>    2.8894    1.0000 </r>
       <r>    6.4734    0.0001 </r>
       <r>    7.0568    0.0000 </r>
       <r>   15.0170    0.0000 </r>
       <r>   15.2310    0.0000 </r>
      </set>
      <set comment="kpoint 37">
       <r>   -5.4951    1.0000 </r>
       <r>    2.6179    1.0000 </r>
       <r>    3.8391    1.0000 </r>
       <r>    4.8304    1.0000 </r>
       <r>    7.9922    0.0000 </r>
       <r>    9.2106    0.0000 </r>
       <r>   10.0124    0.0000 </r>
       <r>   10.4419    0.0000 </r>
      </set>
      <set comment="kpoint 38">
       <r>   -4.9905    1.0000 </r>
       <r>    1.3141    1.0000 </r>
       <r>    3.2800    1.0000 </r>
       <r>    4.5154    1.0000 </r>
       <r>    8.3010    0.0000 </r>
       <r>    9.1796    0.0000 </r>
       <r>   10.3491    0.0000 </r>
       <r>   10.5674    0.0000 </r>
      </set>
      <set comment="kpoint 39">
       <r>   -4.3438    1.0000 </r>
       <r>   -0.0088    1.0000 </r>
       <r>    3.0218    1.0000 </r>
       <r>    4.1748    1.0000 </r>
       <r>    8.3227    0.0000 </r>
       <r>    9.0085    0.0000 </r>
       <r>   10.4438    0.0000 </r>
       <r>   11.4014    0.0000 </r>
      </set>
      <set comment="kpoint 40">
       <r>   -3.7424    1.0000 </r>
       <r>   -0.9727    1.0000 </r>
       <r>    2.9215    1.0000 </r>
       <r>    3.9683    1.0000 </r>
       <r>    8.2915    0.0000 </r>
       <r>    8.8272    0.0000 </r>
       <r>   10.3856    0.0000 </r>
       <r>   12.8548    0.0000 </r>
      </set>
      <set comment="kpoint 41">
       <r>   -4.8081    1.0000 </r>
       <r>    1.3334    1.0000 </r>
       <r>    3.1312    1.0000 </r>
       <r>    3.8361    1.0000 </r>
       <r>    7.4395    0.0000 </r>
       <r>    8.9698    0.0000 </r>
       <r>   10.6191    0.0000 </r>
       <r>   11.6646    0.0000 </r>
      </set>
      <set comment="kpoint 42">
       <r>   -4.2007    1.0000 </r>
       <r>    0.2681    1.0000 </r>
       <r>    2.5624    1.0000 </r>
       <r>    3.5284    1.0000 </r>
       <r>    7.8011    0.0000 </r>
       <r>    9.3866    0.0000 </r>
       <r>   10.3006    0.0000 </r>
       <r>   12.0581    0.0000 </r>
      </set>
      <set comment="kpoint 43">
       <r>   -3.5406    1.0000 </r>
       <r>   -0.7236    1.0000 </r>
       <r>    2.1802    1.0000 </r>
       <r>    3.3760    1.0000 </r>
       <r>    7.9367    0.0000 </r>
       <r>    9.9212    0.0000 </r>
       <r>   10.7324    0.0000 </r>
       <r>   12.0133    0.0000 </r>
      </set>
      <set comment="kpoint 44">
       <r>   -3.2804    1.0000 </r>
       <r>   -1.0651    1.0000 </r>
       <r>    1.9537    1.0000 </r>
       <r>    3.4640    1.0000 </r>
       <r>    8.1436    0.0000 </r>
       <r>    9.6570    0.0000 </r>
       <r>   11.8953    0.0000 </r>
       <r>   12.4245    0.0000 </r>
      </set>
      <set comment="kpoint 45">
       <r>   -3.7759    1.0000 </r>
       <r>   -0.3896    1.0000 </r>
       <r>    1.9459    1.0000 </r>
       <r>    3.7549    1.0000 </r>
       <r>    8.4973    0.0000 </r>
       <r>    9.4680    0.0000 </r>
       <r>   11.1838    0.0000 </r>
       <r>   11.8414    0.0000 </r>
      </set>
      <set comment="kpoint 46">
       <r>   -4.4391    1.0000 </r>
       <r>    0.5777    1.0000 </r>
       <r>    2.3206    1.0000 </r>
       <r>    4.1642    1.0000 </r>
       <r>    8.9235    0.0000 </r>
       <r>    9.0508    0.0000 </r>
       <r>   10.3162    0.0000 </r>
       <r>   11.3784    0.0000 </r>
      </set>
      <set comment="kpoint 47">
       <r>   -3.8721    1.0000 </r>
       <r>   -0.0245    1.0000 </r>
       <r>    2.6615    1.0000 </r>
       <r>    3.0478    1.0000 </r>
       <r>    7.0898    0.0000 </r>
       <r>    7.9496    0.0000 </r>
       <r>   11.9919    0.0000 </r>
       <r>   13.4064    0.0000 </r>
      </set>
      <set comment="kpoint 48">
       <r>   -3.2032    1.0000 </r>
       <r>   -0.8361    1.0000 </r>
       <r>    2.0310    1.0000 </r>
       <r>    2.8726    1.0000 </r>
       <r>    7.4382    0.0000 </r>
       <r>    8.7581    0.0000 </r>
       <r>   11.6420    0.0000 </r>
       <r>   13.7606    0.0000 </r>
      </set>
      <set comment="kpoint 49">
       <r>   -2.7446    1.0000 </r>
       <r>   -1.3258    1.0000 </r>
       <r>    1.5189    1.0000 </r>
       <r>    2.9866    1.0000 </r>
       <r>    7.6478    0.0000 </r>
       <r>   10.3231    0.0000 </r>
       <r>   11.3346    0.0000 </r>
       <r>   12.9291    0.0000 </r>
      </set>
      <set comment="kpoint 50">
       <r>   -3.1243    1.0000 </r>
       <r>   -0.9306    1.0000 </r>
       <r>    1.4163    1.0000 </r>
       <r>    3.3058    1.0000 </r>
       <r>    8.0155    0.0000 </r>
       <r>   10.7311    0.0000 </r>
       <r>   11.4518    0.0000 </r>
       <r>   12.3449    0.0000 </r>
      </set>
      <set comment="kpoint 51">
       <r>   -2.7207    1.0000 </r>
       <r>   -1.4093    1.0000 </r>
       <r>    2.4725    1.0000 </r>
       <r>    2.5928    1.0000 </r>
       <r>    7.0263    0.0000 </r>
       <r>    7.3007    0.0000 </r>
       <r>   13.5239    0.0000 </r>
       <r>   14.8922    0.0000 </r>
      </set>
      <set comment="kpoint 52">
       <r>   -2.2263    1.0000 </r>
       <r>   -1.8495    1.0000 </r>
       <r>    1.8266    1.0000 </r>
       <r>    2.6642    1.0000 </r>
       <r>    7.3045    0.0000 </r>
       <r>    8.5474    0.0000 </r>
       <r>   13.0686    0.0000 </r>
       <r>   13.2931    0.0000 </r>
      </set>
      <set comment="kpoint 53">
       <r>   -3.5677    1.0000 </r>
       <r>   -0.4120    1.0000 </r>
       <r>    1.9187    1.0000 </r>
       <r>    3.0728    1.0000 </r>
       <r>    8.7368    0.0000 </r>
       <r>    9.4017    0.0000 </r>
       <r>    9.9254    0.0000 </r>
       <r>   13.3085    0.0000 </r>
      </set>
      <set comment="kpoint 54">
       <r>   -2.9451    1.0000 </r>
       <r>   -1.1026    1.0000 </r>
       <r>    1.6421    1.0000 </r>
       <r>    2.7585    1.0000 </r>
       <r>    9.1186    0.0000 </r>
       <r>    9.4604    0.0000 </r>
       <r>   10.7243    0.0000 </r>
       <r>   12.5812    0.0000 </r>
      </set>
      <set comment="kpoint 55">
       <r>   -2.5396    1.0000 </r>
       <r>   -1.4540    1.0000 </r>
       <r>    1.8708    1.0000 </r>
       <r>    2.2480    1.0000 </r>
       <r>    8.6588    0.0000 </r>
       <r>    8.8723    0.0000 </r>
       <r>   11.2337    0.0000 </r>
       <r>   12.8222    0.0000 </r>
      </set>
      <set comment="kpoint 56">
       <r>   -2.3445    1.0000 </r>
       <r>   -1.6160    1.0000 </r>
       <r>    1.5970    1.0000 </r>
       <r>    2.2838    1.0000 </r>
       <r>    9.0116    0.0000 </r>
       <r>   10.2992    0.0000 </r>
       <r>   10.9901    0.0000 </r>
       <r>   11.0084    0.0000 </r>
      </set>
     </set>
    </set>
   </array>
  </eigenvalues>
  <separator name="orbital magnetization" >
   <v name="MAGDIPOLOUT">      0.00000000      0.00000000      0.00000000</v>
  </separator>
  <dos>
   <i name="efermi">      5.94865341 </i>
   <total>
    <array>
     <dimension dim="1">gridpoints</dimension>
     <dimension dim="2">spin</dimension>
     <field>energy</field>
     <field>total</field>
     <field>integrated</field>
     <set>
      <set comment="spin 1">
       <r>    -8.1964     0.0000     0.0000 </r>
       <r>    -8.1116     0.0000     0.0000 </r>
       <r>    -8.0269     0.0000     0.0000 </r>
       <r>    -7.9421     0.0000     0.0000 </r>
       <r>    -7.8574     0.0000     0.0000 </r>
       <r>    -7.7726     0.0000     0.0000 </r>
       <r>    -7.6878     0.0000     0.0000 </r>
       <r>    -7.6031     0.0000     0.0000 </r>
       <r>    -7.5183     0.0000     0.0000 </r>
       <r>    -7.4336     0.0000     0.0000 </r>
       <r>    -7.3488     0.0000     0.0000 </r>
       <r>    -7.2641     0.0000     0.0000 </r>
       <r>    -7.1793     0.0000     0.0000 </r>
       <r>    -7.0945     0.0000     0.0000 </r>
       <r>    -7.0098     0.0000     0.0000 </r>
       <r>    -6.9250     0.0000     0.0000 </r>
       <r>    -6.8403     0.0000     0.0000 </r>
       <r>    -6.7555     0.0000     0.0000 </r>
       <r>    -6.6707     0.0000     0.0000 </r>
       <r>    -6.5860     0.0001     0.0000 </r>
       <r>    -6.5012     0.0005     0.0001 </r>
       <r>    -6.4165     0.0025     0.0003 </r>
       <r>    -6.3317     0.0091     0.0010 </r>
       <r>    -6.2470     0.0247     0.0031 </r>
       <r>    -6.1622     0.0520     0.0075 </r>
       <r>    -6.0774     0.0882     0.0150 </r>
       <r>    -5.9927     0.1291     0.0260 </r>
       <r>    -5.9079     0.1710     0.0405 </r>
       <r>    -5.8232     0.2052     0.0578 </r>
       <r>    -5.7384     0.2243     0.0769 </r>
       <r>    -5.6537     0.2410     0.0973 </r>
       <r>    -5.5689     0.2742     0.1205 </r>
       <r>    -5.4841     0.3158     0.1473 </r>
       <r>    -5.3994     0.3400     0.1761 </r>
       <r>    -5.3146     0.3393     0.2049 </r>
       <r>    -5.2299     0.3308     0.2329 </r>
       <r>    -5.1451     0.3435     0.2620 </r>
       <r>    -5.0603     0.3944     0.2954 </r>
       <r>    -4.9756     0.4577     0.3342 </r>
       <r>    -4.8908     0.4875     0.3756 </r>
       <r>    -4.8061     0.4751     0.4158 </r>
       <r>    -4.7213     0.4457     0.4536 </r>
       <r>    -4.6366     0.4283     0.4899 </r>
       <r>    -4.5518     0.4560     0.5286 </r>
       <r>    -4.4670     0.5427     0.5745 </r>
       <r>    -4.3823     0.6446     0.6292 </r>
       <r>    -4.2975     0.6936     0.6880 </r>
       <r>    -4.2128     0.6705     0.7448 </r>
       <r>    -4.1280     0.6176     0.7971 </r>
       <r>    -4.0433     0.5995     0.8480 </r>
       <r>    -3.9585     0.6669     0.9045 </r>
       <r>    -3.8737     0.8141     0.9735 </r>
       <r>    -3.7890     0.9482     1.0539 </r>
       <r>    -3.7042     0.9651     1.1356 </r>
       <r>    -3.6195     0.8688     1.2093 </r>
       <r>    -3.5347     0.7467     1.2726 </r>
       <r>    -3.4499     0.6685     1.3292 </r>
       <r>    -3.3652     0.6701     1.3860 </r>
       <r>    -3.2804     0.7386     1.4486 </r>
       <r>    -3.1957     0.7840     1.5151 </r>
       <r>    -3.1109     0.7248     1.5765 </r>
       <r>    -3.0262     0.5966     1.6271 </r>
       <r>    -2.9414     0.5041     1.6698 </r>
       <r>    -2.8566     0.5018     1.7123 </r>
       <r>    -2.7719     0.5545     1.7593 </r>
       <r>    -2.6871     0.5771     1.8083 </r>
       <r>    -2.6024     0.5136     1.8518 </r>
       <r>    -2.5176     0.3950     1.8853 </r>
       <r>    -2.4329     0.2974     1.9105 </r>
       <r>    -2.3481     0.2587     1.9324 </r>
       <r>    -2.2633     0.2576     1.9542 </r>
       <r>    -2.1786     0.2521     1.9756 </r>
       <r>    -2.0938     0.2238     1.9946 </r>
       <r>    -2.0091     0.1871     2.0104 </r>
       <r>    -1.9243     0.1637     2.0243 </r>
       <r>    -1.8395     0.1585     2.0377 </r>
       <r>    -1.7548     0.1676     2.0519 </r>
       <r>    -1.6700     0.2030     2.0691 </r>
       <r>    -1.5853     0.2900     2.0937 </r>
       <r>    -1.5005     0.4325     2.1304 </r>
       <r>    -1.4158     0.5857     2.1800 </r>
       <r>    -1.3310     0.6934     2.2388 </r>
       <r>    -1.2462     0.7719     2.3042 </r>
       <r>    -1.1615     0.8953     2.3801 </r>
       <r>    -1.0767     1.0627     2.4702 </r>
       <r>    -0.9920     1.1714     2.5695 </r>
       <r>    -0.9072     1.1560     2.6674 </r>
       <r>    -0.8224     1.0554     2.7569 </r>
       <r>    -0.7377     0.9215     2.8350 </r>
       <r>    -0.6529     0.7686     2.9001 </r>
       <r>    -0.5682     0.6395     2.9543 </r>
       <r>    -0.4834     0.5990     3.0051 </r>
       <r>    -0.3987     0.6246     3.0581 </r>
       <r>    -0.3139     0.6173     3.1104 </r>
       <r>    -0.2291     0.5455     3.1566 </r>
       <r>    -0.1444     0.4749     3.1969 </r>
       <r>    -0.0596     0.4505     3.2351 </r>
       <r>     0.0251     0.4390     3.2723 </r>
       <r>     0.1099     0.4075     3.3068 </r>
       <r>     0.1946     0.3838     3.3393 </r>
       <r>     0.2794     0.3957     3.3729 </r>
       <r>     0.3642     0.4118     3.4078 </r>
       <r>     0.4489     0.3882     3.4407 </r>
       <r>     0.5337     0.3325     3.4689 </r>
       <r>     0.6184     0.2913     3.4936 </r>
       <r>     0.7032     0.2947     3.5185 </r>
       <r>     0.7880     0.3211     3.5457 </r>
       <r>     0.8727     0.3134     3.5723 </r>
       <r>     0.9575     0.2463     3.5932 </r>
       <r>     1.0422     0.1680     3.6074 </r>
       <r>     1.1270     0.1598     3.6210 </r>
       <r>     1.2117     0.2665     3.6436 </r>
       <r>     1.2965     0.4586     3.6824 </r>
       <r>     1.3813     0.6563     3.7380 </r>
       <r>     1.4660     0.8000     3.8059 </r>
       <r>     1.5508     0.8823     3.8806 </r>
       <r>     1.6355     0.9216     3.9588 </r>
       <r>     1.7203     0.9630     4.0404 </r>
       <r>     1.8050     1.0592     4.1302 </r>
       <r>     1.8898     1.1802     4.2302 </r>
       <r>     1.9746     1.2156     4.3332 </r>
       <r>     2.0593     1.1244     4.4285 </r>
       <r>     2.1441     0.9991     4.5132 </r>
       <r>     2.2288     0.9427     4.5931 </r>
       <r>     2.3136     0.9727     4.6755 </r>
       <r>     2.3984     1.0632     4.7657 </r>
       <r>     2.4831     1.1859     4.8662 </r>
       <r>     2.5679     1.2856     4.9751 </r>
       <r>     2.6526     1.3013     5.0854 </r>
       <r>     2.7374     1.2617     5.1924 </r>
       <r>     2.8221     1.2901     5.3017 </r>
       <r>     2.9069     1.4430     5.4240 </r>
       <r>     2.9917     1.6034     5.5599 </r>
       <r>     3.0764     1.6087     5.6963 </r>
       <r>     3.1612     1.4629     5.8203 </r>
       <r>     3.2459     1.3411     5.9339 </r>
       <r>     3.3307     1.3551     6.0488 </r>
       <r>     3.4154     1.4114     6.1684 </r>
       <r>     3.5002     1.3714     6.2847 </r>
       <r>     3.5850     1.2655     6.3919 </r>
       <r>     3.6697     1.2449     6.4974 </r>
       <r>     3.7545     1.3547     6.6123 </r>
       <r>     3.8392     1.4644     6.7364 </r>
       <r>     3.9240     1.4454     6.8589 </r>
       <r>     4.0088     1.3273     6.9714 </r>
       <r>     4.0935     1.2264     7.0753 </r>
       <r>     4.1783     1.1735     7.1748 </r>
       <r>     4.2630     1.1005     7.2681 </r>
       <r>     4.3478     0.9933     7.3522 </r>
       <r>     4.4325     0.9289     7.4310 </r>
       <r>     4.5173     0.9276     7.5096 </r>
       <r>     4.6021     0.9067     7.5864 </r>
       <r>     4.6868     0.8215     7.6561 </r>
       <r>     4.7716     0.7230     7.7174 </r>
       <r>     4.8563     0.6463     7.7721 </r>
       <r>     4.9411     0.5606     7.8197 </r>
       <r>     5.0258     0.4529     7.8580 </r>
       <r>     5.1106     0.3590     7.8885 </r>
       <r>     5.1954     0.2981     7.9137 </r>
       <r>     5.2801     0.2500     7.9349 </r>
       <r>     5.3649     0.2047     7.9523 </r>
       <r>     5.4496     0.1729     7.9669 </r>
       <r>     5.5344     0.1496     7.9796 </r>
       <r>     5.6192     0.1160     7.9894 </r>
       <r>     5.7039     0.0721     7.9956 </r>
       <r>     5.7887     0.0347     7.9985 </r>
       <r>     5.8734     0.0132     7.9996 </r>
       <r>     5.9582     0.0050     8.0000 </r>
       <r>     6.0429     0.0063     8.0006 </r>
       <r>     6.1277     0.0172     8.0020 </r>
       <r>     6.2125     0.0408     8.0055 </r>
       <r>     6.2972     0.0784     8.0121 </r>
       <r>     6.3820     0.1291     8.0231 </r>
       <r>     6.4667     0.1888     8.0391 </r>
       <r>     6.5515     0.2468     8.0600 </r>
       <r>     6.6363     0.2898     8.0845 </r>
       <r>     6.7210     0.3138     8.1111 </r>
       <r>     6.8058     0.3330     8.1394 </r>
       <r>     6.8905     0.3792     8.1715 </r>
       <r>     6.9753     0.4732     8.2116 </r>
       <r>     7.0600     0.5893     8.2616 </r>
       <r>     7.1448     0.6897     8.3200 </r>
       <r>     7.2296     0.7857     8.3866 </r>
       <r>     7.3143     0.9027     8.4631 </r>
       <r>     7.3991     1.0100     8.5487 </r>
       <r>     7.4838     1.0619     8.6388 </r>
       <r>     7.5686     1.0791     8.7302 </r>
       <r>     7.6533     1.1234     8.8254 </r>
       <r>     7.7381     1.2220     8.9290 </r>
       <r>     7.8229     1.3535     9.0437 </r>
       <r>     7.9076     1.4599     9.1675 </r>
       <r>     7.9924     1.4704     9.2921 </r>
       <r>     8.0771     1.3850     9.4095 </r>
       <r>     8.1619     1.3066     9.5202 </r>
       <r>     8.2467     1.3068     9.6310 </r>
       <r>     8.3314     1.3241     9.7432 </r>
       <r>     8.4162     1.2761     9.8514 </r>
       <r>     8.5009     1.1800     9.9514 </r>
       <r>     8.5857     1.1056    10.0451 </r>
       <r>     8.6704     1.1186    10.1399 </r>
       <r>     8.7552     1.2806    10.2484 </r>
       <r>     8.8400     1.5878    10.3830 </r>
       <r>     8.9247     1.9082    10.5448 </r>
       <r>     9.0095     2.0699    10.7202 </r>
       <r>     9.0942     2.0288    10.8921 </r>
       <r>     9.1790     1.8939    11.0527 </r>
       <r>     9.2637     1.7867    11.2041 </r>
       <r>     9.3485     1.7341    11.3511 </r>
       <r>     9.4333     1.6644    11.4922 </r>
       <r>     9.5180     1.4955    11.6189 </r>
       <r>     9.6028     1.2562    11.7254 </r>
       <r>     9.6875     1.0695    11.8160 </r>
       <r>     9.7723     1.0159    11.9021 </r>
       <r>     9.8571     1.0694    11.9928 </r>
       <r>     9.9418     1.1276    12.0884 </r>
       <r>    10.0266     1.1089    12.1823 </r>
       <r>    10.1113     1.0741    12.2734 </r>
       <r>    10.1961     1.1915    12.3744 </r>
       <r>    10.2808     1.5070    12.5021 </r>
       <r>    10.3656     1.8230    12.6566 </r>
       <r>    10.4504     1.9041    12.8180 </r>
       <r>    10.5351     1.7402    12.9655 </r>
       <r>    10.6199     1.5036    13.0929 </r>
       <r>    10.7046     1.3154    13.2044 </r>
       <r>    10.7894     1.1652    13.3032 </r>
       <r>    10.8741     1.0181    13.3895 </r>
       <r>    10.9589     0.8875    13.4647 </r>
       <r>    11.0437     0.8058    13.5330 </r>
       <r>    11.1284     0.7997    13.6008 </r>
       <r>    11.2132     0.8833    13.6756 </r>
       <r>    11.2979     1.0232    13.7624 </r>
       <r>    11.3827     1.1277    13.8579 </r>
       <r>    11.4675     1.1139    13.9524 </r>
       <r>    11.5522     1.0087    14.0379 </r>
       <r>    11.6370     0.9413    14.1176 </r>
       <r>    11.7217     1.0015    14.2025 </r>
       <r>    11.8065     1.1578    14.3007 </r>
       <r>    11.8912     1.3084    14.4116 </r>
       <r>    11.9760     1.3546    14.5264 </r>
       <r>    12.0608     1.2499    14.6323 </r>
       <r>    12.1455     1.0412    14.7206 </r>
       <r>    12.2303     0.8507    14.7927 </r>
       <r>    12.3150     0.7609    14.8571 </r>
       <r>    12.3998     0.7376    14.9197 </r>
       <r>    12.4846     0.7023    14.9792 </r>
       <r>    12.5693     0.6314    15.0327 </r>
       <r>    12.6541     0.5651    15.0806 </r>
       <r>    12.7388     0.5616    15.1282 </r>
       <r>    12.8236     0.6279    15.1814 </r>
       <r>    12.9083     0.6872    15.2397 </r>
       <r>    12.9931     0.6584    15.2955 </r>
       <r>    13.0779     0.5590    15.3428 </r>
       <r>    13.1626     0.4947    15.3848 </r>
       <r>    13.2474     0.5520    15.4316 </r>
       <r>    13.3321     0.7001    15.4909 </r>
       <r>    13.4169     0.8174    15.5602 </r>
       <r>    13.5016     0.8284    15.6304 </r>
       <r>    13.5864     0.7746    15.6961 </r>
       <r>    13.6712     0.7257    15.7576 </r>
       <r>    13.7559     0.6690    15.8143 </r>
       <r>    13.8407     0.5413    15.8601 </r>
       <r>    13.9254     0.3463    15.8895 </r>
       <r>    14.0102     0.1654    15.9035 </r>
       <r>    14.0950     0.0574    15.9084 </r>
       <r>    14.1797     0.0143    15.9096 </r>
       <r>    14.2645     0.0025    15.9098 </r>
       <r>    14.3492     0.0003    15.9098 </r>
       <r>    14.4340     0.0003    15.9099 </r>
       <r>    14.5187     0.0016    15.9100 </r>
       <r>    14.6035     0.0074    15.9106 </r>
       <r>    14.6883     0.0250    15.9127 </r>
       <r>    14.7730     0.0617    15.9180 </r>
       <r>    14.8578     0.1126    15.9275 </r>
       <r>    14.9425     0.1572    15.9408 </r>
       <r>    15.0273     0.1766    15.9558 </r>
       <r>    15.1120     0.1686    15.9701 </r>
       <r>    15.1968     0.1416    15.9821 </r>
       <r>    15.2816     0.1035    15.9909 </r>
       <r>    15.3663     0.0629    15.9962 </r>
       <r>    15.4511     0.0302    15.9988 </r>
       <r>    15.5358     0.0110    15.9997 </r>
       <r>    15.6206     0.0029    15.9999 </r>
       <r>    15.7054     0.0006    16.0000 </r>
       <r>    15.7901     0.0001    16.0000 </r>
       <r>    15.8749     0.0000    16.0000 </r>
       <r>    15.9596     0.0000    16.0000 </r>
       <r>    16.0444     0.0000    16.0000 </r>
       <r>    16.1291     0.0000    16.0000 </r>
       <r>    16.2139     0.0000    16.0000 </r>
       <r>    16.2987     0.0000    16.0000 </r>
       <r>    16.3834     0.0000    16.0000 </r>
       <r>    16.4682     0.0000    16.0000 </r>
       <r>    16.5529     0.0000    16.0000 </r>
       <r>    16.6377     0.0000    16.0000 </r>
       <r>    16.7224     0.0000    16.0000 </r>
       <r>    16.8072     0.0000    16.0000 </r>
       <r>    16.8920     0.0000    16.0000 </r>
       <r>    16.9767     0.0000    16.0000 </r>
       <r>    17.0615     0.0000    16.0000 </r>
       <r>    17.1462     0.0000    16.0000 </r>
       <r>    17.2310     0.0000    16.0000 </r>
      </set>
     </set>
    </array>
   </total>
  </dos>
 </calculation>
 <structure name="finalpos" >
  <crystal>
   <varray name="basis" >
    <v>       0.00000000       2.73350854       2.73350854 </v>
    <v>       2.73350854       0.00000000       2.73350854 </v>
    <v>       2.73350854       2.73350854       0.00000000 </v>
   </varray>
   <i name="volume">     40.84992861 </i>
   <varray name="rec_basis" >
    <v>      -0.18291510       0.18291510       0.18291510 </v>
    <v>       0.18291510      -0.18291510       0.18291510 </v>
    <v>       0.18291510       0.18291510      -0.18291510 </v>
   </varray>
  </crystal>
  <varray name="positions" >
   <v>       0.50000000       0.50000000       0.50000000 </v>
   <v>       0.75000000       0.75000000       0.75000000 </v>
  </varray>
 </structure>
</modeling>
