    2    2   15    1
  0.2001288E+02  0.3839590E-09  0.3839590E-09  0.3839590E-09  0.5000000E-15
  1.000000000000000E-004
  CAR 
 unknown system                          
      8     10      8
 
  0.0000000E+00  0.0000000E+00  0.0000000E+00  0.8000000E-02
    1       -6.188080   1.000000
    2        5.647907   0.979808
    3        5.647939   0.979797
    4        5.647939   0.979797
    5        8.202042   0.000000
    6        8.202054   0.000000
    7        8.202054   0.000000
    8        8.743655   0.000000
 
  0.2000000E+00  0.1993820E-16  0.3023569E-17  0.6400000E-01
    1       -5.680540   1.000000
    2        2.647513   1.000000
    3        5.072283   1.000000
    4        5.072313   1.000000
    5        7.792909   0.000000
    6        8.997191   0.000000
    7        8.997224   0.000000
    8       11.509171   0.000000
 
  0.4000000E+00  0.3987640E-16  0.6047138E-17  0.6400000E-01
    1       -4.347541   1.000000
    2       -0.562477   1.000000
    3        4.526941   1.000000
    4        4.526977   1.000000
    5        7.189794   0.000000
    6        9.090204   0.000000
    7        9.090255   0.000000
    8       13.444267   0.000000
 
  0.2000000E+00  0.2000000E+00  0.4572614E-17  0.4800000E-01
    1       -5.505568   1.000000
    2        2.998872   1.000000
    3        4.179247   1.000000
    4        4.179267   1.000000
    5        7.123382   0.000000
    6        9.513766   0.000000
    7       10.512351   0.000000
    8       10.512360   0.000000
 
  0.4000000E+00  0.2000000E+00  0.1623023E-16  0.1920000E+00
    1       -4.386857   1.000000
    2        0.363201   1.000000
    3        3.053162   1.000000
    4        3.675879   1.000000
    5        7.438402   0.000000
    6        9.735302   0.000000
    7       10.523387   0.000000
    8       11.074936   0.000000
 
 -0.4000000E+00  0.2000000E+00  0.9097260E-17  0.1920000E+00
    1       -3.525840   1.000000
    2       -0.996233   1.000000
    3        2.258991   1.000000
    4        3.951857   1.000000
    5        7.709946   0.000000
    6       10.210554   0.000000
    7       10.457091   0.000000
    8       13.186245   0.000000
 
 -0.2000000E+00  0.2000000E+00  0.1212083E-16  0.9600000E-01
    1       -4.865176   1.000000
    2        1.180771   1.000000
    3        2.695346   1.000000
    4        4.805254   1.000000
    5        8.499098   0.000000
    6        9.620113   0.000000
    7        9.940215   0.000000
    8       11.302875   0.000000
 
  0.4000000E+00  0.4000000E+00  0.9145228E-17  0.4800000E-01
    1       -3.526308   1.000000
    2       -0.510552   1.000000
    3        2.987275   1.000000
    4        2.987300   1.000000
    5        6.266261   0.010100
    6        7.005991   0.000000
    7       14.100676   0.000000
    8       14.100684   0.000000
 
 -0.4000000E+00  0.4000000E+00  0.2424166E-16  0.9600000E-01
    1       -2.350607   1.000000
    2       -1.747689   1.000000
    3        1.657343   1.000000
    4        3.104388   1.000000
    5        6.714825   0.000000
    6        8.813794   0.000000
    7       13.676414   0.000000
    8       14.217500   0.000000
 
 -0.4000000E+00  0.4000000E+00  0.2000000E+00  0.1920000E+00
    1       -3.099431   1.000000
    2       -0.888585   1.000000
    3        1.737743   1.000000
    4        2.706900   1.000000
    5        9.046933   0.000000
    6        9.458903   0.000000
    7       10.028587   0.000000
    8       13.385877   0.000000
