   2   2   0   0
  0.2001288E+02  0.3839590E-09  0.3839590E-09  0.3839590E-09  0.5000000E-15
  1.000000000000000E-004
  CAR 
 unknown system                          
     17.67088145     -8.10222177  301      6.18501985      1.00000000
     -8.102  0.0000E+00  0.0000E+00
     -8.016  0.0000E+00  0.0000E+00
     -7.930  0.0000E+00  0.0000E+00
     -7.844  0.0000E+00  0.0000E+00
     -7.759  0.0000E+00  0.0000E+00
     -7.673  0.0000E+00  0.0000E+00
     -7.587  0.0000E+00  0.0000E+00
     -7.501  0.0000E+00  0.0000E+00
     -7.415  0.0000E+00  0.0000E+00
     -7.329  0.0000E+00  0.0000E+00
     -7.243  0.1034E-17  0.8882E-19
     -7.157  0.1365E-15  0.1181E-16
     -7.071  0.1151E-13  0.1000E-14
     -6.985  0.6780E-12  0.5925E-13
     -6.899  0.2796E-10  0.2462E-11
     -6.814  0.8097E-09  0.7203E-10
     -6.728  0.1653E-07  0.1492E-08
     -6.642  0.2393E-06  0.2205E-07
     -6.556  0.2471E-05  0.2344E-06
     -6.470  0.1838E-04  0.1813E-05
     -6.384  0.9943E-04  0.1036E-04
     -6.298  0.3968E-03  0.4445E-04
     -6.212  0.1189E-02  0.1466E-03
     -6.126  0.2741E-02  0.3821E-03
     -6.040  0.5032E-02  0.8144E-03
     -5.954  0.7690E-02  0.1475E-02
     -5.869  0.1026E-01  0.2357E-02
     -5.783  0.1247E-01  0.3428E-02
     -5.697  0.1434E-01  0.4660E-02
     -5.611  0.1609E-01  0.6042E-02
     -5.525  0.1774E-01  0.7566E-02
     -5.439  0.1905E-01  0.9202E-02
     -5.353  0.2020E-01  0.1094E-01
     -5.267  0.2163E-01  0.1280E-01
     -5.181  0.2329E-01  0.1480E-01
     -5.095  0.2467E-01  0.1692E-01
     -5.009  0.2547E-01  0.1910E-01
     -4.924  0.2609E-01  0.2135E-01
     -4.838  0.2749E-01  0.2371E-01
     -4.752  0.2978E-01  0.2627E-01
     -4.666  0.3164E-01  0.2898E-01
     -4.580  0.3218E-01  0.3175E-01
     -4.494  0.3227E-01  0.3452E-01
     -4.408  0.3344E-01  0.3739E-01
     -4.322  0.3590E-01  0.4048E-01
     -4.236  0.3859E-01  0.4379E-01
     -4.150  0.4095E-01  0.4731E-01
     -4.064  0.4311E-01  0.5101E-01
     -3.979  0.4494E-01  0.5488E-01
     -3.893  0.4662E-01  0.5888E-01
     -3.807  0.4932E-01  0.6312E-01
     -3.721  0.5350E-01  0.6771E-01
     -3.635  0.5699E-01  0.7261E-01
     -3.549  0.5719E-01  0.7752E-01
     -3.463  0.5474E-01  0.8223E-01
     -3.377  0.5197E-01  0.8669E-01
     -3.291  0.4878E-01  0.9088E-01
     -3.205  0.4459E-01  0.9471E-01
     -3.119  0.4193E-01  0.9831E-01
     -3.034  0.4319E-01  0.1020E+00
     -2.948  0.4621E-01  0.1060E+00
     -2.862  0.4626E-01  0.1100E+00
     -2.776  0.4124E-01  0.1135E+00
     -2.690  0.3346E-01  0.1164E+00
     -2.604  0.2695E-01  0.1187E+00
     -2.518  0.2455E-01  0.1208E+00
     -2.432  0.2650E-01  0.1231E+00
     -2.346  0.2992E-01  0.1257E+00
     -2.260  0.3047E-01  0.1283E+00
     -2.174  0.2590E-01  0.1305E+00
     -2.088  0.1777E-01  0.1320E+00
     -2.003  0.9665E-02  0.1329E+00
     -1.917  0.4358E-02  0.1332E+00
     -1.831  0.2902E-02  0.1335E+00
     -1.745  0.5787E-02  0.1340E+00
     -1.659  0.1321E-01  0.1351E+00
     -1.573  0.2284E-01  0.1371E+00
     -1.487  0.2943E-01  0.1396E+00
     -1.401  0.2972E-01  0.1422E+00
     -1.315  0.2687E-01  0.1445E+00
     -1.229  0.2776E-01  0.1468E+00
     -1.143  0.3740E-01  0.1501E+00
     -1.058  0.5548E-01  0.1548E+00
     -0.972  0.7529E-01  0.1613E+00
     -0.886  0.8689E-01  0.1688E+00
     -0.800  0.8451E-01  0.1760E+00
     -0.714  0.7185E-01  0.1822E+00
     -0.628  0.5843E-01  0.1872E+00
     -0.542  0.4978E-01  0.1915E+00
     -0.456  0.4395E-01  0.1953E+00
     -0.370  0.3880E-01  0.1986E+00
     -0.284  0.3676E-01  0.2018E+00
     -0.198  0.3919E-01  0.2051E+00
     -0.113  0.4145E-01  0.2087E+00
     -0.027  0.3828E-01  0.2120E+00
      0.059  0.3150E-01  0.2147E+00
      0.145  0.2746E-01  0.2170E+00
      0.231  0.2824E-01  0.2195E+00
      0.317  0.2936E-01  0.2220E+00
      0.403  0.2649E-01  0.2243E+00
      0.489  0.2121E-01  0.2261E+00
      0.575  0.1839E-01  0.2277E+00
      0.661  0.2050E-01  0.2294E+00
      0.747  0.2519E-01  0.2316E+00
      0.832  0.2707E-01  0.2339E+00
      0.918  0.2314E-01  0.2359E+00
      1.004  0.1651E-01  0.2373E+00
      1.090  0.1284E-01  0.2384E+00
      1.176  0.1436E-01  0.2397E+00
      1.262  0.1901E-01  0.2413E+00
      1.348  0.2394E-01  0.2433E+00
      1.434  0.2881E-01  0.2458E+00
      1.520  0.3540E-01  0.2489E+00
      1.606  0.4496E-01  0.2527E+00
      1.692  0.5728E-01  0.2576E+00
      1.777  0.7027E-01  0.2637E+00
      1.863  0.7865E-01  0.2704E+00
      1.949  0.7774E-01  0.2771E+00
      2.035  0.6991E-01  0.2831E+00
      2.121  0.6334E-01  0.2886E+00
      2.207  0.6371E-01  0.2940E+00
      2.293  0.6906E-01  0.3000E+00
      2.379  0.7326E-01  0.3063E+00
      2.465  0.7364E-01  0.3126E+00
      2.551  0.7288E-01  0.3189E+00
      2.637  0.7349E-01  0.3252E+00
      2.722  0.7495E-01  0.3316E+00
      2.808  0.7760E-01  0.3383E+00
      2.894  0.8399E-01  0.3455E+00
      2.980  0.9337E-01  0.3535E+00
      3.066  0.9950E-01  0.3621E+00
      3.152  0.9813E-01  0.3705E+00
      3.238  0.9343E-01  0.3785E+00
      3.324  0.9275E-01  0.3865E+00
      3.410  0.9622E-01  0.3948E+00
      3.496  0.9715E-01  0.4031E+00
      3.582  0.9286E-01  0.4111E+00
      3.667  0.8826E-01  0.4187E+00
      3.753  0.8772E-01  0.4262E+00
      3.839  0.8946E-01  0.4339E+00
      3.925  0.8892E-01  0.4415E+00
      4.011  0.8432E-01  0.4488E+00
      4.097  0.7857E-01  0.4555E+00
      4.183  0.7647E-01  0.4621E+00
      4.269  0.7981E-01  0.4689E+00
      4.355  0.8411E-01  0.4762E+00
      4.441  0.8240E-01  0.4832E+00
      4.527  0.7399E-01  0.4896E+00
      4.613  0.6531E-01  0.4952E+00
      4.698  0.6090E-01  0.5004E+00
      4.784  0.5832E-01  0.5055E+00
      4.870  0.5303E-01  0.5100E+00
      4.956  0.4503E-01  0.5139E+00
      5.042  0.3791E-01  0.5171E+00
      5.128  0.3336E-01  0.5200E+00
      5.214  0.2985E-01  0.5226E+00
      5.300  0.2597E-01  0.5248E+00
      5.386  0.2231E-01  0.5267E+00
      5.472  0.1971E-01  0.5284E+00
      5.558  0.1740E-01  0.5299E+00
      5.643  0.1429E-01  0.5311E+00
      5.729  0.1062E-01  0.5320E+00
      5.815  0.7211E-02  0.5327E+00
      5.901  0.4378E-02  0.5330E+00
      5.987  0.2228E-02  0.5332E+00
      6.073  0.8906E-03  0.5333E+00
      6.159  0.2848E-03  0.5333E+00
      6.245  0.1804E-03  0.5333E+00
      6.331  0.5622E-03  0.5334E+00
      6.417  0.1787E-02  0.5335E+00
      6.503  0.4200E-02  0.5339E+00
      6.588  0.7517E-02  0.5346E+00
      6.674  0.1113E-01  0.5355E+00
      6.760  0.1517E-01  0.5368E+00
      6.846  0.2014E-01  0.5385E+00
      6.932  0.2535E-01  0.5407E+00
      7.018  0.2945E-01  0.5432E+00
      7.104  0.3202E-01  0.5460E+00
      7.190  0.3344E-01  0.5489E+00
      7.276  0.3447E-01  0.5518E+00
      7.362  0.3688E-01  0.5550E+00
      7.448  0.4274E-01  0.5587E+00
      7.533  0.5170E-01  0.5631E+00
      7.619  0.6016E-01  0.5683E+00
      7.705  0.6419E-01  0.5738E+00
      7.791  0.6449E-01  0.5793E+00
      7.877  0.6697E-01  0.5851E+00
      7.963  0.7582E-01  0.5916E+00
      8.049  0.8775E-01  0.5991E+00
      8.135  0.9628E-01  0.6074E+00
      8.221  0.9942E-01  0.6160E+00
      8.307  0.9982E-01  0.6245E+00
      8.393  0.9945E-01  0.6331E+00
      8.478  0.9746E-01  0.6414E+00
      8.564  0.9236E-01  0.6494E+00
      8.650  0.8473E-01  0.6567E+00
      8.736  0.7728E-01  0.6633E+00
      8.822  0.7285E-01  0.6696E+00
      8.908  0.7296E-01  0.6758E+00
      8.994  0.7837E-01  0.6826E+00
      9.080  0.8943E-01  0.6902E+00
      9.166  0.1043E+00  0.6992E+00
      9.252  0.1182E+00  0.7094E+00
      9.338  0.1264E+00  0.7202E+00
      9.423  0.1274E+00  0.7312E+00
      9.509  0.1228E+00  0.7417E+00
      9.595  0.1146E+00  0.7516E+00
      9.681  0.1054E+00  0.7606E+00
      9.767  0.9779E-01  0.7690E+00
      9.853  0.9287E-01  0.7770E+00
      9.939  0.8920E-01  0.7846E+00
     10.025  0.8654E-01  0.7921E+00
     10.111  0.8663E-01  0.7995E+00
     10.197  0.8834E-01  0.8071E+00
     10.283  0.8759E-01  0.8146E+00
     10.369  0.8375E-01  0.8218E+00
     10.454  0.8070E-01  0.8288E+00
     10.540  0.8025E-01  0.8357E+00
     10.626  0.7988E-01  0.8425E+00
     10.712  0.7825E-01  0.8492E+00
     10.798  0.7835E-01  0.8560E+00
     10.884  0.8270E-01  0.8631E+00
     10.970  0.8881E-01  0.8707E+00
     11.056  0.9129E-01  0.8786E+00
     11.142  0.8760E-01  0.8861E+00
     11.228  0.7983E-01  0.8929E+00
     11.314  0.7162E-01  0.8991E+00
     11.399  0.6546E-01  0.9047E+00
     11.485  0.6318E-01  0.9101E+00
     11.571  0.6616E-01  0.9158E+00
     11.657  0.7323E-01  0.9221E+00
     11.743  0.7983E-01  0.9290E+00
     11.829  0.8222E-01  0.9360E+00
     11.915  0.8084E-01  0.9430E+00
     12.001  0.7694E-01  0.9496E+00
     12.087  0.6956E-01  0.9556E+00
     12.173  0.5863E-01  0.9606E+00
     12.259  0.4833E-01  0.9648E+00
     12.344  0.4449E-01  0.9686E+00
     12.430  0.4893E-01  0.9728E+00
     12.516  0.5817E-01  0.9778E+00
     12.602  0.6703E-01  0.9835E+00
     12.688  0.7219E-01  0.9897E+00
     12.774  0.7301E-01  0.9960E+00
     12.860  0.6982E-01  0.1002E+01
     12.946  0.6220E-01  0.1007E+01
     13.032  0.5120E-01  0.1012E+01
     13.118  0.4077E-01  0.1015E+01
     13.204  0.3385E-01  0.1018E+01
     13.289  0.2985E-01  0.1021E+01
     13.375  0.2743E-01  0.1023E+01
     13.461  0.2720E-01  0.1025E+01
     13.547  0.3146E-01  0.1028E+01
     13.633  0.4159E-01  0.1032E+01
     13.719  0.5395E-01  0.1036E+01
     13.805  0.5958E-01  0.1041E+01
     13.891  0.5226E-01  0.1046E+01
     13.977  0.3623E-01  0.1049E+01
     14.063  0.2169E-01  0.1051E+01
     14.149  0.1439E-01  0.1052E+01
     14.234  0.1265E-01  0.1053E+01
     14.320  0.1209E-01  0.1054E+01
     14.406  0.1074E-01  0.1055E+01
     14.492  0.1018E-01  0.1056E+01
     14.578  0.1242E-01  0.1057E+01
     14.664  0.1672E-01  0.1059E+01
     14.750  0.1950E-01  0.1060E+01
     14.836  0.1756E-01  0.1062E+01
     14.922  0.1169E-01  0.1063E+01
     15.008  0.5699E-02  0.1063E+01
     15.094  0.2311E-02  0.1063E+01
     15.179  0.1679E-02  0.1064E+01
     15.265  0.2786E-02  0.1064E+01
     15.351  0.4379E-02  0.1064E+01
     15.437  0.5374E-02  0.1065E+01
     15.523  0.5601E-02  0.1065E+01
     15.609  0.5510E-02  0.1066E+01
     15.695  0.5008E-02  0.1066E+01
     15.781  0.3741E-02  0.1066E+01
     15.867  0.2099E-02  0.1067E+01
     15.953  0.8501E-03  0.1067E+01
     16.039  0.2447E-03  0.1067E+01
     16.124  0.4975E-04  0.1067E+01
     16.210  0.7128E-05  0.1067E+01
     16.296  0.7182E-06  0.1067E+01
     16.382  0.5080E-07  0.1067E+01
     16.468  0.2519E-08  0.1067E+01
     16.554  0.8742E-10  0.1067E+01
     16.640  0.2121E-11  0.1067E+01
     16.726  0.3591E-13  0.1067E+01
     16.812  0.4249E-15  0.1067E+01
     16.898  0.3102E-17  0.1067E+01
     16.984  0.0000E+00  0.1067E+01
     17.070  0.0000E+00  0.1067E+01
     17.155  0.0000E+00  0.1067E+01
     17.241  0.0000E+00  0.1067E+01
     17.327  0.0000E+00  0.1067E+01
     17.413  0.0000E+00  0.1067E+01
     17.499  0.0000E+00  0.1067E+01
     17.585  0.0000E+00  0.1067E+01
     17.671  0.0000E+00  0.1067E+01
