unknown system                          
   1.00000000000000     
    -2.431042    2.431042    1.338941
     2.431042   -2.431042    1.338941
     2.431042    2.431042   -1.338941
   Si
     2
Direct
  0.750000  0.250000  0.500000
  0.500000  0.500000  0.000000
 
   36   36   36
  9.7156      9.6460      9.4434      9.1253      8.7166      8.2449      7.7359      7.2110      6.6862      6.1744    
  5.6866      5.2337      4.8263      4.4736      4.1820      3.9551      3.7941      3.6981      3.6663      3.6981    
  3.7941      3.9551      4.1820      4.4736      4.8263      5.2337      5.6866      6.1744      6.6862      7.2110    
  7.7359      8.2449      8.7166      9.1253      9.4434      9.6460      9.6460      9.8008      9.8143      9.6896    
  9.4411      9.0909      8.6643      8.1849      7.6729      7.1441      6.6126      6.0918      5.5958      5.1386    
  4.7325      4.3866      4.1060      3.8928      3.7466      3.6661      3.6506      3.6999      3.8147      3.9958    
  4.2425      4.5527      4.9218      5.3436      5.8109      6.3160      6.8502      7.4017      7.9540      8.4839    
  8.9628      9.3596      9.4434      9.8143      10.051      10.140      10.082      9.8904      9.5854      9.1908    
  8.7288      8.2183      7.6750      7.1134      6.5492      5.9995      5.4821      5.0128      4.6039      4.2629    
  3.9930      3.7944      3.6657      3.6056      3.6132      3.6887      3.8326      4.0445      4.3234      4.6665    
  5.0705      5.5314      6.0445      6.6031      7.1960      7.8052      8.4050      8.9628      9.1253      9.6896    
  10.140      10.448      10.599      10.593      10.443      10.170      9.7955      9.3416      8.8252      8.2605    
  7.6618      7.0461      6.4339      5.8471      5.3062      4.8273      4.4207      4.0914      3.8402      3.6653    
  3.5646      3.5364      3.5801      3.6957      3.8831      4.1421      4.4720      4.8723      5.3419      5.8789    
  6.4777      7.1266      7.8052      8.4839      8.7166      9.4411      10.082      10.599      10.962      11.157    
  11.184      11.060      10.805      10.444      9.9935      9.4685      8.8797      8.2400      7.5674      6.8859    
  6.2225      5.6033      5.0492      4.5742      4.1849      3.8826      3.6650      3.5289      3.4715      3.4912    
  3.5875      3.7606      4.0113      4.3411      4.7522      5.2463      5.8233      6.4777      7.1960      7.9540    
  8.2449      9.0909      9.8904      10.593      11.157      11.551      11.759      11.787      11.664      11.422    
  11.080      10.647      10.122      9.5105      8.8290      8.0962      7.3405      6.5954      5.8936      5.2619    
  4.7180      4.2704      3.9204      3.6650      3.4996      3.4200      3.4236      3.5095      3.6783      3.9324    
  4.2754      4.7120      5.2463      5.8789      6.6031      7.4017      7.7359      8.6643      9.5854      10.443    
  11.184      11.759      12.123      12.277      12.258      12.117      11.896      11.607      11.233      10.745    
  10.130      9.4088      8.6146      7.7820      6.9524      6.1666      5.4576      4.8470      4.3449      3.9525    
  3.6653      3.4772      3.3827      3.3781      3.4624      3.6370      3.9060      4.2754      4.7522      5.3419    
  6.0445      6.8502      7.2110      8.1849      9.1908      10.170      11.060      11.787      12.277      12.512    
  12.537      12.431      12.274      12.111      11.930      11.678      11.285      10.708      9.9602      9.1045    
  8.1944      7.2804      6.4120      5.6289      4.9565      4.4060      3.9777      3.6658      3.4623      3.3602    
  3.3553      3.4467      3.6370      3.9324      4.3411      4.8723      5.5314      6.3160      6.6862      7.6729    
  8.7288      9.7955      10.805      11.664      12.258      12.537      12.540      12.372      12.164      12.021    
  11.978      11.985      11.933      11.700      11.209      10.463      9.5493      8.5628      7.5670      6.6205    
  5.7695      5.0425      4.4513      3.9951      3.6662      3.4547      3.3527      3.3553      3.4624      3.6783    
  4.0113      4.4720      5.0705      5.8109      6.1744      7.1441      8.2183      9.3416      10.444      11.422    
  12.117      12.431      12.372      12.052      11.653      11.360      11.292      11.458      11.748      11.981    
  11.973      11.612      10.896      9.9338      8.8739      7.8014      6.7842      5.8739      5.1018      4.4793    
  4.0040      3.6663      3.4547      3.3602      3.3781      3.5095      3.7606      4.1421      4.6665      5.3436    
  5.6866      6.6126      7.6750      8.8252      9.9935      11.080      11.896      12.274      12.164      11.653    
  10.949      10.317      9.9918      10.092      10.573      11.246      11.842      12.112      11.912      11.244    
  10.246      9.1168      7.9752      6.8968      5.9382      5.1320      4.4887      4.0040      3.6662      3.4623    
  3.3827      3.4236      3.5875      3.8831      4.3234      4.9218      5.2337      6.0918      7.1135      8.2605    
  9.4685      10.647      11.607      12.111      12.021      11.360      10.317      9.2093      8.3867      8.1190    
  8.4995      9.4076      10.551      11.566      12.144      12.117      11.502      10.475      9.2832      8.0819    
  6.9542      5.9599      5.1320      4.4793      3.9951      3.6658      3.4772      3.4200      3.4912      3.6957    
  4.0445      4.5527      4.8263      5.5958      6.5492      7.6618      8.8798      10.122      11.233      11.930    
  11.978      11.292      9.9918      8.3867      6.9073      5.9799      5.8871      6.6674      8.0978      9.7702    
  11.229      12.110      12.244      11.672      10.614      9.3678      8.1179      6.9542      5.9382      5.1018    
  4.4513      3.9777      3.6653      3.4996      3.4715      3.5801      3.8326      4.2425      4.4736      5.1386    
  5.9995      7.0461      8.2400      9.5105      10.745      11.678      11.985      11.458      10.092      8.1191    
  5.9799      4.2143      3.3044      3.5156      4.8010      6.8152      9.0312      10.910      12.056      12.310    
  11.755      10.661      9.3678      8.0819      6.8968      5.8739      5.0425      4.4060      3.9525      3.6650    
  3.5289      3.5364      3.6887      3.9958      4.1820      4.7325      5.4821      6.4339      7.5675      8.8290    
  10.130      11.285      11.933      11.748      10.573      8.4995      5.8871      3.3044      1.3845     0.63543    
  1.2702      3.1301      5.7379      8.4562      10.685      12.019      12.330      11.755      10.614      9.2832    
  7.9752      6.7842      5.7695      4.9565      4.3449      3.9204      3.6650      3.5646      3.6132      3.8147    
  3.9551      4.3866      5.0128      5.8471      6.8859      8.0962      9.4088      10.708      11.700      11.981    
  11.246      9.4076      6.6674      3.5156     0.63543     -1.2760     -1.7227     -.57724      1.8725      5.0209    
  8.1421      10.603      12.019      12.310      11.672      10.475      9.1168      7.8014      6.6205      5.6289    
  4.8470      4.2704      3.8826      3.6653      3.6056      3.6999      3.7941      4.1060      4.6039      5.3062    
  6.2225      7.3405      8.6146      9.9602      11.209      11.973      11.842      10.551      8.0978      4.8010    
  1.2701     -1.7227     -3.4553     -3.4833     -1.7920      1.1973      4.7694      8.1421      10.685      12.056    
  12.244      11.502      10.246      8.8739      7.5670      6.4120      5.4576      4.7180      4.1849      3.8402    
  3.6657      3.6506      3.6981      3.8928      4.2629      4.8273      5.6033      6.5954      7.7820      9.1045    
  10.463      11.612      12.112      11.566      9.7702      6.8152      3.1301     -.57726     -3.4834     -4.8846    
 -4.4243     -2.2156      1.1973      5.0209      8.4562      10.910      12.110      12.117      11.244      9.9338    
  8.5628      7.2804      6.1666      5.2619      4.5742      4.0914      3.7944      3.6661      3.6663      3.7466    
  3.9930      4.4207      5.0492      5.8936      6.9524      8.1944      9.5493      10.896      11.912      12.144    
  11.229      9.0311      5.7379      1.8724     -1.7920     -4.4243     -5.3823     -4.4243     -1.7920      1.8725    
  5.7379      9.0312      11.229      12.144      11.912      10.896      9.5493      8.1944      6.9524      5.8936    
  5.0492      4.4207      3.9930      3.7466      3.6981      3.6661      3.7944      4.0914      4.5742      5.2619    
  6.1666      7.2804      8.5628      9.9338      11.244      12.117      12.110      10.910      8.4562      5.0209    
  1.1973     -2.2156     -4.4243     -4.8846     -3.4833     -.57724      3.1301      6.8152      9.7702      11.566    
  12.112      11.612      10.463      9.1045      7.7820      6.5954      5.6033      4.8273      4.2629      3.8928    
  3.7941      3.6506      3.6657      3.8402      4.1849      4.7180      5.4576      6.4120      7.5670      8.8738    
  10.246      11.502      12.244      12.056      10.684      8.1421      4.7694      1.1973     -1.7920     -3.4834    
 -3.4553     -1.7227      1.2702      4.8010      8.0978      10.551      11.842      11.973      11.209      9.9602    
  8.6146      7.3405      6.2225      5.3062      4.6039      4.1060      3.9551      3.6999      3.6056      3.6653    
  3.8826      4.2704      4.8470      5.6289      6.6205      7.8014      9.1167      10.475      11.672      12.310    
  12.019      10.603      8.1421      5.0209      1.8724     -.57726     -1.7227     -1.2760     0.63543      3.5156    
  6.6674      9.4076      11.246      11.981      11.700      10.708      9.4088      8.0962      6.8859      5.8471    
  5.0128      4.3866      4.1820      3.8147      3.6132      3.5646      3.6650      3.9204      4.3450      4.9565    
  5.7695      6.7842      7.9751      9.2832      10.614      11.755      12.330      12.019      10.684      8.4562    
  5.7379      3.1301      1.2701     0.63543      1.3845      3.3044      5.8871      8.4995      10.573      11.748    
  11.933      11.285      10.130      8.8290      7.5674      6.4339      5.4821      4.7325      4.4736      3.9958    
  3.6887      3.5364      3.5289      3.6650      3.9525      4.4060      5.0425      5.8739      6.8968      8.0819    
  9.3678      10.661      11.755      12.310      12.056      10.910      9.0311      6.8152      4.8010      3.5156    
  3.3044      4.2143      5.9799      8.1190      10.092      11.458      11.985      11.678      10.745      9.5105    
  8.2400      7.0461      5.9995      5.1386      4.8263      4.2425      3.8326      3.5801      3.4715      3.4996    
  3.6653      3.9777      4.4513      5.1018      5.9382      6.9541      8.1178      9.3678      10.614      11.672    
  12.244      12.110      11.229      9.7702      8.0978      6.6674      5.8871      5.9799      6.9073      8.3867    
  9.9918      11.292      11.978      11.930      11.233      10.122      8.8797      7.6618      6.5492      5.5958    
  5.2337      4.5527      4.0445      3.6957      3.4913      3.4200      3.4773      3.6658      3.9952      4.4793    
  5.1320      5.9599      6.9541      8.0819      9.2832      10.475      11.502      12.117      12.144      11.566    
  10.551      9.4076      8.4995      8.1191      8.3867      9.2093      10.317      11.360      12.021      12.111    
  11.607      10.647      9.4685      8.2605      7.1134      6.0918      5.6866      4.9218      4.3234      3.8831    
  3.5875      3.4236      3.3827      3.4623      3.6662      4.0041      4.4887      5.1320      5.9382      6.8968    
  7.9751      9.1167      10.246      11.244      11.912      12.112      11.842      11.246      10.573      10.092    
  9.9918      10.317      10.949      11.653      12.164      12.274      11.896      11.080      9.9935      8.8252    
  7.6750      6.6126      6.1744      5.3436      4.6665      4.1421      3.7606      3.5095      3.3781      3.3602    
  3.4548      3.6664      4.0041      4.4793      5.1018      5.8739      6.7842      7.8014      8.8738      9.9338    
  10.896      11.612      11.973      11.981      11.748      11.458      11.292      11.360      11.653      12.052    
  12.372      12.431      12.117      11.422      10.444      9.3416      8.2183      7.1441      6.6862      5.8109    
  5.0705      4.4720      4.0113      3.6783      3.4624      3.3553      3.3527      3.4548      3.6662      3.9952    
  4.4513      5.0425      5.7695      6.6205      7.5670      8.5628      9.5493      10.463      11.209      11.700    
  11.933      11.985      11.978      12.021      12.164      12.372      12.540      12.537      12.258      11.664    
  10.805      9.7955      8.7288      7.6729      7.2110      6.3160      5.5314      4.8723      4.3411      3.9323    
  3.6370      3.4467      3.3553      3.3602      3.4623      3.6658      3.9777      4.4060      4.9565      5.6289    
  6.4120      7.2804      8.1944      9.1045      9.9602      10.708      11.285      11.678      11.930      12.111    
  12.274      12.431      12.537      12.512      12.277      11.787      11.060      10.170      9.1908      8.1849    
  7.7359      6.8502      6.0445      5.3419      4.7522      4.2753      3.9060      3.6370      3.4624      3.3781    
  3.3827      3.4773      3.6653      3.9525      4.3450      4.8470      5.4576      6.1666      6.9524      7.7820    
  8.6146      9.4088      10.130      10.745      11.233      11.607      11.896      12.117      12.258      12.277    
  12.123      11.759      11.184      10.443      9.5854      8.6643      8.2449      7.4017      6.6031      5.8789    
  5.2463      4.7120      4.2753      3.9323      3.6783      3.5095      3.4236      3.4200      3.4996      3.6650    
  3.9204      4.2704      4.7180      5.2619      5.8936      6.5954      7.3405      8.0962      8.8290      9.5105    
  10.122      10.647      11.080      11.422      11.664      11.787      11.759      11.551      11.157      10.593    
  9.8904      9.0909      8.7166      7.9540      7.1960      6.4777      5.8233      5.2463      4.7522      4.3411    
  4.0113      3.7606      3.5875      3.4913      3.4715      3.5289      3.6650      3.8826      4.1849      4.5742    
  5.0492      5.6033      6.2225      6.8859      7.5675      8.2400      8.8798      9.4685      9.9935      10.444    
  10.805      11.060      11.184      11.157      10.962      10.599      10.082      9.4411      9.1253      8.4839    
  7.8052      7.1266      6.4777      5.8789      5.3419      4.8723      4.4720      4.1421      3.8831      3.6957    
  3.5801      3.5364      3.5646      3.6653      3.8402      4.0914      4.4207      4.8273      5.3062      5.8471    
  6.4339      7.0461      7.6618      8.2605      8.8252      9.3416      9.7955      10.170      10.443      10.593    
  10.599      10.448      10.140      9.6896      9.4434      8.9627      8.4050      7.8052      7.1960      6.6031    
  6.0445      5.5314      5.0705      4.6665      4.3234      4.0445      3.8326      3.6887      3.6132      3.6056    
  3.6657      3.7944      3.9930      4.2629      4.6039      5.0128      5.4821      5.9995      6.5492      7.1135    
  7.6750      8.2183      8.7288      9.1908      9.5854      9.8904      10.082      10.140      10.051      9.8143    
  9.6460      9.3596      8.9627      8.4839      7.9540      7.4017      6.8502      6.3160      5.8109      5.3436    
  4.9218      4.5527      4.2425      3.9958      3.8147      3.6999      3.6506      3.6661      3.7466      3.8928    
  4.1060      4.3866      4.7325      5.1386      5.5958      6.0918      6.6126      7.1441      7.6729      8.1849    
  8.6643      9.0909      9.4411      9.6896      9.8143      9.8008      9.6460      9.5359      9.3060      8.9738    
  8.5638      8.1025      7.6144      7.1196      6.6324      6.1636      5.7219      5.3158      4.9539      4.6440    
  4.3919      4.2012      4.0731      4.0076      4.0040      4.0623      4.1829      4.3666      4.6132      4.9205    
  5.2834      5.6934      6.1396      6.6098      7.0921      7.5752      8.0474      8.4946      8.8987      9.2376    
  9.4879      9.6287      9.5359      9.6460      9.6287      9.4879      9.2376      8.8987      8.4946      8.0474    
  7.5752      7.0921      6.6099      6.1397      5.6935      5.2834      4.9205      4.6132      4.3666      4.1829    
  4.0623      4.0040      4.0076      4.0731      4.2012      4.3919      4.6440      4.9539      5.3158      5.7219    
  6.1636      6.6324      7.1196      7.6144      8.1025      8.5638      8.9738      9.3060      9.2899      9.6121    
  9.8143      9.8852      9.8255      9.6465      9.3666      9.0068      8.5871      8.1244      7.6322      7.1235    
  6.6119      6.1128      5.6423      5.2151      4.8426      4.5322      4.2872      4.1085      3.9951      3.9463    
  3.9615      4.0411      4.1852      4.3929      4.6620      4.9889      5.3687      5.7965      6.2666      6.7727    
  7.3047      7.8471      8.3779      8.8690      8.9272      9.4392      9.8518      10.140      10.289      10.298    
  10.177      9.9426      9.6146      9.2110      8.7469      8.2352      7.6894      7.1254      6.5623      6.0204    
  5.5189      5.0728      4.6923      4.3824      4.1445      3.9777      3.8805      3.8518      3.8911      3.9982    
  4.1728      4.4137      4.7192      5.0875      5.5166      6.0039      6.5444      7.1282      7.7380      8.3484    
  8.4749      9.1435      9.7435      10.238      10.599      10.811      10.873      10.795      10.593      10.287    
  9.8907      9.4182      8.8800      8.2894      7.6644      7.0279      6.4055      5.8215      5.2956      4.8411    
  4.4650      4.1692      3.9525      3.8125      3.7471      3.7549      3.8352      3.9880      4.2132      4.5112    
  4.8829      5.3293      5.8498      6.4403      7.0897      7.7779      7.9630      8.7491      9.5035      10.181    
  10.742      11.157      11.411      11.506      11.453      11.274      10.984      10.595      10.111      9.5431    
  8.9029      8.2106      7.4938      6.7840      6.1119      5.5025      4.9729      4.5319      4.1817      3.9204    
  3.7444      3.6502      3.6355      3.6991      3.8412      4.0632      4.3675      4.7576      5.2370      5.8065    
  6.4615      7.1886      7.4195      8.2831      9.1541      9.9825      10.719      11.322      11.759      12.012    
  12.097      12.046      11.888      11.632      11.273      10.795      10.200      9.5080      8.7446      7.9428    
  7.1416      6.3789      5.6856      5.0828      4.5807      4.1817      3.8826      3.6782      3.5636      3.5354    
  3.5920      3.7344      3.9652      4.2894      4.7127      5.2404      5.8737      6.6060      6.8677      7.7717    
  8.7209      9.6643      10.546      11.311      11.900      12.277      12.457      12.489      12.429      12.311    
  12.130      11.848      11.420      10.824      10.083      9.2465      8.3578      7.4642      6.6117      5.8376    
  5.1663      4.6097      4.1692      3.8402      3.6157      3.4891      3.4562      3.5154      3.6686      3.9202    
  4.2773      4.7481      5.3384      6.0485      6.3254      7.2368      8.2287      9.2516      10.245      11.145    
  11.858      12.320      12.537      12.574      12.526      12.471      12.439      12.393      12.254      11.932    
  11.378      10.606      9.6974      8.7226      7.7389      6.8010      5.9522      5.2203      4.6176      4.1445    
  3.7944      3.5583      3.4283      3.3993      3.4704      3.6445      3.9283      4.3312      4.8626      5.5284    
  5.8057      6.6960      7.6987      8.7683      9.8436      10.852      11.674      12.201      12.411      12.372    
  12.216      12.086      12.078      12.201      12.373      12.452      12.298      11.829      11.055      10.081    
  9.0230      7.9548      6.9391      6.0250      5.2426      4.6042      4.1085      3.7466      3.5076      3.3824    
  3.3659      3.4577      3.6626      3.9897      4.4501      5.0542      5.3194      6.1637      7.1483      8.2347    
  9.3635      10.459      11.389      11.989      12.186      12.023      11.653      11.282      11.102      11.211    
  11.582      12.062      12.438      12.508      12.162      11.410      10.382      9.2479      8.1038      7.0210    
  6.0533      5.2326      4.5701      4.0623      3.6981      3.4649      3.3527      3.3566      3.4778      3.7230    
  4.1036      4.6325      4.8758      5.6529      6.5930      7.6674      8.8226      9.9844      11.025      11.733    
  11.960      11.691      11.061      10.317      9.7484      9.5829      9.9058      10.625      11.502      12.239    
  12.575      12.376      11.662      10.593      9.3898      8.1806      7.0437      6.0364      5.1908      4.5165    
  4.0076      3.6506      3.4315      3.3400      3.3721      3.5308      3.8252      4.2691      4.4839      5.1759    
  6.0474      7.0816      8.2353      9.4384      10.584      11.444      11.784      11.499      10.657      9.5009    
  8.3867      7.6777      7.6226      8.2664      9.4307      10.775      11.913      12.531      12.483      11.808    
  10.706      9.4445      8.1833      7.0071      5.9752      5.1189      4.4455      3.9463      3.6056      3.4085    
  3.3450      3.4126      3.6164      3.9684      4.1506      4.7446      5.5269      6.4935      7.6152      8.8324    
  10.056      11.091      11.637      11.479      10.576      9.0987      7.4124      5.9799      5.2256      5.3940    
  6.4623      8.1454      9.9928      11.535      12.420      12.502      11.854      10.720      9.4116      8.1128    
  6.9131      5.8724      5.0200      4.3599      3.8805      3.5646      3.3968      3.3680      3.4777      3.7337    
  3.8808      4.3686      5.0461      5.9207      6.9789      8.1773      9.4391      10.630      11.445      11.565    
  10.813      9.2337      7.1187      4.9559      3.3044      2.6262      3.1313      4.7035      6.9384      9.2781    
  11.184      12.286      12.455      11.808      10.638      9.2936      7.9724      6.7658      5.7323      4.8979    
  4.2627      3.8125      3.5289      3.3968      3.4086      3.5663      3.6768      4.0547      4.6178      5.3814    
  6.3469      7.4898      8.7508      10.034      11.114      11.616      11.231      9.8403      7.5915      4.9002    
  2.3705     0.63546     0.16267      1.0973      3.2104      5.9763      8.7439      10.929      12.164      12.357    
  11.677      10.464      9.0960      7.7681      6.5711      5.5604      4.7570      4.1572      3.7444      3.4996    
  3.4085      3.4659      3.5385      3.8064      4.2513      4.8922      5.7416      6.7934      8.0105      9.3181    
  10.585      11.482      11.608      10.686      8.6746      5.8291      2.6850     -.57107E-01 -1.7227     -1.8737    
 -.45660      2.1783      5.3949      8.4733      10.813      12.073      12.215      11.464      10.205      8.8262    
  7.5076      6.3365      5.3630      4.6024      4.0470      3.6782      3.4772      3.4315      3.4649      3.6244    
  3.9518      4.4654      5.1840      6.1158      7.2461      8.5247      9.8623      11.066      11.730      11.460    
  10.025      7.4715      4.1637     0.73938     -2.0356     -3.4833     -3.2297     -1.3309      1.7454      5.2757    
  8.5042      10.846      12.012      12.027      11.173      9.8699      8.4941      7.2005      6.0707      5.1472    
  4.4393      3.9354      3.6157      3.4622      3.4547      3.5076      3.7210      4.1088      4.6908      5.4842    
  6.4922      7.6903      9.0161      10.364      11.464      11.878      11.233      9.3632      6.4035      2.8150    
 -.68895     -3.3158     -4.4243     -3.7321     -1.4115      1.9690      5.6315      8.8223      11.004      11.958    
  11.781      10.804      9.4692      8.1111      6.8580      5.7832      4.9206      4.2730      3.8256      3.5583    
  3.5076      3.4547      3.5583      3.8256      4.2730      4.9206      5.7832      6.8580      8.1110      9.4692    
  10.804      11.781      11.958      11.004      8.8222      5.6315      1.9690     -1.4115     -3.7321     -4.4243    
 -3.3158     -.68895      2.8150      6.4035      9.3633      11.233      11.878      11.464      10.364      9.0161    
  7.6903      6.4922      5.4842      4.6908      4.1088      3.7210      3.6244      3.4649      3.4622      3.6157    
  3.9354      4.4393      5.1472      6.0707      7.2005      8.4940      9.8698      11.173      12.027      12.012    
  10.846      8.5042      5.2757      1.7454     -1.3310     -3.2298     -3.4834     -2.0356     0.73935      4.1636    
  7.4714      10.025      11.460      11.730      11.066      9.8624      8.5247      7.2461      6.1158      5.1840    
  4.4654      3.9518      3.8064      3.5385      3.4315      3.4772      3.6782      4.0470      4.6024      5.3629    
  6.3365      7.5075      8.8262      10.205      11.464      12.215      12.073      10.813      8.4732      5.3949    
  2.1783     -.45664     -1.8737     -1.7227     -.57159E-01  2.6850      5.8291      8.6746      10.686      11.608    
  11.482      10.585      9.3181      8.0105      6.7934      5.7416      4.8922      4.2513      4.0547      3.6768    
  3.4659      3.4085      3.4996      3.7445      4.1572      4.7570      5.5604      6.5711      7.7680      9.0959    
  10.464      11.677      12.357      12.164      10.929      8.7438      5.9763      3.2103      1.0972     0.16261    
 0.63540      2.3704      4.9001      7.5915      9.8403      11.231      11.616      11.114      10.034      8.7508    
  7.4898      6.3469      5.3814      4.6178      4.3686      3.8808      3.5663      3.4086      3.3968      3.5289    
  3.8125      4.2627      4.8979      5.7323      6.7658      7.9724      9.2936      10.638      11.808      12.455    
  12.286      11.184      9.2780      6.9383      4.7035      3.1312      2.6261      3.3044      4.9558      7.1187    
  9.2337      10.813      11.565      11.445      10.630      9.4391      8.1773      6.9789      5.9207      5.0461    
  4.7446      4.1505      3.7337      3.4777      3.3680      3.3968      3.5646      3.8805      4.3599      5.0200    
  5.8724      6.9130      8.1127      9.4115      10.720      11.854      12.502      12.420      11.535      9.9928    
  8.1453      6.4622      5.3940      5.2256      5.9798      7.4123      9.0986      10.576      11.479      11.637    
  11.091      10.056      8.8324      7.6151      6.4934      5.5269      5.1759      4.4838      3.9684      3.6164    
  3.4126      3.3451      3.4085      3.6056      3.9463      4.4456      5.1189      5.9751      7.0071      8.1833    
  9.4445      10.706      11.808      12.483      12.531      11.913      10.775      9.4307      8.2664      7.6226    
  7.6777      8.3867      9.5008      10.657      11.499      11.784      11.444      10.584      9.4384      8.2352    
  7.0816      6.0474      5.6529      4.8758      4.2690      3.8252      3.5308      3.3721      3.3400      3.4315    
  3.6507      4.0076      4.5165      5.1908      6.0364      7.0437      8.1806      9.3898      10.593      11.662    
  12.376      12.575      12.239      11.502      10.625      9.9057      9.5829      9.7484      10.317      11.060    
  11.691      11.960      11.733      11.025      9.9844      8.8226      7.6674      6.5930      6.1637      5.3194    
  4.6325      4.1036      3.7230      3.4778      3.3566      3.3527      3.4650      3.6982      4.0623      4.5701    
  5.2326      6.0533      7.0210      8.1038      9.2480      10.382      11.410      12.162      12.508      12.438    
  12.062      11.582      11.211      11.102      11.282      11.653      12.023      12.186      11.989      11.389    
  10.459      9.3635      8.2347      7.1483      6.6960      5.8057      5.0542      4.4501      3.9896      3.6626    
  3.4577      3.3659      3.3825      3.5076      3.7466      4.1085      4.6042      5.2426      6.0250      6.9391    
  7.9548      9.0230      10.081      11.055      11.829      12.298      12.452      12.373      12.201      12.078    
  12.086      12.216      12.372      12.411      12.201      11.674      10.852      9.8436      8.7683      7.6987    
  7.2368      6.3254      5.5284      4.8626      4.3312      3.9283      3.6445      3.4704      3.3993      3.4283    
  3.5583      3.7944      4.1445      4.6176      5.2203      5.9522      6.8010      7.7389      8.7226      9.6974    
  10.606      11.378      11.932      12.254      12.393      12.439      12.471      12.526      12.574      12.537    
  12.320      11.858      11.145      10.245      9.2516      8.2287      7.7717      6.8677      6.0485      5.3384    
  4.7481      4.2773      3.9202      3.6686      3.5155      3.4562      3.4891      3.6157      3.8402      4.1692    
  4.6097      5.1663      5.8376      6.6117      7.4642      8.3578      9.2465      10.083      10.824      11.420    
  11.848      12.130      12.311      12.429      12.489      12.457      12.277      11.900      11.311      10.546    
  9.6643      8.7209      8.2831      7.4195      6.6060      5.8737      5.2404      4.7127      4.2893      3.9652    
  3.7344      3.5920      3.5354      3.5636      3.6782      3.8826      4.1817      4.5807      5.0828      5.6857    
  6.3789      7.1416      7.9428      8.7446      9.5080      10.200      10.795      11.273      11.632      11.888    
  12.046      12.097      12.012      11.759      11.322      10.719      9.9825      9.1541      8.7491      7.9630    