unknown system                          
   1.00000000000000     
    -2.431042    2.431042    1.338941
     2.431042   -2.431042    1.338941
     2.431042    2.431042   -1.338941
   Si
     2
Direct
  0.750000  0.250000  0.500000
  0.500000  0.500000  0.000000
 
   36   36   36
 0.97155708646E+01 0.96459663808E+01 0.94434171454E+01 0.91253379391E+01 0.87166407812E+01
 0.82449131732E+01 0.77359458374E+01 0.72109690761E+01 0.66862155374E+01 0.61743601339E+01
 0.56865537377E+01 0.52336936531E+01 0.48263225017E+01 0.44735542826E+01 0.41819600608E+01
 0.39551272795E+01 0.37940533384E+01 0.36981237364E+01 0.36663037630E+01 0.36981229384E+01
 0.37940533288E+01 0.39551300784E+01 0.41819655045E+01 0.44735589680E+01 0.48263238894E+01
 0.52336945346E+01 0.56865587757E+01 0.61743687740E+01 0.66862224037E+01 0.72109707849E+01
 0.77359438029E+01 0.82449103363E+01 0.87166391603E+01 0.91253392035E+01 0.94434215717E+01
 0.96459707319E+01 0.96459707319E+01 0.98007547074E+01 0.98142772729E+01 0.96895722377E+01
 0.94410687928E+01 0.90909329437E+01 0.86642928821E+01 0.81849366676E+01 0.76728516929E+01
 0.71441255919E+01 0.66125896546E+01 0.60917728932E+01 0.55957804682E+01 0.51386113014E+01
 0.47325261862E+01 0.43865718687E+01 0.41060170315E+01 0.38927888514E+01 0.37465700584E+01
 0.36661467427E+01 0.36505959807E+01 0.36998916560E+01 0.38147382430E+01 0.39957734392E+01
 0.42425486904E+01 0.45527305301E+01 0.49218391042E+01 0.53436421863E+01 0.58109381448E+01
 0.63160362638E+01 0.68501758704E+01 0.74017311821E+01 0.79539894452E+01 0.84838723283E+01
 0.89627506392E+01 0.93596294979E+01 0.94434215717E+01 0.98142802971E+01 0.10050605416E+02
 0.10139640336E+02 0.10082048768E+02 0.98904374336E+01 0.95854494937E+01 0.91907633992E+01
 0.87287540087E+01 0.82182722208E+01 0.76749854041E+01 0.71134440960E+01 0.65492061376E+01
 0.59995085671E+01 0.54820662556E+01 0.50128134441E+01 0.46039101356E+01 0.42628820578E+01
 0.39929850596E+01 0.37943947218E+01 0.36657454586E+01 0.36055716868E+01 0.36131784660E+01
 0.36887087438E+01 0.38325548633E+01 0.40445488748E+01 0.43233843263E+01 0.46665159961E+01
 0.50705010845E+01 0.55313886223E+01 0.60445039563E+01 0.66030990013E+01 0.71960023197E+01
 0.78052335348E+01 0.84049509471E+01 0.89627506392E+01 0.91253392035E+01 0.96895744798E+01
 0.10139641461E+02 0.10447638534E+02 0.10598895795E+02 0.10593302601E+02 0.10443384819E+02
 0.10169748594E+02 0.97954860508E+01 0.93416189273E+01 0.88252138460E+01 0.82604994185E+01
 0.76617894406E+01 0.70461307696E+01 0.64339249386E+01 0.58471432244E+01 0.53062194549E+01
 0.48272648299E+01 0.44206951251E+01 0.40914222263E+01 0.38401672574E+01 0.36652895877E+01
 0.35645676946E+01 0.35363946382E+01 0.35801177855E+01 0.36956936983E+01 0.38831220780E+01
 0.41420997905E+01 0.44720433514E+01 0.48722825476E+01 0.53419336326E+01 0.58788904596E+01
 0.64776761886E+01 0.71265850028E+01 0.78052335348E+01 0.84838723283E+01 0.87166391603E+01
 0.94410686328E+01 0.10082049002E+02 0.10598895308E+02 0.10961889409E+02 0.11156514438E+02
 0.11184298499E+02 0.11059752970E+02 0.10805198935E+02 0.10443663906E+02 0.99934986421E+01
 0.94685017977E+01 0.88797454699E+01 0.82400341802E+01 0.75674426532E+01 0.68858830314E+01
 0.62224819129E+01 0.56032547915E+01 0.50491904901E+01 0.45741609781E+01 0.41849068249E+01
 0.38825770284E+01 0.36649958070E+01 0.35288990958E+01 0.34715187780E+01 0.34912373808E+01
 0.35875174091E+01 0.37605884395E+01 0.40112958141E+01 0.43411471233E+01 0.47522116842E+01
 0.52463344917E+01 0.58232548024E+01 0.64776761886E+01 0.71960023197E+01 0.79539894452E+01
 0.82449103363E+01 0.90909311320E+01 0.98904370307E+01 0.10593301841E+02 0.11156513016E+02
 0.11550543458E+02 0.11758706604E+02 0.11787310806E+02 0.11664272047E+02 0.11421542321E+02
 0.11080440202E+02 0.10647332416E+02 0.10121610199E+02 0.95105096875E+01 0.88289658862E+01
 0.80962200169E+01 0.73405162890E+01 0.65953701255E+01 0.58935830518E+01 0.52618767446E+01
 0.47179587121E+01 0.42703668248E+01 0.39204003815E+01 0.36650029717E+01 0.34995706905E+01
 0.34199819400E+01 0.34235993973E+01 0.35094868219E+01 0.36783232157E+01 0.39323628194E+01
 0.42753621049E+01 0.47120098984E+01 0.52463344917E+01 0.58788904596E+01 0.66030990013E+01
 0.74017311821E+01 0.77359438029E+01 0.86642903274E+01 0.95854489209E+01 0.10443385395E+02
 0.11184297696E+02 0.11758704890E+02 0.12123296002E+02 0.12277135330E+02 0.12257613165E+02
 0.12117014803E+02 0.11896200174E+02 0.11607208850E+02 0.11233119190E+02 0.10745435403E+02
 0.10130393847E+02 0.94087909784E+01 0.86145536681E+01 0.77819849041E+01 0.69524267046E+01
 0.61665947507E+01 0.54575609121E+01 0.48469750495E+01 0.43449260026E+01 0.39524719805E+01
 0.36653080075E+01 0.34772397897E+01 0.33827029643E+01 0.33781259178E+01 0.34624174334E+01
 0.36370444512E+01 0.39059849510E+01 0.42753621049E+01 0.47522116842E+01 0.53419336326E+01
 0.60445039563E+01 0.68501758704E+01 0.72109707849E+01 0.81849351056E+01 0.91907620907E+01
 0.10169750078E+02 0.11059755045E+02 0.11787310565E+02 0.12277133993E+02 0.12512368224E+02
 0.12536935171E+02 0.12431122815E+02 0.12274489841E+02 0.12110804249E+02 0.11930312723E+02
 0.11678048698E+02 0.11285051193E+02 0.10708226168E+02 0.99602238906E+01 0.91045409507E+01
 0.81944001617E+01 0.72804027430E+01 0.64120240929E+01 0.56289347828E+01 0.49565210205E+01
 0.44059869782E+01 0.39776999197E+01 0.36657698484E+01 0.34622548434E+01 0.33601886010E+01
 0.33552945192E+01 0.34466915680E+01 0.36370444512E+01 0.39323628194E+01 0.43411471233E+01
 0.48722825476E+01 0.55313886223E+01 0.63160362638E+01 0.66862224037E+01 0.76728541135E+01
 0.87287530215E+01 0.97954864121E+01 0.10805202611E+02 0.11664275645E+02 0.12257614074E+02
 0.12536935123E+02 0.12539742009E+02 0.12371638500E+02 0.12163963528E+02 0.12021080415E+02
 0.11977694009E+02 0.11984967413E+02 0.11932932355E+02 0.11700167555E+02 0.11209103094E+02
 0.10463241976E+02 0.95492957095E+01 0.85627768478E+01 0.75669770772E+01 0.66205289833E+01
 0.57695131773E+01 0.50425360728E+01 0.44513381381E+01 0.39951299543E+01 0.36661750273E+01
 0.34547481372E+01 0.33526642146E+01 0.33552945192E+01 0.34624174334E+01 0.36783232157E+01
 0.40112958141E+01 0.44720433514E+01 0.50705010845E+01 0.58109381448E+01 0.61743687740E+01
 0.71441324844E+01 0.82182745939E+01 0.93416186344E+01 0.10443666423E+02 0.11421548245E+02
 0.12117019984E+02 0.12431125817E+02 0.12371640905E+02 0.12051808943E+02 0.11652764844E+02
 0.11359601521E+02 0.11292216763E+02 0.11458075334E+02 0.11748385687E+02 0.11981181335E+02
 0.11973456296E+02 0.11612097937E+02 0.10895821966E+02 0.99338192159E+01 0.88738661289E+01
 0.78014341209E+01 0.67841751124E+01 0.58739424719E+01 0.51017777495E+01 0.44792732635E+01
 0.40040412757E+01 0.36663349306E+01 0.34547481372E+01 0.33601886010E+01 0.33781259178E+01
 0.35094868219E+01 0.37605884395E+01 0.41420997905E+01 0.46665159961E+01 0.53436421863E+01
 0.56865587757E+01 0.66125964270E+01 0.76749916628E+01 0.88252159729E+01 0.99934999616E+01
 0.11080445812E+02 0.11896208495E+02 0.12274496845E+02 0.12163969810E+02 0.11652770798E+02
 0.10948698649E+02 0.10316967506E+02 0.99917732328E+01 0.10091682415E+02 0.10573445298E+02
 0.11246227064E+02 0.11841920853E+02 0.12111998159E+02 0.11912011641E+02 0.11243950493E+02
 0.10245596849E+02 0.91167587328E+01 0.79751541706E+01 0.68967844981E+01 0.59382384552E+01
 0.51319812386E+01 0.44887090924E+01 0.40040412757E+01 0.36661750273E+01 0.34622548434E+01
 0.33827029643E+01 0.34235993973E+01 0.35875174091E+01 0.38831220780E+01 0.43233843263E+01
 0.49218391042E+01 0.52336945346E+01 0.60917746934E+01 0.71134502063E+01 0.82605052149E+01
 0.94685044368E+01 0.10647336984E+02 0.11607218551E+02 0.12110814872E+02 0.12021089395E+02
 0.11359611894E+02 0.10316977414E+02 0.92092817942E+01 0.83866988837E+01 0.81190481963E+01
 0.84994819333E+01 0.94076162043E+01 0.10550737631E+02 0.11566464241E+02 0.12143858085E+02
 0.12117004836E+02 0.11502334674E+02 0.10474548164E+02 0.92832225213E+01 0.80818918859E+01
 0.69541513977E+01 0.59599467800E+01 0.51319812386E+01 0.44792732635E+01 0.39951299543E+01
 0.36657698484E+01 0.34772397897E+01 0.34199819400E+01 0.34912373808E+01 0.36956936983E+01
 0.40445488748E+01 0.45527305301E+01 0.48263238894E+01 0.55957786312E+01 0.65492083639E+01
 0.76617965589E+01 0.88797511487E+01 0.10121614451E+02 0.11233128461E+02 0.11930326728E+02
 0.11977706215E+02 0.11292227402E+02 0.99917873421E+01 0.83867117619E+01 0.69073475654E+01
 0.59798767381E+01 0.58870624797E+01 0.66673831897E+01 0.80978137658E+01 0.97702151656E+01
 0.11228541075E+02 0.12110471720E+02 0.12243556177E+02 0.11671651635E+02 0.10614012405E+02
 0.93678052430E+01 0.81178884685E+01 0.69541513977E+01 0.59382384552E+01 0.51017777495E+01
 0.44513381381E+01 0.39776999197E+01 0.36653080075E+01 0.34995706905E+01 0.34715187780E+01
 0.35801177855E+01 0.38325548633E+01 0.42425486904E+01 0.44735589680E+01 0.51386121064E+01
 0.59995083115E+01 0.70461366075E+01 0.82400428103E+01 0.95105150679E+01 0.10745441970E+02
 0.11678062992E+02 0.11984984523E+02 0.11458087670E+02 0.10091693601E+02 0.81190639319E+01
 0.59798898731E+01 0.42142628650E+01 0.33044008596E+01 0.35155570235E+01 0.48009963005E+01
 0.68152351925E+01 0.90311601597E+01 0.10909965085E+02 0.12056438483E+02 0.12310028660E+02
 0.11755059757E+02 0.10660801566E+02 0.93678052430E+01 0.80818918859E+01 0.68967844981E+01
 0.58739424719E+01 0.50425360728E+01 0.44059869782E+01 0.39524719805E+01 0.36650029717E+01
 0.35288990958E+01 0.35363946382E+01 0.36887087438E+01 0.39957734392E+01 0.41819655045E+01
 0.47325332267E+01 0.54820685400E+01 0.64339291814E+01 0.75674529317E+01 0.88289747285E+01
 0.10130398020E+02 0.11285059878E+02 0.11932950226E+02 0.11748403290E+02 0.10573455776E+02
 0.84994916434E+01 0.58870758889E+01 0.33044101724E+01 0.13845460603E+01 0.63542994961E+00
 0.12701529001E+01 0.31301394195E+01 0.57379170850E+01 0.84562105971E+01 0.10684513280E+02
 0.12018913489E+02 0.12330447498E+02 0.11755059757E+02 0.10614012405E+02 0.92832225213E+01
 0.79751541706E+01 0.67841751124E+01 0.57695131773E+01 0.49565210205E+01 0.43449260026E+01
 0.39204003815E+01 0.36649958070E+01 0.35645676946E+01 0.36131784660E+01 0.38147382430E+01
 0.39551300784E+01 0.43865826925E+01 0.50128216869E+01 0.58471478824E+01 0.68858926490E+01
 0.80962330616E+01 0.94087974325E+01 0.10708227795E+02 0.11700176983E+02 0.11981199524E+02
 0.11246241646E+02 0.94076226266E+01 0.66673885741E+01 0.35155629661E+01 0.63543110559E+00
 -.12760112860E+01 -.17226806011E+01 -.57724006872E+00 0.18724538334E+01 0.50208846275E+01
 0.81421140029E+01 0.10603281546E+02 0.12018913489E+02 0.12310028660E+02 0.11671651635E+02
 0.10474548164E+02 0.91167587328E+01 0.78014341209E+01 0.66205289833E+01 0.56289347828E+01
 0.48469750495E+01 0.42703668248E+01 0.38825770284E+01 0.36652895877E+01 0.36055716868E+01
 0.36998916560E+01 0.37940533288E+01 0.41060263657E+01 0.46039234272E+01 0.53062275924E+01
 0.62224893795E+01 0.73405299153E+01 0.86145657538E+01 0.99602249628E+01 0.11209101017E+02
 0.11973464174E+02 0.11841934989E+02 0.10550745422E+02 0.80978138773E+01 0.48009940491E+01
 0.12701466364E+01 -.17226905267E+01 -.34553213695E+01 -.34833439294E+01 -.17919927358E+01
 0.11973357622E+01 0.47694498794E+01 0.81421140029E+01 0.10684513280E+02 0.12056438483E+02
 0.12243556177E+02 0.11502334674E+02 0.10245596849E+02 0.88738661289E+01 0.75669770772E+01
 0.64120240929E+01 0.54575609121E+01 0.47179587121E+01 0.41849068249E+01 0.38401672574E+01
 0.36657454586E+01 0.36505959807E+01 0.36981229384E+01 0.38927929032E+01 0.42628959716E+01
 0.48272790448E+01 0.56032630680E+01 0.65953798826E+01 0.77819986996E+01 0.91045471325E+01
 0.10463235614E+02 0.11612091865E+02 0.12112002021E+02 0.11566469787E+02 0.97702127084E+01
 0.68152268113E+01 0.31301268649E+01 -.57726061680E+00 -.34833647039E+01 -.48845696898E+01
 -.44242770001E+01 -.22155657904E+01 0.11973357622E+01 0.50208846275E+01 0.84562105971E+01
 0.10909965085E+02 0.12110471720E+02 0.12117004836E+02 0.11243950493E+02 0.99338192159E+01
 0.85627768478E+01 0.72804027430E+01 0.61665947507E+01 0.52618767446E+01 0.45741609781E+01
 0.40914222263E+01 0.37943947218E+01 0.36661467427E+01 0.36663037630E+01 0.37465688494E+01
 0.39929939257E+01 0.44207136901E+01 0.50492056190E+01 0.58935912835E+01 0.69524358221E+01
 0.81944082569E+01 0.95492918822E+01 0.10895808410E+02 0.11912002512E+02 0.12143855750E+02
 0.11228534329E+02 0.90311451279E+01 0.57378990707E+01 0.18724307887E+01 -.17920250397E+01
 -.44243045402E+01 -.53823231206E+01 -.44242770001E+01 -.17919927358E+01 0.18724538334E+01
 0.57379170850E+01 0.90311601597E+01 0.11228541075E+02 0.12143858085E+02 0.11912011641E+02
 0.10895821966E+02 0.95492957095E+01 0.81944001617E+01 0.69524267046E+01 0.58935830518E+01
 0.50491904901E+01 0.44206951251E+01 0.39929850596E+01 0.37465700584E+01 0.36981237364E+01
 0.36661445102E+01 0.37943969971E+01 0.40914391326E+01 0.45741842435E+01 0.52618912806E+01
 0.61666002467E+01 0.72804058686E+01 0.85627736803E+01 0.99338041238E+01 0.11243932392E+02
 0.12116994071E+02 0.12110461651E+02 0.10909944555E+02 0.84561833790E+01 0.50208585304E+01
 0.11973059358E+01 -.22156026785E+01 -.44243045402E+01 -.48845696898E+01 -.34833439294E+01
 -.57724006872E+00 0.31301394195E+01 0.68152351925E+01 0.97702151656E+01 0.11566464241E+02
 0.12111998159E+02 0.11612097937E+02 0.10463241976E+02 0.91045409507E+01 0.77819849041E+01
 0.65953701255E+01 0.56032547915E+01 0.48272648299E+01 0.42628820578E+01 0.38927888514E+01
 0.37940533384E+01 0.36505978462E+01 0.36657469590E+01 0.38401794187E+01 0.41849329172E+01
 0.47179834427E+01 0.54575709640E+01 0.64120226088E+01 0.75669694058E+01 0.88738490776E+01
 0.10245572363E+02 0.11502315270E+02 0.12243544662E+02 0.12056420687E+02 0.10684481454E+02
 0.81420790430E+01 0.47694205770E+01 0.11973059358E+01 -.17920250397E+01 -.34833647039E+01
 -.34553213695E+01 -.17226806011E+01 0.12701529001E+01 0.48009963005E+01 0.80978137658E+01
 0.10550737631E+02 0.11841920853E+02 0.11973456296E+02 0.11209103094E+02 0.99602238906E+01
 0.86145536681E+01 0.73405162890E+01 0.62224819129E+01 0.53062194549E+01 0.46039101356E+01
 0.41060170315E+01 0.39551272795E+01 0.36998981184E+01 0.36055799143E+01 0.36653011417E+01
 0.38826005827E+01 0.42703974182E+01 0.48469947898E+01 0.56289358754E+01 0.66205177183E+01
 0.78014139548E+01 0.91167289132E+01 0.10474517538E+02 0.11671632864E+02 0.12310016615E+02
 0.12018890676E+02 0.10603245293E+02 0.81420790430E+01 0.50208585304E+01 0.18724307887E+01
 -.57726061680E+00 -.17226905267E+01 -.12760112860E+01 0.63542994961E+00 0.35155570235E+01
 0.66673831897E+01 0.94076162043E+01 0.11246227064E+02 0.11981181335E+02 0.11700167555E+02
 0.10708226168E+02 0.94087909784E+01 0.80962200169E+01 0.68858830314E+01 0.58471432244E+01
 0.50128134441E+01 0.43865718687E+01 0.41819600608E+01 0.38147441114E+01 0.36131933552E+01
 0.35645846686E+01 0.36650178032E+01 0.39204306501E+01 0.43449531580E+01 0.49565299662E+01
 0.57695034539E+01 0.67841541827E+01 0.79751231817E+01 0.92831834351E+01 0.10613978612E+02
 0.11755041780E+02 0.12330435203E+02 0.12018890676E+02 0.10684481454E+02 0.84561833790E+01
 0.57378990707E+01 0.31301268649E+01 0.12701466364E+01 0.63543110559E+00 0.13845460603E+01
 0.33044008596E+01 0.58870624797E+01 0.84994819333E+01 0.10573445298E+02 0.11748385687E+02
 0.11932932355E+02 0.11285051193E+02 0.10130393847E+02 0.88289658862E+01 0.75674426532E+01
 0.64339249386E+01 0.54820662556E+01 0.47325261862E+01 0.44735542826E+01 0.39957743116E+01
 0.36887223064E+01 0.35364158620E+01 0.35289227044E+01 0.36650313722E+01 0.39525021868E+01
 0.44060049300E+01 0.50425327600E+01 0.58739235442E+01 0.68967563988E+01 0.80818537919E+01
 0.93677613620E+01 0.10660766824E+02 0.11755041780E+02 0.12310016615E+02 0.12056420687E+02
 0.10909944555E+02 0.90311451279E+01 0.68152268113E+01 0.48009940491E+01 0.35155629661E+01
 0.33044101724E+01 0.42142628650E+01 0.59798767381E+01 0.81190481963E+01 0.10091682415E+02
 0.11458075334E+02 0.11984967413E+02 0.11678048698E+02 0.10745435403E+02 0.95105096875E+01
 0.82400341802E+01 0.70461307696E+01 0.59995085671E+01 0.51386113014E+01 0.48263225017E+01
 0.42425453588E+01 0.38325598547E+01 0.35801346819E+01 0.34715418609E+01 0.34995972733E+01
 0.36653384411E+01 0.39777258404E+01 0.44513458686E+01 0.51017648315E+01 0.59382138559E+01
 0.69541196298E+01 0.81178479116E+01 0.93677613620E+01 0.10613978612E+02 0.11671632864E+02
 0.12243544662E+02 0.12110461651E+02 0.11228534329E+02 0.97702127084E+01 0.80978138773E+01
 0.66673885741E+01 0.58870758889E+01 0.59798898731E+01 0.69073475654E+01 0.83866988837E+01
 0.99917732328E+01 0.11292216763E+02 0.11977694009E+02 0.11930312723E+02 0.11233119190E+02
 0.10121610199E+02 0.88797454699E+01 0.76617894406E+01 0.65492061376E+01 0.55957804682E+01
 0.52336936531E+01 0.45527254275E+01 0.40445444521E+01 0.36956990663E+01 0.34912531375E+01
 0.34200039426E+01 0.34772673312E+01 0.36658001902E+01 0.39951510179E+01 0.44792736097E+01
 0.51319632939E+01 0.59599203288E+01 0.69541196298E+01 0.80818537919E+01 0.92831834351E+01
 0.10474517538E+02 0.11502315270E+02 0.12116994071E+02 0.12143855750E+02 0.11566469787E+02
 0.10550745422E+02 0.94076226266E+01 0.84994916434E+01 0.81190639319E+01 0.83867117619E+01
 0.92092817942E+01 0.10316967506E+02 0.11359601521E+02 0.12021080415E+02 0.12110804249E+02
 0.11607208850E+02 0.10647332416E+02 0.94685017977E+01 0.82604994185E+01 0.71134440960E+01
 0.60917728932E+01 0.56865537377E+01 0.49218319671E+01 0.43233736087E+01 0.38831151385E+01
 0.35875209315E+01 0.34236124938E+01 0.33827236226E+01 0.34622829768E+01 0.36662049244E+01
 0.40040593911E+01 0.44887068071E+01 0.51319632939E+01 0.59382138559E+01 0.68967563988E+01
 0.79751231817E+01 0.91167289132E+01 0.10245572363E+02 0.11243932392E+02 0.11912002512E+02
 0.12112002021E+02 0.11841934989E+02 0.11246241646E+02 0.10573455776E+02 0.10091693601E+02
 0.99917873421E+01 0.10316977414E+02 0.10948698649E+02 0.11652764844E+02 0.12163963528E+02
 0.12274489841E+02 0.11896200174E+02 0.11080440202E+02 0.99934986421E+01 0.88252138460E+01
 0.76749854041E+01 0.66125896546E+01 0.61743601339E+01 0.53436320606E+01 0.46665018397E+01
 0.41420841307E+01 0.37605794064E+01 0.35094886119E+01 0.33781372076E+01 0.33602087618E+01
 0.34547767624E+01 0.36663646492E+01 0.40040593911E+01 0.44792736097E+01 0.51017648315E+01
 0.58739235442E+01 0.67841541827E+01 0.78014139548E+01 0.88738490776E+01 0.99338041238E+01
 0.10895808410E+02 0.11612091865E+02 0.11973464174E+02 0.11981199524E+02 0.11748403290E+02
 0.11458087670E+02 0.11292227402E+02 0.11359611894E+02 0.11652770798E+02 0.12051808943E+02
 0.12371638500E+02 0.12431122815E+02 0.12117014803E+02 0.11421542321E+02 0.10443663906E+02
 0.93416189273E+01 0.82182722208E+01 0.71441255919E+01 0.66862155374E+01 0.58109279852E+01
 0.50704865787E+01 0.44720241117E+01 0.40112774707E+01 0.36783133721E+01 0.34624185129E+01
 0.33553051674E+01 0.33526843378E+01 0.34547767624E+01 0.36662049244E+01 0.39951510179E+01
 0.44513458686E+01 0.50425327600E+01 0.57695034539E+01 0.66205177183E+01 0.75669694058E+01
 0.85627736803E+01 0.95492918822E+01 0.10463235614E+02 0.11209101017E+02 0.11700176983E+02
 0.11932950226E+02 0.11984984523E+02 0.11977706215E+02 0.12021089395E+02 0.12163969810E+02
 0.12371640905E+02 0.12539742009E+02 0.12536935171E+02 0.12257613165E+02 0.11664272047E+02
 0.10805198935E+02 0.97954860508E+01 0.87287540087E+01 0.76728516929E+01 0.72109690761E+01
 0.63160304479E+01 0.55313781085E+01 0.48722655403E+01 0.43411253775E+01 0.39323436674E+01
 0.36370345864E+01 0.34466925354E+01 0.33553051674E+01 0.33602087618E+01 0.34622829768E+01
 0.36658001902E+01 0.39777258404E+01 0.44060049300E+01 0.49565299662E+01 0.56289358754E+01
 0.64120226088E+01 0.72804058686E+01 0.81944082569E+01 0.91045471325E+01 0.99602249628E+01
 0.10708227795E+02 0.11285059878E+02 0.11678062992E+02 0.11930326728E+02 0.12110814872E+02
 0.12274496845E+02 0.12431125817E+02 0.12536935123E+02 0.12512368224E+02 0.12277135330E+02
 0.11787310806E+02 0.11059752970E+02 0.10169748594E+02 0.91907633992E+01 0.81849366676E+01
 0.77359458374E+01 0.68501751742E+01 0.60444995985E+01 0.53419235183E+01 0.47521937114E+01
 0.42753395445E+01 0.39059657081E+01 0.36370345864E+01 0.34624185129E+01 0.33781372076E+01
 0.33827236226E+01 0.34772673312E+01 0.36653384411E+01 0.39525021868E+01 0.43449531580E+01
 0.48469947898E+01 0.54575709640E+01 0.61666002467E+01 0.69524358221E+01 0.77819986996E+01
 0.86145657538E+01 0.94087974325E+01 0.10130398020E+02 0.10745441970E+02 0.11233128461E+02
 0.11607218551E+02 0.11896208495E+02 0.12117019984E+02 0.12257614074E+02 0.12277133993E+02
 0.12123296002E+02 0.11758706604E+02 0.11184298499E+02 0.10443384819E+02 0.95854494937E+01
 0.86642928821E+01 0.82449131732E+01 0.74017330080E+01 0.66030988124E+01 0.58788870905E+01
 0.52463247486E+01 0.47119917171E+01 0.42753395445E+01 0.39323436674E+01 0.36783133721E+01
 0.35094886119E+01 0.34236124938E+01 0.34200039426E+01 0.34995972733E+01 0.36650313722E+01
 0.39204306501E+01 0.42703974182E+01 0.47179834427E+01 0.52618912806E+01 0.58935912835E+01
 0.65953798826E+01 0.73405299153E+01 0.80962330616E+01 0.88289747285E+01 0.95105150679E+01
 0.10121614451E+02 0.10647336984E+02 0.11080445812E+02 0.11421548245E+02 0.11664275645E+02
 0.11787310565E+02 0.11758704890E+02 0.11550543458E+02 0.11156514438E+02 0.10593302601E+02
 0.98904374336E+01 0.90909329437E+01 0.87166407812E+01 0.79539914292E+01 0.71960033212E+01
 0.64776760018E+01 0.58232517324E+01 0.52463247486E+01 0.47521937114E+01 0.43411253775E+01
 0.40112774707E+01 0.37605794064E+01 0.35875209315E+01 0.34912531375E+01 0.34715418609E+01
 0.35289227044E+01 0.36650178032E+01 0.38826005827E+01 0.41849329172E+01 0.45741842435E+01
 0.50492056190E+01 0.56032630680E+01 0.62224893795E+01 0.68858926490E+01 0.75674529317E+01
 0.82400428103E+01 0.88797511487E+01 0.94685044368E+01 0.99934999616E+01 0.10443666423E+02
 0.10805202611E+02 0.11059755045E+02 0.11184297696E+02 0.11156513016E+02 0.10961889409E+02
 0.10598895795E+02 0.10082048768E+02 0.94410687928E+01 0.91253379391E+01 0.84838728278E+01
 0.78052344633E+01 0.71265855217E+01 0.64776760018E+01 0.58788870905E+01 0.53419235183E+01
 0.48722655403E+01 0.44720241117E+01 0.41420841307E+01 0.38831151385E+01 0.36956990663E+01
 0.35801346819E+01 0.35364158620E+01 0.35645846686E+01 0.36653011417E+01 0.38401794187E+01
 0.40914391326E+01 0.44207136901E+01 0.48272790448E+01 0.53062275924E+01 0.58471478824E+01
 0.64339291814E+01 0.70461366075E+01 0.76617965589E+01 0.82605052149E+01 0.88252159729E+01
 0.93416186344E+01 0.97954864121E+01 0.10169750078E+02 0.10443385395E+02 0.10593301841E+02
 0.10598895308E+02 0.10447638534E+02 0.10139640336E+02 0.96895722377E+01 0.94434171454E+01
 0.89627479973E+01 0.84049508148E+01 0.78052344633E+01 0.71960033212E+01 0.66030988124E+01
 0.60444995985E+01 0.55313781085E+01 0.50704865787E+01 0.46665018397E+01 0.43233736087E+01
 0.40445444521E+01 0.38325598547E+01 0.36887223064E+01 0.36131933552E+01 0.36055799143E+01
 0.36657469590E+01 0.37943969971E+01 0.39929939257E+01 0.42628959716E+01 0.46039234272E+01
 0.50128216869E+01 0.54820685400E+01 0.59995083115E+01 0.65492083639E+01 0.71134502063E+01
 0.76749916628E+01 0.82182745939E+01 0.87287530215E+01 0.91907620907E+01 0.95854489209E+01
 0.98904370307E+01 0.10082049002E+02 0.10139641461E+02 0.10050605416E+02 0.98142772729E+01
 0.96459663808E+01 0.93596241044E+01 0.89627479973E+01 0.84838728278E+01 0.79539914292E+01
 0.74017330080E+01 0.68501751742E+01 0.63160304479E+01 0.58109279852E+01 0.53436320606E+01
 0.49218319671E+01 0.45527254275E+01 0.42425453588E+01 0.39957743116E+01 0.38147441114E+01
 0.36998981184E+01 0.36505978462E+01 0.36661445102E+01 0.37465688494E+01 0.38927929032E+01
 0.41060263657E+01 0.43865826925E+01 0.47325332267E+01 0.51386121064E+01 0.55957786312E+01
 0.60917746934E+01 0.66125964270E+01 0.71441324844E+01 0.76728541135E+01 0.81849351056E+01
 0.86642903274E+01 0.90909311320E+01 0.94410686328E+01 0.96895744798E+01 0.98142802971E+01
 0.98007547074E+01 0.96459710214E+01 0.95359001846E+01 0.93059908547E+01 0.89738434458E+01
 0.85637991012E+01 0.81024632949E+01 0.76144418197E+01 0.71195860448E+01 0.66324417015E+01
 0.61636128364E+01 0.57218916042E+01 0.53158149416E+01 0.49539270846E+01 0.46439791774E+01
 0.43918850785E+01 0.42011598166E+01 0.40731025621E+01 0.40075730815E+01 0.40040164874E+01
 0.40622930670E+01 0.41829214797E+01 0.43666028196E+01 0.46131907419E+01 0.49205023744E+01
 0.52833854134E+01 0.56934356194E+01 0.61396489084E+01 0.66098484184E+01 0.70921138998E+01
 0.75751898402E+01 0.80473938212E+01 0.84945998438E+01 0.88986614106E+01 0.92375799366E+01
 0.94878922094E+01 0.96286904569E+01 0.95359035760E+01 0.96459705539E+01 0.96286865978E+01
 0.94878885755E+01 0.92375790220E+01 0.88986625566E+01 0.84946009835E+01 0.80473939530E+01
 0.75751895039E+01 0.70921148361E+01 0.66098537213E+01 0.61396616394E+01 0.56934547177E+01
 0.52834033175E+01 0.49205096007E+01 0.46131857345E+01 0.43665948515E+01 0.41829206389E+01
 0.40622993072E+01 0.40040220853E+01 0.40075744145E+01 0.40731036284E+01 0.42011636499E+01
 0.43918867923E+01 0.46439720402E+01 0.49539124177E+01 0.53158008816E+01 0.57218837294E+01
 0.61636103499E+01 0.66324414121E+01 0.71195861848E+01 0.76144415529E+01 0.81024619267E+01
 0.85637976369E+01 0.89738443821E+01 0.93059946510E+01 0.92898651033E+01 0.96121413114E+01
 0.98142800651E+01 0.98851845384E+01 0.98255259544E+01 0.96465247349E+01 0.93665675886E+01
 0.90067849779E+01 0.85871373530E+01 0.81243592830E+01 0.76322354646E+01 0.71235068769E+01
 0.66118921672E+01 0.61128028018E+01 0.56423150146E+01 0.52151154084E+01 0.48426342236E+01
 0.45321884275E+01 0.42872471057E+01 0.41084760232E+01 0.39951158208E+01 0.39462506609E+01
 0.39615258197E+01 0.40411243728E+01 0.41851552341E+01 0.43928508456E+01 0.46619994460E+01
 0.49888821808E+01 0.53687463350E+01 0.57964568824E+01 0.62666346173E+01 0.67726716264E+01
 0.73046628789E+01 0.78471363188E+01 0.83778955900E+01 0.88689785110E+01 0.89271819874E+01
 0.94392375262E+01 0.98518033549E+01 0.10139641956E+02 0.10288817626E+02 0.10297992663E+02
 0.10176913610E+02 0.99425969715E+01 0.96145722766E+01 0.92109680519E+01 0.87468663264E+01
 0.82352383012E+01 0.76894378593E+01 0.71254395332E+01 0.65622838050E+01 0.60204118893E+01
 0.55188641655E+01 0.50727997202E+01 0.46922744200E+01 0.43824015339E+01 0.41444982608E+01
 0.39776913639E+01 0.38804814319E+01 0.38517643009E+01 0.38910796456E+01 0.39982480632E+01
 0.41728113636E+01 0.44136868290E+01 0.47192187606E+01 0.50875147975E+01 0.55166212658E+01
 0.60039280116E+01 0.65444411060E+01 0.71282249779E+01 0.77380327062E+01 0.83484134808E+01
 0.84749143140E+01 0.91435149335E+01 0.97435137955E+01 0.10237975771E+02 0.10598898545E+02
 0.10811073081E+02 0.10873027289E+02 0.10794785233E+02 0.10593191906E+02 0.10286553545E+02
 0.98907312776E+01 0.94181893518E+01 0.88800208372E+01 0.82894259368E+01 0.76643962435E+01
 0.70279165260E+01 0.64055194258E+01 0.58214983492E+01 0.52955594212E+01 0.48410513725E+01
 0.44649520343E+01 0.41691658425E+01 0.39524733514E+01 0.38124909985E+01 0.37470681611E+01
 0.37548576285E+01 0.38352343333E+01 0.39879877367E+01 0.42131711033E+01 0.45111948872E+01
 0.48829211964E+01 0.53292602397E+01 0.58497853219E+01 0.64402692501E+01 0.70896919613E+01
 0.77778598344E+01 0.79629717569E+01 0.87490713764E+01 0.95035218019E+01 0.10181104525E+02
 0.10741718067E+02 0.11156520566E+02 0.11411461043E+02 0.11505951344E+02 0.11453097719E+02
 0.11273573474E+02 0.10984344168E+02 0.10594630836E+02 0.10111101960E+02 0.95430686537E+01
 0.89029107404E+01 0.82106244644E+01 0.74937848305E+01 0.67840239747E+01 0.61119279684E+01
 0.55025431964E+01 0.49729108770E+01 0.45318830294E+01 0.41816948815E+01 0.39204150640E+01
 0.37444215413E+01 0.36502454206E+01 0.36355044610E+01 0.36991168870E+01 0.38412214033E+01
 0.40631509999E+01 0.43674559431E+01 0.47576246595E+01 0.52369890757E+01 0.58064979422E+01
 0.64615362513E+01 0.71885819677E+01 0.74194803322E+01 0.82831302456E+01 0.91541071506E+01
 0.99825384233E+01 0.10718925754E+02 0.11322020007E+02 0.11758715251E+02 0.12012115163E+02
 0.12097236012E+02 0.12046155259E+02 0.11887529241E+02 0.11632331451E+02 0.11272824417E+02
 0.10795298965E+02 0.10199879264E+02 0.95080238682E+01 0.87445976379E+01 0.79428165106E+01
 0.71416155960E+01 0.63788928858E+01 0.56856480256E+01 0.50827586516E+01 0.45807256292E+01
 0.41816990948E+01 0.38826010600E+01 0.36782344458E+01 0.35636291847E+01 0.35353580193E+01
 0.35920263770E+01 0.37343617915E+01 0.39652106328E+01 0.42893553791E+01 0.47127098794E+01
 0.52404097895E+01 0.58736866506E+01 0.66060000330E+01 0.68677382664E+01 0.77716805721E+01
 0.87209309906E+01 0.96642749012E+01 0.10545624310E+02 0.11311384690E+02 0.11900466579E+02
 0.12277143700E+02 0.12456681248E+02 0.12488917878E+02 0.12429446171E+02 0.12311266779E+02
 0.12129663067E+02 0.11847668346E+02 0.11419968671E+02 0.10823998997E+02 0.10082783443E+02
 0.92464903661E+01 0.83578080669E+01 0.74642056484E+01 0.66117034429E+01 0.58375512045E+01
 0.51663002623E+01 0.46096583561E+01 0.41691736949E+01 0.38401907215E+01 0.36156799961E+01
 0.34891203839E+01 0.34561827629E+01 0.35154446900E+01 0.36685615491E+01 0.39201695683E+01
 0.42773406487E+01 0.47480787627E+01 0.53384493728E+01 0.60484942074E+01 0.63254253324E+01
 0.72367660875E+01 0.82287079171E+01 0.92515614971E+01 0.10245302234E+02 0.11144820929E+02
 0.11858141636E+02 0.12320287489E+02 0.12536941054E+02 0.12574257108E+02 0.12526111937E+02
 0.12471408617E+02 0.12438597147E+02 0.12393037529E+02 0.12253683759E+02 0.11932267831E+02
 0.11377705553E+02 0.10606165705E+02 0.96974011844E+01 0.87225645318E+01 0.77388876278E+01
 0.68009541709E+01 0.59521646731E+01 0.52202757959E+01 0.46175897317E+01 0.41445013090E+01
 0.37944100941E+01 0.35583251713E+01 0.34282781950E+01 0.33993275655E+01 0.34704154451E+01
 0.36445229888E+01 0.39283445532E+01 0.43312023768E+01 0.48626353074E+01 0.55284098556E+01
 0.58057463205E+01 0.66959789335E+01 0.76986700845E+01 0.87683145400E+01 0.98436434680E+01
 0.10852046801E+02 0.11673926219E+02 0.12200907549E+02 0.12410566592E+02 0.12371643152E+02