   2   2   0   0
  0.1582619E+02  0.3689538E-09  0.3689538E-09  0.3689538E-09  0.5000000E-15
  1.000000000000000E-004
  CAR 
 unknown system                          
     22.64790345     -6.63848541  301      8.66244458      1.00000000
     -6.638  0.0000E+00  0.0000E+00
     -6.541  0.0000E+00  0.0000E+00
     -6.443  0.0000E+00  0.0000E+00
     -6.346  0.0000E+00  0.0000E+00
     -6.248  0.0000E+00  0.0000E+00
     -6.150  0.0000E+00  0.0000E+00
     -6.053  0.0000E+00  0.0000E+00
     -5.955  0.0000E+00  0.0000E+00
     -5.858  0.0000E+00  0.0000E+00
     -5.760  0.1185E-16  0.1156E-17
     -5.662  0.2395E-14  0.2349E-15
     -5.565  0.3067E-12  0.3017E-13
     -5.467  0.2458E-10  0.2430E-11
     -5.369  0.1235E-08  0.1230E-09
     -5.272  0.3892E-07  0.3922E-08
     -5.174  0.7709E-06  0.7917E-07
     -5.077  0.9609E-05  0.1017E-05
     -4.979  0.7554E-04  0.8392E-05
     -4.881  0.3759E-03  0.4509E-04
     -4.784  0.1193E-02  0.1616E-03
     -4.686  0.2476E-02  0.4033E-03
     -4.588  0.3643E-02  0.7589E-03
     -4.491  0.4780E-02  0.1225E-02
     -4.393  0.7268E-02  0.1935E-02
     -4.296  0.1137E-01  0.3045E-02
     -4.198  0.1447E-01  0.4457E-02
     -4.100  0.1438E-01  0.5861E-02
     -4.003  0.1212E-01  0.7044E-02
     -3.905  0.9737E-02  0.7995E-02
     -3.807  0.8751E-02  0.8849E-02
     -3.710  0.1073E-01  0.9897E-02
     -3.612  0.1621E-01  0.1148E-01
     -3.515  0.2265E-01  0.1369E-01
     -3.417  0.2481E-01  0.1611E-01
     -3.319  0.2082E-01  0.1815E-01
     -3.222  0.1622E-01  0.1973E-01
     -3.124  0.1666E-01  0.2135E-01
     -3.026  0.2026E-01  0.2333E-01
     -2.929  0.2154E-01  0.2543E-01
     -2.831  0.1976E-01  0.2736E-01
     -2.734  0.1919E-01  0.2924E-01
     -2.636  0.2178E-01  0.3136E-01
     -2.538  0.2484E-01  0.3379E-01
     -2.441  0.2597E-01  0.3632E-01
     -2.343  0.2544E-01  0.3881E-01
     -2.246  0.2390E-01  0.4114E-01
     -2.148  0.2317E-01  0.4340E-01
     -2.050  0.2635E-01  0.4597E-01
     -1.953  0.3126E-01  0.4903E-01
     -1.855  0.3099E-01  0.5205E-01
     -1.757  0.2450E-01  0.5444E-01
     -1.660  0.1764E-01  0.5616E-01
     -1.562  0.1497E-01  0.5763E-01
     -1.465  0.1745E-01  0.5933E-01
     -1.367  0.2553E-01  0.6182E-01
     -1.269  0.3817E-01  0.6555E-01
     -1.172  0.4894E-01  0.7033E-01
     -1.074  0.5047E-01  0.7525E-01
     -0.976  0.4380E-01  0.7953E-01
     -0.879  0.3687E-01  0.8313E-01
     -0.781  0.3365E-01  0.8641E-01
     -0.684  0.3093E-01  0.8943E-01
     -0.586  0.2605E-01  0.9197E-01
     -0.488  0.2097E-01  0.9402E-01
     -0.391  0.1834E-01  0.9581E-01
     -0.293  0.1963E-01  0.9773E-01
     -0.195  0.2502E-01  0.1002E+00
     -0.098  0.3180E-01  0.1033E+00
     -0.000  0.3625E-01  0.1068E+00
      0.097  0.3875E-01  0.1106E+00
      0.195  0.4242E-01  0.1147E+00
      0.293  0.4730E-01  0.1194E+00
      0.390  0.4990E-01  0.1242E+00
      0.488  0.4807E-01  0.1289E+00
      0.585  0.4415E-01  0.1332E+00
      0.683  0.4126E-01  0.1373E+00
      0.781  0.4102E-01  0.1413E+00
      0.878  0.4339E-01  0.1455E+00
      0.976  0.4519E-01  0.1499E+00
      1.074  0.4702E-01  0.1545E+00
      1.171  0.5349E-01  0.1597E+00
      1.269  0.5911E-01  0.1655E+00
      1.366  0.5222E-01  0.1706E+00
      1.464  0.3501E-01  0.1740E+00
      1.562  0.2086E-01  0.1760E+00
      1.659  0.1571E-01  0.1776E+00
      1.757  0.1555E-01  0.1791E+00
      1.855  0.1634E-01  0.1807E+00
      1.952  0.1970E-01  0.1826E+00
      2.050  0.2876E-01  0.1854E+00
      2.147  0.4108E-01  0.1894E+00
      2.245  0.5068E-01  0.1944E+00
      2.343  0.5385E-01  0.1996E+00
      2.440  0.5113E-01  0.2046E+00
      2.538  0.4715E-01  0.2092E+00
      2.636  0.4587E-01  0.2137E+00
      2.733  0.4663E-01  0.2183E+00
      2.831  0.4785E-01  0.2229E+00
      2.928  0.4938E-01  0.2278E+00
      3.026  0.4779E-01  0.2324E+00
      3.124  0.3827E-01  0.2362E+00
      3.221  0.2543E-01  0.2386E+00
      3.319  0.2019E-01  0.2406E+00
      3.417  0.2522E-01  0.2431E+00
      3.514  0.3297E-01  0.2463E+00
      3.612  0.3630E-01  0.2498E+00
      3.709  0.3500E-01  0.2533E+00
      3.807  0.3302E-01  0.2565E+00
      3.905  0.3510E-01  0.2599E+00
      4.002  0.4540E-01  0.2643E+00
      4.100  0.6313E-01  0.2705E+00
      4.197  0.7814E-01  0.2781E+00
      4.295  0.8036E-01  0.2860E+00
      4.393  0.7328E-01  0.2931E+00
      4.490  0.6516E-01  0.2995E+00
      4.588  0.5635E-01  0.3050E+00
      4.686  0.4659E-01  0.3095E+00
      4.783  0.4066E-01  0.3135E+00
      4.881  0.4119E-01  0.3175E+00
      4.978  0.4338E-01  0.3218E+00
      5.076  0.4077E-01  0.3257E+00
      5.174  0.3542E-01  0.3292E+00
      5.271  0.3622E-01  0.3327E+00
      5.369  0.4622E-01  0.3372E+00
      5.467  0.5846E-01  0.3430E+00
      5.564  0.6434E-01  0.3492E+00
      5.662  0.6418E-01  0.3555E+00
      5.759  0.6587E-01  0.3619E+00
      5.857  0.6955E-01  0.3687E+00
      5.955  0.6704E-01  0.3753E+00
      6.052  0.5782E-01  0.3809E+00
      6.150  0.4925E-01  0.3857E+00
      6.248  0.4682E-01  0.3903E+00
      6.345  0.5162E-01  0.3953E+00
      6.443  0.5929E-01  0.4011E+00
      6.540  0.6259E-01  0.4072E+00
      6.638  0.5960E-01  0.4130E+00
      6.736  0.5589E-01  0.4185E+00
      6.833  0.5884E-01  0.4242E+00
      6.931  0.6914E-01  0.4310E+00
      7.028  0.8003E-01  0.4388E+00
      7.126  0.8760E-01  0.4474E+00
      7.224  0.9139E-01  0.4563E+00
      7.321  0.8837E-01  0.4649E+00
      7.419  0.7873E-01  0.4726E+00
      7.517  0.6704E-01  0.4791E+00
      7.614  0.5584E-01  0.4846E+00
      7.712  0.4733E-01  0.4892E+00
      7.809  0.4310E-01  0.4934E+00
      7.907  0.4116E-01  0.4974E+00
      8.005  0.4007E-01  0.5013E+00
      8.102  0.4084E-01  0.5053E+00
      8.200  0.4309E-01  0.5095E+00
      8.298  0.4407E-01  0.5138E+00
      8.395  0.4392E-01  0.5181E+00
      8.493  0.4813E-01  0.5228E+00
      8.590  0.5859E-01  0.5285E+00
      8.688  0.6684E-01  0.5351E+00
      8.786  0.6370E-01  0.5413E+00
      8.883  0.5402E-01  0.5466E+00
      8.981  0.5268E-01  0.5517E+00
      9.079  0.6140E-01  0.5577E+00
      9.176  0.6220E-01  0.5638E+00
      9.274  0.4532E-01  0.5682E+00
      9.371  0.2452E-01  0.5706E+00
      9.469  0.1548E-01  0.5721E+00
      9.567  0.1956E-01  0.5740E+00
      9.664  0.2918E-01  0.5769E+00
      9.762  0.3679E-01  0.5804E+00
      9.860  0.4070E-01  0.5844E+00
      9.957  0.4416E-01  0.5887E+00
     10.055  0.4794E-01  0.5934E+00
     10.152  0.4860E-01  0.5982E+00
     10.250  0.4663E-01  0.6027E+00
     10.348  0.4791E-01  0.6074E+00
     10.445  0.5590E-01  0.6128E+00
     10.543  0.6759E-01  0.6194E+00
     10.640  0.7533E-01  0.6268E+00
     10.738  0.7559E-01  0.6342E+00
     10.836  0.7382E-01  0.6414E+00
     10.933  0.7269E-01  0.6485E+00
     11.031  0.6769E-01  0.6551E+00
     11.129  0.5889E-01  0.6608E+00
     11.226  0.5606E-01  0.6663E+00
     11.324  0.6755E-01  0.6729E+00
     11.421  0.8798E-01  0.6815E+00
     11.519  0.1043E+00  0.6917E+00
     11.617  0.1092E+00  0.7023E+00
     11.714  0.1017E+00  0.7123E+00
     11.812  0.8380E-01  0.7204E+00
     11.910  0.6188E-01  0.7265E+00
     12.007  0.4458E-01  0.7308E+00
     12.105  0.3528E-01  0.7343E+00
     12.202  0.3013E-01  0.7372E+00
     12.300  0.2955E-01  0.7401E+00
     12.398  0.4050E-01  0.7441E+00
     12.495  0.6101E-01  0.7500E+00
     12.593  0.7666E-01  0.7575E+00
     12.691  0.7788E-01  0.7651E+00
     12.788  0.7124E-01  0.7721E+00
     12.886  0.6849E-01  0.7787E+00
     12.983  0.7042E-01  0.7856E+00
     13.081  0.6875E-01  0.7923E+00
     13.179  0.5980E-01  0.7982E+00
     13.276  0.4915E-01  0.8030E+00
     13.374  0.4546E-01  0.8074E+00
     13.472  0.5589E-01  0.8129E+00
     13.569  0.8101E-01  0.8208E+00
     13.667  0.1063E+00  0.8311E+00
     13.764  0.1140E+00  0.8423E+00
     13.862  0.1061E+00  0.8526E+00
     13.960  0.9547E-01  0.8620E+00
     14.057  0.8493E-01  0.8702E+00
     14.155  0.7190E-01  0.8773E+00
     14.252  0.5907E-01  0.8830E+00
     14.350  0.5294E-01  0.8882E+00
     14.448  0.5666E-01  0.8937E+00
     14.545  0.6612E-01  0.9002E+00
     14.643  0.7393E-01  0.9074E+00
     14.741  0.7532E-01  0.9148E+00
     14.838  0.6967E-01  0.9216E+00
     14.936  0.6141E-01  0.9276E+00
     15.033  0.5700E-01  0.9331E+00
     15.131  0.5796E-01  0.9388E+00
     15.229  0.6148E-01  0.9448E+00
     15.326  0.6366E-01  0.9510E+00
     15.424  0.6091E-01  0.9569E+00
     15.522  0.5476E-01  0.9623E+00
     15.619  0.4827E-01  0.9670E+00
     15.717  0.4062E-01  0.9710E+00
     15.814  0.3325E-01  0.9742E+00
     15.912  0.3019E-01  0.9772E+00
     16.010  0.3171E-01  0.9802E+00
     16.107  0.3490E-01  0.9837E+00
     16.205  0.3911E-01  0.9875E+00
     16.303  0.4716E-01  0.9921E+00
     16.400  0.5799E-01  0.9977E+00
     16.498  0.6534E-01  0.1004E+01
     16.595  0.6675E-01  0.1011E+01
     16.693  0.6296E-01  0.1017E+01
     16.791  0.5364E-01  0.1022E+01
     16.888  0.4074E-01  0.1026E+01
     16.986  0.2792E-01  0.1029E+01
     17.083  0.1810E-01  0.1030E+01
     17.181  0.1327E-01  0.1032E+01
     17.279  0.1267E-01  0.1033E+01
     17.376  0.1406E-01  0.1034E+01
     17.474  0.1695E-01  0.1036E+01
     17.572  0.2275E-01  0.1038E+01
     17.669  0.3143E-01  0.1041E+01
     17.767  0.3806E-01  0.1045E+01
     17.864  0.3682E-01  0.1049E+01
     17.962  0.2835E-01  0.1051E+01
     18.060  0.1832E-01  0.1053E+01
     18.157  0.1065E-01  0.1054E+01
     18.255  0.5756E-02  0.1055E+01
     18.353  0.2856E-02  0.1055E+01
     18.450  0.1676E-02  0.1055E+01
     18.548  0.2556E-02  0.1055E+01
     18.645  0.5618E-02  0.1056E+01
     18.743  0.9614E-02  0.1057E+01
     18.841  0.1235E-01  0.1058E+01
     18.938  0.1256E-01  0.1059E+01
     19.036  0.1030E-01  0.1060E+01
     19.134  0.6555E-02  0.1061E+01
     19.231  0.3169E-02  0.1061E+01
     19.329  0.1779E-02  0.1062E+01
     19.426  0.2732E-02  0.1062E+01
     19.524  0.4878E-02  0.1062E+01
     19.622  0.6038E-02  0.1063E+01
     19.719  0.5338E-02  0.1063E+01
     19.817  0.4238E-02  0.1064E+01
     19.915  0.3755E-02  0.1064E+01
     20.012  0.3489E-02  0.1065E+01
     20.110  0.3354E-02  0.1065E+01
     20.207  0.3283E-02  0.1065E+01
     20.305  0.2696E-02  0.1065E+01
     20.403  0.1819E-02  0.1066E+01
     20.500  0.1668E-02  0.1066E+01
     20.598  0.2401E-02  0.1066E+01
     20.695  0.2899E-02  0.1066E+01
     20.793  0.2307E-02  0.1067E+01
     20.891  0.1166E-02  0.1067E+01
     20.988  0.3730E-03  0.1067E+01
     21.086  0.7534E-04  0.1067E+01
     21.184  0.9600E-05  0.1067E+01
     21.281  0.7706E-06  0.1067E+01
     21.379  0.3892E-07  0.1067E+01
     21.476  0.1235E-08  0.1067E+01
     21.574  0.2458E-10  0.1067E+01
     21.672  0.3067E-12  0.1067E+01
     21.769  0.2395E-14  0.1067E+01
     21.867  0.1185E-16  0.1067E+01
     21.965  0.0000E+00  0.1067E+01
     22.062  0.0000E+00  0.1067E+01
     22.160  0.0000E+00  0.1067E+01
     22.257  0.0000E+00  0.1067E+01
     22.355  0.0000E+00  0.1067E+01
     22.453  0.0000E+00  0.1067E+01
     22.550  0.0000E+00  0.1067E+01
     22.648  0.0000E+00  0.1067E+01
