    2    2   15    1
  0.1582619E+02  0.3689538E-09  0.3689538E-09  0.3689538E-09  0.5000000E-15
  1.000000000000000E-004
  CAR 
 unknown system                          
      8     56      8
 
  0.6250000E-01  0.6250000E-01  0.6250000E-01  0.1562500E-01
    1       -4.230849   1.000000
    2        4.415779   1.000000
    3        6.681203   1.000000
    4        8.200844   0.999451
    5       11.837166   0.000000
    6       13.689612   0.000000
    7       14.256617   0.000000
    8       16.121292   0.000000
 
  0.1875000E+00  0.6250000E-01  0.6250000E-01  0.3125000E-01
    1       -3.015140   1.000000
    2        4.170662   1.000000
    3        6.979759   1.000000
    4        9.141710   0.000351
    5       10.795503   0.000000
    6       10.900935   0.000000
    7       13.662740   0.000000
    8       14.414562   0.000000
 
  0.3125000E+00  0.6250000E-01  0.6250000E-01  0.3125000E-01
    1       -1.019248   1.000000
    2        4.465604   1.000000
    3        5.545024   1.000000
    4        7.249893   1.000000
    5        8.597498   0.676969
    6       11.726032   0.000000
    7       13.167861   0.000000
    8       13.563560   0.000000
 
  0.4375000E+00  0.6250000E-01  0.6250000E-01  0.1562500E-01
    1        1.311523   1.000000
    2        2.230589   1.000000
    3        5.766024   1.000000
    4        6.159330   1.000000
    5        8.480275   0.901151
    6       10.563976   0.000000
    7       13.079712   0.000000
    8       14.024977   0.000000
 
 -0.6250000E-01  0.6250000E-01  0.6250000E-01  0.7812500E-02
    1       -4.638485   1.000000
    2        5.020398   1.000000
    3        5.876564   1.000000
    4        7.869071   1.000000
    5       10.971030   0.000000
    6       14.841378   0.000000
    7       17.310104   0.000000
    8       17.408217   0.000000
 
  0.1875000E+00  0.1875000E+00  0.6250000E-01  0.1562500E-01
    1       -1.202050   1.000000
    2        4.456860   1.000000
    3        6.425644   1.000000
    4        6.620481   1.000000
    5        9.567464   0.000000
    6       11.555392   0.000000
    7       12.858451   0.000000
    8       13.050526   0.000000
 
  0.3125000E+00  0.1875000E+00  0.6250000E-01  0.3125000E-01
    1        1.258938   1.000000
    2        2.957707   1.000000
    3        4.303476   1.000000
    4        5.778831   1.000000
    5        9.822139   0.000000
    6       11.558257   0.000000
    7       12.580185   0.000000
    8       14.616019   0.000000
 
  0.4375000E+00  0.1875000E+00  0.6250000E-01  0.3125000E-01
    1       -0.105594   1.000000
    2        2.726007   1.000000
    3        4.904857   1.000000
    4        7.252831   1.000000
    5        9.068810   0.002030
    6       11.726508   0.000000
    7       13.644889   0.000000
    8       14.523440   0.000000
 
 -0.4375000E+00  0.1875000E+00  0.6250000E-01  0.3125000E-01
    1       -2.267536   1.000000
    2        2.107231   1.000000
    3        7.523384   1.000000
    4        8.801878   0.162081
    5       10.327999   0.000000
    6       11.450338   0.000000
    7       12.660486   0.000000
    8       14.997986   0.000000
 
 -0.3125000E+00  0.1875000E+00  0.6250000E-01  0.1562500E-01
    1       -3.665146   1.000000
    2        2.196420   1.000000
    3        7.187754   1.000000
    4        9.125130   0.000535
    5       12.115600   0.000000
    6       13.627826   0.000000
    7       14.180501   0.000000
    8       14.800646   0.000000
 
 -0.1875000E+00  0.1875000E+00  0.6250000E-01  0.1562500E-01
    1       -4.260297   1.000000
    2        3.008503   1.000000
    3        5.992673   1.000000
    4        9.104770   0.000881
    5       12.770088   0.000000
    6       12.933632   0.000000
    7       15.848374   0.000000
    8       17.194632   0.000000
 
 -0.6250000E-01  0.1875000E+00  0.6250000E-01  0.1562500E-01
    1       -4.042232   1.000000
    2        4.133008   1.000000
    3        5.360710   1.000000
    4        9.684892   0.000000
    5       12.561294   0.000000
    6       12.679562   0.000000
    7       13.720496   0.000000
    8       15.694508   0.000000
 
  0.3125000E+00  0.3125000E+00  0.6250000E-01  0.1562500E-01
    1        1.121414   1.000000
    2        1.188835   1.000000
    3        4.712691   1.000000
    4        7.195393   1.000000
    5        9.808318   0.000000
    6       10.633303   0.000000
    7       14.669544   0.000000
    8       15.519638   0.000000
 
  0.4375000E+00  0.3125000E+00  0.6250000E-01  0.3125000E-01
    1       -1.154437   1.000000
    2        0.311866   1.000000
    3        8.048687   0.999993
    4        8.659237   0.509047
    5        9.980067   0.000000
    6       11.370437   0.000000
    7       12.467244   0.000000
    8       13.857803   0.000000
 
 -0.4375000E+00  0.3125000E+00  0.6250000E-01  0.1562500E-01
    1       -2.727236   1.000000
    2        0.225312   1.000000
    3        8.023476   0.999997
    4       10.089736   0.000000
    5       10.607548   0.000000
    6       12.692185   0.000000
    7       13.730811   0.000000
    8       13.821294   0.000000
 
 -0.3125000E+00  0.3125000E+00  0.6250000E-01  0.1562500E-01
    1       -3.506844   1.000000
    2        0.911352   1.000000
    3        6.676252   1.000000
    4       10.043383   0.000000
    5       10.798022   0.000000
    6       14.129645   0.000000
    7       15.832974   0.000000
    8       16.888146   0.000000
 
 -0.1875000E+00  0.3125000E+00  0.6250000E-01  0.3125000E-01
    1       -3.477885   1.000000
    2        2.320399   1.000000
    3        5.480179   1.000000
    4       10.639422   0.000000
    5       11.033839   0.000000
    6       12.939759   0.000000
    7       14.713291   0.000000
    8       15.612806   0.000000
 
 -0.6250000E-01  0.3125000E+00  0.6250000E-01  0.1562500E-01
    1       -2.641688   1.000000
    2        3.994892   1.000000
    3        5.367742   1.000000
    4        8.444371   0.938465
    5       11.073116   0.000000
    6       12.616158   0.000000
    7       13.275029   0.000000
    8       13.646996   0.000000
 
  0.4375000E+00  0.4375000E+00  0.6250000E-01  0.7812500E-02
    1       -1.425531   1.000000
    2       -1.425531   1.000000
    3        9.167338   0.000178
    4        9.167339   0.000178
    5       11.339954   0.000000
    6       11.339955   0.000000
    7       13.536181   0.000000
    8       13.536182   0.000000
 
 -0.4375000E+00  0.4375000E+00  0.6250000E-01  0.1562500E-01
    1       -2.384472   1.000000
    2       -0.904528   1.000000
    3        7.718867   1.000000
    4        9.099863   0.000991
    5       11.154938   0.000000
    6       12.526754   0.000000
    7       16.593999   0.000000
    8       16.691949   0.000000
 
 -0.3125000E+00  0.4375000E+00  0.6250000E-01  0.3125000E-01
    1       -2.542690   1.000000
    2        0.392475   1.000000
    3        6.312835   1.000000
    4        9.041334   0.003690
    5       11.390161   0.000000
    6       12.862775   0.000000
    7       14.800471   0.000000
    8       15.323594   0.000000
 
 -0.1875000E+00  0.4375000E+00  0.6250000E-01  0.3125000E-01
    1       -1.898371   1.000000
    2        2.390855   1.000000
    3        5.572712   1.000000
    4        7.805935   1.000000
    5        9.664801   0.000000
    6       12.476321   0.000000
    7       13.969608   0.000000
    8       15.307897   0.000000
 
 -0.6250000E-01  0.4375000E+00  0.6250000E-01  0.1562500E-01
    1       -0.473824   1.000000
    2        4.041042   1.000000
    3        5.194809   1.000000
    4        5.984214   1.000000
    5        9.128392   0.000493
    6       11.544692   0.000000
    7       11.855266   0.000000
    8       15.139504   0.000000
 
 -0.4375000E+00 -0.4375000E+00  0.6250000E-01  0.1562500E-01
    1       -1.249539   1.000000
    2       -1.242886   1.000000
    3        7.510306   1.000000
    4        7.524431   1.000000
    5       11.481390   0.000000
    6       13.369561   0.000000
    7       14.208123   0.000000
    8       14.809893   0.000000
 
 -0.3125000E+00 -0.4375000E+00  0.6250000E-01  0.3125000E-01
    1       -0.793724   1.000000
    2        0.654457   1.000000
    3        6.469609   1.000000
    4        7.385332   1.000000
    5        8.247851   0.998314
    6       12.128930   0.000000
    7       15.063314   0.000000
    8       16.366013   0.000000
 
 -0.1875000E+00 -0.4375000E+00  0.6250000E-01  0.3125000E-01
    1        0.422651   1.000000
    2        3.038057   1.000000
    3        4.206782   1.000000
    4        6.416292   1.000000
    5        8.641672   0.558389
    6       10.574147   0.000000
    7       13.077236   0.000000
    8       16.450002   0.000000
 
 -0.6250000E-01 -0.4375000E+00  0.6250000E-01  0.1562500E-01
    1        0.907735   1.000000
    2        2.635490   1.000000
    3        6.218901   1.000000
    4        6.951547   1.000000
    5        7.566246   1.000000
    6       10.180646   0.000000
    7       11.614766   0.000000
    8       15.356938   0.000000
 
 -0.3125000E+00 -0.3125000E+00  0.6250000E-01  0.1562500E-01
    1        1.554808   1.000000
    2        1.731499   1.000000
    3        3.907486   1.000000
    4        7.286802   1.000000
    5        7.694238   1.000000
    6       10.197316   0.000000
    7       14.927143   0.000000
    8       15.590354   0.000000
 
 -0.1875000E+00 -0.3125000E+00  0.6250000E-01  0.3125000E-01
    1        0.595276   1.000000
    2        3.632319   1.000000
    3        4.972219   1.000000
    4        7.146320   1.000000
    5        8.253962   0.998064
    6       10.061620   0.000000
    7       11.652785   0.000000
    8       14.050578   0.000000
 
 -0.6250000E-01 -0.3125000E+00  0.6250000E-01  0.1562500E-01
    1       -1.571917   1.000000
    2        5.810732   1.000000
    3        6.821937   1.000000
    4        7.192356   1.000000
    5        8.425944   0.952768
    6       10.909400   0.000000
    7       11.627941   0.000000
    8       13.305013   0.000000
 
 -0.1875000E+00 -0.1875000E+00  0.6250000E-01  0.1562500E-01
    1       -1.756814   1.000000
    2        6.440707   1.000000
    3        7.108769   1.000000
    4        7.406467   1.000000
    5        8.763770   0.236848
    6       10.412887   0.000000
    7       11.606061   0.000000
    8       11.828931   0.000000
 
 -0.6250000E-01 -0.1875000E+00  0.6250000E-01  0.1562500E-01
    1       -3.390444   1.000000
    2        6.128607   1.000000
    3        6.876131   1.000000
    4        8.724241   0.331069
    5       10.851136   0.000000
    6       11.280423   0.000000
    7       12.080044   0.000000
    8       13.817977   0.000000
 
 -0.6250000E-01 -0.6250000E-01  0.6250000E-01  0.3906250E-02
    1       -4.419903   1.000000
    2        6.511603   1.000000
    3        6.511603   1.000000
    4        6.778989   1.000000
    5       10.726323   0.000000
    6       14.483418   0.000000
    7       14.599696   0.000000
    8       16.477712   0.000000
 
  0.1875000E+00  0.1875000E+00  0.1875000E+00  0.1562500E-01
    1       -0.283872   1.000000
    2        2.584444   1.000000
    3        5.995260   1.000000
    4        6.085330   1.000000
    5       10.559787   0.000000
    6       12.398821   0.000000
    7       13.626100   0.000000
    8       14.065492   0.000000
 
  0.3125000E+00  0.1875000E+00  0.1875000E+00  0.1562500E-01
    1        2.017384   1.000000
    2        2.765554   1.000000
    3        3.794999   1.000000
    4        4.445164   1.000000
    5       11.482701   0.000000
    6       13.402150   0.000000
    7       13.708233   0.000000
    8       13.890277   0.000000
 
 -0.1875000E+00  0.1875000E+00  0.1875000E+00  0.7812500E-02
    1       -3.883909   1.000000
    2        2.829744   1.000000
    3        4.256704   1.000000
    4       10.649821   0.000000
    5       11.225777   0.000000
    6       14.007240   0.000000
    7       16.243432   0.000000
    8       16.757685   0.000000
 
  0.3125000E+00  0.3125000E+00  0.1875000E+00  0.7812500E-02
    1        0.986139   1.000000
    2        0.986140   1.000000
    3        5.875321   1.000000
    4        5.875321   1.000000
    5       11.809375   0.000000
    6       11.809378   0.000000
    7       13.610457   0.000000
    8       13.610462   0.000000
 
 -0.3125000E+00  0.3125000E+00  0.1875000E+00  0.1562500E-01
    1       -3.134532   1.000000
    2        1.200060   1.000000
    3        4.475520   1.000000
    4        8.622350   0.611608
    5       12.564604   0.000000
    6       15.475261   0.000000
    7       16.075293   0.000000
    8       16.853924   0.000000
 
 -0.1875000E+00  0.3125000E+00  0.1875000E+00  0.1562500E-01
    1       -2.918077   1.000000
    2        2.294527   1.000000
    3        3.811842   1.000000
    4        8.777611   0.207721
    5       11.374656   0.000000
    6       14.000499   0.000000
    7       16.021539   0.000000
    8       16.326597   0.000000
 
 -0.4375000E+00  0.4375000E+00  0.1875000E+00  0.1562500E-01
    1       -2.020147   1.000000
    2       -0.557897   1.000000
    3        5.483163   1.000000
    4        6.883132   1.000000
    5       13.611518   0.000000
    6       14.612055   0.000000
    7       16.166640   0.000000
    8       16.548947   0.000000
 
 -0.3125000E+00  0.4375000E+00  0.1875000E+00  0.3125000E-01
    1       -1.992316   1.000000
    2        0.856907   1.000000
    3        4.171674   1.000000
    4        6.907169   1.000000
    5       11.013432   0.000000
    6       15.315209   0.000000
    7       16.379349   0.000000
    8       17.826317   0.000000
 
 -0.1875000E+00  0.4375000E+00  0.1875000E+00  0.1562500E-01
    1       -1.165412   1.000000
    2        2.526910   1.000000
    3        4.086632   1.000000
    4        6.999843   1.000000
    5        7.910177   1.000000
    6       13.716686   0.000000
    7       15.133265   0.000000
    8       16.461211   0.000000
 
 -0.4375000E+00 -0.4375000E+00  0.1875000E+00  0.1562500E-01
    1       -0.723572   1.000000
    2       -0.709471   1.000000
    3        5.334229   1.000000
    4        5.356775   1.000000
    5       10.868784   0.000000
    6       15.982907   0.000000
    7       16.651876   0.000000
    8       16.962745   0.000000
 
 -0.3125000E+00 -0.4375000E+00  0.1875000E+00  0.3125000E-01
    1       -0.084230   1.000000
    2        1.293412   1.000000
    3        4.583977   1.000000
    4        5.846545   1.000000
    5        7.036449   1.000000
    6       13.901612   0.000000
    7       16.660685   0.000000
    8       17.698121   0.000000
 
 -0.1875000E+00 -0.4375000E+00  0.1875000E+00  0.1562500E-01
    1        1.267135   1.000000
    2        2.992054   1.000000
    3        4.160025   1.000000
    4        5.071650   1.000000
    5        7.258136   1.000000
    6       11.684554   0.000000
    7       13.018063   0.000000
    8       16.622302   0.000000
 
 -0.3125000E+00 -0.3125000E+00  0.1875000E+00  0.1562500E-01
    1        2.101875   1.000000
    2        2.573715   1.000000
    3        3.643141   1.000000
    4        5.760792   1.000000
    5        5.877102   1.000000
    6       11.933053   0.000000
    7       14.393362   0.000000
    8       15.196833   0.000000
 
 -0.1875000E+00 -0.3125000E+00  0.1875000E+00  0.1562500E-01
    1        0.248520   1.000000
    2        4.626202   1.000000
    3        5.553232   1.000000
    4        6.625986   1.000000
    5        7.423641   1.000000
    6       10.438300   0.000000
    7       11.507044   0.000000
    8       12.990547   0.000000
 
 -0.1875000E+00 -0.1875000E+00  0.1875000E+00  0.3906250E-02
    1       -1.942335   1.000000
    2        7.792554   1.000000
    3        7.792554   1.000000
    4        7.888551   1.000000
    5        8.104423   0.999960
    6        9.384441   0.000000
    7       11.326720   0.000000
    8       11.326723   0.000000
 
 -0.3125000E+00  0.3125000E+00  0.3125000E+00  0.7812500E-02
    1       -2.395001   1.000000
    2        1.340269   1.000000
    3        2.933775   1.000000
    4        6.559809   1.000000
    5       14.223957   0.000000
    6       15.105136   0.000000
    7       16.663319   0.000000
    8       18.093248   0.000000
 
 -0.4375000E+00  0.4375000E+00  0.3125000E+00  0.1562500E-01
    1       -1.302951   1.000000
    2        0.089325   1.000000
    3        3.453200   1.000000
    4        4.809439   1.000000
    5       14.555238   0.000000
    6       14.742682   0.000000
    7       17.643528   0.000000
    8       18.712484   0.000000
 
 -0.3125000E+00  0.4375000E+00  0.3125000E+00  0.1562500E-01
    1       -1.089401   1.000000
    2        1.173666   1.000000
    3        2.797156   1.000000
    4        5.006772   1.000000
    5       10.559639   0.000000
    6       17.471758   0.000000
    7       17.833748   0.000000
    8       18.847691   0.000000
 
 -0.4375000E+00 -0.4375000E+00  0.3125000E+00  0.1562500E-01
    1        0.101968   1.000000
    2        0.126452   1.000000
    3        3.475341   1.000000
    4        3.490334   1.000000
    5       10.399081   0.000000
    6       17.714051   0.000000
    7       18.999107   0.000000
    8       19.562427   0.000000
 
 -0.3125000E+00 -0.4375000E+00  0.3125000E+00  0.1562500E-01
    1        0.920884   1.000000
    2        1.785350   1.000000
    3        3.411737   1.000000
    4        4.245912   1.000000
    5        6.605357   1.000000
    6       15.567572   0.000000
    7       16.801402   0.000000
    8       17.974617   0.000000
 
 -0.3125000E+00 -0.3125000E+00  0.3125000E+00  0.3906250E-02
    1        2.316602   1.000000
    2        3.286307   1.000000
    3        4.039256   1.000000
    4        4.749840   1.000000
    5        4.749840   1.000000
    6       13.647706   0.000000
    7       14.212172   0.000000
    8       14.212178   0.000000
 
 -0.4375000E+00  0.4375000E+00  0.4375000E+00  0.7812500E-02
    1       -0.284153   1.000000
    2        0.587300   1.000000
    3        2.244639   1.000000
    4        3.104313   1.000000
    5       14.456177   0.000000
    6       14.493940   0.000000
    7       19.882431   0.000000
    8       20.647903   0.000000
 
 -0.4375000E+00 -0.4375000E+00  0.4375000E+00  0.3906250E-02
    1        0.777357   1.000000
    2        0.817006   1.000000
    3        2.451482   1.000000
    4        2.451482   1.000000
    5       10.235654   0.000000
    6       18.226704   0.000000
    7       20.164362   0.000000
    8       20.203378   0.000000
