 vasp.5.4.4.18Apr17-6-g9f103f2a35 (build Dec 09 2018 21:25:21) complex          
  
 executed on IFC18.0.1.163_CrayMP date 2019.03.23  21:15:09
 running on    8 total cores
 distrk:  each k-point on    8 cores,    1 groups
 distr:  one band on NCORES_PER_BAND=   1 cores,    8 groups


--------------------------------------------------------------------------------------------------------


 INCAR:
 POTCAR:   PAW_PBE Si 05Jan2001                   

 ----------------------------------------------------------------------------- 
|                                                                             |
|           W    W    AA    RRRRR   N    N  II  N    N   GGGG   !!!           |
|           W    W   A  A   R    R  NN   N  II  NN   N  G    G  !!!           |
|           W    W  A    A  R    R  N N  N  II  N N  N  G       !!!           |
|           W WW W  AAAAAA  RRRRR   N  N N  II  N  N N  G  GGG   !            |
|           WW  WW  A    A  R   R   N   NN  II  N   NN  G    G                |
|           W    W  A    A  R    R  N    N  II  N    N   GGGG   !!!           |
|                                                                             |
|      For optimal performance we recommend to set                            |
|        NCORE= 4 - approx SQRT( number of cores)                             |
|      NCORE specifies how many cores store one orbital (NPAR=cpu/NCORE).     |
|      This setting can  greatly improve the performance of VASP for DFT.     |
|      The default,   NCORE=1            might be grossly inefficient         |
|      on modern multi-core architectures or massively parallel machines.     |
|      Do your own testing !!!!                                               |
|      Unfortunately you need to use the default for GW and RPA calculations. |
|      (for HF NCORE is supported but not extensively tested yet)             |
|                                                                             |
 ----------------------------------------------------------------------------- 

 POTCAR:   PAW_PBE Si 05Jan2001                   
   VRHFIN =Si: s2p2                                                             
   LEXCH  = PE                                                                  
   EATOM  =   103.0669 eV,    7.5752 Ry                                         
                                                                                
   TITEL  = PAW_PBE Si 05Jan2001                                                
   LULTRA =        F    use ultrasoft PP ?                                      
   IUNSCR =        1    unscreen: 0-lin 1-nonlin 2-no                           
   RPACOR =    1.500    partial core radius                                     
   POMASS =   28.085; ZVAL   =    4.000    mass and valenz                      
   RCORE  =    1.900    outmost cutoff radius                                   
   RWIGS  =    2.480; RWIGS  =    1.312    wigner-seitz radius (au A)           
   ENMAX  =  245.345; ENMIN  =  184.009 eV                                      
   ICORE  =        2    local potential                                         
   LCOR   =        T    correct aug charges                                     
   LPAW   =        T    paw PP                                                  
   EAUG   =  322.069                                                            
   DEXC   =    -.007                                                            
   RMAX   =    2.944    core radius for proj-oper                               
   RAUG   =    1.300    factor for augmentation sphere                          
   RDEP   =    1.993    radius for radial grids                                 
   QCUT   =   -4.246; QGAM   =    8.493    optimization parameters              
                                                                                
   Description                                                                  
     l     E      TYP  RCUT    TYP  RCUT                                        
     0   .000     23  1.900                                                     
     0   .000     23  1.900                                                     
     1   .000     23  1.900                                                     
     1   .000     23  1.900                                                     
     2   .000      7  1.900                                                     
  local pseudopotential read in
  partial core-charges read in
  atomic valenz-charges read in
  non local Contribution for L=           0  read in
    real space projection operators read in
  non local Contribution for L=           0  read in
    real space projection operators read in
  non local Contribution for L=           1  read in
    real space projection operators read in
  non local Contribution for L=           1  read in
    real space projection operators read in
    PAW grid and wavefunctions read in
 
   number of l-projection  operators is LMAX  =           4
   number of lm-projection operators is LMMAX =           8
 
 PAW_PBE Si 05Jan2001                   :
 energy of atom  1       EATOM= -103.0669
 kinetic energy error for atom=    0.0013 (will be added to EATOM!!)
 
 
 POSCAR: Si2                                     
  positions in direct lattice
  No initial velocities read in
 exchange correlation table for  LEXCH =        8
   RHO(1)=    0.500       N(1)  =     2000
   RHO(2)=  100.500       N(2)  =     4000
 


--------------------------------------------------------------------------------------------------------


 ion  position               nearest neighbor table
   1  0.750  0.250  0.500-   2 2.52   2 2.52   2 2.52   2 2.52
   2  0.500  0.500  0.000-   1 2.52   1 2.52   1 2.52   1 2.52
 
  LATTYP: Found a body centered tetragonal cell.
 ALAT       =     4.8620840000
 C/A-ratio  =     0.5507683537
  
  Lattice vectors:
  
 A1 = (  -2.4310420000,   2.4310420000,   1.3389410000)
 A2 = (   2.4310420000,  -2.4310420000,   1.3389410000)
 A3 = (   2.4310420000,   2.4310420000,  -1.3389410000)


Analysis of symmetry for initial positions (statically):
=====================================================================
 Subroutine PRICEL returns:
 Original cell was already a primitive cell.
 

 Routine SETGRP: Setting up the symmetry group for a 
 body centered tetragonal supercell.


 Subroutine GETGRP returns: Found 16 space group operations
 (whereof  8 operations were pure point group operations)
 out of a pool of 16 trial point group operations.


The static configuration has the point symmetry D_2d.
 The point group associated with its full space group is D_4h.


Analysis of symmetry for dynamics (positions and initial velocities):
=====================================================================
 Subroutine PRICEL returns:
 Original cell was already a primitive cell.
 

 Routine SETGRP: Setting up the symmetry group for a 
 body centered tetragonal supercell.


 Subroutine GETGRP returns: Found 16 space group operations
 (whereof  8 operations were pure point group operations)
 out of a pool of 16 trial point group operations.


The dynamic configuration has the point symmetry D_2d.
 The point group associated with its full space group is D_4h.


 Subroutine INISYM returns: Found 16 space group operations
 (whereof  8 operations are pure point group operations),
 and found     1 'primitive' translations

 
 
 KPOINTS: Automatic kpoint scheme                 

Automatic generation of k-mesh.
Space group operators:
 irot       det(A)        alpha          n_x          n_y          n_z        tau_x        tau_y        tau_z
    1     1.000000     0.000000     1.000000     0.000000     0.000000     0.000000     0.000000     0.000000
    2    -1.000000    90.000000     0.000000    -0.000000    -1.000000     0.000000     0.000000     0.000000
    3     1.000000   180.000000    -0.000000     0.000000    -1.000000     0.000000     0.000000     0.000000
    4    -1.000000    90.000000     0.000000    -0.000000     1.000000     0.000000     0.000000     0.000000
    5    -1.000000   180.000000    -0.000000     1.000000     0.000000     0.000000     0.000000     0.000000
    6     1.000000   180.000000     0.707107     0.707107    -0.000000     0.000000     0.000000     0.000000
    7    -1.000000   180.000000     1.000000     0.000000     0.000000     0.000000     0.000000     0.000000
    8     1.000000   180.000000     0.707107    -0.707107    -0.000000     0.000000     0.000000     0.000000
    9    -1.000000     0.000000     1.000000     0.000000     0.000000     0.250000     0.750000     0.500000
   10     1.000000    90.000000     0.000000    -0.000000    -1.000000     0.250000     0.750000     0.500000
   11    -1.000000   180.000000    -0.000000     0.000000    -1.000000     0.250000     0.750000     0.500000
   12     1.000000    90.000000     0.000000    -0.000000     1.000000     0.250000     0.750000     0.500000
   13     1.000000   180.000000    -0.000000     1.000000     0.000000     0.250000     0.750000     0.500000
   14    -1.000000   180.000000     0.707107     0.707107    -0.000000     0.250000     0.750000     0.500000
   15     1.000000   180.000000     1.000000     0.000000     0.000000     0.250000     0.750000     0.500000
   16    -1.000000   180.000000     0.707107    -0.707107    -0.000000     0.250000     0.750000     0.500000
 
 Subroutine IBZKPT returns following result:
 ===========================================
 
 Found     56 irreducible k-points:
 
 Following reciprocal coordinates:
            Coordinates               Weight
  0.062500  0.062500  0.062500    128.000000
  0.187500  0.062500  0.062500    256.000000
  0.312500  0.062500  0.062500    256.000000
  0.437500  0.062500  0.062500    128.000000
 -0.062500  0.062500  0.062500     64.000000
  0.187500  0.187500  0.062500    128.000000
  0.312500  0.187500  0.062500    256.000000
  0.437500  0.187500  0.062500    256.000000
 -0.437500  0.187500  0.062500    256.000000
 -0.312500  0.187500  0.062500    128.000000
 -0.187500  0.187500  0.062500    128.000000
 -0.062500  0.187500  0.062500    128.000000
  0.312500  0.312500  0.062500    128.000000
  0.437500  0.312500  0.062500    256.000000
 -0.437500  0.312500  0.062500    128.000000
 -0.312500  0.312500  0.062500    128.000000
 -0.187500  0.312500  0.062500    256.000000
 -0.062500  0.312500  0.062500    128.000000
  0.437500  0.437500  0.062500     64.000000
 -0.437500  0.437500  0.062500    128.000000
 -0.312500  0.437500  0.062500    256.000000
 -0.187500  0.437500  0.062500    256.000000
 -0.062500  0.437500  0.062500    128.000000
 -0.437500 -0.437500  0.062500    128.000000
 -0.312500 -0.437500  0.062500    256.000000
 -0.187500 -0.437500  0.062500    256.000000
 -0.062500 -0.437500  0.062500    128.000000
 -0.312500 -0.312500  0.062500    128.000000
 -0.187500 -0.312500  0.062500    256.000000
 -0.062500 -0.312500  0.062500    128.000000
 -0.187500 -0.187500  0.062500    128.000000
 -0.062500 -0.187500  0.062500    128.000000
 -0.062500 -0.062500  0.062500     32.000000
  0.187500  0.187500  0.187500    128.000000
  0.312500  0.187500  0.187500    128.000000
 -0.187500  0.187500  0.187500     64.000000
  0.312500  0.312500  0.187500     64.000000
 -0.312500  0.312500  0.187500    128.000000
 -0.187500  0.312500  0.187500    128.000000
 -0.437500  0.437500  0.187500    128.000000
 -0.312500  0.437500  0.187500    256.000000
 -0.187500  0.437500  0.187500    128.000000
 -0.437500 -0.437500  0.187500    128.000000
 -0.312500 -0.437500  0.187500    256.000000
 -0.187500 -0.437500  0.187500    128.000000
 -0.312500 -0.312500  0.187500    128.000000
 -0.187500 -0.312500  0.187500    128.000000
 -0.187500 -0.187500  0.187500     32.000000
 -0.312500  0.312500  0.312500     64.000000
 -0.437500  0.437500  0.312500    128.000000
 -0.312500  0.437500  0.312500    128.000000
 -0.437500 -0.437500  0.312500    128.000000
 -0.312500 -0.437500  0.312500    128.000000
 -0.312500 -0.312500  0.312500     32.000000
 -0.437500  0.437500  0.437500     64.000000
 -0.437500 -0.437500  0.437500     32.000000
 
 Following cartesian coordinates:
            Coordinates               Weight
  0.025709  0.025709  0.046679    128.000000
  0.025709  0.051418  0.093357    256.000000
  0.025709  0.077127  0.140036    256.000000
  0.025709  0.102837  0.186715    128.000000
  0.025709  0.000000  0.000000     64.000000
  0.051418  0.051418  0.140036    128.000000
  0.051418  0.077127  0.186715    256.000000
  0.051418  0.102837  0.233393    256.000000
  0.051418 -0.077127 -0.093357    256.000000
  0.051418 -0.051418 -0.046679    128.000000
  0.051418 -0.025709  0.000000    128.000000
  0.051418  0.000000  0.046679    128.000000
  0.077127  0.077127  0.233393    128.000000
  0.077127  0.102837  0.280072    256.000000
  0.077127 -0.077127 -0.046679    128.000000
  0.077127 -0.051418  0.000000    128.000000
  0.077127 -0.025709  0.046679    256.000000
  0.077127  0.000000  0.093357    128.000000
  0.102837  0.102837  0.326751     64.000000
  0.102837 -0.077127  0.000000    128.000000
  0.102837 -0.051418  0.046679    256.000000
  0.102837 -0.025709  0.093357    256.000000
  0.102837  0.000000  0.140036    128.000000
 -0.077127 -0.077127 -0.326751    128.000000
 -0.077127 -0.051418 -0.280072    256.000000
 -0.077127 -0.025709 -0.233393    256.000000
 -0.077127 -0.000000 -0.186715    128.000000
 -0.051418 -0.051418 -0.233393    128.000000
 -0.051418 -0.025709 -0.186715    256.000000
 -0.051418  0.000000 -0.140036    128.000000
 -0.025709 -0.025709 -0.140036    128.000000
 -0.025709  0.000000 -0.093357    128.000000
 -0.000000  0.000000 -0.046679     32.000000
  0.077127  0.077127  0.140036    128.000000
  0.077127  0.102837  0.186715    128.000000
  0.077127 -0.000000  0.000000     64.000000
  0.102837  0.102837  0.233393     64.000000
  0.102837 -0.025709  0.000000    128.000000
  0.102837  0.000000  0.046679    128.000000
  0.128546 -0.051418  0.000000    128.000000
  0.128546 -0.025709  0.046679    256.000000
  0.128546  0.000000  0.093357    128.000000
 -0.051418 -0.051418 -0.326751    128.000000
 -0.051418 -0.025709 -0.280072    256.000000
 -0.051418  0.000000 -0.233393    128.000000
 -0.025709 -0.025709 -0.233393    128.000000
 -0.025709 -0.000000 -0.186715    128.000000
  0.000000  0.000000 -0.140036     32.000000
  0.128546  0.000000  0.000000     64.000000
  0.154255 -0.025709  0.000000    128.000000
  0.154255  0.000000  0.046679    128.000000
 -0.025709 -0.025709 -0.326751    128.000000
 -0.025709  0.000000 -0.280072    128.000000
 -0.000000  0.000000 -0.233393     32.000000
  0.179964  0.000000  0.000000     64.000000
 -0.000000  0.000000 -0.326751     32.000000
 


--------------------------------------------------------------------------------------------------------




 Dimension of arrays:
   k-points           NKPTS =     56   k-points in BZ     NKDIM =     56   number of bands    NBANDS=      8
   number of dos      NEDOS =    301   number of ions     NIONS =      2
   non local maximal  LDIM  =      4   non local SUM 2l+1 LMDIM =      8
   total plane-waves  NPLWV =   5832
   max r-space proj   IRMAX =      1   max aug-charges    IRDMAX=   6359
   dimension x,y,z NGX =    18 NGY =   18 NGZ =   18
   dimension x,y,z NGXF=    36 NGYF=   36 NGZF=   36
   support grid    NGXF=    36 NGYF=   36 NGZF=   36
   ions per type =               2
   NGX,Y,Z   is equivalent  to a cutoff of   8.11,  8.11,  8.11 a.u.
   NGXF,Y,Z  is equivalent  to a cutoff of  16.22, 16.22, 16.22 a.u.

 SYSTEM =  unknown system                          
 POSCAR =  Si2                                     

 Startparameter for this run:
   NWRITE =      2    write-flag & timer
   PREC   = normal    normal or accurate (medium, high low for compatibility)
   ISTART =      0    job   : 0-new  1-cont  2-samecut
   ICHARG =      2    charge: 1-file 2-atom 10-const
   ISPIN  =      1    spin polarized calculation?
   LNONCOLLINEAR =      F non collinear calculations
   LSORBIT =      F    spin-orbit coupling
   INIWAV =      1    electr: 0-lowe 1-rand  2-diag
   LASPH  =      F    aspherical Exc in radial PAW
   METAGGA=      F    non-selfconsistent MetaGGA calc.

 Electronic Relaxation 1
   ENCUT  =  350.0 eV  25.72 Ry    5.07 a.u.   5.63  5.63  5.63*2*pi/ulx,y,z
   ENINI  =  350.0     initial cutoff
   ENAUG  =  322.1 eV  augmentation charge cutoff
   NELM   =     60;   NELMIN=  2; NELMDL= -5     # of ELM steps 
   EDIFF  = 0.4E-03   stopping-criterion for ELM
   LREAL  =      F    real-space projection
   NLSPLINE    = F    spline interpolate recip. space projectors
   LCOMPAT=      F    compatible to vasp.4.4
   GGA_COMPAT  = T    GGA compatible to vasp.4.4-vasp.4.6
   LMAXPAW     = -100 max onsite density
   LMAXMIX     =    2 max onsite mixed and CHGCAR
   VOSKOWN=      0    Vosko Wilk Nusair interpolation
   ROPT   =    0.00000
 Ionic relaxation
   EDIFFG = -.1E-01   stopping-criterion for IOM
   NSW    =     15    number of steps for IOM
   NBLOCK =      1;   KBLOCK =     15    inner block; outer block 
   IBRION =      2    ionic relax: 0-MD 1-quasi-New 2-CG
   NFREE  =      1    steps in history (QN), initial steepest desc. (CG)
   ISIF   =      2    stress and relaxation
   IWAVPR =     11    prediction:  0-non 1-charg 2-wave 3-comb
   ISYM   =      2    0-nonsym 1-usesym 2-fastsym
   LCORR  =      T    Harris-Foulkes like correction to forces

   POTIM  = 0.5000    time-step for ionic-motion
   TEIN   =    0.0    initial temperature
   TEBEG  =    0.0;   TEEND  =   0.0 temperature during run
   SMASS  =  -3.00    Nose mass-parameter (am)
   estimated Nose-frequenzy (Omega)   =  0.10E-29 period in steps =****** mass=  -0.311E-27a.u.
   SCALEE = 1.0000    scale energy and forces
   NPACO  =    256;   APACO  = 16.0  distance and # of slots for P.C.
   PSTRESS=    0.0 pullay stress

  Mass of Ions in am
   POMASS =  28.09
  Ionic Valenz
   ZVAL   =   4.00
  Atomic Wigner-Seitz radii
   RWIGS  =  -1.00
  virtual crystal weights 
   VCA    =   1.00
   NELECT =       8.0000    total number of electrons
   NUPDOWN=      -1.0000    fix difference up-down

 DOS related values:
   EMIN   =  10.00;   EMAX   =-10.00  energy-range for DOS
   EFERMI =   0.00
   ISMEAR =     0;   SIGMA  =   0.20  broadening in eV -4-tet -1-fermi 0-gaus

 Electronic relaxation 2 (details)
   IALGO  =     38    algorithm
   LDIAG  =      T    sub-space diagonalisation (order eigenvalues)
   LSUBROT=      F    optimize rotation matrix (better conditioning)
   TURBO    =      0    0=normal 1=particle mesh
   IRESTART =      0    0=no restart 2=restart with 2 vectors
   NREBOOT  =      0    no. of reboots
   NMIN     =      0    reboot dimension
   EREF     =   0.00    reference energy to select bands
   IMIX   =      4    mixing-type and parameters
     AMIX     =   0.40;   BMIX     =  1.00
     AMIX_MAG =   1.60;   BMIX_MAG =  1.00
     AMIN     =   0.10
     WC   =   100.;   INIMIX=   1;  MIXPRE=   1;  MAXMIX= -45

 Intra band minimization:
   WEIMIN = 0.0010     energy-eigenvalue tresh-hold
   EBREAK =  0.13E-04  absolut break condition
   DEPER  =   0.30     relativ break condition  

   TIME   =   0.40     timestep for ELM

  volume/ion in A,a.u.               =      15.83       106.80
  Fermi-wavevector in a.u.,A,eV,Ry     =   1.035069  1.955997 14.576849  1.071368
  Thomas-Fermi vector in A             =   2.169395
 
 Write flags
   LWAVE        =      T    write WAVECAR
   LDOWNSAMPLE  =      F    k-point downsampling of WAVECAR
   LCHARG       =      T    write CHGCAR
   LVTOT        =      F    write LOCPOT, total local potential
   LVHAR        =      F    write LOCPOT, Hartree potential only
   LELF         =      F    write electronic localiz. function (ELF)
   LORBIT       =      0    0 simple, 1 ext, 2 COOP (PROOUT), +10 PAW based schemes


 Dipole corrections
   LMONO  =      F    monopole corrections only (constant potential shift)
   LDIPOL =      F    correct potential (dipole corrections)
   IDIPOL =      0    1-x, 2-y, 3-z, 4-all directions 
   EPSILON=  1.0000000 bulk dielectric constant

 Exchange correlation treatment:
   GGA     =    --    GGA type
   LEXCH   =     8    internal setting for exchange type
   VOSKOWN=      0    Vosko Wilk Nusair interpolation
   LHFCALC =     F    Hartree Fock is set to
   LHFONE  =     F    Hartree Fock one center treatment
   AEXX    =    0.0000 exact exchange contribution

 Linear response parameters
   LEPSILON=     F    determine dielectric tensor
   LRPA    =     F    only Hartree local field effects (RPA)
   LNABLA  =     F    use nabla operator in PAW spheres
   LVEL    =     F    velocity operator in full k-point grid
   LINTERFAST=   F  fast interpolation
   KINTER  =     0    interpolate to denser k-point grid
   CSHIFT  =0.1000    complex shift for real part using Kramers Kronig
   OMEGAMAX=  -1.0    maximum frequency
   DEG_THRESHOLD= 0.2000000E-02 threshold for treating states as degnerate
   RTIME   =   -0.100 relaxation time in fs
  (WPLASMAI=    0.000 imaginary part of plasma frequency in eV, 0.658/RTIME)
   DFIELD  = 0.0000000 0.0000000 0.0000000 field for delta impulse in time
 
 Orbital magnetization related:
   ORBITALMAG=     F  switch on orbital magnetization
   LCHIMAG   =     F  perturbation theory with respect to B field
   DQ        =  0.001000  dq finite difference perturbation B field
   LLRAUG    =     F  two centre corrections for induced B field



--------------------------------------------------------------------------------------------------------


 conjugate gradient relaxation of ions
 charge density and potential will be updated during run
 non-spin polarized calculation
 Variant of blocked Davidson
 Davidson routine will perform the subspace rotation
 perform sub-space diagonalisation
    after iterative eigenvector-optimisation
 modified Broyden-mixing scheme, WC =      100.0
 initial mixing is a Kerker type mixing with AMIX =  0.4000 and BMIX =      1.0000
 Hartree-type preconditioning will be used
 using additional bands            4
 reciprocal scheme for non local part
 use partial core corrections
 calculate Harris-corrections to forces 
   (improved forces if not selfconsistent)
 use gradient corrections 
 use of overlap-Matrix (Vanderbilt PP)
 Gauss-broadening in eV      SIGMA  =   0.20


--------------------------------------------------------------------------------------------------------


  energy-cutoff  :      350.00
  volume of cell :       31.65
      direct lattice vectors                 reciprocal lattice vectors
    -2.431042000  2.431042000  1.338941000     0.000000000  0.205673123  0.373429449
     2.431042000 -2.431042000  1.338941000     0.205673123  0.000000000  0.373429449
     2.431042000  2.431042000 -1.338941000     0.205673123  0.205673123 -0.000000000

  length of vectors
     3.689538374  3.689538374  3.689538374     0.426322632  0.426322632  0.290865720


 
 k-points in units of 2pi/SCALE and weight: Automatic kpoint scheme                 
   0.02570914  0.02570914  0.04667868       0.016
   0.02570914  0.05141828  0.09335736       0.031
   0.02570914  0.07712742  0.14003604       0.031
   0.02570914  0.10283656  0.18671472       0.016
   0.02570914 -0.00000000  0.00000000       0.008
   0.05141828  0.05141828  0.14003604       0.016
   0.05141828  0.07712742  0.18671472       0.031
   0.05141828  0.10283656  0.23339341       0.031
   0.05141828 -0.07712742 -0.09335736       0.031
   0.05141828 -0.05141828 -0.04667868       0.016
   0.05141828 -0.02570914  0.00000000       0.016
   0.05141828 -0.00000000  0.04667868       0.016
   0.07712742  0.07712742  0.23339341       0.016
   0.07712742  0.10283656  0.28007209       0.031
   0.07712742 -0.07712742 -0.04667868       0.016
   0.07712742 -0.05141828 -0.00000000       0.016
   0.07712742 -0.02570914  0.04667868       0.031
   0.07712742  0.00000000  0.09335736       0.016
   0.10283656  0.10283656  0.32675077       0.008
   0.10283656 -0.07712742 -0.00000000       0.016
   0.10283656 -0.05141828  0.04667868       0.031
   0.10283656 -0.02570914  0.09335736       0.031
   0.10283656  0.00000000  0.14003604       0.016
  -0.07712742 -0.07712742 -0.32675077       0.016
  -0.07712742 -0.05141828 -0.28007209       0.031
  -0.07712742 -0.02570914 -0.23339341       0.031
  -0.07712742 -0.00000000 -0.18671472       0.016
  -0.05141828 -0.05141828 -0.23339341       0.016
  -0.05141828 -0.02570914 -0.18671472       0.031
  -0.05141828 -0.00000000 -0.14003604       0.016
  -0.02570914 -0.02570914 -0.14003604       0.016
  -0.02570914  0.00000000 -0.09335736       0.016
   0.00000000  0.00000000 -0.04667868       0.004
   0.07712742  0.07712742  0.14003604       0.016
   0.07712742  0.10283656  0.18671472       0.016
   0.07712742 -0.00000000  0.00000000       0.008
   0.10283656  0.10283656  0.23339341       0.008
   0.10283656 -0.02570914 -0.00000000       0.016
   0.10283656 -0.00000000  0.04667868       0.016
   0.12854570 -0.05141828  0.00000000       0.016
   0.12854570 -0.02570914  0.04667868       0.031
   0.12854570 -0.00000000  0.09335736       0.016
  -0.05141828 -0.05141828 -0.32675077       0.016
  -0.05141828 -0.02570914 -0.28007209       0.031
  -0.05141828  0.00000000 -0.23339341       0.016
  -0.02570914 -0.02570914 -0.23339341       0.016
  -0.02570914 -0.00000000 -0.18671472       0.016
  -0.00000000 -0.00000000 -0.14003604       0.004
   0.12854570 -0.00000000  0.00000000       0.008
   0.15425484 -0.02570914  0.00000000       0.016
   0.15425484  0.00000000  0.04667868       0.016
  -0.02570914 -0.02570914 -0.32675077       0.016
  -0.02570914  0.00000000 -0.28007209       0.016
   0.00000000  0.00000000 -0.23339341       0.004
   0.17996398  0.00000000  0.00000000       0.008
   0.00000000  0.00000000 -0.32675077       0.004
 
 k-points in reciprocal lattice and weights: Automatic kpoint scheme                 
   0.06250000  0.06250000  0.06250000       0.016
   0.18750000  0.06250000  0.06250000       0.031
   0.31250000  0.06250000  0.06250000       0.031
   0.43750000  0.06250000  0.06250000       0.016
  -0.06250000  0.06250000  0.06250000       0.008
   0.18750000  0.18750000  0.06250000       0.016
   0.31250000  0.18750000  0.06250000       0.031
   0.43750000  0.18750000  0.06250000       0.031
  -0.43750000  0.18750000  0.06250000       0.031
  -0.31250000  0.18750000  0.06250000       0.016
  -0.18750000  0.18750000  0.06250000       0.016
  -0.06250000  0.18750000  0.06250000       0.016
   0.31250000  0.31250000  0.06250000       0.016
   0.43750000  0.31250000  0.06250000       0.031
  -0.43750000  0.31250000  0.06250000       0.016
  -0.31250000  0.31250000  0.06250000       0.016
  -0.18750000  0.31250000  0.06250000       0.031
  -0.06250000  0.31250000  0.06250000       0.016
   0.43750000  0.43750000  0.06250000       0.008
  -0.43750000  0.43750000  0.06250000       0.016
  -0.31250000  0.43750000  0.06250000       0.031
  -0.18750000  0.43750000  0.06250000       0.031
  -0.06250000  0.43750000  0.06250000       0.016
  -0.43750000 -0.43750000  0.06250000       0.016
  -0.31250000 -0.43750000  0.06250000       0.031
  -0.18750000 -0.43750000  0.06250000       0.031
  -0.06250000 -0.43750000  0.06250000       0.016
  -0.31250000 -0.31250000  0.06250000       0.016
  -0.18750000 -0.31250000  0.06250000       0.031
  -0.06250000 -0.31250000  0.06250000       0.016
  -0.18750000 -0.18750000  0.06250000       0.016
  -0.06250000 -0.18750000  0.06250000       0.016
  -0.06250000 -0.06250000  0.06250000       0.004
   0.18750000  0.18750000  0.18750000       0.016
   0.31250000  0.18750000  0.18750000       0.016
  -0.18750000  0.18750000  0.18750000       0.008
   0.31250000  0.31250000  0.18750000       0.008
  -0.31250000  0.31250000  0.18750000       0.016
  -0.18750000  0.31250000  0.18750000       0.016
  -0.43750000  0.43750000  0.18750000       0.016
  -0.31250000  0.43750000  0.18750000       0.031
  -0.18750000  0.43750000  0.18750000       0.016
  -0.43750000 -0.43750000  0.18750000       0.016
  -0.31250000 -0.43750000  0.18750000       0.031
  -0.18750000 -0.43750000  0.18750000       0.016
  -0.31250000 -0.31250000  0.18750000       0.016
  -0.18750000 -0.31250000  0.18750000       0.016
  -0.18750000 -0.18750000  0.18750000       0.004
  -0.31250000  0.31250000  0.31250000       0.008
  -0.43750000  0.43750000  0.31250000       0.016
  -0.31250000  0.43750000  0.31250000       0.016
  -0.43750000 -0.43750000  0.31250000       0.016
  -0.31250000 -0.43750000  0.31250000       0.016
  -0.31250000 -0.31250000  0.31250000       0.004
  -0.43750000  0.43750000  0.43750000       0.008
  -0.43750000 -0.43750000  0.43750000       0.004
 
 position of ions in fractional coordinates (direct lattice) 
   0.75000000  0.25000000  0.50000000
   0.50000000  0.50000000  0.00000000
 
 position of ions in cartesian coordinates  (Angst):
   0.00000000  2.43104200  0.66947050
   0.00000000  0.00000000  1.33894100
 


--------------------------------------------------------------------------------------------------------


 k-point  1 :   0.0625 0.0625 0.0625  plane waves:     476
 k-point  2 :   0.1875 0.0625 0.0625  plane waves:     477
 k-point  3 :   0.3125 0.0625 0.0625  plane waves:     475
 k-point  4 :   0.4375 0.0625 0.0625  plane waves:     476
 k-point  5 :  -0.0625 0.0625 0.0625  plane waves:     475
 k-point  6 :   0.1875 0.1875 0.0625  plane waves:     478
 k-point  7 :   0.3125 0.1875 0.0625  plane waves:     476
 k-point  8 :   0.4375 0.1875 0.0625  plane waves:     477
 k-point  9 :  -0.4375 0.1875 0.0625  plane waves:     472
 k-point 10 :  -0.3125 0.1875 0.0625  plane waves:     475
 k-point 11 :  -0.1875 0.1875 0.0625  plane waves:     467
 k-point 12 :  -0.0625 0.1875 0.0625  plane waves:     475
 k-point 13 :   0.3125 0.3125 0.0625  plane waves:     470
 k-point 14 :   0.4375 0.3125 0.0625  plane waves:     470
 k-point 15 :  -0.4375 0.3125 0.0625  plane waves:     465
 k-point 16 :  -0.3125 0.3125 0.0625  plane waves:     470
 k-point 17 :  -0.1875 0.3125 0.0625  plane waves:     466
 k-point 18 :  -0.0625 0.3125 0.0625  plane waves:     475
 k-point 19 :   0.4375 0.4375 0.0625  plane waves:     470
 k-point 20 :  -0.4375 0.4375 0.0625  plane waves:     461
 k-point 21 :  -0.3125 0.4375 0.0625  plane waves:     465
 k-point 22 :  -0.1875 0.4375 0.0625  plane waves:     470
 k-point 23 :  -0.0625 0.4375 0.0625  plane waves:     475
 k-point 24 :  -0.4375-0.4375 0.0625  plane waves:     467
 k-point 25 :  -0.3125-0.4375 0.0625  plane waves:     470
 k-point 26 :  -0.1875-0.4375 0.0625  plane waves:     475
 k-point 27 :  -0.0625-0.4375 0.0625  plane waves:     466
 k-point 28 :  -0.3125-0.3125 0.0625  plane waves:     470
 k-point 29 :  -0.1875-0.3125 0.0625  plane waves:     473
 k-point 30 :  -0.0625-0.3125 0.0625  plane waves:     476
 k-point 31 :  -0.1875-0.1875 0.0625  plane waves:     480
 k-point 32 :  -0.0625-0.1875 0.0625  plane waves:     477
 k-point 33 :  -0.0625-0.0625 0.0625  plane waves:     472
 k-point 34 :   0.1875 0.1875 0.1875  plane waves:     477
 k-point 35 :   0.3125 0.1875 0.1875  plane waves:     478
 k-point 36 :  -0.1875 0.1875 0.1875  plane waves:     469
 k-point 37 :   0.3125 0.3125 0.1875  plane waves:     466
 k-point 38 :  -0.3125 0.3125 0.1875  plane waves:     464
 k-point 39 :  -0.1875 0.3125 0.1875  plane waves:     466
 k-point 40 :  -0.4375 0.4375 0.1875  plane waves:     468
 k-point 41 :  -0.3125 0.4375 0.1875  plane waves:     465
 k-point 42 :  -0.1875 0.4375 0.1875  plane waves:     474
 k-point 43 :  -0.4375-0.4375 0.1875  plane waves:     454
 k-point 44 :  -0.3125-0.4375 0.1875  plane waves:     468
 k-point 45 :  -0.1875-0.4375 0.1875  plane waves:     464
 k-point 46 :  -0.3125-0.3125 0.1875  plane waves:     469
 k-point 47 :  -0.1875-0.3125 0.1875  plane waves:     471
 k-point 48 :  -0.1875-0.1875 0.1875  plane waves:     488
 k-point 49 :  -0.3125 0.3125 0.3125  plane waves:     466
 k-point 50 :  -0.4375 0.4375 0.3125  plane waves:     467
 k-point 51 :  -0.3125 0.4375 0.3125  plane waves:     468
 k-point 52 :  -0.4375-0.4375 0.3125  plane waves:     472
 k-point 53 :  -0.3125-0.4375 0.3125  plane waves:     471
 k-point 54 :  -0.3125-0.3125 0.3125  plane waves:     464
 k-point 55 :  -0.4375 0.4375 0.4375  plane waves:     468
 k-point 56 :  -0.4375-0.4375 0.4375  plane waves:     480

 maximum and minimum number of plane-waves per node :       488      454

 maximum number of plane-waves:       488
 maximum index in each direction: 
   IXMAX=    6   IYMAX=    6   IZMAX=    5
   IXMIN=   -6   IYMIN=   -6   IZMIN=   -6


 serial   3D FFT for wavefunctions
 parallel 3D FFT for charge:
    minimum data exchange during FFTs selected (reduces bandwidth)


 total amount of memory used by VASP MPI-rank0    33029. kBytes
=======================================================================

   base      :      30000. kBytes
   nonl-proj :       1764. kBytes
   fftplans  :        247. kBytes
   grid      :        561. kBytes
   one-center:          6. kBytes
   wavefun   :        451. kBytes
 
     INWAV:  cpu time    0.0000: real time    0.0005
 Broyden mixing: mesh for mixing (old mesh)
   NGX = 11   NGY = 11   NGZ = 11
  (NGX  = 36   NGY  = 36   NGZ  = 36)
  gives a total of   1331 points

 initial charge density was supplied:
 charge density of overlapping atoms calculated
 number of electron       8.0000000 magnetization 
 keeping initial charge density in first step


--------------------------------------------------------------------------------------------------------


 Maximum index for augmentation-charges          875 (set IRDMAX)


--------------------------------------------------------------------------------------------------------


 First call to EWALD:  gamma=   0.560
 Maximum number of real-space cells 4x 4x 3
 Maximum number of reciprocal cells 3x 3x 3

    FEWALD:  cpu time    0.0040: real time    0.0111


--------------------------------------- Iteration      1(   1)  ---------------------------------------


    POTLOK:  cpu time    0.0320: real time    0.0458
    SETDIJ:  cpu time    0.0080: real time    0.0095
     EDDAV:  cpu time    0.6280: real time    0.6419
       DOS:  cpu time    0.0040: real time    0.0030
    --------------------------------------------
      LOOP:  cpu time    0.6720: real time    0.7012

 eigenvalue-minimisations  :   896
 total energy-change (2. order) : 0.1343808E+01  (-0.2665629E+03)
 number of electron       8.0000000 magnetization 
 augmentation part        8.0000000 magnetization 

 Free energy of the ion-electron system (eV)
  ---------------------------------------------------
  alpha Z        PSCENC =         4.25409774
  Ewald energy   TEWEN  =      -262.28548134
  -Hartree energ DENC   =        -2.45078079
  -exchange      EXHF   =         0.00000000
  -V(xc)+E(xc)   XCENC  =       -17.99022212
  PAW double counting   =        65.95520812      -30.76852678
  entropy T*S    EENTRO =        -0.00926461
  eigenvalues    EBANDS =        38.50752325
  atomic energy  EATOM  =       206.13125414
  Solvation  Ediel_sol  =         0.00000000
  ---------------------------------------------------
  free energy    TOTEN  =         1.34380761 eV

  energy without entropy =        1.35307222  energy(sigma->0) =        1.34843991


--------------------------------------------------------------------------------------------------------




--------------------------------------- Iteration      1(   2)  ---------------------------------------


     EDDAV:  cpu time    0.9280: real time    0.9347
       DOS:  cpu time    0.0040: real time    0.0032
    --------------------------------------------
      LOOP:  cpu time    0.9320: real time    0.9375

 eigenvalue-minimisations  :  1336
 total energy-change (2. order) :-0.1148211E+02  (-0.1110321E+02)
 number of electron       8.0000000 magnetization 
 augmentation part        8.0000000 magnetization 

 Free energy of the ion-electron system (eV)
  ---------------------------------------------------
  alpha Z        PSCENC =         4.25409774
  Ewald energy   TEWEN  =      -262.28548134
  -Hartree energ DENC   =        -2.45078079
  -exchange      EXHF   =         0.00000000
  -V(xc)+E(xc)   XCENC  =       -17.99022212
  PAW double counting   =        65.95520812      -30.76852678
  entropy T*S    EENTRO =        -0.01964547
  eigenvalues    EBANDS =        27.03579748
  atomic energy  EATOM  =       206.13125414
  Solvation  Ediel_sol  =         0.00000000
  ---------------------------------------------------
  free energy    TOTEN  =       -10.13829903 eV

  energy without entropy =      -10.11865356  energy(sigma->0) =      -10.12847629


--------------------------------------------------------------------------------------------------------




--------------------------------------- Iteration      1(   3)  ---------------------------------------


     EDDAV:  cpu time    0.8400: real time    0.8441
       DOS:  cpu time    0.0000: real time    0.0030
    --------------------------------------------
      LOOP:  cpu time    0.8440: real time    0.8472

 eigenvalue-minimisations  :  1200
 total energy-change (2. order) :-0.1286309E+00  (-0.1281597E+00)
 number of electron       8.0000000 magnetization 
 augmentation part        8.0000000 magnetization 

 Free energy of the ion-electron system (eV)
  ---------------------------------------------------
  alpha Z        PSCENC =         4.25409774
  Ewald energy   TEWEN  =      -262.28548134
  -Hartree energ DENC   =        -2.45078079
  -exchange      EXHF   =         0.00000000
  -V(xc)+E(xc)   XCENC  =       -17.99022212
  PAW double counting   =        65.95520812      -30.76852678
  entropy T*S    EENTRO =        -0.02027173
  eigenvalues    EBANDS =        26.90779280
  atomic energy  EATOM  =       206.13125414
  Solvation  Ediel_sol  =         0.00000000
  ---------------------------------------------------
  free energy    TOTEN  =       -10.26692997 eV

  energy without entropy =      -10.24665823  energy(sigma->0) =      -10.25679410


--------------------------------------------------------------------------------------------------------




--------------------------------------- Iteration      1(   4)  ---------------------------------------


     EDDAV:  cpu time    0.9400: real time    0.9434
       DOS:  cpu time    0.0000: real time    0.0030
    --------------------------------------------
      LOOP:  cpu time    0.9360: real time    0.9464

 eigenvalue-minimisations  :  1344
 total energy-change (2. order) :-0.3737753E-03  (-0.3737678E-03)
 number of electron       8.0000000 magnetization 
 augmentation part        8.0000000 magnetization 

 Free energy of the ion-electron system (eV)
  ---------------------------------------------------
  alpha Z        PSCENC =         4.25409774
  Ewald energy   TEWEN  =      -262.28548134
  -Hartree energ DENC   =        -2.45078079
  -exchange      EXHF   =         0.00000000
  -V(xc)+E(xc)   XCENC  =       -17.99022212
  PAW double counting   =        65.95520812      -30.76852678
  entropy T*S    EENTRO =        -0.02026995
  eigenvalues    EBANDS =        26.90741725
  atomic energy  EATOM  =       206.13125414
  Solvation  Ediel_sol  =         0.00000000
  ---------------------------------------------------
  free energy    TOTEN  =       -10.26730374 eV

  energy without entropy =      -10.24703379  energy(sigma->0) =      -10.25716876


--------------------------------------------------------------------------------------------------------




--------------------------------------- Iteration      1(   5)  ---------------------------------------


     EDDAV:  cpu time    0.8520: real time    0.8547
       DOS:  cpu time    0.0040: real time    0.0033
    CHARGE:  cpu time    0.0560: real time    0.0560
    MIXING:  cpu time    0.0000: real time    0.0020
    --------------------------------------------
      LOOP:  cpu time    0.9120: real time    0.9160

 eigenvalue-minimisations  :  1216
 total energy-change (2. order) :-0.4622993E-06  (-0.4631545E-06)
 number of electron       7.9999994 magnetization 
 augmentation part       -0.4700658 magnetization 

 Broyden mixing:
  rms(total) = 0.15363E+00    rms(broyden)= 0.15362E+00
  rms(prec ) = 0.35148E+00
  weight for this iteration     100.00

 Free energy of the ion-electron system (eV)
  ---------------------------------------------------
  alpha Z        PSCENC =         4.25409774
  Ewald energy   TEWEN  =      -262.28548134
  -Hartree energ DENC   =        -2.45078079
  -exchange      EXHF   =         0.00000000
  -V(xc)+E(xc)   XCENC  =       -17.99022212
  PAW double counting   =        65.95520812      -30.76852678
  entropy T*S    EENTRO =        -0.02026998
  eigenvalues    EBANDS =        26.90741681
  atomic energy  EATOM  =       206.13125414
  Solvation  Ediel_sol  =         0.00000000
  ---------------------------------------------------
  free energy    TOTEN  =       -10.26730420 eV

  energy without entropy =      -10.24703422  energy(sigma->0) =      -10.25716921


--------------------------------------------------------------------------------------------------------




--------------------------------------- Iteration      1(   6)  ---------------------------------------


    POTLOK:  cpu time    0.0280: real time    0.0322
    SETDIJ:  cpu time    0.0080: real time    0.0089
     EDDAV:  cpu time    0.7760: real time    0.7769
       DOS:  cpu time    0.0040: real time    0.0033
    CHARGE:  cpu time    0.0520: real time    0.0545
    MIXING:  cpu time    0.0040: real time    0.0018
    --------------------------------------------
      LOOP:  cpu time    0.8720: real time    0.8775

 eigenvalue-minimisations  :  1120
 total energy-change (2. order) : 0.6282114E-02  (-0.3639478E-03)
 number of electron       7.9999994 magnetization 
 augmentation part       -0.4717525 magnetization 

 Broyden mixing:
  rms(total) = 0.95471E-01    rms(broyden)= 0.95471E-01
  rms(prec ) = 0.21802E+00
  weight for this iteration     100.00

 eigenvalues of (default mixing * dielectric matrix)
  average eigenvalue GAMMA=   2.6328
  2.6328

 Free energy of the ion-electron system (eV)
  ---------------------------------------------------
  alpha Z        PSCENC =         4.25409774
  Ewald energy   TEWEN  =      -262.28548134
  -Hartree energ DENC   =        -2.46642339
  -exchange      EXHF   =         0.00000000
  -V(xc)+E(xc)   XCENC  =       -17.91583307
  PAW double counting   =        67.39082010      -32.23302232
  entropy T*S    EENTRO =        -0.02031526
  eigenvalues    EBANDS =        26.88388131
  atomic energy  EATOM  =       206.13125414
  Solvation  Ediel_sol  =         0.00000000
  ---------------------------------------------------
  free energy    TOTEN  =       -10.26102209 eV

  energy without entropy =      -10.24070683  energy(sigma->0) =      -10.25086446


--------------------------------------------------------------------------------------------------------




--------------------------------------- Iteration      1(   7)  ---------------------------------------


    POTLOK:  cpu time    0.0240: real time    0.0312
    SETDIJ:  cpu time    0.0080: real time    0.0089
     EDDAV:  cpu time    0.7840: real time    0.7842
       DOS:  cpu time    0.0040: real time    0.0033
    CHARGE:  cpu time    0.0560: real time    0.0540
    MIXING:  cpu time    0.0000: real time    0.0018
    --------------------------------------------
      LOOP:  cpu time    0.8760: real time    0.8833

 eigenvalue-minimisations  :  1128
 total energy-change (2. order) : 0.4421757E-02  (-0.9505010E-03)
 number of electron       7.9999994 magnetization 
 augmentation part       -0.4749273 magnetization 

 Broyden mixing:
  rms(total) = 0.50341E-02    rms(broyden)= 0.50338E-02
  rms(prec ) = 0.14532E-01
  weight for this iteration     100.00

 eigenvalues of (default mixing * dielectric matrix)
  average eigenvalue GAMMA=   2.5646
  2.5646  2.5646

 Free energy of the ion-electron system (eV)
  ---------------------------------------------------
  alpha Z        PSCENC =         4.25409774
  Ewald energy   TEWEN  =      -262.28548134
  -Hartree energ DENC   =        -2.58990828
  -exchange      EXHF   =         0.00000000
  -V(xc)+E(xc)   XCENC  =       -17.77622700
  PAW double counting   =        69.62056181      -34.51141620
  entropy T*S    EENTRO =        -0.02035565
  eigenvalues    EBANDS =        26.92087445
  atomic energy  EATOM  =       206.13125414
  Solvation  Ediel_sol  =         0.00000000
  ---------------------------------------------------
  free energy    TOTEN  =       -10.25660033 eV

  energy without entropy =      -10.23624468  energy(sigma->0) =      -10.24642251


--------------------------------------------------------------------------------------------------------




--------------------------------------- Iteration      1(   8)  ---------------------------------------


    POTLOK:  cpu time    0.0240: real time    0.0327
    SETDIJ:  cpu time    0.0120: real time    0.0089
     EDDAV:  cpu time    0.4720: real time    0.4749
       DOS:  cpu time    0.0040: real time    0.0032
    --------------------------------------------
      LOOP:  cpu time    0.5120: real time    0.5197

 eigenvalue-minimisations  :   600
 total energy-change (2. order) : 0.5115287E-04  (-0.3795355E-04)
 number of electron       7.9999994 magnetization 
 augmentation part       -0.4749273 magnetization 

 Free energy of the ion-electron system (eV)
  ---------------------------------------------------
  alpha Z        PSCENC =         4.25409774
  Ewald energy   TEWEN  =      -262.28548134
  -Hartree energ DENC   =        -2.61042389
  -exchange      EXHF   =         0.00000000
  -V(xc)+E(xc)   XCENC  =       -17.77447180
  PAW double counting   =        69.49349167      -34.38662145
  entropy T*S    EENTRO =        -0.02034707
  eigenvalues    EBANDS =        26.94195281
  atomic energy  EATOM  =       206.13125414
  Solvation  Ediel_sol  =         0.00000000
  ---------------------------------------------------
  free energy    TOTEN  =       -10.25654918 eV

  energy without entropy =      -10.23620211  energy(sigma->0) =      -10.24637565


--------------------------------------------------------------------------------------------------------




 average (electrostatic) potential at core
  the test charge radii are     0.9892
  (the norm of the test charge is              1.0000)
       1 -80.9919       2 -80.9919
 
 
 
 E-fermi :   8.6624     XC(G=0): -10.7568     alpha+bet :-15.1549


 k-point     1 :       0.0625    0.0625    0.0625
  band No.  band energies     occupation 
      1      -4.2308      2.00000
      2       4.4158      2.00000
      3       6.6812      2.00000
      4       8.2008      1.99890
      5      11.8372      0.00000
      6      13.6896      0.00000
      7      14.2566      0.00000
      8      16.1213      0.00000

 k-point     2 :       0.1875    0.0625    0.0625
  band No.  band energies     occupation 
      1      -3.0151      2.00000
      2       4.1707      2.00000
      3       6.9798      2.00000
      4       9.1417      0.00070
      5      10.7955      0.00000
      6      10.9009      0.00000
      7      13.6627      0.00000
      8      14.4146      0.00000

 k-point     3 :       0.3125    0.0625    0.0625
  band No.  band energies     occupation 
      1      -1.0192      2.00000
      2       4.4656      2.00000
      3       5.5450      2.00000
      4       7.2499      2.00000
      5       8.5975      1.35394
      6      11.7260      0.00000
      7      13.1679      0.00000
      8      13.5636      0.00000

 k-point     4 :       0.4375    0.0625    0.0625
  band No.  band energies     occupation 
      1       1.3115      2.00000
      2       2.2306      2.00000
      3       5.7660      2.00000
      4       6.1593      2.00000
      5       8.4803      1.80230
      6      10.5640      0.00000
      7      13.0797      0.00000
      8      14.0250      0.00000

 k-point     5 :      -0.0625    0.0625    0.0625
  band No.  band energies     occupation 
      1      -4.6385      2.00000
      2       5.0204      2.00000
      3       5.8766      2.00000
      4       7.8691      2.00000
      5      10.9710      0.00000
      6      14.8414      0.00000
      7      17.3101      0.00000
      8      17.4082      0.00000

 k-point     6 :       0.1875    0.1875    0.0625
  band No.  band energies     occupation 
      1      -1.2020      2.00000
      2       4.4569      2.00000
      3       6.4256      2.00000
      4       6.6205      2.00000
      5       9.5675      0.00000
      6      11.5554      0.00000
      7      12.8585      0.00000
      8      13.0505      0.00000

 k-point     7 :       0.3125    0.1875    0.0625
  band No.  band energies     occupation 
      1       1.2589      2.00000
      2       2.9577      2.00000
      3       4.3035      2.00000
      4       5.7788      2.00000
      5       9.8221      0.00000
      6      11.5583      0.00000
      7      12.5802      0.00000
      8      14.6160      0.00000

 k-point     8 :       0.4375    0.1875    0.0625
  band No.  band energies     occupation 
      1      -0.1056      2.00000
      2       2.7260      2.00000
      3       4.9049      2.00000
      4       7.2528      2.00000
      5       9.0688      0.00406
      6      11.7265      0.00000
      7      13.6449      0.00000
      8      14.5234      0.00000

 k-point     9 :      -0.4375    0.1875    0.0625
  band No.  band energies     occupation 
      1      -2.2675      2.00000
      2       2.1072      2.00000
      3       7.5234      2.00000
      4       8.8019      0.32416
      5      10.3280      0.00000
      6      11.4503      0.00000
      7      12.6605      0.00000
      8      14.9980      0.00000

 k-point    10 :      -0.3125    0.1875    0.0625
  band No.  band energies     occupation 
      1      -3.6651      2.00000
      2       2.1964      2.00000
      3       7.1878      2.00000
      4       9.1251      0.00107
      5      12.1156      0.00000
      6      13.6278      0.00000
      7      14.1805      0.00000
      8      14.8006      0.00000

 k-point    11 :      -0.1875    0.1875    0.0625
  band No.  band energies     occupation 
      1      -4.2603      2.00000
      2       3.0085      2.00000
      3       5.9927      2.00000
      4       9.1048      0.00176
      5      12.7701      0.00000
      6      12.9336      0.00000
      7      15.8484      0.00000
      8      17.1946      0.00000

 k-point    12 :      -0.0625    0.1875    0.0625
  band No.  band energies     occupation 
      1      -4.0422      2.00000
      2       4.1330      2.00000
      3       5.3607      2.00000
      4       9.6849      0.00000
      5      12.5613      0.00000
      6      12.6796      0.00000
      7      13.7205      0.00000
      8      15.6945      0.00000

 k-point    13 :       0.3125    0.3125    0.0625
  band No.  band energies     occupation 
      1       1.1214      2.00000
      2       1.1888      2.00000
      3       4.7127      2.00000
      4       7.1954      2.00000
      5       9.8083      0.00000
      6      10.6333      0.00000
      7      14.6695      0.00000
      8      15.5196      0.00000

 k-point    14 :       0.4375    0.3125    0.0625
  band No.  band energies     occupation 
      1      -1.1544      2.00000
      2       0.3119      2.00000
      3       8.0487      1.99999
      4       8.6592      1.01809
      5       9.9801      0.00000
      6      11.3704      0.00000
      7      12.4672      0.00000
      8      13.8578      0.00000

 k-point    15 :      -0.4375    0.3125    0.0625
  band No.  band energies     occupation 
      1      -2.7272      2.00000
      2       0.2253      2.00000
      3       8.0235      1.99999
      4      10.0897      0.00000
      5      10.6075      0.00000
      6      12.6922      0.00000
      7      13.7308      0.00000
      8      13.8213      0.00000

 k-point    16 :      -0.3125    0.3125    0.0625
  band No.  band energies     occupation 
      1      -3.5068      2.00000
      2       0.9114      2.00000
      3       6.6763      2.00000
      4      10.0434      0.00000
      5      10.7980      0.00000
      6      14.1296      0.00000
      7      15.8330      0.00000
      8      16.8881      0.00000

 k-point    17 :      -0.1875    0.3125    0.0625
  band No.  band energies     occupation 
      1      -3.4779      2.00000
      2       2.3204      2.00000
      3       5.4802      2.00000
      4      10.6394      0.00000
      5      11.0338      0.00000
      6      12.9398      0.00000
      7      14.7133      0.00000
      8      15.6128      0.00000

 k-point    18 :      -0.0625    0.3125    0.0625
  band No.  band energies     occupation 
      1      -2.6417      2.00000
      2       3.9949      2.00000
      3       5.3677      2.00000
      4       8.4444      1.87693
      5      11.0731      0.00000
      6      12.6162      0.00000
      7      13.2750      0.00000
      8      13.6470      0.00000

 k-point    19 :       0.4375    0.4375    0.0625
  band No.  band energies     occupation 
      1      -1.4255      2.00000
      2      -1.4255      2.00000
      3       9.1673      0.00036
      4       9.1673      0.00036
      5      11.3400      0.00000
      6      11.3400      0.00000
      7      13.5362      0.00000
      8      13.5362      0.00000

 k-point    20 :      -0.4375    0.4375    0.0625
  band No.  band energies     occupation 
      1      -2.3845      2.00000
      2      -0.9045      2.00000
      3       7.7189      2.00000
      4       9.0999      0.00198
      5      11.1549      0.00000
      6      12.5268      0.00000
      7      16.5940      0.00000
      8      16.6919      0.00000

 k-point    21 :      -0.3125    0.4375    0.0625
  band No.  band energies     occupation 
      1      -2.5427      2.00000
      2       0.3925      2.00000
      3       6.3128      2.00000
      4       9.0413      0.00738
      5      11.3902      0.00000
      6      12.8628      0.00000
      7      14.8005      0.00000
      8      15.3236      0.00000

 k-point    22 :      -0.1875    0.4375    0.0625
  band No.  band energies     occupation 
      1      -1.8984      2.00000
      2       2.3909      2.00000
      3       5.5727      2.00000
      4       7.8059      2.00000
      5       9.6648      0.00000
      6      12.4763      0.00000
      7      13.9696      0.00000
      8      15.3079      0.00000

 k-point    23 :      -0.0625    0.4375    0.0625
  band No.  band energies     occupation 
      1      -0.4738      2.00000
      2       4.0410      2.00000
      3       5.1948      2.00000
      4       5.9842      2.00000
      5       9.1284      0.00099
      6      11.5447      0.00000
      7      11.8553      0.00000
      8      15.1395      0.00000

 k-point    24 :      -0.4375   -0.4375    0.0625
  band No.  band energies     occupation 
      1      -1.2495      2.00000
      2      -1.2429      2.00000
      3       7.5103      2.00000
      4       7.5244      2.00000
      5      11.4814      0.00000
      6      13.3696      0.00000
      7      14.2081      0.00000
      8      14.8099      0.00000

 k-point    25 :      -0.3125   -0.4375    0.0625
  band No.  band energies     occupation 
      1      -0.7937      2.00000
      2       0.6545      2.00000
      3       6.4696      2.00000
      4       7.3853      2.00000
      5       8.2479      1.99663
      6      12.1289      0.00000
      7      15.0633      0.00000
      8      16.3660      0.00000

 k-point    26 :      -0.1875   -0.4375    0.0625
  band No.  band energies     occupation 
      1       0.4227      2.00000
      2       3.0381      2.00000
      3       4.2068      2.00000
      4       6.4163      2.00000
      5       8.6417      1.11678
      6      10.5741      0.00000
      7      13.0772      0.00000
      8      16.4500      0.00000

 k-point    27 :      -0.0625   -0.4375    0.0625
  band No.  band energies     occupation 
      1       0.9077      2.00000
      2       2.6355      2.00000
      3       6.2189      2.00000
      4       6.9515      2.00000
      5       7.5662      2.00000
      6      10.1806      0.00000
      7      11.6148      0.00000
      8      15.3569      0.00000

 k-point    28 :      -0.3125   -0.3125    0.0625
  band No.  band energies     occupation 
      1       1.5548      2.00000
      2       1.7315      2.00000
      3       3.9075      2.00000
      4       7.2868      2.00000
      5       7.6942      2.00000
      6      10.1973      0.00000
      7      14.9271      0.00000
      8      15.5904      0.00000

 k-point    29 :      -0.1875   -0.3125    0.0625
  band No.  band energies     occupation 
      1       0.5953      2.00000
      2       3.6323      2.00000
      3       4.9722      2.00000
      4       7.1463      2.00000
      5       8.2540      1.99613
      6      10.0616      0.00000
      7      11.6528      0.00000
      8      14.0506      0.00000

 k-point    30 :      -0.0625   -0.3125    0.0625
  band No.  band energies     occupation 
      1      -1.5719      2.00000
      2       5.8107      2.00000
      3       6.8219      2.00000
      4       7.1924      2.00000
      5       8.4259      1.90554
      6      10.9094      0.00000
      7      11.6279      0.00000
      8      13.3050      0.00000

 k-point    31 :      -0.1875   -0.1875    0.0625
  band No.  band energies     occupation 
      1      -1.7568      2.00000
      2       6.4407      2.00000
      3       7.1088      2.00000
      4       7.4065      2.00000
      5       8.7638      0.47370
      6      10.4129      0.00000
      7      11.6061      0.00000
      8      11.8289      0.00000

 k-point    32 :      -0.0625   -0.1875    0.0625
  band No.  band energies     occupation 
      1      -3.3904      2.00000
      2       6.1286      2.00000
      3       6.8761      2.00000
      4       8.7242      0.66214
      5      10.8511      0.00000
      6      11.2804      0.00000
      7      12.0800      0.00000
      8      13.8180      0.00000

 k-point    33 :      -0.0625   -0.0625    0.0625
  band No.  band energies     occupation 
      1      -4.4199      2.00000
      2       6.5116      2.00000
      3       6.5116      2.00000
      4       6.7790      2.00000
      5      10.7263      0.00000
      6      14.4834      0.00000
      7      14.5997      0.00000
      8      16.4777      0.00000

 k-point    34 :       0.1875    0.1875    0.1875
  band No.  band energies     occupation 
      1      -0.2839      2.00000
      2       2.5844      2.00000
      3       5.9953      2.00000
      4       6.0853      2.00000
      5      10.5598      0.00000
      6      12.3988      0.00000
      7      13.6261      0.00000
      8      14.0655      0.00000

 k-point    35 :       0.3125    0.1875    0.1875
  band No.  band energies     occupation 
      1       2.0174      2.00000
      2       2.7656      2.00000
      3       3.7950      2.00000
      4       4.4452      2.00000
      5      11.4827      0.00000
      6      13.4022      0.00000
      7      13.7082      0.00000
      8      13.8903      0.00000

 k-point    36 :      -0.1875    0.1875    0.1875
  band No.  band energies     occupation 
      1      -3.8839      2.00000
      2       2.8297      2.00000
      3       4.2567      2.00000
      4      10.6498      0.00000
      5      11.2258      0.00000
      6      14.0072      0.00000
      7      16.2434      0.00000
      8      16.7577      0.00000

 k-point    37 :       0.3125    0.3125    0.1875
  band No.  band energies     occupation 
      1       0.9861      2.00000
      2       0.9861      2.00000
      3       5.8753      2.00000
      4       5.8753      2.00000
      5      11.8094      0.00000
      6      11.8094      0.00000
      7      13.6105      0.00000
      8      13.6105      0.00000

 k-point    38 :      -0.3125    0.3125    0.1875
  band No.  band energies     occupation 
      1      -3.1345      2.00000
      2       1.2001      2.00000
      3       4.4755      2.00000
      4       8.6223      1.22322
      5      12.5646      0.00000
      6      15.4753      0.00000
      7      16.0753      0.00000
      8      16.8539      0.00000

 k-point    39 :      -0.1875    0.3125    0.1875
  band No.  band energies     occupation 
      1      -2.9181      2.00000
      2       2.2945      2.00000
      3       3.8118      2.00000
      4       8.7776      0.41544
      5      11.3747      0.00000
      6      14.0005      0.00000
      7      16.0215      0.00000
      8      16.3266      0.00000

 k-point    40 :      -0.4375    0.4375    0.1875
  band No.  band energies     occupation 
      1      -2.0201      2.00000
      2      -0.5579      2.00000
      3       5.4832      2.00000
      4       6.8831      2.00000
      5      13.6115      0.00000
      6      14.6121      0.00000
      7      16.1666      0.00000
      8      16.5489      0.00000

 k-point    41 :      -0.3125    0.4375    0.1875
  band No.  band energies     occupation 
      1      -1.9923      2.00000
      2       0.8569      2.00000
      3       4.1717      2.00000
      4       6.9072      2.00000
      5      11.0134      0.00000
      6      15.3152      0.00000
      7      16.3793      0.00000
      8      17.8263      0.00000

 k-point    42 :      -0.1875    0.4375    0.1875
  band No.  band energies     occupation 
      1      -1.1654      2.00000
      2       2.5269      2.00000
      3       4.0866      2.00000
      4       6.9998      2.00000
      5       7.9102      2.00000
      6      13.7167      0.00000
      7      15.1333      0.00000
      8      16.4612      0.00000

 k-point    43 :      -0.4375   -0.4375    0.1875
  band No.  band energies     occupation 
      1      -0.7236      2.00000
      2      -0.7095      2.00000
      3       5.3342      2.00000
      4       5.3568      2.00000
      5      10.8688      0.00000
      6      15.9829      0.00000
      7      16.6519      0.00000
      8      16.9627      0.00000

 k-point    44 :      -0.3125   -0.4375    0.1875
  band No.  band energies     occupation 
      1      -0.0842      2.00000
      2       1.2934      2.00000
      3       4.5840      2.00000
      4       5.8465      2.00000
      5       7.0364      2.00000
      6      13.9016      0.00000
      7      16.6607      0.00000
      8      17.6981      0.00000

 k-point    45 :      -0.1875   -0.4375    0.1875
  band No.  band energies     occupation 
      1       1.2671      2.00000
      2       2.9921      2.00000
      3       4.1600      2.00000
      4       5.0717      2.00000
      5       7.2581      2.00000
      6      11.6846      0.00000
      7      13.0181      0.00000
      8      16.6223      0.00000

 k-point    46 :      -0.3125   -0.3125    0.1875
  band No.  band energies     occupation 
      1       2.1019      2.00000
      2       2.5737      2.00000
      3       3.6431      2.00000
      4       5.7608      2.00000
      5       5.8771      2.00000
      6      11.9331      0.00000
      7      14.3934      0.00000
      8      15.1968      0.00000

 k-point    47 :      -0.1875   -0.3125    0.1875
  band No.  band energies     occupation 
      1       0.2485      2.00000
      2       4.6262      2.00000
      3       5.5532      2.00000
      4       6.6260      2.00000
      5       7.4236      2.00000
      6      10.4383      0.00000
      7      11.5070      0.00000
      8      12.9905      0.00000

 k-point    48 :      -0.1875   -0.1875    0.1875
  band No.  band energies     occupation 
      1      -1.9423      2.00000
      2       7.7926      2.00000
      3       7.7926      2.00000
      4       7.8886      2.00000
      5       8.1044      1.99992
      6       9.3844      0.00000
      7      11.3267      0.00000
      8      11.3267      0.00000

 k-point    49 :      -0.3125    0.3125    0.3125
  band No.  band energies     occupation 
      1      -2.3950      2.00000
      2       1.3403      2.00000
      3       2.9338      2.00000
      4       6.5598      2.00000
      5      14.2240      0.00000
      6      15.1051      0.00000
      7      16.6633      0.00000
      8      18.0932      0.00000

 k-point    50 :      -0.4375    0.4375    0.3125
  band No.  band energies     occupation 
      1      -1.3030      2.00000
      2       0.0893      2.00000
      3       3.4532      2.00000
      4       4.8094      2.00000
      5      14.5552      0.00000
      6      14.7427      0.00000
      7      17.6435      0.00000
      8      18.7125      0.00000

 k-point    51 :      -0.3125    0.4375    0.3125
  band No.  band energies     occupation 
      1      -1.0894      2.00000
      2       1.1737      2.00000
      3       2.7972      2.00000
      4       5.0068      2.00000
      5      10.5596      0.00000
      6      17.4718      0.00000
      7      17.8337      0.00000
      8      18.8477      0.00000

 k-point    52 :      -0.4375   -0.4375    0.3125
  band No.  band energies     occupation 
      1       0.1020      2.00000
      2       0.1265      2.00000
      3       3.4753      2.00000
      4       3.4903      2.00000
      5      10.3991      0.00000
      6      17.7141      0.00000
      7      18.9991      0.00000
      8      19.5624      0.00000

 k-point    53 :      -0.3125   -0.4375    0.3125
  band No.  band energies     occupation 
      1       0.9209      2.00000
      2       1.7853      2.00000
      3       3.4117      2.00000
      4       4.2459      2.00000
      5       6.6054      2.00000
      6      15.5676      0.00000
      7      16.8014      0.00000
      8      17.9746      0.00000

 k-point    54 :      -0.3125   -0.3125    0.3125
  band No.  band energies     occupation 
      1       2.3166      2.00000
      2       3.2863      2.00000
      3       4.0393      2.00000
      4       4.7498      2.00000
      5       4.7498      2.00000
      6      13.6477      0.00000
      7      14.2122      0.00000
      8      14.2122      0.00000

 k-point    55 :      -0.4375    0.4375    0.4375
  band No.  band energies     occupation 
      1      -0.2842      2.00000
      2       0.5873      2.00000
      3       2.2446      2.00000
      4       3.1043      2.00000
      5      14.4562      0.00000
      6      14.4939      0.00000
      7      19.8824      0.00000
      8      20.6479      0.00000

 k-point    56 :      -0.4375   -0.4375    0.4375
  band No.  band energies     occupation 
      1       0.7774      2.00000
      2       0.8170      2.00000
      3       2.4515      2.00000
      4       2.4515      2.00000
      5      10.2357      0.00000
      6      18.2267      0.00000
      7      20.1644      0.00000
      8      20.2034      0.00000


--------------------------------------------------------------------------------------------------------


 soft charge-density along one line, spin component           1
         0         1         2         3         4         5         6         7         8         9
 total charge-density along one line
 
 pseudopotential strength for first ion, spin component:           1
 18.112  -0.002   0.000  -0.000  -0.000  -0.000   0.000   0.000
 -0.002   0.005  -0.000   0.000   0.000   0.000  -0.000  -0.000
  0.000  -0.000   4.122   0.000   0.000  -0.006  -0.000  -0.000
 -0.000   0.000   0.000   4.123   0.000  -0.000  -0.006  -0.000
 -0.000   0.000   0.000   0.000   4.122  -0.000  -0.000  -0.006
 -0.000   0.000  -0.006  -0.000  -0.000   0.005   0.000   0.000
  0.000  -0.000  -0.000  -0.006  -0.000   0.000   0.005   0.000
  0.000  -0.000  -0.000  -0.000  -0.006   0.000   0.000   0.005
 total augmentation occupancy for first ion, spin component:           1
  1.626  -0.430   0.000   0.000  -0.000   0.000   0.000   0.000
 -0.430   0.832   0.000   0.000   0.000   0.000   0.000   0.000
  0.000   0.000   0.888   0.000   0.000  -0.468   0.000   0.000
  0.000   0.000   0.000   0.830   0.000   0.000  -0.428   0.000
 -0.000   0.000   0.000   0.000   0.888   0.000   0.000  -0.468
  0.000   0.000  -0.468  -0.000   0.000   0.322   0.000   0.000
  0.000   0.000   0.000  -0.428   0.000   0.000   0.297   0.000
  0.000   0.000   0.000   0.000  -0.468   0.000   0.000   0.322


------------------------ aborting loop because EDIFF is reached ----------------------------------------


    CHARGE:  cpu time    0.0560: real time    0.0541
    FORLOC:  cpu time    0.0000: real time    0.0009
    FORNL :  cpu time    0.0200: real time    0.0203
    STRESS:  cpu time    0.2000: real time    0.1985
    FORCOR:  cpu time    0.0200: real time    0.0207
    FORHAR:  cpu time    0.0040: real time    0.0079
    MIXING:  cpu time    0.0000: real time    0.0014
    OFIELD:  cpu time    0.0040: real time    0.0005

  FORCE on cell =-STRESS in cart. coord.  units (eV):
  Direction    XX          YY          ZZ          XY          YZ          ZX
  --------------------------------------------------------------------------------------
  Alpha Z     4.25410     4.25410     4.25410
  Ewald     -86.83972   -86.83972   -88.60626    -0.00000     0.00000    -0.00000
  Hartree     0.82428     0.82428     0.96602    -0.00000    -0.00000    -0.00000
  E(xc)     -25.22663   -25.22663   -25.09076    -0.00000     0.00000     0.00000
  Local     -14.91713   -14.91713   -11.34290    -0.00002    -0.00002    -0.00002
  n-local    77.18416    77.29036    74.89598     1.19223    -0.38808    -0.48527
  augment   -12.14803   -12.14803   -11.98765     0.00002     0.00002     0.00002
  Kinetic    54.44021    57.34556    56.92750     2.55929    -1.81144    -1.62976
  Fock        0.00000     0.00000     0.00000     0.00000     0.00000     0.00000
  -------------------------------------------------------------------------------------
  Total      -0.92298    -0.92298     0.01602     0.00000     0.00000     0.00000
  in kB     -46.71921   -46.71921     0.81077     0.00000     0.00000     0.00000
  external pressure =      -30.88 kB  Pullay stress =        0.00 kB


 VOLUME and BASIS-vectors are now :
 -----------------------------------------------------------------------------
  energy-cutoff  :      350.00
  volume of cell :       31.65
      direct lattice vectors                 reciprocal lattice vectors
    -2.431042000  2.431042000  1.338941000     0.000000000  0.205673123  0.373429449
     2.431042000 -2.431042000  1.338941000     0.205673123  0.000000000  0.373429449
     2.431042000  2.431042000 -1.338941000     0.205673123  0.205673123 -0.000000000

  length of vectors
     3.689538374  3.689538374  3.689538374     0.426322632  0.426322632  0.290865720


 FORCES acting on ions
    electron-ion (+dipol)            ewald-force                    non-local-force                 convergence-correction
 -----------------------------------------------------------------------------------------------
   -.171E-06 0.171E-06 0.128E-13   -.187E-13 0.346E-14 -.488E-14   0.932E-16 -.733E-16 -.117E-16   -.281E-08 0.281E-08 0.183E-15
   0.171E-06 -.171E-06 -.459E-13   0.186E-13 -.341E-14 0.547E-14   -.114E-15 0.875E-16 0.306E-16   0.281E-08 -.281E-08 0.160E-15
 -----------------------------------------------------------------------------------------------
   -.203E-13 0.201E-13 -.332E-13   -.591E-16 0.528E-16 0.591E-15   -.205E-16 0.142E-16 0.188E-16   0.156E-15 -.253E-16 0.343E-15
 
 
 POSITION                                       TOTAL-FORCE (eV/Angst)
 -----------------------------------------------------------------------------------
      0.00000      2.43104      0.66947         0.000000      0.000000     -0.000000
      0.00000      0.00000      1.33894        -0.000000     -0.000000      0.000000
 -----------------------------------------------------------------------------------
    total drift:                               -0.000000      0.000000     -0.000000


--------------------------------------------------------------------------------------------------------



  FREE ENERGIE OF THE ION-ELECTRON SYSTEM (eV)
  ---------------------------------------------------
  free  energy   TOTEN  =       -10.25654918 eV

  energy  without entropy=      -10.23620211  energy(sigma->0) =      -10.24637565
 


--------------------------------------------------------------------------------------------------------


    POTLOK:  cpu time    0.0360: real time    0.0670


--------------------------------------------------------------------------------------------------------




--------------------------------------------------------------------------------------------------------


  
 reached required accuracy - stopping structural energy minimisation
 writing wavefunctions
     LOOP+:  cpu time    7.9160: real time    9.4114
    4ORBIT:  cpu time    0.0000: real time    0.0000

 total amount of memory used by VASP MPI-rank0    33029. kBytes
=======================================================================

   base      :      30000. kBytes
   nonl-proj :       1764. kBytes
   fftplans  :        247. kBytes
   grid      :        561. kBytes
   one-center:          6. kBytes
   wavefun   :        451. kBytes
 
  
  
 General timing and accounting informations for this job:
 ========================================================
  
                  Total CPU time used (sec):       11.648
                            User time (sec):        9.908
                          System time (sec):        1.740
                         Elapsed time (sec):       14.395
  
                   Maximum memory used (kb):        9744.
                   Average memory used (kb):           0.
  
                          Minor page faults:        38202
                          Major page faults:           20
                 Voluntary context switches:        39169
