unknown system                          
           1
    -2.431042    2.431042    1.338941
     2.431042   -2.431042    1.338941
     2.431042    2.431042   -1.338941
   Si
   2
Direct configuration=     1
   0.75000000  0.25000000  0.50000000
   0.50000000  0.50000000  0.00000000
