    2    2   15    1
  0.1529437E+02  0.3691622E-09  0.3691622E-09  0.3691622E-09  0.5000000E-15
  1.000000000000000E-004
  CAR 
 unknown system                          
      8     18      8
 
  0.0000000E+00  0.0000000E+00  0.0000000E+00  0.8000000E-02
    1       -4.616564   1.000000
    2        6.198533   1.000000
    3        6.306779   1.000000
    4        6.306808   1.000000
    5       10.657731   0.000000
    6       17.074489   0.000000
    7       17.377755   0.000000
    8       17.377791   0.000000
 
  0.2000000E+00  0.1244391E-16 -0.1244391E-16  0.6400000E-01
    1       -3.489387   1.000000
    2        5.034654   1.000000
    3        6.297430   1.000000
    4        9.333284   0.164780
    5       12.759445   0.000000
    6       12.878405   0.000000
    7       13.486612   0.000000
    8       15.555347   0.000000
 
  0.4000000E+00  0.2488782E-16 -0.2488782E-16  0.6400000E-01
    1       -0.154594   1.000000
    2        5.188560   1.000000
    3        6.023874   1.000000
    4        7.280629   1.000000
    5        8.979211   0.936827
    6       11.496248   0.000000
    7       13.701886   0.000000
    8       14.371927   0.000000
 
  0.2000000E+00  0.2000000E+00 -0.2488782E-16  0.6400000E-01
    1       -0.617994   1.000000
    2        6.012858   1.000000
    3        6.912090   1.000000
    4        6.958931   1.000000
    5        9.778901   0.000018
    6       11.888201   0.000000
    7       12.512892   0.000000
    8       12.785051   0.000000
 
  0.4000000E+00  0.2000000E+00 -0.9576153E-17  0.1280000E+00
    1        1.217514   1.000000
    2        3.401779   1.000000
    3        4.487451   1.000000
    4        7.730114   1.000000
    5        9.088708   0.774697
    6       11.099512   0.000000
    7       13.963502   0.000000
    8       16.316532   0.000000
 
 -0.4000000E+00  0.2000000E+00  0.2251918E-16  0.1280000E+00
    1       -2.544849   1.000000
    2        2.039699   1.000000
    3        6.769413   1.000000
    4       10.486774   0.000000
    5       11.150937   0.000000
    6       12.350599   0.000000
    7       14.053553   0.000000
    8       15.964389   0.000000
 
 -0.2000000E+00  0.2000000E+00  0.2101777E-17  0.3200000E-01
    1       -4.140412   1.000000
    2        2.749201   1.000000
    3        6.752948   1.000000
    4        8.398499   1.000000
    5       13.281829   0.000000
    6       13.389937   0.000000
    7       15.087493   0.000000
    8       19.290778   0.000000
 
  0.4000000E+00  0.4000000E+00 -0.4977564E-16  0.6400000E-01
    1       -0.679527   1.000000
    2       -0.676243   1.000000
    3        8.455983   1.000000
    4        8.523881   0.999999
    5       10.736747   0.000000
    6       13.279496   0.000000
    7       13.661349   0.000000
    8       14.116119   0.000000
 
 -0.4000000E+00  0.4000000E+00  0.4203554E-17  0.3200000E-01
    1       -2.721392   1.000000
    2       -0.393553   1.000000
    3        8.091206   1.000000
    4        9.997204   0.000000
    5       10.319049   0.000000
    6       12.238570   0.000000
    7       18.273648   0.000000
    8       18.833037   0.000000
 
  0.2000000E+00  0.2000000E+00  0.2000000E+00  0.6400000E-01
    1        0.770601   1.000000
    2        3.035915   1.000000
    3        6.141985   1.000000
    4        6.164744   1.000000
    5       11.419842   0.000000
    6       13.127676   0.000000
    7       14.075802   0.000000
    8       14.513779   0.000000
 
 -0.2000000E+00  0.2000000E+00  0.2000000E+00  0.3200000E-01
    1       -3.667210   1.000000
    2        2.584757   1.000000
    3        4.212606   1.000000
    4       10.285668   0.000000
    5       11.486308   0.000000
    6       14.613702   0.000000
    7       17.782820   0.000000
    8       18.170875   0.000000
 
 -0.4000000E+00  0.4000000E+00  0.2000000E+00  0.6400000E-01
    1       -2.260012   1.000000
    2        0.022998   1.000000
    3        4.970943   1.000000
    4        7.188436   1.000000
    5       13.661178   0.000000
    6       15.727776   0.000000
    7       17.905217   0.000000
    8       18.132471   0.000000
 
 -0.2000000E+00  0.4000000E+00  0.2000000E+00  0.6400000E-01
    1       -1.615552   1.000000
    2        2.272275   1.000000
    3        4.000360   1.000000
    4        7.761842   1.000000
    5       10.043878   0.000000
    6       15.553945   0.000000
    7       16.328744   0.000000
    8       17.348567   0.000000
 
 -0.4000000E+00 -0.4000000E+00  0.2000000E+00  0.6400000E-01
    1        0.187597   1.000000
    2        0.198917   1.000000
    3        5.150891   1.000000
    4        5.150959   1.000000
    5        9.645166   0.000736
    6       16.273269   0.000000
    7       17.703562   0.000000
    8       18.527857   0.000000
 
 -0.2000000E+00 -0.4000000E+00  0.2000000E+00  0.6400000E-01
    1        2.477951   1.000000
    2        3.440793   1.000000
    3        4.307647   1.000000
    4        5.816637   1.000000
    5        7.333920   1.000000
    6       12.178104   0.000000
    7       13.611697   0.000000
    8       16.233954   0.000000
 
 -0.2000000E+00 -0.2000000E+00  0.2000000E+00  0.1600000E-01
    1       -1.085215   1.000000
    2        7.794531   1.000000
    3        8.127073   1.000000
    4        8.464707   1.000000
    5        8.464738   1.000000
    6       10.093689   0.000000
    7       11.696154   0.000000
    8       11.696186   0.000000
 
 -0.4000000E+00  0.4000000E+00  0.4000000E+00  0.3200000E-01
    1       -0.915108   1.000000
    2        0.700721   1.000000
    3        2.513160   1.000000
    4        4.103474   1.000000
    5       16.236745   0.000000
    6       16.569125   0.000000
    7       19.023226   0.000000
    8       20.325746   0.000000
 
 -0.4000000E+00 -0.4000000E+00  0.4000000E+00  0.1600000E-01
    1        1.322269   1.000000
    2        1.344633   1.000000
    3        3.136400   1.000000
    4        3.136407   1.000000
    5        9.233802   0.392981
    6       18.466501   0.000000
    7       19.725978   0.000000
    8       19.725992   0.000000
