<?xml version="1.0" encoding="ISO-8859-1"?>
<modeling>
 <generator>
  <i name="program" type="string">vasp </i>
  <i name="version" type="string">5.4.4.18Apr17-6-g9f103f2a35  </i>
  <i name="subversion" type="string">(build Dec 09 2018 21:25:21) complex            parallel </i>
  <i name="platform" type="string">IFC18.0.1.163_CrayMPICH7.7.0_MKL18.0.1.163 </i>
  <i name="date" type="string">2019 03 19 </i>
  <i name="time" type="string">13:03:25 </i>
 </generator>
 <incar>
  <i type="string" name="PREC">normal</i>
  <i type="int" name="IBRION">     2</i>
  <i name="EDIFF">      0.00040000</i>
  <i name="EDIFFG">     -0.01000000</i>
  <i type="int" name="NSW">    15</i>
  <i type="int" name="ISIF">     2</i>
  <i name="ENCUT">    150.00000000</i>
  <i type="int" name="NBANDS">     8</i>
  <i type="logical" name="LREAL"> F  </i>
  <i type="int" name="ISMEAR">     0</i>
  <i name="SIGMA">      0.20000000</i>
  <v type="int" name="KPOINT_BSE">    -1     0     0     0</v>
 </incar>
 <structure name="primitive_cell" >
  <crystal>
   <varray name="basis" >
    <v>      -2.45000000       2.45000000       1.27400000 </v>
    <v>       2.45000000      -2.45000000       1.27400000 </v>
    <v>       2.45000000       2.45000000      -1.27400000 </v>
   </varray>
   <i name="volume">     30.58874000 </i>
   <varray name="rec_basis" >
    <v>       0.00000000       0.20408163       0.39246468 </v>
    <v>       0.20408163       0.00000000       0.39246468 </v>
    <v>       0.20408163       0.20408163      -0.00000000 </v>
   </varray>
  </crystal>
  <varray name="positions" >
   <v>       0.25000000      -0.25000000      -0.50000000 </v>
   <v>       0.00000000       0.00000000       0.00000000 </v>
  </varray>
 </structure>
 <varray name="primitive_index" >
  <v type="int" >        1 </v>
  <v type="int" >        2 </v>
 </varray>
 <kpoints>
  <generation param="Monkhorst-Pack">
   <v type="int" name="divisions">       5        5        5 </v>
   <v name="usershift">      0.00000000       0.00000000       0.00000000 </v>
   <v name="genvec1">      0.20000000       0.00000000      -0.00000000 </v>
   <v name="genvec2">      0.00000000       0.20000000      -0.00000000 </v>
   <v name="genvec3">      0.00000000      -0.00000000       0.20000000 </v>
   <v name="shift">      0.00000000       0.00000000       0.00000000 </v>
  </generation>
  <varray name="kpointlist" >
   <v>       0.00000000       0.00000000       0.00000000 </v>
   <v>       0.20000000       0.00000000      -0.00000000 </v>
   <v>       0.40000000       0.00000000      -0.00000000 </v>
   <v>       0.20000000       0.20000000      -0.00000000 </v>
   <v>       0.40000000       0.20000000      -0.00000000 </v>
   <v>      -0.40000000       0.20000000       0.00000000 </v>
   <v>      -0.20000000       0.20000000       0.00000000 </v>
   <v>       0.40000000       0.40000000      -0.00000000 </v>
   <v>      -0.40000000       0.40000000       0.00000000 </v>
   <v>       0.20000000       0.20000000       0.20000000 </v>
   <v>      -0.20000000       0.20000000       0.20000000 </v>
   <v>      -0.40000000       0.40000000       0.20000000 </v>
   <v>      -0.20000000       0.40000000       0.20000000 </v>
   <v>      -0.40000000      -0.40000000       0.20000000 </v>
   <v>      -0.20000000      -0.40000000       0.20000000 </v>
   <v>      -0.20000000      -0.20000000       0.20000000 </v>
   <v>      -0.40000000       0.40000000       0.40000000 </v>
   <v>      -0.40000000      -0.40000000       0.40000000 </v>
  </varray>
  <varray name="weights" >
   <v>       0.00800000 </v>
   <v>       0.06400000 </v>
   <v>       0.06400000 </v>
   <v>       0.06400000 </v>
   <v>       0.12800000 </v>
   <v>       0.12800000 </v>
   <v>       0.03200000 </v>
   <v>       0.06400000 </v>
   <v>       0.03200000 </v>
   <v>       0.06400000 </v>
   <v>       0.03200000 </v>
   <v>       0.06400000 </v>
   <v>       0.06400000 </v>
   <v>       0.06400000 </v>
   <v>       0.06400000 </v>
   <v>       0.01600000 </v>
   <v>       0.03200000 </v>
   <v>       0.01600000 </v>
  </varray>
 </kpoints>
 <parameters>
  <separator name="general" >
   <i type="string" name="SYSTEM">unknown system</i>
   <i type="logical" name="LCOMPAT"> F  </i>
  </separator>
  <separator name="electronic" >
   <i type="string" name="PREC">normal</i>
   <i name="ENMAX">    150.00000000</i>
   <i name="ENAUG">    322.06900000</i>
   <i name="EDIFF">      0.00040000</i>
   <i type="int" name="IALGO">    38</i>
   <i type="int" name="IWAVPR">    11</i>
   <i type="int" name="NBANDS">     8</i>
   <i name="NELECT">      8.00000000</i>
   <i type="int" name="TURBO">     0</i>
   <i type="int" name="IRESTART">     0</i>
   <i type="int" name="NREBOOT">     0</i>
   <i type="int" name="NMIN">     0</i>
   <i name="EREF">      0.00000000</i>
   <separator name="electronic smearing" >
    <i type="int" name="ISMEAR">     0</i>
    <i name="SIGMA">      0.20000000</i>
    <i name="KSPACING">      0.50000000</i>
    <i type="logical" name="KGAMMA"> T  </i>
   </separator>
   <separator name="electronic projectors" >
    <i type="logical" name="LREAL"> F  </i>
    <v name="ROPT">      0.00000000</v>
    <i type="int" name="LMAXPAW">  -100</i>
    <i type="int" name="LMAXMIX">     2</i>
    <i type="logical" name="NLSPLINE"> F  </i>
   </separator>
   <separator name="electronic startup" >
    <i type="int" name="ISTART">     1</i>
    <i type="int" name="ICHARG">     0</i>
    <i type="int" name="INIWAV">     1</i>
   </separator>
   <separator name="electronic spin" >
    <i type="int" name="ISPIN">     1</i>
    <i type="logical" name="LNONCOLLINEAR"> F  </i>
    <v name="MAGMOM">      1.00000000      1.00000000</v>
    <i name="NUPDOWN">     -1.00000000</i>
    <i type="logical" name="LSORBIT"> F  </i>
    <v name="SAXIS">      0.00000000      0.00000000      1.00000000</v>
    <i type="logical" name="LSPIRAL"> F  </i>
    <v name="QSPIRAL">      0.00000000      0.00000000      0.00000000</v>
    <i type="logical" name="LZEROZ"> F  </i>
   </separator>
   <separator name="electronic exchange-correlation" >
    <i type="logical" name="LASPH"> F  </i>
    <i type="logical" name="LMETAGGA"> F  </i>
   </separator>
   <separator name="electronic convergence" >
    <i type="int" name="NELM">    60</i>
    <i type="int" name="NELMDL">     0</i>
    <i type="int" name="NELMIN">     2</i>
    <i name="ENINI">    150.00000000</i>
    <separator name="electronic convergence detail" >
     <i type="logical" name="LDIAG"> T  </i>
     <i type="logical" name="LSUBROT"> F  </i>
     <i name="WEIMIN">      0.00100000</i>
     <i name="EBREAK">      0.00001250</i>
     <i name="DEPER">      0.30000000</i>
     <i type="int" name="NRMM">     4</i>
     <i name="TIME">      0.40000000</i>
    </separator>
   </separator>
   <separator name="electronic mixer" >
    <i name="AMIX">      0.40000000</i>
    <i name="BMIX">      1.00000000</i>
    <i name="AMIN">      0.10000000</i>
    <i name="AMIX_MAG">      1.60000000</i>
    <i name="BMIX_MAG">      1.00000000</i>
    <separator name="electronic mixer details" >
     <i type="int" name="IMIX">     4</i>
     <i type="logical" name="MIXFIRST"> F  </i>
     <i type="int" name="MAXMIX">   -45</i>
     <i name="WC">    100.00000000</i>
     <i type="int" name="INIMIX">     1</i>
     <i type="int" name="MIXPRE">     1</i>
     <i type="int" name="MREMOVE">     5</i>
    </separator>
   </separator>
   <separator name="electronic dipolcorrection" >
    <i type="logical" name="LDIPOL"> F  </i>
    <i type="logical" name="LMONO"> F  </i>
    <i type="int" name="IDIPOL">     0</i>
    <i name="EPSILON">      1.00000000</i>
    <v name="DIPOL">   -100.00000000   -100.00000000   -100.00000000</v>
    <i name="EFIELD">      0.00000000</i>
   </separator>
  </separator>
  <separator name="grids" >
   <i type="int" name="NGX">    12</i>
   <i type="int" name="NGY">    12</i>
   <i type="int" name="NGZ">    12</i>
   <i type="int" name="NGXF">    24</i>
   <i type="int" name="NGYF">    24</i>
   <i type="int" name="NGZF">    24</i>
   <i type="logical" name="ADDGRID"> F  </i>
  </separator>
  <separator name="ionic" >
   <i type="int" name="NSW">    15</i>
   <i type="int" name="IBRION">     2</i>
   <i type="int" name="MDALGO">     0</i>
   <i type="int" name="ISIF">     2</i>
   <i name="PSTRESS">      0.00000000</i>
   <i name="EDIFFG">     -0.01000000</i>
   <i type="int" name="NFREE">     1</i>
   <i name="POTIM">      0.50000000</i>
   <i name="SMASS">     -3.00000000</i>
   <i name="SCALEE">      1.00000000</i>
  </separator>
  <separator name="ionic md" >
   <i name="TEBEG">      0.00010000</i>
   <i name="TEEND">      0.00010000</i>
   <i type="int" name="NBLOCK">     1</i>
   <i type="int" name="KBLOCK">    15</i>
   <i type="int" name="NPACO">   256</i>
   <i name="APACO">     16.00000000</i>
  </separator>
  <separator name="symmetry" >
   <i type="int" name="ISYM">     2</i>
   <i name="SYMPREC">      0.00001000</i>
  </separator>
  <separator name="dos" >
   <i type="int" name="LORBIT">     0</i>
   <v name="RWIGS">     -1.00000000</v>
   <i type="int" name="NEDOS">   301</i>
   <i name="EMIN">     10.00000000</i>
   <i name="EMAX">    -10.00000000</i>
   <i name="EFERMI">      0.00000000</i>
  </separator>
  <separator name="writing" >
   <i type="int" name="NWRITE">     2</i>
   <i type="logical" name="LWAVE"> T  </i>
   <i type="logical" name="LDOWNSAMPLE"> F  </i>
   <i type="logical" name="LCHARG"> T  </i>
   <i type="logical" name="LPARD"> F  </i>
   <i type="logical" name="LVTOT"> F  </i>
   <i type="logical" name="LVHAR"> F  </i>
   <i type="logical" name="LELF"> F  </i>
   <i type="logical" name="LOPTICS"> F  </i>
   <v name="STM">      0.00000000      0.00000000      0.00000000      0.00000000      0.00000000      0.00000000      0.00000000</v>
  </separator>
  <separator name="performance" >
   <i type="int" name="NPAR">     8</i>
   <i type="int" name="NSIM">     4</i>
   <i type="int" name="NBLK">    -1</i>
   <i type="logical" name="LPLANE"> T  </i>
   <i type="logical" name="LSCALAPACK"> T  </i>
   <i type="logical" name="LSCAAWARE"> F  </i>
   <i type="logical" name="LSCALU"> F  </i>
   <i type="logical" name="LASYNC"> F  </i>
   <i type="logical" name="LORBITALREAL"> F  </i>
  </separator>
  <separator name="miscellaneous" >
   <i type="int" name="IDIOT">     3</i>
   <i type="int" name="ISPECIAL">     0</i>
   <i type="logical" name="LMUSIC"> F  </i>
   <v name="POMASS">     28.08500000</v>
   <v name="DARWINR">      0.00000000</v>
   <v name="DARWINV">      1.00000000</v>
   <i type="logical" name="LCORR"> T  </i>
  </separator>
  <i type="logical" name="GGA_COMPAT"> T  </i>
  <i type="logical" name="LBERRY"> F  </i>
  <i type="int" name="ICORELEVEL">     0</i>
  <i type="logical" name="LDAU"> F  </i>
  <i type="int" name="I_CONSTRAINED_M">     0</i>
  <separator name="electronic exchange-correlation" >
   <i type="string" name="GGA">--</i>
   <i type="int" name="VOSKOWN">     0</i>
   <i type="logical" name="LHFCALC"> F  </i>
   <i type="string" name="PRECFOCK"></i>
   <i type="logical" name="LSYMGRAD"> F  </i>
   <i type="logical" name="LHFONE"> F  </i>
   <i type="logical" name="LRHFCALC"> F  </i>
   <i type="logical" name="LTHOMAS"> F  </i>
   <i type="logical" name="LMODELHF"> F  </i>
   <i name="ENCUT4O">     -1.00000000</i>
   <i type="int" name="EXXOEP">     0</i>
   <i type="int" name="FOURORBIT">     0</i>
   <i name="AEXX">      0.00000000</i>
   <i name="HFALPHA">      0.00000000</i>
   <i name="MCALPHA">      0.00000000</i>
   <i name="ALDAX">      1.00000000</i>
   <i name="AGGAX">      1.00000000</i>
   <i name="ALDAC">      1.00000000</i>
   <i name="AGGAC">      1.00000000</i>
   <i type="int" name="NKREDX">     1</i>
   <i type="int" name="NKREDY">     1</i>
   <i type="int" name="NKREDZ">     1</i>
   <i type="logical" name="SHIFTRED"> F  </i>
   <i type="logical" name="ODDONLY"> F  </i>
   <i type="logical" name="EVENONLY"> F  </i>
   <i type="int" name="LMAXFOCK">     0</i>
   <i type="int" name="NMAXFOCKAE">     0</i>
   <i type="logical" name="LFOCKAEDFT"> F  </i>
   <i name="HFSCREEN">      0.00000000</i>
   <i name="HFSCREENC">      0.00000000</i>
   <i type="int" name="NBANDSGWLOW">     0</i>
  </separator>
  <separator name="vdW DFT" >
   <i type="logical" name="LUSE_VDW"> F  </i>
   <i name="Zab_VDW">     -0.84910000</i>
   <i name="PARAM1">      0.12340000</i>
   <i name="PARAM2">      1.00000000</i>
   <i name="PARAM3">      0.00000000</i>
  </separator>
  <separator name="model GW" >
   <i type="int" name="MODEL_GW">     0</i>
   <i name="MODEL_EPS0">      9.17662200</i>
   <i name="MODEL_ALPHA">      1.00000000</i>
  </separator>
  <separator name="linear response parameters" >
   <i type="logical" name="LEPSILON"> F  </i>
   <i type="logical" name="LRPA"> F  </i>
   <i type="logical" name="LNABLA"> F  </i>
   <i type="logical" name="LVEL"> F  </i>
   <i type="int" name="KINTER">     0</i>
   <i name="CSHIFT">      0.10000000</i>
   <i name="OMEGAMAX">     -1.00000000</i>
   <i name="DEG_THRESHOLD">      0.00200000</i>
   <i name="RTIME">     -0.10000000</i>
   <i name="WPLASMAI">      0.00000000</i>
   <v name="DFIELD">      0.00000000      0.00000000      0.00000000</v>
   <v name="WPLASMA">      0.00000000      0.00000000      0.00000000      0.00000000      0.00000000      0.00000000      0.00000000      0.00000000      0.00000000</v>
  </separator>
  <separator name="orbital magnetization" >
   <i type="logical" name="NUCIND"> F  </i>
   <v name="MAGPOS">      0.00000000      0.00000000      0.00000000</v>
   <i type="logical" name="LNICSALL"> T  </i>
   <i type="logical" name="ORBITALMAG"> F  </i>
   <i type="logical" name="LMAGBLOCH"> F  </i>
   <i type="logical" name="LCHIMAG"> F  </i>
   <i type="logical" name="LGAUGE"> T  </i>
   <i type="int" name="MAGATOM">     0</i>
   <v name="MAGDIPOL">      0.00000000      0.00000000      0.00000000</v>
   <v name="AVECCONST">      0.00000000      0.00000000      0.00000000</v>
  </separator>
  <separator name="response functions" >
   <i type="logical" name="LADDER"> F  </i>
   <i type="logical" name="LRPAFORCE"> F  </i>
   <i type="logical" name="LFXC"> F  </i>
   <i type="logical" name="LHARTREE"> T  </i>
   <i type="int" name="IBSE">     0</i>
   <v type="int" name="KPOINT">    -1     0     0     0</v>
   <i type="logical" name="LTCTE"> F  </i>
   <i type="logical" name="LTETE"> F  </i>
   <i type="logical" name="LTRIPLET"> F  </i>
   <i type="logical" name="LFXCEPS"> F  </i>
   <i type="logical" name="LFXHEG"> F  </i>
   <i type="int" name="NATURALO">     2</i>
   <i type="logical" name="L2ORDER"> F  </i>
   <i type="logical" name="LMP2LT"> F  </i>
   <i type="logical" name="LUSEW"> F  </i>
   <i name="ENCUTGW">     -2.00000000</i>
   <i name="ENCUTGWSOFT">     -2.00000000</i>
   <i name="ENCUTLF">     -1.00000000</i>
   <i type="int" name="LMAXMP2">    -1</i>
   <i name="SCISSOR">      0.00000000</i>
   <i type="int" name="NOMEGA">     0</i>
   <i type="int" name="NOMEGAR">     0</i>
   <i type="int" name="NBANDSGW">    -1</i>
   <i type="int" name="NBANDSO">    -1</i>
   <i type="int" name="NBANDSV">    -1</i>
   <i type="int" name="NELM">     1</i>
   <i type="int" name="NELMHF">     1</i>
   <i type="int" name="DIM">     3</i>
   <i type="int" name="ANTIRES">     0</i>
   <i name="OMEGAMAX">    -30.00000000</i>
   <i name="OMEGAMIN">    -30.00000000</i>
   <i name="OMEGATL">   -200.00000000</i>
   <i type="int" name="OMEGAGRID">   140</i>
   <i name="CSHIFT">     -0.10000000</i>
   <i type="logical" name="SELFENERGY"> F  </i>
   <i type="logical" name="LSPECTRAL"> F  </i>
   <i type="logical" name="LSPECTRALGW"> F  </i>
   <i type="logical" name="LSINGLES"> F  </i>
   <i type="logical" name="LFERMIGW"> F  </i>
   <i type="logical" name="ODDONLYGW"> F  </i>
   <i type="logical" name="EVENONLYGW"> F  </i>
   <i type="int" name="NKREDLFX">     1</i>
   <i type="int" name="NKREDLFY">     1</i>
   <i type="int" name="NKREDLFZ">     1</i>
   <i type="int" name="MAXMEM">  2800</i>
   <i type="int" name="TELESCOPE">     0</i>
   <i type="int" name="TAUPAR">     1</i>
   <i type="int" name="OMEGAPAR">    -1</i>
   <i name="LAMBDA">      1.00000000</i>
  </separator>
  <separator name="External order field" >
   <i name="OFIELD_KAPPA">      0.00000000</i>
   <v name="OFIELD_K">      0.00000000      0.00000000      0.00000000</v>
   <i name="OFIELD_Q6_NEAR">      0.00000000</i>
   <i name="OFIELD_Q6_FAR">      0.00000000</i>
   <i name="OFIELD_A">      0.00000000</i>
  </separator>
 </parameters>
 <atominfo>
  <atoms>       2 </atoms>
  <types>       1 </types>
  <array name="atoms" >
   <dimension dim="1">ion</dimension>
   <field type="string">element</field>
   <field type="int">atomtype</field>
   <set>
    <rc><c>Si</c><c>   1</c></rc>
    <rc><c>Si</c><c>   1</c></rc>
   </set>
  </array>
  <array name="atomtypes" >
   <dimension dim="1">type</dimension>
   <field type="int">atomspertype</field>
   <field type="string">element</field>
   <field>mass</field>
   <field>valence</field>
   <field type="string">pseudopotential</field>
   <set>
    <rc><c>   2</c><c>Si</c><c>     28.08500000</c><c>      4.00000000</c><c> PAW_PBE Si 05Jan2001                   </c></rc>
   </set>
  </array>
 </atominfo>
 <structure name="initialpos" >
  <crystal>
   <varray name="basis" >
    <v>      -2.45000000       2.45000000       1.27400000 </v>
    <v>       2.45000000      -2.45000000       1.27400000 </v>
    <v>       2.45000000       2.45000000      -1.27400000 </v>
   </varray>
   <i name="volume">     30.58874000 </i>
   <varray name="rec_basis" >
    <v>       0.00000000       0.20408163       0.39246468 </v>
    <v>       0.20408163       0.00000000       0.39246468 </v>
    <v>       0.20408163       0.20408163      -0.00000000 </v>
   </varray>
  </crystal>
  <varray name="positions" >
   <v>       0.25000000       0.75000000       0.50000000 </v>
   <v>       0.00000000       0.00000000       0.00000000 </v>
  </varray>
 </structure>
 <calculation>
  <scstep>
   <time name="dav">    0.08    0.09</time>
   <time name="total">    0.12    0.14</time>
   <energy>
    <i name="alphaZ">      4.40202223 </i>
    <i name="ewald">   -265.18101312 </i>
    <i name="hartreedc">     -2.49488718 </i>
    <i name="XCdc">    -17.54188751 </i>
    <i name="pawpsdc">     72.38436694 </i>
    <i name="pawaedc">    -37.31069809 </i>
    <i name="eentropy">     -0.01938849 </i>
    <i name="bandstr">     29.54547961 </i>
    <i name="atom">    206.09183643 </i>
    <i name="e_fr_energy">    -10.12416917 </i>
    <i name="e_wo_entrp">    -10.10478069 </i>
    <i name="e_0_energy">    -10.11447493 </i>
   </energy>
  </scstep>
  <scstep>
   <time name="dav">    0.07    0.07</time>
   <time name="total">    0.10    0.11</time>
   <energy>
    <i name="alphaZ">      4.40202223 </i>
    <i name="ewald">   -265.18101312 </i>
    <i name="hartreedc">     -2.49502746 </i>
    <i name="XCdc">    -17.54185036 </i>
    <i name="pawpsdc">     72.38477780 </i>
    <i name="pawaedc">    -37.31110819 </i>
    <i name="eentropy">     -0.01938833 </i>
    <i name="bandstr">     29.54558179 </i>
    <i name="atom">    206.09183643 </i>
    <i name="e_fr_energy">    -10.12416920 </i>
    <i name="e_wo_entrp">    -10.10478087 </i>
    <i name="e_0_energy">    -10.11447504 </i>
   </energy>
  </scstep>
  <structure>
   <crystal>
    <varray name="basis" >
     <v>      -2.45000000       2.45000000       1.27400000 </v>
     <v>       2.45000000      -2.45000000       1.27400000 </v>
     <v>       2.45000000       2.45000000      -1.27400000 </v>
    </varray>
    <i name="volume">     30.58874000 </i>
    <varray name="rec_basis" >
     <v>       0.00000000       0.20408163       0.39246468 </v>
     <v>       0.20408163       0.00000000       0.39246468 </v>
     <v>       0.20408163       0.20408163      -0.00000000 </v>
    </varray>
   </crystal>
   <varray name="positions" >
    <v>       0.25000000       0.75000000       0.50000000 </v>
    <v>       0.00000000       0.00000000       0.00000000 </v>
   </varray>
  </structure>
  <varray name="forces" >
   <v>      -0.00000000      -0.00000000      -0.00000000 </v>
   <v>       0.00000000       0.00000000       0.00000000 </v>
  </varray>
  <varray name="stress" >
   <v>      32.78645670       0.00000000       0.00000000 </v>
   <v>      -0.00000000      32.78645670       0.00000000 </v>
   <v>       0.00000000       0.00000000     -33.52481501 </v>
  </varray>
  <energy>
   <i name="e_fr_energy">    -10.12416920 </i>
   <i name="e_wo_entrp">    -10.11447504 </i>
   <i name="e_0_energy">     -0.01938833 </i>
  </energy>
  <time name="totalsc">    0.69    1.09</time>
  <eigenvalues>
   <array>
    <dimension dim="1">band</dimension>
    <dimension dim="2">kpoint</dimension>
    <dimension dim="3">spin</dimension>
    <field>eigene</field>
    <field>occ</field>
    <set>
     <set comment="spin 1">
      <set comment="kpoint 1">
       <r>   -4.6166    1.0000 </r>
       <r>    6.1985    1.0000 </r>
       <r>    6.3068    1.0000 </r>
       <r>    6.3068    1.0000 </r>
       <r>   10.6577    0.0000 </r>
       <r>   17.0745    0.0000 </r>
       <r>   17.3778    0.0000 </r>
       <r>   17.3778    0.0000 </r>
      </set>
      <set comment="kpoint 2">
       <r>   -3.4894    1.0000 </r>
       <r>    5.0347    1.0000 </r>
       <r>    6.2974    1.0000 </r>
       <r>    9.3333    0.1648 </r>
       <r>   12.7594    0.0000 </r>
       <r>   12.8784    0.0000 </r>
       <r>   13.4866    0.0000 </r>
       <r>   15.5553    0.0000 </r>
      </set>
      <set comment="kpoint 3">
       <r>   -0.1546    1.0000 </r>
       <r>    5.1886    1.0000 </r>
       <r>    6.0239    1.0000 </r>
       <r>    7.2806    1.0000 </r>
       <r>    8.9792    0.9368 </r>
       <r>   11.4962    0.0000 </r>
       <r>   13.7019    0.0000 </r>
       <r>   14.3719    0.0000 </r>
      </set>
      <set comment="kpoint 4">
       <r>   -0.6180    1.0000 </r>
       <r>    6.0129    1.0000 </r>
       <r>    6.9121    1.0000 </r>
       <r>    6.9589    1.0000 </r>
       <r>    9.7789    0.0000 </r>
       <r>   11.8882    0.0000 </r>
       <r>   12.5129    0.0000 </r>
       <r>   12.7851    0.0000 </r>
      </set>
      <set comment="kpoint 5">
       <r>    1.2175    1.0000 </r>
       <r>    3.4018    1.0000 </r>
       <r>    4.4875    1.0000 </r>
       <r>    7.7301    1.0000 </r>
       <r>    9.0887    0.7747 </r>
       <r>   11.0995    0.0000 </r>
       <r>   13.9635    0.0000 </r>
       <r>   16.3165    0.0000 </r>
      </set>
      <set comment="kpoint 6">
       <r>   -2.5448    1.0000 </r>
       <r>    2.0397    1.0000 </r>
       <r>    6.7694    1.0000 </r>
       <r>   10.4868    0.0000 </r>
       <r>   11.1509    0.0000 </r>
       <r>   12.3506    0.0000 </r>
       <r>   14.0536    0.0000 </r>
       <r>   15.9644    0.0000 </r>
      </set>
      <set comment="kpoint 7">
       <r>   -4.1404    1.0000 </r>
       <r>    2.7492    1.0000 </r>
       <r>    6.7529    1.0000 </r>
       <r>    8.3985    1.0000 </r>
       <r>   13.2818    0.0000 </r>
       <r>   13.3899    0.0000 </r>
       <r>   15.0875    0.0000 </r>
       <r>   19.2908    0.0000 </r>
      </set>
      <set comment="kpoint 8">
       <r>   -0.6795    1.0000 </r>
       <r>   -0.6762    1.0000 </r>
       <r>    8.4560    1.0000 </r>
       <r>    8.5239    1.0000 </r>
       <r>   10.7367    0.0000 </r>
       <r>   13.2795    0.0000 </r>
       <r>   13.6613    0.0000 </r>
       <r>   14.1161    0.0000 </r>
      </set>
      <set comment="kpoint 9">
       <r>   -2.7214    1.0000 </r>
       <r>   -0.3936    1.0000 </r>
       <r>    8.0912    1.0000 </r>
       <r>    9.9972    0.0000 </r>
       <r>   10.3190    0.0000 </r>
       <r>   12.2386    0.0000 </r>
       <r>   18.2736    0.0000 </r>
       <r>   18.8330    0.0000 </r>
      </set>
      <set comment="kpoint 10">
       <r>    0.7706    1.0000 </r>
       <r>    3.0359    1.0000 </r>
       <r>    6.1420    1.0000 </r>
       <r>    6.1647    1.0000 </r>
       <r>   11.4198    0.0000 </r>
       <r>   13.1277    0.0000 </r>
       <r>   14.0758    0.0000 </r>
       <r>   14.5138    0.0000 </r>
      </set>
      <set comment="kpoint 11">
       <r>   -3.6672    1.0000 </r>
       <r>    2.5848    1.0000 </r>
       <r>    4.2126    1.0000 </r>
       <r>   10.2857    0.0000 </r>
       <r>   11.4863    0.0000 </r>
       <r>   14.6137    0.0000 </r>
       <r>   17.7828    0.0000 </r>
       <r>   18.1709    0.0000 </r>
      </set>
      <set comment="kpoint 12">
       <r>   -2.2600    1.0000 </r>
       <r>    0.0230    1.0000 </r>
       <r>    4.9709    1.0000 </r>
       <r>    7.1884    1.0000 </r>
       <r>   13.6612    0.0000 </r>
       <r>   15.7278    0.0000 </r>
       <r>   17.9052    0.0000 </r>
       <r>   18.1325    0.0000 </r>
      </set>
      <set comment="kpoint 13">
       <r>   -1.6156    1.0000 </r>
       <r>    2.2723    1.0000 </r>
       <r>    4.0004    1.0000 </r>
       <r>    7.7618    1.0000 </r>
       <r>   10.0439    0.0000 </r>
       <r>   15.5539    0.0000 </r>
       <r>   16.3287    0.0000 </r>
       <r>   17.3486    0.0000 </r>
      </set>
      <set comment="kpoint 14">
       <r>    0.1876    1.0000 </r>
       <r>    0.1989    1.0000 </r>
       <r>    5.1509    1.0000 </r>
       <r>    5.1510    1.0000 </r>
       <r>    9.6452    0.0007 </r>
       <r>   16.2733    0.0000 </r>
       <r>   17.7036    0.0000 </r>
       <r>   18.5279    0.0000 </r>
      </set>
      <set comment="kpoint 15">
       <r>    2.4780    1.0000 </r>
       <r>    3.4408    1.0000 </r>
       <r>    4.3076    1.0000 </r>
       <r>    5.8166    1.0000 </r>
       <r>    7.3339    1.0000 </r>
       <r>   12.1781    0.0000 </r>
       <r>   13.6117    0.0000 </r>
       <r>   16.2340    0.0000 </r>
      </set>
      <set comment="kpoint 16">
       <r>   -1.0852    1.0000 </r>
       <r>    7.7945    1.0000 </r>
       <r>    8.1271    1.0000 </r>
       <r>    8.4647    1.0000 </r>
       <r>    8.4647    1.0000 </r>
       <r>   10.0937    0.0000 </r>
       <r>   11.6962    0.0000 </r>
       <r>   11.6962    0.0000 </r>
      </set>
      <set comment="kpoint 17">
       <r>   -0.9151    1.0000 </r>
       <r>    0.7007    1.0000 </r>
       <r>    2.5132    1.0000 </r>
       <r>    4.1035    1.0000 </r>
       <r>   16.2367    0.0000 </r>
       <r>   16.5691    0.0000 </r>
       <r>   19.0232    0.0000 </r>
       <r>   20.3257    0.0000 </r>
      </set>
      <set comment="kpoint 18">
       <r>    1.3223    1.0000 </r>
       <r>    1.3446    1.0000 </r>
       <r>    3.1364    1.0000 </r>
       <r>    3.1364    1.0000 </r>
       <r>    9.2338    0.3930 </r>
       <r>   18.4665    0.0000 </r>
       <r>   19.7260    0.0000 </r>
       <r>   19.7260    0.0000 </r>
      </set>
     </set>
    </set>
   </array>
  </eigenvalues>
  <separator name="orbital magnetization" >
   <v name="MAGDIPOLOUT">      0.00000000      0.00000000      0.00000000</v>
  </separator>
  <dos>
   <i name="efermi">      9.19539755 </i>
   <total>
    <array>
     <dimension dim="1">gridpoints</dimension>
     <dimension dim="2">spin</dimension>
     <field>energy</field>
     <field>total</field>
     <field>integrated</field>
     <set>
      <set comment="spin 1">
       <r>    -6.6166     0.0000     0.0000 </r>
       <r>    -6.5201     0.0000     0.0000 </r>
       <r>    -6.4236     0.0000     0.0000 </r>
       <r>    -6.3271     0.0000     0.0000 </r>
       <r>    -6.2307     0.0000     0.0000 </r>
       <r>    -6.1342     0.0000     0.0000 </r>
       <r>    -6.0377     0.0000     0.0000 </r>
       <r>    -5.9412     0.0000     0.0000 </r>
       <r>    -5.8448     0.0000     0.0000 </r>
       <r>    -5.7483     0.0000     0.0000 </r>
       <r>    -5.6518     0.0000     0.0000 </r>
       <r>    -5.5553     0.0000     0.0000 </r>
       <r>    -5.4589     0.0000     0.0000 </r>
       <r>    -5.3624     0.0000     0.0000 </r>
       <r>    -5.2659     0.0000     0.0000 </r>
       <r>    -5.1694     0.0000     0.0000 </r>
       <r>    -5.0730     0.0001     0.0000 </r>
       <r>    -4.9765     0.0008     0.0001 </r>
       <r>    -4.8800     0.0043     0.0005 </r>
       <r>    -4.7836     0.0145     0.0019 </r>
       <r>    -4.6871     0.0316     0.0049 </r>
       <r>    -4.5906     0.0442     0.0092 </r>
       <r>    -4.4941     0.0424     0.0133 </r>
       <r>    -4.3977     0.0407     0.0172 </r>
       <r>    -4.3012     0.0699     0.0240 </r>
       <r>    -4.2047     0.1325     0.0368 </r>
       <r>    -4.1082     0.1768     0.0538 </r>
       <r>    -4.0118     0.1561     0.0689 </r>
       <r>    -3.9153     0.1064     0.0791 </r>
       <r>    -3.8188     0.1085     0.0896 </r>
       <r>    -3.7223     0.1964     0.1086 </r>
       <r>    -3.6259     0.3338     0.1408 </r>
       <r>    -3.5294     0.4398     0.1832 </r>
       <r>    -3.4329     0.4306     0.2247 </r>
       <r>    -3.3364     0.2981     0.2535 </r>
       <r>    -3.2400     0.1394     0.2669 </r>
       <r>    -3.1435     0.0437     0.2712 </r>
       <r>    -3.0470     0.0151     0.2726 </r>
       <r>    -2.9505     0.0339     0.2759 </r>
       <r>    -2.8541     0.1134     0.2868 </r>
       <r>    -2.7576     0.2871     0.3145 </r>
       <r>    -2.6611     0.5487     0.3675 </r>
       <r>    -2.5646     0.7849     0.4432 </r>
       <r>    -2.4682     0.8321     0.5235 </r>
       <r>    -2.3717     0.6981     0.5908 </r>
       <r>    -2.2752     0.5433     0.6432 </r>
       <r>    -2.1787     0.4078     0.6826 </r>
       <r>    -2.0823     0.2486     0.7066 </r>
       <r>    -1.9858     0.1102     0.7172 </r>
       <r>    -1.8893     0.0583     0.7228 </r>
       <r>    -1.7928     0.1094     0.7334 </r>
       <r>    -1.6964     0.2379     0.7563 </r>
       <r>    -1.5999     0.3454     0.7896 </r>
       <r>    -1.5034     0.3216     0.8207 </r>
       <r>    -1.4069     0.1943     0.8394 </r>
       <r>    -1.3105     0.0887     0.8480 </r>
       <r>    -1.2140     0.0692     0.8546 </r>
       <r>    -1.1175     0.1201     0.8662 </r>
       <r>    -1.0211     0.2086     0.8864 </r>
       <r>    -0.9246     0.3334     0.9185 </r>
       <r>    -0.8281     0.5483     0.9714 </r>
       <r>    -0.7316     0.8686     1.0552 </r>
       <r>    -0.6352     1.1018     1.1615 </r>
       <r>    -0.5387     1.0161     1.2595 </r>
       <r>    -0.4422     0.7115     1.3282 </r>
       <r>    -0.3457     0.4800     1.3745 </r>
       <r>    -0.2493     0.4424     1.4172 </r>
       <r>    -0.1528     0.5401     1.4693 </r>
       <r>    -0.0563     0.6817     1.5350 </r>
       <r>     0.0402     0.8299     1.6151 </r>
       <r>     0.1366     0.9495     1.7067 </r>
       <r>     0.2331     0.9178     1.7952 </r>
       <r>     0.3296     0.6659     1.8595 </r>
       <r>     0.4261     0.3529     1.8935 </r>
       <r>     0.5225     0.2032     1.9131 </r>
       <r>     0.6190     0.2769     1.9399 </r>
       <r>     0.7155     0.4501     1.9833 </r>
       <r>     0.8120     0.5201     2.0335 </r>
       <r>     0.9084     0.4217     2.0741 </r>
       <r>     1.0049     0.3344     2.1064 </r>
       <r>     1.1014     0.4577     2.1506 </r>
       <r>     1.1979     0.7253     2.2205 </r>
       <r>     1.2943     0.8434     2.3019 </r>
       <r>     1.3908     0.6627     2.3658 </r>
       <r>     1.4873     0.3530     2.3999 </r>
       <r>     1.5838     0.1302     2.4124 </r>
       <r>     1.6802     0.0452     2.4168 </r>
       <r>     1.7767     0.0747     2.4240 </r>
       <r>     1.8732     0.2371     2.4469 </r>
       <r>     1.9697     0.5246     2.4975 </r>
       <r>     2.0661     0.7777     2.5725 </r>
       <r>     2.1626     0.8334     2.6529 </r>
       <r>     2.2591     0.7633     2.7266 </r>
       <r>     2.3556     0.7395     2.7979 </r>
       <r>     2.4520     0.7966     2.8748 </r>
       <r>     2.5485     0.8215     2.9540 </r>
       <r>     2.6450     0.7118     3.0227 </r>
       <r>     2.7414     0.5227     3.0731 </r>
       <r>     2.8379     0.3899     3.1107 </r>
       <r>     2.9344     0.3926     3.1486 </r>
       <r>     3.0309     0.4970     3.1966 </r>
       <r>     3.1273     0.5889     3.2534 </r>
       <r>     3.2238     0.6666     3.3177 </r>
       <r>     3.3203     0.8579     3.4005 </r>
       <r>     3.4168     1.0754     3.5042 </r>
       <r>     3.5132     1.0105     3.6017 </r>
       <r>     3.6097     0.6395     3.6634 </r>
       <r>     3.7062     0.2830     3.6907 </r>
       <r>     3.8027     0.1622     3.7063 </r>
       <r>     3.8991     0.2668     3.7321 </r>
       <r>     3.9956     0.4797     3.7784 </r>
       <r>     4.0921     0.6630     3.8423 </r>
       <r>     4.1886     0.7684     3.9164 </r>
       <r>     4.2850     0.8526     3.9987 </r>
       <r>     4.3815     0.9477     4.0901 </r>
       <r>     4.4780     0.9766     4.1843 </r>
       <r>     4.5745     0.8187     4.2633 </r>
       <r>     4.6709     0.5183     4.3133 </r>
       <r>     4.7674     0.3202     4.3442 </r>
       <r>     4.8639     0.4237     4.3851 </r>
       <r>     4.9604     0.8181     4.4640 </r>
       <r>     5.0568     1.2896     4.5884 </r>
       <r>     5.1533     1.5173     4.7348 </r>
       <r>     5.2498     1.2987     4.8601 </r>
       <r>     5.3463     0.7808     4.9354 </r>
       <r>     5.4427     0.3231     4.9666 </r>
       <r>     5.5392     0.1144     4.9776 </r>
       <r>     5.6357     0.1238     4.9896 </r>
       <r>     5.7322     0.2855     5.0171 </r>
       <r>     5.8286     0.5516     5.0703 </r>
       <r>     5.9251     0.8855     5.1558 </r>
       <r>     6.0216     1.2434     5.2757 </r>
       <r>     6.1181     1.4923     5.4197 </r>
       <r>     6.2145     1.4733     5.5618 </r>
       <r>     6.3110     1.1728     5.6750 </r>
       <r>     6.4075     0.7467     5.7470 </r>
       <r>     6.5039     0.4320     5.7887 </r>
       <r>     6.6004     0.4309     5.8303 </r>
       <r>     6.6969     0.7631     5.9039 </r>
       <r>     6.7934     1.1819     6.0179 </r>
       <r>     6.8898     1.3647     6.1496 </r>
       <r>     6.9863     1.2417     6.2694 </r>
       <r>     7.0828     1.0364     6.3693 </r>
       <r>     7.1793     0.9874     6.4646 </r>
       <r>     7.2757     1.0443     6.5653 </r>
       <r>     7.3722     0.9577     6.6577 </r>
       <r>     7.4687     0.7120     6.7264 </r>
       <r>     7.5652     0.6124     6.7855 </r>
       <r>     7.6616     0.8435     6.8669 </r>
       <r>     7.7581     1.1311     6.9760 </r>
       <r>     7.8546     1.0768     7.0799 </r>
       <r>     7.9511     0.7349     7.1508 </r>
       <r>     8.0475     0.4594     7.1951 </r>
       <r>     8.1440     0.3721     7.2310 </r>
       <r>     8.2405     0.4136     7.2709 </r>
       <r>     8.3370     0.6086     7.3296 </r>
       <r>     8.4334     0.9056     7.4170 </r>
       <r>     8.5299     1.0236     7.5158 </r>
       <r>     8.6264     0.7988     7.5928 </r>
       <r>     8.7229     0.4565     7.6369 </r>
       <r>     8.8193     0.3269     7.6684 </r>
       <r>     8.9158     0.5175     7.7183 </r>
       <r>     9.0123     0.8730     7.8025 </r>
       <r>     9.1088     1.0998     7.9086 </r>
       <r>     9.2052     1.0447     8.0094 </r>
       <r>     9.3017     0.8276     8.0893 </r>
       <r>     9.3982     0.6137     8.1485 </r>
       <r>     9.4947     0.4866     8.1954 </r>
       <r>     9.5911     0.5074     8.2444 </r>
       <r>     9.6876     0.6307     8.3052 </r>
       <r>     9.7841     0.7114     8.3738 </r>
       <r>     9.8806     0.7159     8.4429 </r>
       <r>     9.9770     0.7326     8.5136 </r>
       <r>    10.0735     0.7584     8.5868 </r>
       <r>    10.1700     0.7284     8.6570 </r>
       <r>    10.2664     0.7131     8.7258 </r>
       <r>    10.3629     0.8096     8.8039 </r>
       <r>    10.4594     0.9455     8.8951 </r>
       <r>    10.5559     0.9604     8.9878 </r>
       <r>    10.6523     0.8254     9.0674 </r>
       <r>    10.7488     0.6504     9.1302 </r>
       <r>    10.8453     0.5364     9.1819 </r>
       <r>    10.9418     0.6208     9.2418 </r>
       <r>    11.0382     0.9967     9.3380 </r>
       <r>    11.1347     1.4003     9.4731 </r>
       <r>    11.2312     1.4382     9.6118 </r>
       <r>    11.3277     1.2026     9.7278 </r>
       <r>    11.4241     1.0584     9.8299 </r>
       <r>    11.5206     0.9996     9.9264 </r>
       <r>    11.6171     0.8345    10.0069 </r>
       <r>    11.7136     0.6257    10.0672 </r>
       <r>    11.8100     0.5220    10.1176 </r>
       <r>    11.9065     0.5034    10.1662 </r>
       <r>    12.0030     0.5060    10.2150 </r>
       <r>    12.0995     0.5965    10.2725 </r>
       <r>    12.1959     0.8406    10.3536 </r>
       <r>    12.2924     1.1155    10.4613 </r>
       <r>    12.3889     1.2169    10.5786 </r>
       <r>    12.4854     1.0912    10.6839 </r>
       <r>    12.5818     0.9075    10.7715 </r>
       <r>    12.6783     0.8867    10.8570 </r>
       <r>    12.7748     1.0250    10.9559 </r>
       <r>    12.8713     1.0724    11.0593 </r>
       <r>    12.9677     0.9167    11.1478 </r>
       <r>    13.0642     0.7657    11.2217 </r>
       <r>    13.1607     0.8029    11.2991 </r>
       <r>    13.2572     0.9545    11.3912 </r>
       <r>    13.3536     1.0828    11.4957 </r>
       <r>    13.4501     1.2096    11.6124 </r>
       <r>    13.5466     1.4382    11.7511 </r>
       <r>    13.6431     1.6737    11.9126 </r>
       <r>    13.7395     1.6730    12.0740 </r>
       <r>    13.8360     1.5330    12.2219 </r>
       <r>    13.9325     1.6506    12.3811 </r>
       <r>    14.0290     1.9788    12.5720 </r>
       <r>    14.1254     1.9863    12.7637 </r>
       <r>    14.2219     1.5183    12.9101 </r>
       <r>    14.3184     1.0176    13.0083 </r>
       <r>    14.4148     0.8109    13.0865 </r>
       <r>    14.5113     0.7690    13.1607 </r>
       <r>    14.6078     0.6599    13.2244 </r>
       <r>    14.7043     0.4407    13.2669 </r>
       <r>    14.8007     0.2241    13.2885 </r>
       <r>    14.8972     0.1170    13.2998 </r>
       <r>    14.9937     0.1258    13.3120 </r>
       <r>    15.0902     0.1723    13.3286 </r>
       <r>    15.1866     0.1777    13.3457 </r>
       <r>    15.2831     0.1666    13.3618 </r>
       <r>    15.3796     0.2640    13.3873 </r>
       <r>    15.4761     0.5334    13.4387 </r>
       <r>    15.5725     0.8322    13.5190 </r>
       <r>    15.6690     0.9482    13.6105 </r>
       <r>    15.7655     0.8925    13.6966 </r>
       <r>    15.8620     0.8597    13.7795 </r>
       <r>    15.9584     0.9284    13.8691 </r>
       <r>    16.0549     1.0537    13.9708 </r>
       <r>    16.1514     1.3269    14.0988 </r>
       <r>    16.2479     1.7692    14.2695 </r>
       <r>    16.3443     1.9616    14.4587 </r>
       <r>    16.4408     1.5736    14.6105 </r>
       <r>    16.5373     0.9178    14.6991 </r>
       <r>    16.6338     0.4344    14.7410 </r>
       <r>    16.7302     0.1882    14.7591 </r>
       <r>    16.8267     0.0753    14.7664 </r>
       <r>    16.9232     0.0382    14.7701 </r>
       <r>    17.0197     0.0511    14.7750 </r>
       <r>    17.1161     0.1067    14.7853 </r>
       <r>    17.2126     0.2231    14.8068 </r>
       <r>    17.3091     0.3807    14.8435 </r>
       <r>    17.4056     0.4700    14.8889 </r>
       <r>    17.5020     0.4445    14.9318 </r>
       <r>    17.5985     0.4433    14.9745 </r>
       <r>    17.6950     0.5709    15.0296 </r>
       <r>    17.7915     0.7235    15.0994 </r>
       <r>    17.8879     0.7713    15.1738 </r>
       <r>    17.9844     0.7421    15.2454 </r>
       <r>    18.0809     0.7416    15.3170 </r>
       <r>    18.1773     0.7650    15.3908 </r>
       <r>    18.2738     0.7132    15.4596 </r>
       <r>    18.3703     0.6062    15.5181 </r>
       <r>    18.4668     0.5498    15.5711 </r>
       <r>    18.5632     0.5167    15.6210 </r>
       <r>    18.6597     0.4246    15.6619 </r>
       <r>    18.7562     0.3241    15.6932 </r>
       <r>    18.8527     0.2924    15.7214 </r>
       <r>    18.9491     0.3001    15.7503 </r>
       <r>    19.0456     0.2909    15.7784 </r>
       <r>    19.1421     0.2614    15.8036 </r>
       <r>    19.2386     0.2378    15.8266 </r>
       <r>    19.3350     0.2133    15.8472 </r>
       <r>    19.4315     0.1626    15.8628 </r>
       <r>    19.5280     0.1174    15.8742 </r>
       <r>    19.6245     0.1283    15.8865 </r>
       <r>    19.7209     0.1707    15.9030 </r>
       <r>    19.8174     0.1701    15.9194 </r>
       <r>    19.9139     0.1119    15.9302 </r>
       <r>    20.0104     0.0537    15.9354 </r>
       <r>    20.1068     0.0442    15.9397 </r>
       <r>    20.2033     0.0900    15.9483 </r>
       <r>    20.2998     0.1554    15.9633 </r>
       <r>    20.3963     0.1750    15.9802 </r>
       <r>    20.4927     0.1262    15.9924 </r>
       <r>    20.5892     0.0581    15.9980 </r>
       <r>    20.6857     0.0171    15.9997 </r>
       <r>    20.7822     0.0032    16.0000 </r>
       <r>    20.8786     0.0004    16.0000 </r>
       <r>    20.9751     0.0000    16.0000 </r>
       <r>    21.0716     0.0000    16.0000 </r>
       <r>    21.1681     0.0000    16.0000 </r>
       <r>    21.2645     0.0000    16.0000 </r>
       <r>    21.3610     0.0000    16.0000 </r>
       <r>    21.4575     0.0000    16.0000 </r>
       <r>    21.5540     0.0000    16.0000 </r>
       <r>    21.6504     0.0000    16.0000 </r>
       <r>    21.7469     0.0000    16.0000 </r>
       <r>    21.8434     0.0000    16.0000 </r>
       <r>    21.9398     0.0000    16.0000 </r>
       <r>    22.0363     0.0000    16.0000 </r>
       <r>    22.1328     0.0000    16.0000 </r>
       <r>    22.2293     0.0000    16.0000 </r>
       <r>    22.3257     0.0000    16.0000 </r>
      </set>
     </set>
    </array>
   </total>
  </dos>
 </calculation>
 <structure name="finalpos" >
  <crystal>
   <varray name="basis" >
    <v>      -2.45000000       2.45000000       1.27400000 </v>
    <v>       2.45000000      -2.45000000       1.27400000 </v>
    <v>       2.45000000       2.45000000      -1.27400000 </v>
   </varray>
   <i name="volume">     30.58874000 </i>
   <varray name="rec_basis" >
    <v>       0.00000000       0.20408163       0.39246468 </v>
    <v>       0.20408163       0.00000000       0.39246468 </v>
    <v>       0.20408163       0.20408163      -0.00000000 </v>
   </varray>
  </crystal>
  <varray name="positions" >
   <v>       0.25000000       0.75000000       0.50000000 </v>
   <v>       0.00000000       0.00000000       0.00000000 </v>
  </varray>
 </structure>
</modeling>
