Diamond si                              
   1.00000000000000     
     5.493777   -0.000000   -0.000000
    -0.000000    5.493777   -0.000000
     0.000000   -0.000000    5.493777
   Si
     8
Direct
  0.000000  0.000000  0.000000
  0.250000  0.250000  0.250000
  0.500000  0.500000  0.000000
  0.250000  0.750000  0.750000
  0.500000  0.000000  0.500000
  0.750000  0.250000  0.750000
  0.000000  0.500000  0.500000
  0.750000  0.750000  0.250000
 
   48   48   48
 -31.051     -24.998     -8.5736      13.644      35.854      52.962      62.070      63.015      57.894      49.892    
  41.519      33.740      27.008      21.451      16.999      13.486      10.739      8.6056      6.9690      5.7371    
  4.8359      4.2038      3.7907      3.5586      3.4839      3.5586      3.7907      4.2038      4.8359      5.7371    
  6.9690      8.6056      10.739      13.486      16.999      21.451      27.008      33.740      41.519      49.892    
  57.894      63.015      62.070      52.962      35.854      13.644     -8.5736     -24.998     -24.998     -19.221    
 -3.5665      17.552      38.551      54.546      62.792      63.192      57.823      49.788      41.448      33.714    
  27.024      21.499      17.067      13.566      10.823      8.6912      7.0533      5.8192      4.9157      4.2815    
  3.8668      3.6337      3.5586      3.6337      3.8668      4.2815      4.9157      5.8192      7.0533      8.6912    
  10.823      13.566      17.067      21.499      27.024      33.714      41.448      49.788      57.823      63.192    
  62.792      54.546      38.551      17.552     -3.5665     -19.221     -8.5736     -3.5665      9.9505      28.023    
  45.679      58.625      64.536      63.494      57.511      49.436      41.214      33.626      27.067      21.642    
  17.273      13.808      11.081      8.9529      7.3123      6.0725      5.1625      4.5224      4.1029      3.8668    
  3.7907      3.8668      4.1029      4.5224      5.1625      6.0725      7.3123      8.9529      11.081      13.808    
  17.273      21.642      27.067      33.626      41.214      49.436      57.511      63.494      64.536      58.625    
  45.679      28.023      9.9505     -3.5665      13.644      17.552      28.023      41.780      54.741      63.469    
  66.239      63.362      56.728      48.744      40.770      33.452      27.127      21.874      17.619      14.219    
  11.523      9.4056      7.7639      6.5172      5.5982      4.9492      4.5224      4.2815      4.2038      4.2815    
  4.5224      4.9492      5.5982      6.5172      7.7639      9.4056      11.523      14.219      17.619      21.874    
  27.127      33.452      40.770      48.744      56.728      63.362      66.239      63.469      54.741      41.780    
  28.023      17.552      35.854      38.551      45.679      54.741      62.680      67.020      66.688      62.209    
  55.275      47.607      40.059      33.162      27.186      22.191      18.106      14.807      12.166      10.072    
  8.4364      7.1854      6.2573      5.5982      5.1625      4.9157      4.8359      4.9157      5.1625      5.5982    
  6.2573      7.1854      8.4364      10.072      12.166      14.807      18.106      22.191      27.186      33.162    
  40.059      47.607      55.275      62.209      66.688      67.020      62.680      54.741      45.679      38.551    
  52.962      54.546      58.625      63.469      67.020      67.718      65.072      59.742      53.060      45.961    
  39.046      32.733      27.230      22.583      18.734      15.584      13.030      10.982      9.3659      8.1186    
  7.1854      6.5172      6.0725      5.8192      5.7371      5.8192      6.0725      6.5172      7.1854      8.1186    
  9.3659      10.982      13.030      15.584      18.734      22.583      27.230      32.733      39.046      45.961    
  53.060      59.742      65.072      67.718      67.020      63.469      58.625      54.546      62.070      62.792    
  64.536      66.239      66.688      65.072      61.328      56.104      50.092      43.816      37.733      32.156    
  27.246      23.041      19.503      16.560      14.138      12.168      10.594      9.3659      8.4364      7.7639    
  7.3123      7.0533      6.9690      7.0533      7.3123      7.7639      8.4364      9.3659      10.594      12.168    
  14.138      16.560      19.503      23.041      27.246      32.156      37.733      43.816      50.092      56.104    
  61.328      65.072      66.688      66.239      64.536      62.792      63.015      63.192      63.494      63.362    
  62.209      59.742      56.104      51.581      46.508      41.258      36.160      31.443      27.230      23.559    
  20.411      17.745      15.511      13.665      12.168      10.982      10.072      9.4056      8.9529      8.6912    
  8.6056      8.6912      8.9529      9.4056      10.072      10.982      12.168      13.665      15.511      17.745    
  20.411      23.559      27.230      31.443      36.160      41.258      46.508      51.581      56.104      59.742    
  62.209      63.362      63.494      63.192      57.894      57.823      57.511      56.728      55.275      53.060    
  50.092      46.508      42.534      38.423      34.398      30.621      27.186      24.132      21.459      19.147    
  17.173      15.511      14.138      13.030      12.166      11.523      11.081      10.823      10.739      10.823    
  11.081      11.523      12.166      13.030      14.138      15.511      17.173      19.147      21.459      24.132    
  27.186      30.621      34.398      38.423      42.534      46.508      50.092      53.060      55.275      56.728    
  57.511      57.823      49.892      49.788      49.436      48.744      47.607      45.961      43.816      41.258    
  38.423      35.467      32.532      29.729      27.127      24.762      22.647      20.778      19.147      17.745    
  16.560      15.584      14.807      14.219      13.808      13.566      13.486      13.566      13.808      14.219    
  14.807      15.584      16.560      17.745      19.147      20.778      22.647      24.762      27.127      29.729    
  32.532      35.467      38.423      41.258      43.816      45.961      47.607      48.744      49.436      49.788    
  41.519      41.448      41.214      40.770      40.059      39.046      37.733      36.160      34.398      32.532    
  30.646      28.808      27.067      25.452      23.978      22.647      21.459      20.411      19.503      18.734    
  18.106      17.619      17.273      17.067      16.999      17.067      17.273      17.619      18.106      18.734    
  19.503      20.411      21.459      22.647      23.978      25.452      27.067      28.808      30.646      32.532    
  34.398      36.160      37.733      39.046      40.059      40.770      41.214      41.448      33.740      33.714    
  33.626      33.452      33.162      32.733      32.156      31.443      30.621      29.729      28.808      27.897    
  27.024      26.206      25.452      24.762      24.132      23.559      23.041      22.583      22.191      21.874    
  21.642      21.499      21.451      21.499      21.642      21.874      22.191      22.583      23.041      23.559    
  24.132      24.762      25.452      26.206      27.024      27.897      28.808      29.729      30.621      31.443    
  32.156      32.733      33.162      33.452      33.626      33.714      27.008      27.024      27.067      27.127    
  27.186      27.230      27.246      27.230      27.186      27.127      27.067      27.024      27.008      27.024    
  27.067      27.127      27.186      27.230      27.246      27.230      27.186      27.127      27.067      27.024    
  27.008      27.024      27.067      27.127      27.186      27.230      27.246      27.230      27.186      27.127    
  27.067      27.024      27.008      27.024      27.067      27.127      27.186      27.230      27.246      27.230    
  27.186      27.127      27.067      27.024      21.451      21.499      21.642      21.874      22.191      22.583    
  23.041      23.559      24.132      24.762      25.452      26.206      27.024      27.897      28.808      29.729    
  30.621      31.443      32.156      32.733      33.162      33.452      33.626      33.714      33.740      33.714    
  33.626      33.452      33.162      32.733      32.156      31.443      30.621      29.729      28.808      27.897    
  27.024      26.206      25.452      24.762      24.132      23.559      23.041      22.583      22.191      21.874    
  21.642      21.499      16.999      17.067      17.273      17.619      18.106      18.734      19.503      20.411    
  21.459      22.647      23.978      25.452      27.067      28.808      30.646      32.532      34.398      36.160    
  37.733      39.046      40.059      40.770      41.214      41.448      41.519      41.448      41.214      40.770    
  40.059      39.046      37.733      36.160      34.398      32.532      30.646      28.808      27.067      25.452    
  23.978      22.647      21.459      20.411      19.503      18.734      18.106      17.619      17.273      17.067    
  13.486      13.566      13.808      14.219      14.807      15.584      16.560      17.745      19.147      20.778    
  22.647      24.762      27.127      29.729      32.532      35.467      38.423      41.258      43.816      45.961    
  47.607      48.744      49.436      49.788      49.892      49.788      49.436      48.744      47.607      45.961    
  43.816      41.258      38.423      35.467      32.532      29.729      27.127      24.762      22.647      20.778    
  19.147      17.745      16.560      15.584      14.807      14.219      13.808      13.566      10.739      10.823    
  11.081      11.523      12.166      13.030      14.138      15.511      17.173      19.147      21.459      24.132    
  27.186      30.621      34.398      38.423      42.534      46.508      50.092      53.060      55.275      56.728    
  57.511      57.823      57.894      57.823      57.511      56.728      55.275      53.060      50.092      46.508    
  42.534      38.423      34.398      30.621      27.186      24.132      21.459      19.147      17.173      15.511    
  14.138      13.030      12.166      11.523      11.081      10.823      8.6056      8.6912      8.9529      9.4056    
  10.072      10.982      12.168      13.665      15.511      17.745      20.411      23.559      27.230      31.443    
  36.160      41.258      46.508      51.581      56.104      59.742      62.209      63.362      63.494      63.192    
  63.015      63.192      63.494      63.362      62.209      59.742      56.104      51.581      46.508      41.258    
  36.160      31.443      27.230      23.559      20.411      17.745      15.511      13.665      12.168      10.982    
  10.072      9.4056      8.9529      8.6912      6.9690      7.0533      7.3123      7.7639      8.4364      9.3659    
  10.594      12.168      14.138      16.560      19.503      23.041      27.246      32.156      37.733      43.816    
  50.092      56.104      61.328      65.072      66.688      66.239      64.536      62.792      62.070      62.792    
  64.536      66.239      66.688      65.072      61.328      56.104      50.092      43.816      37.733      32.156    
  27.246      23.041      19.503      16.560      14.138      12.168      10.594      9.3659      8.4364      7.7639    
  7.3123      7.0533      5.7371      5.8192      6.0725      6.5172      7.1854      8.1186      9.3659      10.982    
  13.030      15.584      18.734      22.583      27.230      32.733      39.046      45.961      53.060      59.742    
  65.072      67.718      67.020      63.469      58.625      54.546      52.962      54.546      58.625      63.469    
  67.020      67.718      65.072      59.742      53.060      45.961      39.046      32.733      27.230      22.583    
  18.734      15.584      13.030      10.982      9.3659      8.1186      7.1854      6.5172      6.0725      5.8192    
  4.8359      4.9157      5.1625      5.5982      6.2573      7.1854      8.4364      10.072      12.166      14.807    
  18.106      22.191      27.186      33.162      40.059      47.607      55.275      62.209      66.688      67.020    
  62.680      54.741      45.679      38.551      35.854      38.551      45.679      54.741      62.680      67.020    
  66.688      62.209      55.275      47.607      40.059      33.162      27.186      22.191      18.106      14.807    
  12.166      10.072      8.4364      7.1854      6.2573      5.5982      5.1625      4.9157      4.2038      4.2815    
  4.5224      4.9492      5.5982      6.5172      7.7639      9.4056      11.523      14.219      17.619      21.874    
  27.127      33.452      40.770      48.744      56.728      63.362      66.239      63.469      54.741      41.780    
  28.023      17.552      13.644      17.552      28.023      41.780      54.741      63.469      66.239      63.362    
  56.728      48.744      40.770      33.452      27.127      21.874      17.619      14.219      11.523      9.4056    
  7.7639      6.5172      5.5982      4.9492      4.5224      4.2815      3.7907      3.8668      4.1029      4.5224    
  5.1625      6.0725      7.3123      8.9529      11.081      13.808      17.273      21.642      27.067      33.626    
  41.214      49.436      57.511      63.494      64.536      58.625      45.679      28.023      9.9505     -3.5665    
 -8.5736     -3.5665      9.9505      28.023      45.679      58.625      64.536      63.494      57.511      49.436    
  41.214      33.626      27.067      21.642      17.273      13.808      11.081      8.9529      7.3123      6.0725    
  5.1625      4.5224      4.1029      3.8668      3.5586      3.6337      3.8668      4.2815      4.9157      5.8192    
  7.0533      8.6912      10.823      13.566      17.067      21.499      27.024      33.714      41.448      49.788    
  57.823      63.192      62.792      54.546      38.551      17.552     -3.5665     -19.221     -24.998     -19.221    
 -3.5665      17.552      38.551      54.546      62.792      63.192      57.823      49.788      41.448      33.714    
  27.024      21.499      17.067      13.566      10.823      8.6912      7.0533      5.8192      4.9157      4.2815    
  3.8668      3.6337      3.4839      3.5586      3.7907      4.2038      4.8359      5.7371      6.9690      8.6056    
  10.739      13.486      16.999      21.451      27.008      33.740      41.519      49.892      57.894      63.015    
  62.070      52.962      35.854      13.644     -8.5736     -24.998     -31.051     -24.998     -8.5736      13.644    
  35.854      52.962      62.070      63.015      57.894      49.892      41.519      33.740      27.008      21.451    
  16.999      13.486      10.739      8.6056      6.9690      5.7371      4.8359      4.2038      3.7907      3.5586    
  3.5586      3.6337      3.8668      4.2815      4.9157      5.8192      7.0533      8.6912      10.823      13.566    
  17.067      21.499      27.024      33.714      41.448      49.788      57.823      63.192      62.792      54.546    
  38.551      17.552     -3.5665     -19.221     -24.998     -19.221     -3.5665      17.552      38.551      54.546    
  62.792      63.192      57.823      49.788      41.448      33.714      27.024      21.499      17.067      13.566    
  10.823      8.6912      7.0533      5.8192      4.9157      4.2815      3.8668      3.6337      3.7907      3.8668    
  4.1029      4.5224      5.1625      6.0725      7.3123      8.9529      11.081      13.808      17.273      21.642    
  27.067      33.626      41.214      49.436      57.511      63.494      64.536      58.625      45.679      28.023    
  9.9505     -3.5665     -8.5736     -3.5665      9.9505      28.023      45.679      58.625      64.536      63.494    
  57.511      49.436      41.214      33.626      27.067      21.642      17.273      13.808      11.081      8.9529    
  7.3123      6.0725      5.1625      4.5224      4.1029      3.8668      4.2038      4.2815      4.5224      4.9492    
  5.5982      6.5172      7.7639      9.4056      11.523      14.219      17.619      21.874      27.127      33.452    
  40.770      48.744      56.728      63.362      66.239      63.469      54.741      41.780      28.023      17.552    
  13.644      17.552      28.023      41.780      54.741      63.469      66.239      63.362      56.728      48.744    
  40.770      33.452      27.127      21.874      17.619      14.219      11.523      9.4056      7.7639      6.5172    
  5.5982      4.9492      4.5224      4.2815      4.8359      4.9157      5.1625      5.5982      6.2573      7.1854    
  8.4364      10.072      12.166      14.807      18.106      22.191      27.186      33.162      40.059      47.607    
  55.275      62.209      66.688      67.020      62.680      54.741      45.679      38.551      35.854      38.551    
  45.679      54.741      62.680      67.020      66.688      62.209      55.275      47.607      40.059      33.162    
  27.186      22.191      18.106      14.807      12.166      10.072      8.4364      7.1854      6.2573      5.5982    
  5.1625      4.9157      5.7371      5.8192      6.0725      6.5172      7.1854      8.1186      9.3659      10.982    
  13.030      15.584      18.734      22.583      27.230      32.733      39.046      45.961      53.060      59.742    
  65.072      67.718      67.020      63.469      58.625      54.546      52.962      54.546      58.625      63.469    
  67.020      67.718      65.072      59.742      53.060      45.961      39.046      32.733      27.230      22.583    
  18.734      15.584      13.030      10.982      9.3659      8.1186      7.1854      6.5172      6.0725      5.8192    
  6.9690      7.0533      7.3123      7.7639      8.4364      9.3659      10.594      12.168      14.138      16.560    
  19.503      23.041      27.246      32.156      37.733      43.816      50.092      56.104      61.328      65.072    
  66.688      66.239      64.536      62.792      62.070      62.792      64.536      66.239      66.688      65.072    
  61.328      56.104      50.092      43.816      37.733      32.156      27.246      23.041      19.503      16.560    
  14.138      12.168      10.594      9.3659      8.4364      7.7639      7.3123      7.0533      8.6056      8.6912    
  8.9529      9.4056      10.072      10.982      12.168      13.665      15.511      17.745      20.411      23.559    
  27.230      31.443      36.160      41.258      46.508      51.581      56.104      59.742      62.209      63.362    
  63.494      63.192      63.015      63.192      63.494      63.362      62.209      59.742      56.104      51.581    
  46.508      41.258      36.160      31.443      27.230      23.559      20.411      17.745      15.511      13.665    
  12.168      10.982      10.072      9.4056      8.9529      8.6912      10.739      10.823      11.081      11.523    
  12.166      13.030      14.138      15.511      17.173      19.147      21.459      24.132      27.186      30.621    
  34.398      38.423      42.534      46.508      50.092      53.060      55.275      56.728      57.511      57.823    
  57.894      57.823      57.511      56.728      55.275      53.060      50.092      46.508      42.534      38.423    
  34.398      30.621      27.186      24.132      21.459      19.147      17.173      15.511      14.138      13.030    
  12.166      11.523      11.081      10.823      13.486      13.566      13.808      14.219      14.807      15.584    
  16.560      17.745      19.147      20.778      22.647      24.762      27.127      29.729      32.532      35.467    
  38.423      41.258      43.816      45.961      47.607      48.744      49.436      49.788      49.892      49.788    
  49.436      48.744      47.607      45.961      43.816      41.258      38.423      35.467      32.532      29.729    
  27.127      24.762      22.647      20.778      19.147      17.745      16.560      15.584      14.807      14.219    
  13.808      13.566      16.999      17.067      17.273      17.619      18.106      18.734      19.503      20.411    
  21.459      22.647      23.978      25.452      27.067      28.808      30.646      32.532      34.398      36.160    
  37.733      39.046      40.059      40.770      41.214      41.448      41.519      41.448      41.214      40.770    
  40.059      39.046      37.733      36.160      34.398      32.532      30.646      28.808      27.067      25.452    
  23.978      22.647      21.459      20.411      19.503      18.734      18.106      17.619      17.273      17.067    
  21.451      21.499      21.642      21.874      22.191      22.583      23.041      23.559      24.132      24.762    
  25.452      26.206      27.024      27.897      28.808      29.729      30.621      31.443      32.156      32.733    
  33.162      33.452      33.626      33.714      33.740      33.714      33.626      33.452      33.162      32.733    
  32.156      31.443      30.621      29.729      28.808      27.897      27.024      26.206      25.452      24.762    
  24.132      23.559      23.041      22.583      22.191      21.874      21.642      21.499      27.008      27.024    
  27.067      27.127      27.186      27.230      27.246      27.230      27.186      27.127      27.067      27.024    
  27.008      27.024      27.067      27.127      27.186      27.230      27.246      27.230      27.186      27.127    
  27.067      27.024      27.008      27.024      27.067      27.127      27.186      27.230      27.246      27.230    
  27.186      27.127      27.067      27.024      27.008      27.024      27.067      27.127      27.186      27.230    
  27.246      27.230      27.186      27.127      27.067      27.024      33.740      33.714      33.626      33.452    
  33.162      32.733      32.156      31.443      30.621      29.729      28.808      27.897      27.024      26.206    
  25.452      24.762      24.132      23.559      23.041      22.583      22.191      21.874      21.642      21.499    
  21.451      21.499      21.642      21.874      22.191      22.583      23.041      23.559      24.132      24.762    
  25.452      26.206      27.024      27.897      28.808      29.729      30.621      31.443      32.156      32.733    
  33.162      33.452      33.626      33.714      41.519      41.448      41.214      40.770      40.059      39.046    
  37.733      36.160      34.398      32.532      30.646      28.808      27.067      25.452      23.978      22.647    
  21.459      20.411      19.503      18.734      18.106      17.619      17.273      17.067      16.999      17.067    
  17.273      17.619      18.106      18.734      19.503      20.411      21.459      22.647      23.978      25.452    
  27.067      28.808      30.646      32.532      34.398      36.160      37.733      39.046      40.059      40.770    
  41.214      41.448      49.892      49.788      49.436      48.744      47.607      45.961      43.816      41.258    
  38.423      35.467      32.532      29.729      27.127      24.762      22.647      20.778      19.147      17.745    
  16.560      15.584      14.807      14.219      13.808      13.566      13.486      13.566      13.808      14.219    
  14.807      15.584      16.560      17.745      19.147      20.778      22.647      24.762      27.127      29.729    
  32.532      35.467      38.423      41.258      43.816      45.961      47.607      48.744      49.436      49.788    
  57.894      57.823      57.511      56.728      55.275      53.060      50.092      46.508      42.534      38.423    
  34.398      30.621      27.186      24.132      21.459      19.147      17.173      15.511      14.138      13.030    
  12.166      11.523      11.081      10.823      10.739      10.823      11.081      11.523      12.166      13.030    
  14.138      15.511      17.173      19.147      21.459      24.132      27.186      30.621      34.398      38.423    
  42.534      46.508      50.092      53.060      55.275      56.728      57.511      57.823      63.015      63.192    
  63.494      63.362      62.209      59.742      56.104      51.581      46.508      41.258      36.160      31.443    
  27.230      23.559      20.411      17.745      15.511      13.665      12.168      10.982      10.072      9.4056    
  8.9529      8.6912      8.6056      8.6912      8.9529      9.4056      10.072      10.982      12.168      13.665    
  15.511      17.745      20.411      23.559      27.230      31.443      36.160      41.258      46.508      51.581    
  56.104      59.742      62.209      63.362      63.494      63.192      62.070      62.792      64.536      66.239    
  66.688      65.072      61.328      56.104      50.092      43.816      37.733      32.156      27.246      23.041    
  19.503      16.560      14.138      12.168      10.594      9.3659      8.4364      7.7639      7.3123      7.0533    
  6.9690      7.0533      7.3123      7.7639      8.4364      9.3659      10.594      12.168      14.138      16.560    
  19.503      23.041      27.246      32.156      37.733      43.816      50.092      56.104      61.328      65.072    
  66.688      66.239      64.536      62.792      52.962      54.546      58.625      63.469      67.020      67.718    
  65.072      59.742      53.060      45.961      39.046      32.733      27.230      22.583      18.734      15.584    
  13.030      10.982      9.3659      8.1186      7.1854      6.5172      6.0725      5.8192      5.7371      5.8192    
  6.0725      6.5172      7.1854      8.1186      9.3659      10.982      13.030      15.584      18.734      22.583    
  27.230      32.733      39.046      45.961      53.060      59.742      65.072      67.718      67.020      63.469    
  58.625      54.546      35.854      38.551      45.679      54.741      62.680      67.020      66.688      62.209    
  55.275      47.607      40.059      33.162      27.186      22.191      18.106      14.807      12.166      10.072    
  8.4364      7.1854      6.2573      5.5982      5.1625      4.9157      4.8359      4.9157      5.1625      5.5982    
  6.2573      7.1854      8.4364      10.072      12.166      14.807      18.106      22.191      27.186      33.162    
  40.059      47.607      55.275      62.209      66.688      67.020      62.680      54.741      45.679      38.551    
  13.644      17.552      28.023      41.780      54.741      63.469      66.239      63.362      56.728      48.744    
  40.770      33.452      27.127      21.874      17.619      14.219      11.523      9.4056      7.7639      6.5172    
  5.5982      4.9492      4.5224      4.2815      4.2038      4.2815      4.5224      4.9492      5.5982      6.5172    
  7.7639      9.4056      11.523      14.219      17.619      21.874      27.127      33.452      40.770      48.744    
  56.728      63.362      66.239      63.469      54.741      41.780      28.023      17.552     -8.5736     -3.5665    
  9.9505      28.023      45.679      58.625      64.536      63.494      57.511      49.436      41.214      33.626    
  27.067      21.642      17.273      13.808      11.081      8.9529      7.3123      6.0725      5.1625      4.5224    
  4.1029      3.8668      3.7907      3.8668      4.1029      4.5224      5.1625      6.0725      7.3123      8.9529    
  11.081      13.808      17.273      21.642      27.067      33.626      41.214      49.436      57.511      63.494    
  64.536      58.625      45.679      28.023      9.9505     -3.5665     -24.998     -19.221     -3.5665      17.552    
  38.551      54.546      62.792      63.192      57.823      49.788      41.448      33.714      27.024      21.499    
  17.067      13.566      10.823      8.6912      7.0533      5.8192      4.9157      4.2815      3.8668      3.6337    
  3.5586      3.6337      3.8668      4.2815      4.9157      5.8192      7.0533      8.6912      10.823      13.566    
  17.067      21.499      27.024      33.714      41.448      49.788      57.823      63.192      62.792      54.546    
  38.551      17.552     -3.5665     -19.221     -24.998     -19.221     -3.5665      17.552      38.551      54.546    
  62.792      63.192      57.823      49.788      41.448      33.714      27.024      21.499      17.067      13.566    
  10.823      8.6912      7.0533      5.8192      4.9157      4.2815      3.8668      3.6337      3.5586      3.6337    
  3.8668      4.2815      4.9157      5.8192      7.0533      8.6912      10.823      13.566      17.067      21.499    
  27.024      33.714      41.448      49.788      57.823      63.192      62.792      54.546      38.551      17.552    
 -3.5665     -19.221     -19.221     -12.965      2.5947      23.127      43.226      58.226      65.568      65.272    
  59.446      51.146      42.613      34.722      27.897      22.255      17.716      14.120      11.292      9.0853    
  7.3823      6.0918      5.1394      4.4625      4.0096      3.7416      3.6337      3.6767      3.8774      4.2579    
  4.8544      5.7150      6.8986      8.4758      10.534      13.185      16.571      20.860      26.206      32.681    
  40.167      48.245      56.062      61.426      61.355      53.843      38.979      19.404     -.18872     -14.458    
 -3.5665      2.5947      16.660      34.683      51.824      63.994      69.072      67.287      60.720      52.202    
  43.594      35.666      28.808      23.120      18.521      14.853      11.950      9.6690      7.8974      6.5451    
  5.5376      4.8121      4.3161      4.0096      3.8668      3.8774      4.0469      4.3958      4.9585      5.7806    
  6.9182      8.4379      10.422      12.974      16.228      20.338      25.452      31.641      38.802      46.561    