Diamond si                              
   1.00000000000000     
     5.467635   -0.000000   -0.000000
    -0.000000    5.467635   -0.000000
     0.000000   -0.000000    5.467635
   Si
     8
Direct
  0.000000  0.000000 -0.000000
  0.250000  0.250000  0.250000
  0.500000  0.500000 -0.000000
  0.250000  0.750000  0.750000
  0.500000 -0.000000  0.500000
  0.750000  0.250000  0.750000
  0.000000  0.500000  0.500000
  0.750000  0.750000  0.250000
 
   48   48   48
 -.31360005209E+02 -.25145495942E+02 -.83069168310E+01 0.14402660746E+02 0.36981170127E+02
 0.54198119438E+02 0.63136569918E+02 0.63729599748E+02 0.58228366997E+02 0.49953275216E+02
 0.41400895039E+02 0.33515055627E+02 0.26735997944E+02 0.21175120019E+02 0.16741019779E+02
 0.13257081542E+02 0.10539676106E+02 0.84340941637E+01 0.68207866148E+01 0.56078294877E+01
 0.47214985965E+01 0.41005831347E+01 0.36950655247E+01 0.34673596859E+01 0.33940987425E+01
 0.34673596859E+01 0.36950655247E+01 0.41005831347E+01 0.47214985965E+01 0.56078294877E+01
 0.68207866148E+01 0.84340941637E+01 0.10539676106E+02 0.13257081542E+02 0.16741019779E+02
 0.21175120019E+02 0.26735997944E+02 0.33515055627E+02 0.41400895039E+02 0.49953275216E+02
 0.58228366997E+02 0.63729599748E+02 0.63136569918E+02 0.54198119438E+02 0.36981170127E+02
 0.14402660746E+02 -.83069168310E+01 -.25145495942E+02 -.25145495942E+02 -.19219515737E+02
 -.31825435460E+01 0.18384493974E+02 0.39708074277E+02 0.55778181874E+02 0.63835497813E+02
 0.63879070238E+02 0.58136544612E+02 0.49836616515E+02 0.41321798122E+02 0.33484612596E+02
 0.26749769922E+02 0.21221938842E+02 0.16808949375E+02 0.13336396921E+02 0.10623678751E+02
 0.85187639060E+01 0.69040363156E+01 0.56887958635E+01 0.48000328124E+01 0.41769424592E+01
 0.37697417452E+01 0.35409798038E+01 0.34673596859E+01 0.35409798038E+01 0.37697417452E+01
 0.41769424592E+01 0.48000328124E+01 0.56887958635E+01 0.69040363156E+01 0.85187639060E+01
 0.10623678751E+02 0.13336396921E+02 0.16808949375E+02 0.21221938842E+02 0.26749769922E+02
 0.33484612596E+02 0.41321798122E+02 0.49836616515E+02 0.58136544612E+02 0.63879070238E+02
 0.63835497813E+02 0.55778181874E+02 0.39708074277E+02 0.18384493974E+02 -.31825435460E+01
 -.19219515737E+02 -.83069168310E+01 -.31825435460E+01 0.10629929017E+02 0.29034279519E+02
 0.46899009510E+02 0.59830666561E+02 0.65506328611E+02 0.64101029016E+02 0.57765996041E+02
 0.49450684146E+02 0.41066472650E+02 0.33384710889E+02 0.26787384654E+02 0.21361423488E+02
 0.17013644440E+02 0.13576816773E+02 0.10879562361E+02 0.87778705920E+01 0.71598778535E+01
 0.59385322008E+01 0.50429800965E+01 0.44136762298E+01 0.40015948718E+01 0.37697417452E+01
 0.36950655247E+01 0.37697417452E+01 0.40015948718E+01 0.44136762298E+01 0.50429800965E+01
 0.59385322008E+01 0.71598778535E+01 0.87778705920E+01 0.10879562361E+02 0.13576816773E+02
 0.17013644440E+02 0.21361423488E+02 0.26787384654E+02 0.33384710889E+02 0.41066472650E+02
 0.49450684146E+02 0.57765996041E+02 0.64101029016E+02 0.65506328611E+02 0.59830666561E+02
 0.46899009510E+02 0.29034279519E+02 0.10629929017E+02 -.31825435460E+01 0.14402660746E+02
 0.18384493974E+02 0.29034279519E+02 0.42966444229E+02 0.55986244783E+02 0.64591198940E+02
 0.67075436771E+02 0.63842042455E+02 0.56898964720E+02 0.48706154479E+02 0.40589815903E+02
 0.33193305478E+02 0.26838741277E+02 0.21590499631E+02 0.17357267053E+02 0.13985140369E+02
 0.11318376968E+02 0.92261858979E+01 0.76061047885E+01 0.63770853658E+01 0.54719218092E+01
 0.48333131857E+01 0.44136762298E+01 0.41769424592E+01 0.41005831347E+01 0.41769424592E+01
 0.44136762298E+01 0.48333131857E+01 0.54719218092E+01 0.63770853658E+01 0.76061047885E+01
 0.92261858979E+01 0.11318376968E+02 0.13985140369E+02 0.17357267053E+02 0.21590499631E+02
 0.26838741277E+02 0.33193305478E+02 0.40589815903E+02 0.48706154479E+02 0.56898964720E+02
 0.63842042455E+02 0.67075436771E+02 0.64591198940E+02 0.55986244783E+02 0.42966444229E+02
 0.29034279519E+02 0.18384493974E+02 0.36981170127E+02 0.39708074277E+02 0.46899009510E+02
 0.55986244783E+02 0.63844540393E+02 0.67972358238E+02 0.67331253898E+02 0.62530733242E+02
 0.55350696203E+02 0.47506126020E+02 0.39842032436E+02 0.32884190479E+02 0.26890067815E+02
 0.21903794050E+02 0.17841963073E+02 0.14570956923E+02 0.11956828063E+02 0.98867012189E+01
 0.82707981678E+01 0.70363183473E+01 0.61213047279E+01 0.54719218092E+01 0.50429800965E+01
 0.48000328124E+01 0.47214985965E+01 0.48000328124E+01 0.50429800965E+01 0.54719218092E+01
 0.61213047279E+01 0.70363183473E+01 0.82707981678E+01 0.98867012189E+01 0.11956828063E+02
 0.14570956923E+02 0.17841963073E+02 0.21903794050E+02 0.26890067815E+02 0.32884190479E+02
 0.39842032436E+02 0.47506126020E+02 0.55350696203E+02 0.62530733242E+02 0.67331253898E+02
 0.67972358238E+02 0.63844540393E+02 0.55986244783E+02 0.46899009510E+02 0.39708074277E+02
 0.54198119438E+02 0.55778181874E+02 0.59830666561E+02 0.64591198940E+02 0.67972358238E+02
 0.68419469817E+02 0.65486324095E+02 0.59902493867E+02 0.53034401009E+02 0.45795771349E+02
 0.38793347776E+02 0.32437819928E+02 0.26927622374E+02 0.22293980721E+02 0.18468750317E+02
 0.15344934534E+02 0.12815309742E+02 0.10788531749E+02 0.91901633359E+01 0.79577371146E+01
 0.70363183473E+01 0.63770853658E+01 0.59385322008E+01 0.56887958635E+01 0.56078294877E+01
 0.56887958635E+01 0.59385322008E+01 0.63770853658E+01 0.70363183473E+01 0.79577371146E+01
 0.91901633359E+01 0.10788531749E+02 0.12815309742E+02 0.15344934534E+02 0.18468750317E+02
 0.22293980721E+02 0.26927622374E+02 0.32437819928E+02 0.38793347776E+02 0.45795771349E+02
 0.53034401009E+02 0.59902493867E+02 0.65486324095E+02 0.68419469817E+02 0.67972358238E+02
 0.64591198940E+02 0.59830666561E+02 0.55778181874E+02 0.63136569918E+02 0.63835497813E+02
 0.65506328611E+02 0.67075436771E+02 0.67331253898E+02 0.65486324095E+02 0.61522247525E+02
 0.56123336044E+02 0.49969397149E+02 0.43592886422E+02 0.37450081580E+02 0.31849346320E+02
 0.26941364266E+02 0.22753001700E+02 0.19237250769E+02 0.16317572933E+02 0.13916007180E+02
 0.11964640036E+02 0.10406122118E+02 0.91901633359E+01 0.82707981678E+01 0.76061047885E+01
 0.71598778535E+01 0.69040363156E+01 0.68207866148E+01 0.69040363156E+01 0.71598778535E+01
 0.76061047885E+01 0.82707981678E+01 0.91901633359E+01 0.10406122118E+02 0.11964640036E+02
 0.13916007180E+02 0.16317572933E+02 0.19237250769E+02 0.22753001700E+02 0.26941364266E+02
 0.31849346320E+02 0.37450081580E+02 0.43592886422E+02 0.49969397149E+02 0.56123336044E+02
 0.61522247525E+02 0.65486324095E+02 0.67331253898E+02 0.67075436771E+02 0.65506328611E+02
 0.63835497813E+02 0.63729599748E+02 0.63879070238E+02 0.64101029016E+02 0.63842042455E+02
 0.62530733242E+02 0.59902493867E+02 0.56123336044E+02 0.51475455003E+02 0.46303849252E+02
 0.40988792807E+02 0.35856732548E+02 0.31131421889E+02 0.26927622374E+02 0.23273888937E+02
 0.20146315122E+02 0.17498661634E+02 0.15281507019E+02 0.13450066504E+02 0.11964640036E+02
 0.10788531749E+02 0.98867012189E+01 0.92261858979E+01 0.87778705920E+01 0.85187639060E+01
 0.84340941637E+01 0.85187639060E+01 0.87778705920E+01 0.92261858979E+01 0.98867012189E+01
 0.10788531749E+02 0.11964640036E+02 0.13450066504E+02 0.15281507019E+02 0.17498661634E+02
 0.20146315122E+02 0.23273888937E+02 0.26927622374E+02 0.31131421889E+02 0.35856732548E+02
 0.40988792807E+02 0.46303849252E+02 0.51475455003E+02 0.56123336044E+02 0.59902493867E+02
 0.62530733242E+02 0.63842042455E+02 0.64101029016E+02 0.63879070238E+02 0.58228366997E+02
 0.58136544612E+02 0.57765996041E+02 0.56898964720E+02 0.55350696203E+02 0.53034401009E+02
 0.49969397149E+02 0.46303849252E+02 0.42270716801E+02 0.38124370292E+02 0.34085778087E+02
 0.30311769906E+02 0.26890067815E+02 0.23852415189E+02 0.21195030074E+02 0.18897357659E+02
 0.16934304295E+02 0.15281507019E+02 0.13916007180E+02 0.12815309742E+02 0.11956828063E+02
 0.11318376968E+02 0.10879562361E+02 0.10623678751E+02 0.10539676106E+02 0.10623678751E+02
 0.10879562361E+02 0.11318376968E+02 0.11956828063E+02 0.12815309742E+02 0.13916007180E+02
 0.15281507019E+02 0.16934304295E+02 0.18897357659E+02 0.21195030074E+02 0.23852415189E+02
 0.26890067815E+02 0.30311769906E+02 0.34085778087E+02 0.38124370292E+02 0.42270716801E+02
 0.46303849252E+02 0.49969397149E+02 0.53034401009E+02 0.55350696203E+02 0.56898964720E+02
 0.57765996041E+02 0.58136544612E+02 0.49953275216E+02 0.49836616515E+02 0.49450684146E+02
 0.48706154479E+02 0.47506126020E+02 0.45795771349E+02 0.43592886422E+02 0.40988792807E+02
 0.38124370292E+02 0.35155350313E+02 0.32221347257E+02 0.29427283008E+02 0.26838741277E+02
 0.24487742610E+02 0.22383423018E+02 0.20522616562E+02 0.18897357659E+02 0.17498661634E+02
 0.16317572933E+02 0.15344934534E+02 0.14570956923E+02 0.13985140369E+02 0.13576816773E+02
 0.13336396921E+02 0.13257081542E+02 0.13336396921E+02 0.13576816773E+02 0.13985140369E+02
 0.14570956923E+02 0.15344934534E+02 0.16317572933E+02 0.17498661634E+02 0.18897357659E+02
 0.20522616562E+02 0.22383423018E+02 0.24487742610E+02 0.26838741277E+02 0.29427283008E+02
 0.32221347257E+02 0.35155350313E+02 0.38124370292E+02 0.40988792807E+02 0.43592886422E+02
 0.45795771349E+02 0.47506126020E+02 0.48706154479E+02 0.49450684146E+02 0.49836616515E+02
 0.41400895039E+02 0.41321798122E+02 0.41066472650E+02 0.40589815903E+02 0.39842032436E+02
 0.38793347776E+02 0.37450081580E+02 0.35856732548E+02 0.34085778087E+02 0.32221347257E+02
 0.30343420336E+02 0.28516956236E+02 0.26787384654E+02 0.25181588736E+02 0.23712275958E+02
 0.22383423018E+02 0.21195030074E+02 0.20146315122E+02 0.19237250769E+02 0.18468750317E+02
 0.17841963073E+02 0.17357267053E+02 0.17013644440E+02 0.16808949375E+02 0.16741019779E+02
 0.16808949375E+02 0.17013644440E+02 0.17357267053E+02 0.17841963073E+02 0.18468750317E+02
 0.19237250769E+02 0.20146315122E+02 0.21195030074E+02 0.22383423018E+02 0.23712275958E+02
 0.25181588736E+02 0.26787384654E+02 0.28516956236E+02 0.30343420336E+02 0.32221347257E+02
 0.34085778087E+02 0.35856732548E+02 0.37450081580E+02 0.38793347776E+02 0.39842032436E+02
 0.40589815903E+02 0.41066472650E+02 0.41321798122E+02 0.33515055627E+02 0.33484612596E+02
 0.33384710889E+02 0.33193305478E+02 0.32884190479E+02 0.32437819928E+02 0.31849346320E+02
 0.31131421889E+02 0.30311769906E+02 0.29427283008E+02 0.28516956236E+02 0.27615623953E+02
 0.26749769922E+02 0.25935937143E+02 0.25181588736E+02 0.24487742610E+02 0.23852415189E+02
 0.23273888937E+02 0.22753001700E+02 0.22293980721E+02 0.21903794050E+02 0.21590499631E+02
 0.21361423488E+02 0.21221938842E+02 0.21175120019E+02 0.21221938842E+02 0.21361423488E+02
 0.21590499631E+02 0.21903794050E+02 0.22293980721E+02 0.22753001700E+02 0.23273888937E+02
 0.23852415189E+02 0.24487742610E+02 0.25181588736E+02 0.25935937143E+02 0.26749769922E+02
 0.27615623953E+02 0.28516956236E+02 0.29427283008E+02 0.30311769906E+02 0.31131421889E+02
 0.31849346320E+02 0.32437819928E+02 0.32884190479E+02 0.33193305478E+02 0.33384710889E+02
 0.33484612596E+02 0.26735997944E+02 0.26749769922E+02 0.26787384654E+02 0.26838741277E+02
 0.26890067815E+02 0.26927622374E+02 0.26941364266E+02 0.26927622374E+02 0.26890067815E+02
 0.26838741277E+02 0.26787384654E+02 0.26749769922E+02 0.26735997944E+02 0.26749769922E+02
 0.26787384654E+02 0.26838741277E+02 0.26890067815E+02 0.26927622374E+02 0.26941364266E+02
 0.26927622374E+02 0.26890067815E+02 0.26838741277E+02 0.26787384654E+02 0.26749769922E+02
 0.26735997944E+02 0.26749769922E+02 0.26787384654E+02 0.26838741277E+02 0.26890067815E+02
 0.26927622374E+02 0.26941364266E+02 0.26927622374E+02 0.26890067815E+02 0.26838741277E+02
 0.26787384654E+02 0.26749769922E+02 0.26735997944E+02 0.26749769922E+02 0.26787384654E+02
 0.26838741277E+02 0.26890067815E+02 0.26927622374E+02 0.26941364266E+02 0.26927622374E+02
 0.26890067815E+02 0.26838741277E+02 0.26787384654E+02 0.26749769922E+02 0.21175120019E+02
 0.21221938842E+02 0.21361423488E+02 0.21590499631E+02 0.21903794050E+02 0.22293980721E+02
 0.22753001700E+02 0.23273888937E+02 0.23852415189E+02 0.24487742610E+02 0.25181588736E+02
 0.25935937143E+02 0.26749769922E+02 0.27615623953E+02 0.28516956236E+02 0.29427283008E+02
 0.30311769906E+02 0.31131421889E+02 0.31849346320E+02 0.32437819928E+02 0.32884190479E+02
 0.33193305478E+02 0.33384710889E+02 0.33484612596E+02 0.33515055627E+02 0.33484612596E+02
 0.33384710889E+02 0.33193305478E+02 0.32884190479E+02 0.32437819928E+02 0.31849346320E+02
 0.31131421889E+02 0.30311769906E+02 0.29427283008E+02 0.28516956236E+02 0.27615623953E+02
 0.26749769922E+02 0.25935937143E+02 0.25181588736E+02 0.24487742610E+02 0.23852415189E+02
 0.23273888937E+02 0.22753001700E+02 0.22293980721E+02 0.21903794050E+02 0.21590499631E+02
 0.21361423488E+02 0.21221938842E+02 0.16741019779E+02 0.16808949375E+02 0.17013644440E+02
 0.17357267053E+02 0.17841963073E+02 0.18468750317E+02 0.19237250769E+02 0.20146315122E+02
 0.21195030074E+02 0.22383423018E+02 0.23712275958E+02 0.25181588736E+02 0.26787384654E+02
 0.28516956236E+02 0.30343420336E+02 0.32221347257E+02 0.34085778087E+02 0.35856732548E+02
 0.37450081580E+02 0.38793347776E+02 0.39842032436E+02 0.40589815903E+02 0.41066472650E+02
 0.41321798122E+02 0.41400895039E+02 0.41321798122E+02 0.41066472650E+02 0.40589815903E+02
 0.39842032436E+02 0.38793347776E+02 0.37450081580E+02 0.35856732548E+02 0.34085778087E+02
 0.32221347257E+02 0.30343420336E+02 0.28516956236E+02 0.26787384654E+02 0.25181588736E+02
 0.23712275958E+02 0.22383423018E+02 0.21195030074E+02 0.20146315122E+02 0.19237250769E+02
 0.18468750317E+02 0.17841963073E+02 0.17357267053E+02 0.17013644440E+02 0.16808949375E+02
 0.13257081542E+02 0.13336396921E+02 0.13576816773E+02 0.13985140369E+02 0.14570956923E+02
 0.15344934534E+02 0.16317572933E+02 0.17498661634E+02 0.18897357659E+02 0.20522616562E+02
 0.22383423018E+02 0.24487742610E+02 0.26838741277E+02 0.29427283008E+02 0.32221347257E+02
 0.35155350313E+02 0.38124370292E+02 0.40988792807E+02 0.43592886422E+02 0.45795771349E+02
 0.47506126020E+02 0.48706154479E+02 0.49450684146E+02 0.49836616515E+02 0.49953275216E+02
 0.49836616515E+02 0.49450684146E+02 0.48706154479E+02 0.47506126020E+02 0.45795771349E+02
 0.43592886422E+02 0.40988792807E+02 0.38124370292E+02 0.35155350313E+02 0.32221347257E+02
 0.29427283008E+02 0.26838741277E+02 0.24487742610E+02 0.22383423018E+02 0.20522616562E+02
 0.18897357659E+02 0.17498661634E+02 0.16317572933E+02 0.15344934534E+02 0.14570956923E+02
 0.13985140369E+02 0.13576816773E+02 0.13336396921E+02 0.10539676106E+02 0.10623678751E+02
 0.10879562361E+02 0.11318376968E+02 0.11956828063E+02 0.12815309742E+02 0.13916007180E+02
 0.15281507019E+02 0.16934304295E+02 0.18897357659E+02 0.21195030074E+02 0.23852415189E+02
 0.26890067815E+02 0.30311769906E+02 0.34085778087E+02 0.38124370292E+02 0.42270716801E+02
 0.46303849252E+02 0.49969397149E+02 0.53034401009E+02 0.55350696203E+02 0.56898964720E+02
 0.57765996041E+02 0.58136544612E+02 0.58228366997E+02 0.58136544612E+02 0.57765996041E+02
 0.56898964720E+02 0.55350696203E+02 0.53034401009E+02 0.49969397149E+02 0.46303849252E+02
 0.42270716801E+02 0.38124370292E+02 0.34085778087E+02 0.30311769906E+02 0.26890067815E+02
 0.23852415189E+02 0.21195030074E+02 0.18897357659E+02 0.16934304295E+02 0.15281507019E+02
 0.13916007180E+02 0.12815309742E+02 0.11956828063E+02 0.11318376968E+02 0.10879562361E+02
 0.10623678751E+02 0.84340941637E+01 0.85187639060E+01 0.87778705920E+01 0.92261858979E+01
 0.98867012189E+01 0.10788531749E+02 0.11964640036E+02 0.13450066504E+02 0.15281507019E+02
 0.17498661634E+02 0.20146315122E+02 0.23273888937E+02 0.26927622374E+02 0.31131421889E+02
 0.35856732548E+02 0.40988792807E+02 0.46303849252E+02 0.51475455003E+02 0.56123336044E+02
 0.59902493867E+02 0.62530733242E+02 0.63842042455E+02 0.64101029016E+02 0.63879070238E+02
 0.63729599748E+02 0.63879070238E+02 0.64101029016E+02 0.63842042455E+02 0.62530733242E+02
 0.59902493867E+02 0.56123336044E+02 0.51475455003E+02 0.46303849252E+02 0.40988792807E+02
 0.35856732548E+02 0.31131421889E+02 0.26927622374E+02 0.23273888937E+02 0.20146315122E+02
 0.17498661634E+02 0.15281507019E+02 0.13450066504E+02 0.11964640036E+02 0.10788531749E+02
 0.98867012189E+01 0.92261858979E+01 0.87778705920E+01 0.85187639060E+01 0.68207866148E+01
 0.69040363156E+01 0.71598778535E+01 0.76061047885E+01 0.82707981678E+01 0.91901633359E+01
 0.10406122118E+02 0.11964640036E+02 0.13916007180E+02 0.16317572933E+02 0.19237250769E+02
 0.22753001700E+02 0.26941364266E+02 0.31849346320E+02 0.37450081580E+02 0.43592886422E+02
 0.49969397149E+02 0.56123336044E+02 0.61522247525E+02 0.65486324095E+02 0.67331253898E+02
 0.67075436771E+02 0.65506328611E+02 0.63835497813E+02 0.63136569918E+02 0.63835497813E+02
 0.65506328611E+02 0.67075436771E+02 0.67331253898E+02 0.65486324095E+02 0.61522247525E+02
 0.56123336044E+02 0.49969397149E+02 0.43592886422E+02 0.37450081580E+02 0.31849346320E+02
 0.26941364266E+02 0.22753001700E+02 0.19237250769E+02 0.16317572933E+02 0.13916007180E+02
 0.11964640036E+02 0.10406122118E+02 0.91901633359E+01 0.82707981678E+01 0.76061047885E+01
 0.71598778535E+01 0.69040363156E+01 0.56078294877E+01 0.56887958635E+01 0.59385322008E+01
 0.63770853658E+01 0.70363183473E+01 0.79577371146E+01 0.91901633359E+01 0.10788531749E+02
 0.12815309742E+02 0.15344934534E+02 0.18468750317E+02 0.22293980721E+02 0.26927622374E+02
 0.32437819928E+02 0.38793347776E+02 0.45795771349E+02 0.53034401009E+02 0.59902493867E+02
 0.65486324095E+02 0.68419469817E+02 0.67972358238E+02 0.64591198940E+02 0.59830666561E+02
 0.55778181874E+02 0.54198119438E+02 0.55778181874E+02 0.59830666561E+02 0.64591198940E+02
 0.67972358238E+02 0.68419469817E+02 0.65486324095E+02 0.59902493867E+02 0.53034401009E+02
 0.45795771349E+02 0.38793347776E+02 0.32437819928E+02 0.26927622374E+02 0.22293980721E+02
 0.18468750317E+02 0.15344934534E+02 0.12815309742E+02 0.10788531749E+02 0.91901633359E+01
 0.79577371146E+01 0.70363183473E+01 0.63770853658E+01 0.59385322008E+01 0.56887958635E+01
 0.47214985965E+01 0.48000328124E+01 0.50429800965E+01 0.54719218092E+01 0.61213047279E+01
 0.70363183473E+01 0.82707981678E+01 0.98867012189E+01 0.11956828063E+02 0.14570956923E+02
 0.17841963073E+02 0.21903794050E+02 0.26890067815E+02 0.32884190479E+02 0.39842032436E+02
 0.47506126020E+02 0.55350696203E+02 0.62530733242E+02 0.67331253898E+02 0.67972358238E+02
 0.63844540393E+02 0.55986244783E+02 0.46899009510E+02 0.39708074277E+02 0.36981170127E+02
 0.39708074277E+02 0.46899009510E+02 0.55986244783E+02 0.63844540393E+02 0.67972358238E+02
 0.67331253898E+02 0.62530733242E+02 0.55350696203E+02 0.47506126020E+02 0.39842032436E+02
 0.32884190479E+02 0.26890067815E+02 0.21903794050E+02 0.17841963073E+02 0.14570956923E+02
 0.11956828063E+02 0.98867012189E+01 0.82707981678E+01 0.70363183473E+01 0.61213047279E+01
 0.54719218092E+01 0.50429800965E+01 0.48000328124E+01 0.41005831347E+01 0.41769424592E+01
 0.44136762298E+01 0.48333131857E+01 0.54719218092E+01 0.63770853658E+01 0.76061047885E+01
 0.92261858979E+01 0.11318376968E+02 0.13985140369E+02 0.17357267053E+02 0.21590499631E+02
 0.26838741277E+02 0.33193305478E+02 0.40589815903E+02 0.48706154479E+02 0.56898964720E+02
 0.63842042455E+02 0.67075436771E+02 0.64591198940E+02 0.55986244783E+02 0.42966444229E+02
 0.29034279519E+02 0.18384493974E+02 0.14402660746E+02 0.18384493974E+02 0.29034279519E+02
 0.42966444229E+02 0.55986244783E+02 0.64591198940E+02 0.67075436771E+02 0.63842042455E+02
 0.56898964720E+02 0.48706154479E+02 0.40589815903E+02 0.33193305478E+02 0.26838741277E+02
 0.21590499631E+02 0.17357267053E+02 0.13985140369E+02 0.11318376968E+02 0.92261858979E+01
 0.76061047885E+01 0.63770853658E+01 0.54719218092E+01 0.48333131857E+01 0.44136762298E+01
 0.41769424592E+01 0.36950655247E+01 0.37697417452E+01 0.40015948718E+01 0.44136762298E+01
 0.50429800965E+01 0.59385322008E+01 0.71598778535E+01 0.87778705920E+01 0.10879562361E+02
 0.13576816773E+02 0.17013644440E+02 0.21361423488E+02 0.26787384654E+02 0.33384710889E+02
 0.41066472650E+02 0.49450684146E+02 0.57765996041E+02 0.64101029016E+02 0.65506328611E+02
 0.59830666561E+02 0.46899009510E+02 0.29034279519E+02 0.10629929017E+02 -.31825435460E+01
 -.83069168310E+01 -.31825435460E+01 0.10629929017E+02 0.29034279519E+02 0.46899009510E+02
 0.59830666561E+02 0.65506328611E+02 0.64101029016E+02 0.57765996041E+02 0.49450684146E+02
 0.41066472650E+02 0.33384710889E+02 0.26787384654E+02 0.21361423488E+02 0.17013644440E+02
 0.13576816773E+02 0.10879562361E+02 0.87778705920E+01 0.71598778535E+01 0.59385322008E+01
 0.50429800965E+01 0.44136762298E+01 0.40015948718E+01 0.37697417452E+01 0.34673596859E+01
 0.35409798038E+01 0.37697417452E+01 0.41769424592E+01 0.48000328124E+01 0.56887958635E+01
 0.69040363156E+01 0.85187639060E+01 0.10623678751E+02 0.13336396921E+02 0.16808949375E+02
 0.21221938842E+02 0.26749769922E+02 0.33484612596E+02 0.41321798122E+02 0.49836616515E+02
 0.58136544612E+02 0.63879070238E+02 0.63835497813E+02 0.55778181874E+02 0.39708074277E+02
 0.18384493974E+02 -.31825435460E+01 -.19219515737E+02 -.25145495942E+02 -.19219515737E+02
 -.31825435460E+01 0.18384493974E+02 0.39708074277E+02 0.55778181874E+02 0.63835497813E+02
 0.63879070238E+02 0.58136544612E+02 0.49836616515E+02 0.41321798122E+02 0.33484612596E+02
 0.26749769922E+02 0.21221938842E+02 0.16808949375E+02 0.13336396921E+02 0.10623678751E+02
 0.85187639060E+01 0.69040363156E+01 0.56887958635E+01 0.48000328124E+01 0.41769424592E+01
 0.37697417452E+01 0.35409798038E+01 0.33940987425E+01 0.34673596859E+01 0.36950655247E+01
 0.41005831347E+01 0.47214985965E+01 0.56078294877E+01 0.68207866148E+01 0.84340941637E+01
 0.10539676106E+02 0.13257081542E+02 0.16741019779E+02 0.21175120019E+02 0.26735997944E+02
 0.33515055627E+02 0.41400895039E+02 0.49953275216E+02 0.58228366997E+02 0.63729599748E+02
 0.63136569918E+02 0.54198119438E+02 0.36981170127E+02 0.14402660746E+02 -.83069168310E+01
 -.25145495942E+02 -.31360005209E+02 -.25145495942E+02 -.83069168310E+01 0.14402660746E+02
 0.36981170127E+02 0.54198119438E+02 0.63136569918E+02 0.63729599748E+02 0.58228366997E+02
 0.49953275216E+02 0.41400895039E+02 0.33515055627E+02 0.26735997944E+02 0.21175120019E+02
 0.16741019779E+02 0.13257081542E+02 0.10539676106E+02 0.84340941637E+01 0.68207866148E+01
 0.56078294877E+01 0.47214985965E+01 0.41005831347E+01 0.36950655247E+01 0.34673596859E+01
 0.34673596859E+01 0.35409798038E+01 0.37697417452E+01 0.41769424592E+01 0.48000328124E+01
 0.56887958635E+01 0.69040363156E+01 0.85187639060E+01 0.10623678751E+02 0.13336396921E+02
 0.16808949375E+02 0.21221938842E+02 0.26749769922E+02 0.33484612596E+02 0.41321798122E+02
 0.49836616515E+02 0.58136544612E+02 0.63879070238E+02 0.63835497813E+02 0.55778181874E+02
 0.39708074277E+02 0.18384493974E+02 -.31825435460E+01 -.19219515737E+02 -.25145495942E+02
 -.19219515737E+02 -.31825435460E+01 0.18384493974E+02 0.39708074277E+02 0.55778181874E+02
 0.63835497813E+02 0.63879070238E+02 0.58136544612E+02 0.49836616515E+02 0.41321798122E+02
 0.33484612596E+02 0.26749769922E+02 0.21221938842E+02 0.16808949375E+02 0.13336396921E+02
 0.10623678751E+02 0.85187639060E+01 0.69040363156E+01 0.56887958635E+01 0.48000328124E+01
 0.41769424592E+01 0.37697417452E+01 0.35409798038E+01 0.36950655247E+01 0.37697417452E+01
 0.40015948718E+01 0.44136762298E+01 0.50429800965E+01 0.59385322008E+01 0.71598778535E+01
 0.87778705920E+01 0.10879562361E+02 0.13576816773E+02 0.17013644440E+02 0.21361423488E+02
 0.26787384654E+02 0.33384710889E+02 0.41066472650E+02 0.49450684146E+02 0.57765996041E+02
 0.64101029016E+02 0.65506328611E+02 0.59830666561E+02 0.46899009510E+02 0.29034279519E+02
 0.10629929017E+02 -.31825435460E+01 -.83069168310E+01 -.31825435460E+01 0.10629929017E+02
 0.29034279519E+02 0.46899009510E+02 0.59830666561E+02 0.65506328611E+02 0.64101029016E+02
 0.57765996041E+02 0.49450684146E+02 0.41066472650E+02 0.33384710889E+02 0.26787384654E+02
 0.21361423488E+02 0.17013644440E+02 0.13576816773E+02 0.10879562361E+02 0.87778705920E+01
 0.71598778535E+01 0.59385322008E+01 0.50429800965E+01 0.44136762298E+01 0.40015948718E+01
 0.37697417452E+01 0.41005831347E+01 0.41769424592E+01 0.44136762298E+01 0.48333131857E+01
 0.54719218092E+01 0.63770853658E+01 0.76061047885E+01 0.92261858979E+01 0.11318376968E+02
 0.13985140369E+02 0.17357267053E+02 0.21590499631E+02 0.26838741277E+02 0.33193305478E+02
 0.40589815903E+02 0.48706154479E+02 0.56898964720E+02 0.63842042455E+02 0.67075436771E+02
 0.64591198940E+02 0.55986244783E+02 0.42966444229E+02 0.29034279519E+02 0.18384493974E+02
 0.14402660746E+02 0.18384493974E+02 0.29034279519E+02 0.42966444229E+02 0.55986244783E+02
 0.64591198940E+02 0.67075436771E+02 0.63842042455E+02 0.56898964720E+02 0.48706154479E+02
 0.40589815903E+02 0.33193305478E+02 0.26838741277E+02 0.21590499631E+02 0.17357267053E+02
 0.13985140369E+02 0.11318376968E+02 0.92261858979E+01 0.76061047885E+01 0.63770853658E+01
 0.54719218092E+01 0.48333131857E+01 0.44136762298E+01 0.41769424592E+01 0.47214985965E+01
 0.48000328124E+01 0.50429800965E+01 0.54719218092E+01 0.61213047279E+01 0.70363183473E+01
 0.82707981678E+01 0.98867012189E+01 0.11956828063E+02 0.14570956923E+02 0.17841963073E+02
 0.21903794050E+02 0.26890067815E+02 0.32884190479E+02 0.39842032436E+02 0.47506126020E+02
 0.55350696203E+02 0.62530733242E+02 0.67331253898E+02 0.67972358238E+02 0.63844540393E+02
 0.55986244783E+02 0.46899009510E+02 0.39708074277E+02 0.36981170127E+02 0.39708074277E+02
 0.46899009510E+02 0.55986244783E+02 0.63844540393E+02 0.67972358238E+02 0.67331253898E+02
 0.62530733242E+02 0.55350696203E+02 0.47506126020E+02 0.39842032436E+02 0.32884190479E+02
 0.26890067815E+02 0.21903794050E+02 0.17841963073E+02 0.14570956923E+02 0.11956828063E+02
 0.98867012189E+01 0.82707981678E+01 0.70363183473E+01 0.61213047279E+01 0.54719218092E+01
 0.50429800965E+01 0.48000328124E+01 0.56078294877E+01 0.56887958635E+01 0.59385322008E+01
 0.63770853658E+01 0.70363183473E+01 0.79577371146E+01 0.91901633359E+01 0.10788531749E+02
 0.12815309742E+02 0.15344934534E+02 0.18468750317E+02 0.22293980721E+02 0.26927622374E+02
 0.32437819928E+02 0.38793347776E+02 0.45795771349E+02 0.53034401009E+02 0.59902493867E+02
 0.65486324095E+02 0.68419469817E+02 0.67972358238E+02 0.64591198940E+02 0.59830666561E+02
 0.55778181874E+02 0.54198119438E+02 0.55778181874E+02 0.59830666561E+02 0.64591198940E+02
 0.67972358238E+02 0.68419469817E+02 0.65486324095E+02 0.59902493867E+02 0.53034401009E+02
 0.45795771349E+02 0.38793347776E+02 0.32437819928E+02 0.26927622374E+02 0.22293980721E+02
 0.18468750317E+02 0.15344934534E+02 0.12815309742E+02 0.10788531749E+02 0.91901633359E+01
 0.79577371146E+01 0.70363183473E+01 0.63770853658E+01 0.59385322008E+01 0.56887958635E+01
 0.68207866148E+01 0.69040363156E+01 0.71598778535E+01 0.76061047885E+01 0.82707981678E+01
 0.91901633359E+01 0.10406122118E+02 0.11964640036E+02 0.13916007180E+02 0.16317572933E+02
 0.19237250769E+02 0.22753001700E+02 0.26941364266E+02 0.31849346320E+02 0.37450081580E+02
 0.43592886422E+02 0.49969397149E+02 0.56123336044E+02 0.61522247525E+02 0.65486324095E+02
 0.67331253898E+02 0.67075436771E+02 0.65506328611E+02 0.63835497813E+02 0.63136569918E+02
 0.63835497813E+02 0.65506328611E+02 0.67075436771E+02 0.67331253898E+02 0.65486324095E+02
 0.61522247525E+02 0.56123336044E+02 0.49969397149E+02 0.43592886422E+02 0.37450081580E+02
 0.31849346320E+02 0.26941364266E+02 0.22753001700E+02 0.19237250769E+02 0.16317572933E+02
 0.13916007180E+02 0.11964640036E+02 0.10406122118E+02 0.91901633359E+01 0.82707981678E+01
 0.76061047885E+01 0.71598778535E+01 0.69040363156E+01 0.84340941637E+01 0.85187639060E+01
 0.87778705920E+01 0.92261858979E+01 0.98867012189E+01 0.10788531749E+02 0.11964640036E+02
 0.13450066504E+02 0.15281507019E+02 0.17498661634E+02 0.20146315122E+02 0.23273888937E+02
 0.26927622374E+02 0.31131421889E+02 0.35856732548E+02 0.40988792807E+02 0.46303849252E+02
 0.51475455003E+02 0.56123336044E+02 0.59902493867E+02 0.62530733242E+02 0.63842042455E+02
 0.64101029016E+02 0.63879070238E+02 0.63729599748E+02 0.63879070238E+02 0.64101029016E+02
 0.63842042455E+02 0.62530733242E+02 0.59902493867E+02 0.56123336044E+02 0.51475455003E+02
 0.46303849252E+02 0.40988792807E+02 0.35856732548E+02 0.31131421889E+02 0.26927622374E+02
 0.23273888937E+02 0.20146315122E+02 0.17498661634E+02 0.15281507019E+02 0.13450066504E+02
 0.11964640036E+02 0.10788531749E+02 0.98867012189E+01 0.92261858979E+01 0.87778705920E+01
 0.85187639060E+01 0.10539676106E+02 0.10623678751E+02 0.10879562361E+02 0.11318376968E+02
 0.11956828063E+02 0.12815309742E+02 0.13916007180E+02 0.15281507019E+02 0.16934304295E+02
 0.18897357659E+02 0.21195030074E+02 0.23852415189E+02 0.26890067815E+02 0.30311769906E+02
 0.34085778087E+02 0.38124370292E+02 0.42270716801E+02 0.46303849252E+02 0.49969397149E+02
 0.53034401009E+02 0.55350696203E+02 0.56898964720E+02 0.57765996041E+02 0.58136544612E+02
 0.58228366997E+02 0.58136544612E+02 0.57765996041E+02 0.56898964720E+02 0.55350696203E+02
 0.53034401009E+02 0.49969397149E+02 0.46303849252E+02 0.42270716801E+02 0.38124370292E+02
 0.34085778087E+02 0.30311769906E+02 0.26890067815E+02 0.23852415189E+02 0.21195030074E+02
 0.18897357659E+02 0.16934304295E+02 0.15281507019E+02 0.13916007180E+02 0.12815309742E+02
 0.11956828063E+02 0.11318376968E+02 0.10879562361E+02 0.10623678751E+02 0.13257081542E+02
 0.13336396921E+02 0.13576816773E+02 0.13985140369E+02 0.14570956923E+02 0.15344934534E+02
 0.16317572933E+02 0.17498661634E+02 0.18897357659E+02 0.20522616562E+02 0.22383423018E+02
 0.24487742610E+02 0.26838741277E+02 0.29427283008E+02 0.32221347257E+02 0.35155350313E+02
 0.38124370292E+02 0.40988792807E+02 0.43592886422E+02 0.45795771349E+02 0.47506126020E+02
 0.48706154479E+02 0.49450684146E+02 0.49836616515E+02 0.49953275216E+02 0.49836616515E+02
 0.49450684146E+02 0.48706154479E+02 0.47506126020E+02 0.45795771349E+02 0.43592886422E+02
 0.40988792807E+02 0.38124370292E+02 0.35155350313E+02 0.32221347257E+02 0.29427283008E+02