   8   8   1   0
  0.2001288E+02  0.5430000E-09  0.5430000E-09  0.5430000E-09  0.5000000E-15
  1.000000000000000E-004
  CAR 
 Diamond si                              
     16.73251871     -7.29400735  301      5.98398328      1.00000000
     -7.294  0.0000E+00  0.0000E+00  0.0000E+00  0.0000E+00
     -7.214  0.0000E+00  0.0000E+00  0.0000E+00  0.0000E+00
     -7.134  0.0000E+00  0.0000E+00  0.0000E+00  0.0000E+00
     -7.054  0.0000E+00  0.0000E+00  0.0000E+00  0.0000E+00
     -6.974  0.0000E+00  0.0000E+00  0.0000E+00  0.0000E+00
     -6.894  0.0000E+00  0.0000E+00  0.0000E+00  0.0000E+00
     -6.813  0.0000E+00  0.0000E+00  0.0000E+00  0.0000E+00
     -6.733  0.1968E-16  0.1968E-16  0.1577E-17  0.1577E-17
     -6.653  0.6517E-13  0.6520E-13  0.5221E-14  0.5223E-14
     -6.573  0.6494E-10  0.6497E-10  0.5206E-11  0.5208E-11
     -6.493  0.2014E-07  0.2015E-07  0.1618E-08  0.1619E-08
     -6.413  0.2036E-05  0.2037E-05  0.1647E-06  0.1647E-06
     -6.333  0.7067E-04  0.7069E-04  0.5825E-05  0.5826E-05
     -6.253  0.8924E-03  0.8925E-03  0.7730E-04  0.7731E-04
     -6.173  0.4492E-02  0.4493E-02  0.4371E-03  0.4371E-03
     -6.093  0.1107E-01  0.1107E-01  0.1323E-02  0.1323E-02
     -6.013  0.1774E-01  0.1774E-01  0.2744E-02  0.2744E-02
     -5.933  0.2192E-01  0.2192E-01  0.4500E-02  0.4500E-02
     -5.852  0.2656E-01  0.2656E-01  0.6627E-02  0.6627E-02
     -5.772  0.3048E-01  0.3048E-01  0.9067E-02  0.9068E-02
     -5.692  0.3188E-01  0.3188E-01  0.1162E-01  0.1162E-01
     -5.612  0.3466E-01  0.3466E-01  0.1440E-01  0.1440E-01
     -5.532  0.4135E-01  0.4135E-01  0.1771E-01  0.1771E-01
     -5.452  0.4205E-01  0.4205E-01  0.2108E-01  0.2108E-01
     -5.372  0.3897E-01  0.3897E-01  0.2420E-01  0.2420E-01
     -5.292  0.4644E-01  0.4644E-01  0.2792E-01  0.2792E-01
     -5.212  0.5364E-01  0.5364E-01  0.3221E-01  0.3221E-01
     -5.132  0.5096E-01  0.5096E-01  0.3629E-01  0.3629E-01
     -5.052  0.5045E-01  0.5045E-01  0.4033E-01  0.4033E-01
     -4.971  0.5494E-01  0.5494E-01  0.4473E-01  0.4473E-01
     -4.891  0.5601E-01  0.5601E-01  0.4922E-01  0.4922E-01
     -4.811  0.6376E-01  0.6377E-01  0.5433E-01  0.5433E-01
     -4.731  0.7041E-01  0.7041E-01  0.5996E-01  0.5997E-01
     -4.651  0.6402E-01  0.6402E-01  0.6509E-01  0.6509E-01
     -4.571  0.5948E-01  0.5948E-01  0.6986E-01  0.6986E-01
     -4.491  0.6599E-01  0.6599E-01  0.7514E-01  0.7514E-01
     -4.411  0.8227E-01  0.8227E-01  0.8173E-01  0.8173E-01
     -4.331  0.8653E-01  0.8653E-01  0.8866E-01  0.8866E-01
     -4.251  0.7685E-01  0.7685E-01  0.9481E-01  0.9481E-01
     -4.171  0.8317E-01  0.8317E-01  0.1015E+00  0.1015E+00
     -4.090  0.8887E-01  0.8887E-01  0.1086E+00  0.1086E+00
     -4.010  0.9187E-01  0.9187E-01  0.1159E+00  0.1160E+00
     -3.930  0.1029E+00  0.1029E+00  0.1242E+00  0.1242E+00
     -3.850  0.1183E+00  0.1183E+00  0.1337E+00  0.1337E+00
     -3.770  0.1344E+00  0.1344E+00  0.1444E+00  0.1444E+00
     -3.690  0.1162E+00  0.1162E+00  0.1537E+00  0.1537E+00
     -3.610  0.9255E-01  0.9255E-01  0.1611E+00  0.1611E+00
     -3.530  0.1087E+00  0.1087E+00  0.1699E+00  0.1699E+00
     -3.450  0.1026E+00  0.1026E+00  0.1781E+00  0.1781E+00
     -3.370  0.8827E-01  0.8827E-01  0.1851E+00  0.1851E+00
     -3.290  0.9566E-01  0.9566E-01  0.1928E+00  0.1928E+00
     -3.209  0.1077E+00  0.1077E+00  0.2014E+00  0.2014E+00
     -3.129  0.1094E+00  0.1094E+00  0.2102E+00  0.2102E+00
     -3.049  0.8356E-01  0.8356E-01  0.2169E+00  0.2169E+00
     -2.969  0.5696E-01  0.5696E-01  0.2215E+00  0.2215E+00
     -2.889  0.5061E-01  0.5061E-01  0.2255E+00  0.2255E+00
     -2.809  0.6149E-01  0.6149E-01  0.2304E+00  0.2304E+00
     -2.729  0.8862E-01  0.8862E-01  0.2375E+00  0.2375E+00
     -2.649  0.9422E-01  0.9422E-01  0.2451E+00  0.2451E+00
     -2.569  0.7230E-01  0.7229E-01  0.2509E+00  0.2509E+00
     -2.489  0.4658E-01  0.4658E-01  0.2546E+00  0.2546E+00
     -2.409  0.2784E-01  0.2784E-01  0.2568E+00  0.2568E+00
     -2.329  0.2305E-01  0.2305E-01  0.2587E+00  0.2587E+00
     -2.248  0.2515E-01  0.2515E-01  0.2607E+00  0.2607E+00
     -2.168  0.2832E-01  0.2832E-01  0.2630E+00  0.2630E+00
     -2.088  0.3199E-01  0.3199E-01  0.2655E+00  0.2655E+00
     -2.008  0.3558E-01  0.3558E-01  0.2684E+00  0.2684E+00
     -1.928  0.3031E-01  0.3031E-01  0.2708E+00  0.2708E+00
     -1.848  0.1952E-01  0.1952E-01  0.2724E+00  0.2724E+00
     -1.768  0.1513E-01  0.1513E-01  0.2736E+00  0.2736E+00
     -1.688  0.1588E-01  0.1588E-01  0.2748E+00  0.2748E+00
     -1.608  0.1906E-01  0.1906E-01  0.2764E+00  0.2764E+00
     -1.528  0.3132E-01  0.3132E-01  0.2789E+00  0.2789E+00
     -1.448  0.8223E-01  0.8224E-01  0.2855E+00  0.2855E+00
     -1.367  0.1236E+00  0.1236E+00  0.2954E+00  0.2954E+00
     -1.287  0.9394E-01  0.9394E-01  0.3029E+00  0.3029E+00
     -1.207  0.8314E-01  0.8314E-01  0.3095E+00  0.3095E+00
     -1.127  0.1288E+00  0.1288E+00  0.3199E+00  0.3199E+00
     -1.047  0.1756E+00  0.1756E+00  0.3339E+00  0.3339E+00
     -0.967  0.1780E+00  0.1780E+00  0.3482E+00  0.3482E+00
     -0.887  0.1478E+00  0.1478E+00  0.3600E+00  0.3600E+00
     -0.807  0.1177E+00  0.1177E+00  0.3694E+00  0.3694E+00
     -0.727  0.1381E+00  0.1381E+00  0.3805E+00  0.3805E+00
     -0.647  0.1251E+00  0.1251E+00  0.3905E+00  0.3905E+00
     -0.567  0.6567E-01  0.6567E-01  0.3958E+00  0.3958E+00
     -0.486  0.5970E-01  0.5970E-01  0.4006E+00  0.4006E+00
     -0.406  0.9039E-01  0.9039E-01  0.4078E+00  0.4078E+00
     -0.326  0.8642E-01  0.8641E-01  0.4147E+00  0.4147E+00
     -0.246  0.5651E-01  0.5651E-01  0.4193E+00  0.4193E+00
     -0.166  0.4311E-01  0.4311E-01  0.4227E+00  0.4227E+00
     -0.086  0.6356E-01  0.6356E-01  0.4278E+00  0.4278E+00
     -0.006  0.1001E+00  0.1001E+00  0.4358E+00  0.4358E+00
      0.074  0.7953E-01  0.7953E-01  0.4422E+00  0.4422E+00
      0.154  0.3770E-01  0.3770E-01  0.4452E+00  0.4452E+00
      0.234  0.2507E-01  0.2507E-01  0.4472E+00  0.4472E+00
      0.314  0.3974E-01  0.3974E-01  0.4504E+00  0.4504E+00
      0.394  0.6684E-01  0.6684E-01  0.4557E+00  0.4557E+00
      0.475  0.6235E-01  0.6235E-01  0.4607E+00  0.4607E+00
      0.555  0.3564E-01  0.3564E-01  0.4636E+00  0.4636E+00
      0.635  0.2803E-01  0.2803E-01  0.4658E+00  0.4658E+00
      0.715  0.2548E-01  0.2548E-01  0.4679E+00  0.4679E+00
      0.795  0.4433E-01  0.4433E-01  0.4714E+00  0.4714E+00
      0.875  0.6761E-01  0.6761E-01  0.4768E+00  0.4768E+00
      0.955  0.4749E-01  0.4749E-01  0.4807E+00  0.4807E+00
      1.035  0.1999E-01  0.1999E-01  0.4823E+00  0.4823E+00
      1.115  0.1455E-01  0.1455E-01  0.4834E+00  0.4834E+00
      1.195  0.1925E-01  0.1925E-01  0.4850E+00  0.4850E+00
      1.275  0.3410E-01  0.3410E-01  0.4877E+00  0.4877E+00
      1.356  0.6756E-01  0.6756E-01  0.4931E+00  0.4931E+00
      1.436  0.8903E-01  0.8903E-01  0.5002E+00  0.5002E+00
      1.516  0.1115E+00  0.1115E+00  0.5092E+00  0.5092E+00
      1.596  0.1398E+00  0.1398E+00  0.5204E+00  0.5204E+00
      1.676  0.1406E+00  0.1406E+00  0.5316E+00  0.5316E+00
      1.756  0.1394E+00  0.1394E+00  0.5428E+00  0.5428E+00
      1.836  0.1673E+00  0.1673E+00  0.5562E+00  0.5562E+00
      1.916  0.1733E+00  0.1733E+00  0.5701E+00  0.5701E+00
      1.996  0.1418E+00  0.1418E+00  0.5814E+00  0.5814E+00
      2.076  0.1153E+00  0.1153E+00  0.5907E+00  0.5907E+00
      2.156  0.1173E+00  0.1173E+00  0.6000E+00  0.6000E+00
      2.237  0.1441E+00  0.1441E+00  0.6116E+00  0.6116E+00
      2.317  0.1534E+00  0.1534E+00  0.6239E+00  0.6239E+00
      2.397  0.1551E+00  0.1551E+00  0.6363E+00  0.6363E+00
      2.477  0.1594E+00  0.1594E+00  0.6491E+00  0.6491E+00
      2.557  0.1538E+00  0.1538E+00  0.6614E+00  0.6614E+00
      2.637  0.1474E+00  0.1474E+00  0.6732E+00  0.6732E+00
      2.717  0.1496E+00  0.1496E+00  0.6852E+00  0.6852E+00
      2.797  0.1808E+00  0.1808E+00  0.6996E+00  0.6997E+00
      2.877  0.2083E+00  0.2083E+00  0.7163E+00  0.7163E+00
      2.957  0.2119E+00  0.2119E+00  0.7333E+00  0.7333E+00
      3.037  0.2042E+00  0.2042E+00  0.7497E+00  0.7497E+00
      3.117  0.2022E+00  0.2022E+00  0.7659E+00  0.7659E+00
      3.198  0.1869E+00  0.1869E+00  0.7808E+00  0.7808E+00
      3.278  0.1722E+00  0.1722E+00  0.7946E+00  0.7946E+00
      3.358  0.1925E+00  0.1925E+00  0.8100E+00  0.8100E+00
      3.438  0.2201E+00  0.2201E+00  0.8277E+00  0.8277E+00
      3.518  0.1921E+00  0.1921E+00  0.8430E+00  0.8430E+00
      3.598  0.1508E+00  0.1508E+00  0.8551E+00  0.8551E+00
      3.678  0.1616E+00  0.1616E+00  0.8681E+00  0.8681E+00
      3.758  0.1893E+00  0.1893E+00  0.8832E+00  0.8832E+00
      3.838  0.1910E+00  0.1910E+00  0.8985E+00  0.8985E+00
      3.918  0.1699E+00  0.1699E+00  0.9121E+00  0.9121E+00
      3.998  0.1551E+00  0.1551E+00  0.9245E+00  0.9245E+00
      4.079  0.1466E+00  0.1466E+00  0.9363E+00  0.9363E+00
      4.159  0.1588E+00  0.1588E+00  0.9490E+00  0.9490E+00
      4.239  0.1869E+00  0.1869E+00  0.9640E+00  0.9640E+00
      4.319  0.1667E+00  0.1667E+00  0.9773E+00  0.9773E+00
      4.399  0.1282E+00  0.1282E+00  0.9876E+00  0.9876E+00
      4.479  0.1203E+00  0.1203E+00  0.9972E+00  0.9972E+00
      4.559  0.1391E+00  0.1391E+00  0.1008E+01  0.1008E+01
      4.639  0.1284E+00  0.1284E+00  0.1019E+01  0.1019E+01
      4.719  0.8667E-01  0.8667E-01  0.1026E+01  0.1026E+01
      4.799  0.6979E-01  0.6979E-01  0.1031E+01  0.1031E+01
      4.879  0.6812E-01  0.6812E-01  0.1037E+01  0.1037E+01
      4.960  0.6718E-01  0.6718E-01  0.1042E+01  0.1042E+01
      5.040  0.6766E-01  0.6766E-01  0.1047E+01  0.1047E+01
      5.120  0.5055E-01  0.5055E-01  0.1051E+01  0.1051E+01
      5.200  0.4099E-01  0.4099E-01  0.1055E+01  0.1055E+01
      5.280  0.3762E-01  0.3762E-01  0.1058E+01  0.1058E+01
      5.360  0.3135E-01  0.3135E-01  0.1060E+01  0.1060E+01
      5.440  0.3072E-01  0.3072E-01  0.1063E+01  0.1063E+01
      5.520  0.2489E-01  0.2489E-01  0.1065E+01  0.1065E+01
      5.600  0.1424E-01  0.1424E-01  0.1066E+01  0.1066E+01
      5.680  0.6789E-02  0.6789E-02  0.1066E+01  0.1066E+01
      5.760  0.2543E-02  0.2543E-02  0.1067E+01  0.1067E+01
      5.840  0.4440E-03  0.4440E-03  0.1067E+01  0.1067E+01
      5.921  0.2710E-04  0.2710E-04  0.1067E+01  0.1067E+01
      6.001  0.5666E-06  0.5665E-06  0.1067E+01  0.1067E+01
      6.081  0.3247E-05  0.3247E-05  0.1067E+01  0.1067E+01
      6.161  0.1021E-03  0.1021E-03  0.1067E+01  0.1067E+01
      6.241  0.1050E-02  0.1050E-02  0.1067E+01  0.1067E+01
      6.321  0.3908E-02  0.3908E-02  0.1067E+01  0.1067E+01
      6.401  0.8029E-02  0.8029E-02  0.1068E+01  0.1068E+01
      6.481  0.2014E-01  0.2014E-01  0.1069E+01  0.1069E+01
      6.561  0.3863E-01  0.3863E-01  0.1072E+01  0.1072E+01
      6.641  0.4234E-01  0.4234E-01  0.1076E+01  0.1076E+01
      6.721  0.4450E-01  0.4450E-01  0.1079E+01  0.1079E+01
      6.802  0.5349E-01  0.5349E-01  0.1084E+01  0.1084E+01
      6.882  0.5659E-01  0.5659E-01  0.1088E+01  0.1088E+01
      6.962  0.5451E-01  0.5451E-01  0.1093E+01  0.1093E+01
      7.042  0.7627E-01  0.7627E-01  0.1099E+01  0.1099E+01
      7.122  0.9729E-01  0.9729E-01  0.1106E+01  0.1106E+01
      7.202  0.9035E-01  0.9035E-01  0.1114E+01  0.1114E+01
      7.282  0.8405E-01  0.8405E-01  0.1120E+01  0.1120E+01
      7.362  0.1072E+00  0.1072E+00  0.1129E+01  0.1129E+01
      7.442  0.1288E+00  0.1288E+00  0.1139E+01  0.1139E+01
      7.522  0.1209E+00  0.1209E+00  0.1149E+01  0.1149E+01
      7.602  0.1238E+00  0.1238E+00  0.1159E+01  0.1159E+01
      7.683  0.1442E+00  0.1442E+00  0.1170E+01  0.1170E+01
      7.763  0.1655E+00  0.1655E+00  0.1184E+01  0.1184E+01
      7.843  0.1979E+00  0.1979E+00  0.1200E+01  0.1200E+01
      7.923  0.2203E+00  0.2203E+00  0.1217E+01  0.1217E+01
      8.003  0.2316E+00  0.2316E+00  0.1236E+01  0.1236E+01
      8.083  0.2176E+00  0.2176E+00  0.1253E+01  0.1253E+01
      8.163  0.1787E+00  0.1787E+00  0.1268E+01  0.1268E+01
      8.243  0.1793E+00  0.1793E+00  0.1282E+01  0.1282E+01
      8.323  0.1930E+00  0.1930E+00  0.1297E+01  0.1297E+01
      8.403  0.1599E+00  0.1599E+00  0.1310E+01  0.1310E+01
      8.483  0.1353E+00  0.1353E+00  0.1321E+01  0.1321E+01
      8.563  0.1502E+00  0.1502E+00  0.1333E+01  0.1333E+01
      8.644  0.1614E+00  0.1614E+00  0.1346E+01  0.1346E+01
      8.724  0.1632E+00  0.1632E+00  0.1359E+01  0.1359E+01
      8.804  0.1532E+00  0.1532E+00  0.1371E+01  0.1371E+01
      8.884  0.1543E+00  0.1543E+00  0.1384E+01  0.1384E+01
      8.964  0.2190E+00  0.2191E+00  0.1401E+01  0.1401E+01
      9.044  0.2909E+00  0.2909E+00  0.1424E+01  0.1424E+01
      9.124  0.2777E+00  0.2777E+00  0.1447E+01  0.1447E+01
      9.204  0.2255E+00  0.2255E+00  0.1465E+01  0.1465E+01
      9.284  0.2047E+00  0.2047E+00  0.1481E+01  0.1481E+01
      9.364  0.2294E+00  0.2294E+00  0.1500E+01  0.1500E+01
      9.444  0.2587E+00  0.2587E+00  0.1520E+01  0.1520E+01
      9.525  0.2401E+00  0.2401E+00  0.1539E+01  0.1539E+01
      9.605  0.2002E+00  0.2002E+00  0.1556E+01  0.1556E+01
      9.685  0.1768E+00  0.1768E+00  0.1570E+01  0.1570E+01
      9.765  0.1775E+00  0.1775E+00  0.1584E+01  0.1584E+01
      9.845  0.1763E+00  0.1763E+00  0.1598E+01  0.1598E+01
      9.925  0.1599E+00  0.1599E+00  0.1611E+01  0.1611E+01
     10.005  0.1513E+00  0.1513E+00  0.1623E+01  0.1623E+01
     10.085  0.1464E+00  0.1464E+00  0.1635E+01  0.1635E+01
     10.165  0.1404E+00  0.1404E+00  0.1646E+01  0.1646E+01
     10.245  0.1545E+00  0.1545E+00  0.1658E+01  0.1658E+01
     10.325  0.1966E+00  0.1966E+00  0.1674E+01  0.1674E+01
     10.406  0.2158E+00  0.2158E+00  0.1691E+01  0.1691E+01
     10.486  0.1819E+00  0.1819E+00  0.1706E+01  0.1706E+01
     10.566  0.1536E+00  0.1536E+00  0.1718E+01  0.1718E+01
     10.646  0.1653E+00  0.1653E+00  0.1731E+01  0.1731E+01
     10.726  0.1923E+00  0.1923E+00  0.1747E+01  0.1747E+01
     10.806  0.1643E+00  0.1643E+00  0.1760E+01  0.1760E+01
     10.886  0.1291E+00  0.1291E+00  0.1770E+01  0.1770E+01
     10.966  0.1472E+00  0.1472E+00  0.1782E+01  0.1782E+01
     11.046  0.1613E+00  0.1613E+00  0.1795E+01  0.1795E+01
     11.126  0.1467E+00  0.1467E+00  0.1807E+01  0.1807E+01
     11.206  0.1596E+00  0.1596E+00  0.1820E+01  0.1820E+01
     11.287  0.1737E+00  0.1737E+00  0.1833E+01  0.1833E+01
     11.367  0.1592E+00  0.1592E+00  0.1846E+01  0.1846E+01
     11.447  0.1373E+00  0.1373E+00  0.1857E+01  0.1857E+01
     11.527  0.1325E+00  0.1325E+00  0.1868E+01  0.1868E+01
     11.607  0.1277E+00  0.1277E+00  0.1878E+01  0.1878E+01
     11.687  0.1363E+00  0.1363E+00  0.1889E+01  0.1889E+01
     11.767  0.1377E+00  0.1377E+00  0.1900E+01  0.1900E+01
     11.847  0.1216E+00  0.1216E+00  0.1910E+01  0.1910E+01
     11.927  0.1449E+00  0.1449E+00  0.1921E+01  0.1921E+01
     12.007  0.1745E+00  0.1745E+00  0.1935E+01  0.1935E+01
     12.087  0.1672E+00  0.1672E+00  0.1949E+01  0.1949E+01
     12.167  0.1302E+00  0.1302E+00  0.1959E+01  0.1959E+01
     12.248  0.9470E-01  0.9470E-01  0.1967E+01  0.1967E+01
     12.328  0.9850E-01  0.9849E-01  0.1975E+01  0.1975E+01
     12.408  0.1442E+00  0.1442E+00  0.1986E+01  0.1986E+01
     12.488  0.1649E+00  0.1649E+00  0.1999E+01  0.1999E+01
     12.568  0.1415E+00  0.1415E+00  0.2011E+01  0.2011E+01
     12.648  0.1350E+00  0.1351E+00  0.2022E+01  0.2022E+01
     12.728  0.1338E+00  0.1343E+00  0.2032E+01  0.2032E+01
     12.808  0.1287E+00  0.1298E+00  0.2043E+01  0.2043E+01
     12.888  0.1198E+00  0.1198E+00  0.2052E+01  0.2052E+01
     12.968  0.1144E+00  0.1133E+00  0.2061E+01  0.2061E+01
     13.048  0.9811E-01  0.9770E-01  0.2069E+01  0.2069E+01
     13.129  0.7130E-01  0.7127E-01  0.2075E+01  0.2075E+01
     13.209  0.5578E-01  0.5576E-01  0.2079E+01  0.2079E+01
     13.289  0.4652E-01  0.4649E-01  0.2083E+01  0.2083E+01
     13.369  0.4806E-01  0.4801E-01  0.2087E+01  0.2087E+01
     13.449  0.6842E-01  0.6856E-01  0.2092E+01  0.2092E+01
     13.529  0.1039E+00  0.1044E+00  0.2101E+01  0.2101E+01
     13.609  0.1146E+00  0.1148E+00  0.2110E+01  0.2110E+01
     13.689  0.7381E-01  0.7334E-01  0.2116E+01  0.2116E+01
     13.769  0.4287E-01  0.4272E-01  0.2119E+01  0.2119E+01
     13.849  0.3678E-01  0.3686E-01  0.2122E+01  0.2122E+01
     13.929  0.2336E-01  0.2322E-01  0.2124E+01  0.2124E+01
     14.010  0.9836E-02  0.9715E-02  0.2125E+01  0.2125E+01
     14.090  0.4464E-02  0.4315E-02  0.2125E+01  0.2125E+01
     14.170  0.6315E-02  0.5505E-02  0.2126E+01  0.2126E+01
     14.250  0.1426E-01  0.1333E-01  0.2127E+01  0.2127E+01
     14.330  0.1687E-01  0.1764E-01  0.2128E+01  0.2128E+01
     14.410  0.1037E-01  0.1123E-01  0.2129E+01  0.2129E+01
     14.490  0.4747E-02  0.4670E-02  0.2129E+01  0.2129E+01
     14.570  0.8472E-02  0.7848E-02  0.2130E+01  0.2130E+01
     14.650  0.1255E-01  0.1262E-01  0.2131E+01  0.2131E+01
     14.730  0.6379E-02  0.7013E-02  0.2132E+01  0.2132E+01
     14.810  0.1055E-02  0.1278E-02  0.2132E+01  0.2132E+01
     14.890  0.1301E-03  0.1575E-03  0.2132E+01  0.2132E+01
     14.971  0.8297E-03  0.8784E-03  0.2132E+01  0.2132E+01
     15.051  0.3042E-02  0.3047E-02  0.2132E+01  0.2132E+01
     15.131  0.4722E-02  0.4490E-02  0.2132E+01  0.2132E+01
     15.211  0.4480E-02  0.4396E-02  0.2133E+01  0.2133E+01
     15.291  0.3106E-02  0.3279E-02  0.2133E+01  0.2133E+01
     15.371  0.1827E-02  0.1902E-02  0.2133E+01  0.2133E+01
     15.451  0.6117E-03  0.6186E-03  0.2133E+01  0.2133E+01
     15.531  0.1792E-03  0.1794E-03  0.2133E+01  0.2133E+01
     15.611  0.5260E-03  0.5261E-03  0.2133E+01  0.2133E+01
     15.691  0.7960E-03  0.7960E-03  0.2133E+01  0.2133E+01
     15.771  0.3820E-03  0.3820E-03  0.2133E+01  0.2133E+01
     15.852  0.5723E-04  0.5722E-04  0.2133E+01  0.2133E+01
     15.932  0.2616E-05  0.2615E-05  0.2133E+01  0.2133E+01
     16.012  0.3561E-07  0.3560E-07  0.2133E+01  0.2133E+01
     16.092  0.1416E-09  0.1415E-09  0.2133E+01  0.2133E+01
     16.172  0.1619E-12  0.1619E-12  0.2133E+01  0.2133E+01
     16.252  0.5291E-16  0.5291E-16  0.2133E+01  0.2133E+01
     16.332  0.0000E+00  0.0000E+00  0.2133E+01  0.2133E+01
     16.412  0.0000E+00  0.0000E+00  0.2133E+01  0.2133E+01
     16.492  0.0000E+00  0.0000E+00  0.2133E+01  0.2133E+01
     16.572  0.0000E+00  0.0000E+00  0.2133E+01  0.2133E+01
     16.652  0.0000E+00  0.0000E+00  0.2133E+01  0.2133E+01
     16.733  0.0000E+00  0.0000E+00  0.2133E+01  0.2133E+01
     16.73251871     -7.29400735  301      5.98398328      1.00000000
     -7.294  0.0000E+00  0.0000E+00  0.0000E+00  0.0000E+00  0.0000E+00  0.0000E+00  0.0000E+00  0.0000E+00  0.0000E+00  0.0000E+00  0.0000E+00  0.0000E+00  0.0000E+00  0.0000E+00  0.0000E+00  0.0000E+00  0.0000E+00  0.0000E+00
     -7.214  0.0000E+00  0.0000E+00  0.0000E+00  0.0000E+00  0.0000E+00  0.0000E+00  0.0000E+00  0.0000E+00  0.0000E+00  0.0000E+00  0.0000E+00  0.0000E+00  0.0000E+00  0.0000E+00  0.0000E+00  0.0000E+00  0.0000E+00  0.0000E+00
     -7.134  0.0000E+00  0.0000E+00  0.0000E+00  0.0000E+00  0.0000E+00  0.0000E+00  0.0000E+00  0.0000E+00  0.0000E+00  0.0000E+00  0.0000E+00  0.0000E+00  0.0000E+00  0.0000E+00  0.0000E+00  0.0000E+00  0.0000E+00  0.0000E+00
     -7.054  0.0000E+00  0.0000E+00  0.0000E+00  0.0000E+00  0.0000E+00  0.0000E+00  0.0000E+00  0.0000E+00  0.0000E+00  0.0000E+00  0.0000E+00  0.0000E+00  0.0000E+00  0.0000E+00  0.0000E+00  0.0000E+00  0.0000E+00  0.0000E+00
     -6.974  0.0000E+00  0.0000E+00  0.0000E+00  0.0000E+00  0.0000E+00  0.0000E+00  0.0000E+00  0.0000E+00  0.0000E+00  0.0000E+00  0.0000E+00  0.0000E+00  0.0000E+00  0.0000E+00  0.0000E+00  0.0000E+00  0.0000E+00  0.0000E+00
     -6.894  0.0000E+00  0.0000E+00  0.0000E+00  0.0000E+00  0.0000E+00  0.0000E+00  0.0000E+00  0.0000E+00  0.0000E+00  0.0000E+00  0.0000E+00  0.0000E+00  0.0000E+00  0.0000E+00  0.0000E+00  0.0000E+00  0.0000E+00  0.0000E+00
     -6.813  0.0000E+00  0.0000E+00  0.0000E+00  0.0000E+00  0.0000E+00  0.0000E+00  0.0000E+00  0.0000E+00  0.0000E+00  0.0000E+00  0.0000E+00  0.0000E+00  0.0000E+00  0.0000E+00  0.0000E+00  0.0000E+00  0.0000E+00  0.0000E+00
     -6.733  0.1590E-16  0.1590E-16  0.1440E-33  0.1500E-33  0.3165E-33  0.4291E-34  0.3171E-20  0.3171E-20  0.0000E+00  0.0000E+00  0.0000E+00  0.0000E+00  0.0000E+00  0.0000E+00  0.0000E+00  0.0000E+00  0.0000E+00  0.0000E+00
     -6.653  0.5264E-13  0.5266E-13  0.8458E-18  0.8465E-18  0.1420E-19  0.1420E-19  0.1707E-16  0.1708E-16  0.0000E+00  0.0000E+00  0.0000E+00  0.0000E+00  0.0000E+00  0.0000E+00  0.0000E+00  0.0000E+00  0.0000E+00  0.0000E+00
     -6.573  0.5245E-10  0.5247E-10  0.2277E-14  0.2278E-14  0.6045E-16  0.6048E-16  0.2704E-13  0.2705E-13  0.0000E+00  0.0000E+00  0.0000E+00  0.0000E+00  0.0000E+00  0.0000E+00  0.0000E+00  0.0000E+00  0.0000E+00  0.0000E+00
     -6.493  0.1626E-07  0.1627E-07  0.1760E-11  0.1761E-11  0.7557E-13  0.7560E-13  0.1259E-10  0.1259E-10  0.0000E+00  0.0000E+00  0.0000E+00  0.0000E+00  0.0000E+00  0.0000E+00  0.0000E+00  0.0000E+00  0.0000E+00  0.0000E+00
     -6.413  0.1644E-05  0.1644E-05  0.3969E-09  0.3971E-09  0.2773E-10  0.2773E-10  0.1776E-08  0.1776E-08  0.0000E+00  0.0000E+00  0.0000E+00  0.0000E+00  0.0000E+00  0.0000E+00  0.0000E+00  0.0000E+00  0.0000E+00  0.0000E+00
     -6.333  0.5704E-04  0.5705E-04  0.2677E-07  0.2678E-07  0.3005E-08  0.3005E-08  0.7974E-07  0.7976E-07  0.0000E+00  0.0000E+00  0.0000E+00  0.0000E+00  0.0000E+00  0.0000E+00  0.0000E+00  0.0000E+00  0.0000E+00  0.0000E+00
     -6.253  0.7199E-03  0.7200E-03  0.5639E-06  0.5640E-06  0.9854E-07  0.9856E-07  0.1261E-05  0.1261E-05  0.0000E+00  0.0000E+00  0.0000E+00  0.0000E+00  0.0000E+00  0.0000E+00  0.0000E+00  0.0000E+00  0.0000E+00  0.0000E+00
     -6.173  0.3622E-02  0.3622E-02  0.4084E-05  0.4084E-05  0.1051E-05  0.1051E-05  0.8777E-05  0.8778E-05  0.0000E+00  0.0000E+00  0.0000E+00  0.0000E+00  0.0000E+00  0.0000E+00  0.0000E+00  0.0000E+00  0.0000E+00  0.0000E+00
     -6.093  0.8911E-02  0.8911E-02  0.1295E-04  0.1296E-04  0.4450E-05  0.4450E-05  0.3608E-04  0.3608E-04  0.0000E+00  0.0000E+00  0.0000E+00  0.0000E+00  0.0000E+00  0.0000E+00  0.0000E+00  0.0000E+00  0.0000E+00  0.0000E+00
     -6.013  0.1426E-01  0.1426E-01  0.2801E-04  0.2801E-04  0.1043E-04  0.1043E-04  0.8978E-04  0.8978E-04  0.0000E+00  0.0000E+00  0.0000E+00  0.0000E+00  0.0000E+00  0.0000E+00  0.0000E+00  0.0000E+00  0.0000E+00  0.0000E+00
     -5.933  0.1760E-01  0.1760E-01  0.5543E-04  0.5543E-04  0.1682E-04  0.1682E-04  0.1498E-03  0.1498E-03  0.0000E+00  0.0000E+00  0.0000E+00  0.0000E+00  0.0000E+00  0.0000E+00  0.0000E+00  0.0000E+00  0.0000E+00  0.0000E+00
     -5.852  0.2127E-01  0.2127E-01  0.8671E-04  0.8671E-04  0.2490E-04  0.2490E-04  0.2480E-03  0.2480E-03  0.0000E+00  0.0000E+00  0.0000E+00  0.0000E+00  0.0000E+00  0.0000E+00  0.0000E+00  0.0000E+00  0.0000E+00  0.0000E+00
     -5.772  0.2438E-01  0.2438E-01  0.1130E-03  0.1130E-03  0.3722E-04  0.3722E-04  0.3512E-03  0.3512E-03  0.0000E+00  0.0000E+00  0.0000E+00  0.0000E+00  0.0000E+00  0.0000E+00  0.0000E+00  0.0000E+00  0.0000E+00  0.0000E+00
     -5.692  0.2546E-01  0.2546E-01  0.1470E-03  0.1470E-03  0.4755E-04  0.4755E-04  0.4285E-03  0.4285E-03  0.0000E+00  0.0000E+00  0.0000E+00  0.0000E+00  0.0000E+00  0.0000E+00  0.0000E+00  0.0000E+00  0.0000E+00  0.0000E+00
     -5.612  0.2763E-01  0.2763E-01  0.1730E-03  0.1730E-03  0.6113E-04  0.6113E-04  0.5689E-03  0.5689E-03  0.0000E+00  0.0000E+00  0.0000E+00  0.0000E+00  0.0000E+00  0.0000E+00  0.0000E+00  0.0000E+00  0.0000E+00  0.0000E+00
     -5.532  0.3291E-01  0.3291E-01  0.2421E-03  0.2421E-03  0.7534E-04  0.7534E-04  0.7690E-03  0.7690E-03  0.0000E+00  0.0000E+00  0.0000E+00  0.0000E+00  0.0000E+00  0.0000E+00  0.0000E+00  0.0000E+00  0.0000E+00  0.0000E+00
     -5.452  0.3343E-01  0.3343E-01  0.2918E-03  0.2918E-03  0.8824E-04  0.8824E-04  0.8286E-03  0.8286E-03  0.0000E+00  0.0000E+00  0.0000E+00  0.0000E+00  0.0000E+00  0.0000E+00  0.0000E+00  0.0000E+00  0.0000E+00  0.0000E+00
     -5.372  0.3094E-01  0.3094E-01  0.3005E-03  0.3005E-03  0.1051E-03  0.1051E-03  0.8439E-03  0.8439E-03  0.0000E+00  0.0000E+00  0.0000E+00  0.0000E+00  0.0000E+00  0.0000E+00  0.0000E+00  0.0000E+00  0.0000E+00  0.0000E+00
     -5.292  0.3681E-01  0.3681E-01  0.3654E-03  0.3654E-03  0.1231E-03  0.1231E-03  0.1178E-02  0.1178E-02  0.0000E+00  0.0000E+00  0.0000E+00  0.0000E+00  0.0000E+00  0.0000E+00  0.0000E+00  0.0000E+00  0.0000E+00  0.0000E+00
     -5.212  0.4246E-01  0.4246E-01  0.4112E-03  0.4112E-03  0.1490E-03  0.1490E-03  0.1499E-02  0.1500E-02  0.0000E+00  0.0000E+00  0.0000E+00  0.0000E+00  0.0000E+00  0.0000E+00  0.0000E+00  0.0000E+00  0.0000E+00  0.0000E+00
     -5.132  0.4031E-01  0.4031E-01  0.4318E-03  0.4318E-03  0.1605E-03  0.1605E-03  0.1496E-02  0.1496E-02  0.0000E+00  0.0000E+00  0.0000E+00  0.0000E+00  0.0000E+00  0.0000E+00  0.0000E+00  0.0000E+00  0.0000E+00  0.0000E+00
     -5.052  0.3989E-01  0.3989E-01  0.5463E-03  0.5463E-03  0.1950E-03  0.1950E-03  0.1478E-02  0.1478E-02  0.0000E+00  0.0000E+00  0.0000E+00  0.0000E+00  0.0000E+00  0.0000E+00  0.0000E+00  0.0000E+00  0.0000E+00  0.0000E+00
     -4.971  0.4342E-01  0.4342E-01  0.6278E-03  0.6278E-03  0.2278E-03  0.2278E-03  0.1711E-02  0.1711E-02  0.0000E+00  0.0000E+00  0.0000E+00  0.0000E+00  0.0000E+00  0.0000E+00  0.0000E+00  0.0000E+00  0.0000E+00  0.0000E+00
     -4.891  0.4420E-01  0.4420E-01  0.5568E-03  0.5568E-03  0.2192E-03  0.2192E-03  0.2029E-02  0.2029E-02  0.0000E+00  0.0000E+00  0.0000E+00  0.0000E+00  0.0000E+00  0.0000E+00  0.0000E+00  0.0000E+00  0.0000E+00  0.0000E+00
     -4.811  0.5030E-01  0.5030E-01  0.6520E-03  0.6520E-03  0.2646E-03  0.2646E-03  0.2483E-02  0.2483E-02  0.0000E+00  0.0000E+00  0.0000E+00  0.0000E+00  0.0000E+00  0.0000E+00  0.0000E+00  0.0000E+00  0.0000E+00  0.0000E+00
     -4.731  0.5560E-01  0.5560E-01  0.8255E-03  0.8255E-03  0.3302E-03  0.3302E-03  0.2733E-02  0.2733E-02  0.0000E+00  0.0000E+00  0.0000E+00  0.0000E+00  0.0000E+00  0.0000E+00  0.0000E+00  0.0000E+00  0.0000E+00  0.0000E+00
     -4.651  0.5060E-01  0.5060E-01  0.7873E-03  0.7873E-03  0.3432E-03  0.3432E-03  0.2530E-02  0.2530E-02  0.0000E+00  0.0000E+00  0.0000E+00  0.0000E+00  0.0000E+00  0.0000E+00  0.0000E+00  0.0000E+00  0.0000E+00  0.0000E+00
     -4.571  0.4707E-01  0.4707E-01  0.7721E-03  0.7721E-03  0.3682E-03  0.3682E-03  0.2403E-02  0.2403E-02  0.0000E+00  0.0000E+00  0.0000E+00  0.0000E+00  0.0000E+00  0.0000E+00  0.0000E+00  0.0000E+00  0.0000E+00  0.0000E+00
     -4.491  0.5221E-01  0.5221E-01  0.9258E-03  0.9258E-03  0.4145E-03  0.4145E-03  0.2812E-02  0.2812E-02  0.0000E+00  0.0000E+00  0.0000E+00  0.0000E+00  0.0000E+00  0.0000E+00  0.0000E+00  0.0000E+00  0.0000E+00  0.0000E+00
     -4.411  0.6499E-01  0.6500E-01  0.1104E-02  0.1104E-02  0.4917E-03  0.4917E-03  0.3850E-02  0.3850E-02  0.0000E+00  0.0000E+00  0.0000E+00  0.0000E+00  0.0000E+00  0.0000E+00  0.0000E+00  0.0000E+00  0.0000E+00  0.0000E+00
     -4.331  0.6844E-01  0.6844E-01  0.1085E-02  0.1085E-02  0.5585E-03  0.5585E-03  0.4214E-02  0.4214E-02  0.0000E+00  0.0000E+00  0.0000E+00  0.0000E+00  0.0000E+00  0.0000E+00  0.0000E+00  0.0000E+00  0.0000E+00  0.0000E+00
     -4.251  0.6093E-01  0.6093E-01  0.1015E-02  0.1015E-02  0.5575E-03  0.5575E-03  0.3762E-02  0.3762E-02  0.0000E+00  0.0000E+00  0.0000E+00  0.0000E+00  0.0000E+00  0.0000E+00  0.0000E+00  0.0000E+00  0.0000E+00  0.0000E+00
     -4.171  0.6617E-01  0.6617E-01  0.1400E-02  0.1400E-02  0.6927E-03  0.6927E-03  0.3827E-02  0.3827E-02  0.0000E+00  0.0000E+00  0.0000E+00  0.0000E+00  0.0000E+00  0.0000E+00  0.0000E+00  0.0000E+00  0.0000E+00  0.0000E+00
     -4.090  0.7104E-01  0.7105E-01  0.1869E-02  0.1869E-02  0.8440E-03  0.8440E-03  0.3657E-02  0.3657E-02  0.0000E+00  0.0000E+00  0.0000E+00  0.0000E+00  0.0000E+00  0.0000E+00  0.0000E+00  0.0000E+00  0.0000E+00  0.0000E+00
     -4.010  0.7371E-01  0.7371E-01  0.2161E-02  0.2161E-02  0.9319E-03  0.9319E-03  0.3613E-02  0.3613E-02  0.0000E+00  0.0000E+00  0.0000E+00  0.0000E+00  0.0000E+00  0.0000E+00  0.0000E+00  0.0000E+00  0.0000E+00  0.0000E+00
     -3.930  0.8264E-01  0.8264E-01  0.2302E-02  0.2302E-02  0.1050E-02  0.1050E-02  0.4398E-02  0.4398E-02  0.0000E+00  0.0000E+00  0.0000E+00  0.0000E+00  0.0000E+00  0.0000E+00  0.0000E+00  0.0000E+00  0.0000E+00  0.0000E+00
     -3.850  0.9521E-01  0.9521E-01  0.2715E-02  0.2715E-02  0.1360E-02  0.1360E-02  0.5087E-02  0.5087E-02  0.0000E+00  0.0000E+00  0.0000E+00  0.0000E+00  0.0000E+00  0.0000E+00  0.0000E+00  0.0000E+00  0.0000E+00  0.0000E+00
     -3.770  0.1084E+00  0.1084E+00  0.3963E-02  0.3963E-02  0.1795E-02  0.1795E-02  0.4859E-02  0.4858E-02  0.0000E+00  0.0000E+00  0.0000E+00  0.0000E+00  0.0000E+00  0.0000E+00  0.0000E+00  0.0000E+00  0.0000E+00  0.0000E+00
     -3.690  0.9369E-01  0.9368E-01  0.4187E-02  0.4187E-02  0.1667E-02  0.1667E-02  0.3570E-02  0.3570E-02  0.0000E+00  0.0000E+00  0.0000E+00  0.0000E+00  0.0000E+00  0.0000E+00  0.0000E+00  0.0000E+00  0.0000E+00  0.0000E+00
     -3.610  0.7473E-01  0.7474E-01  0.3824E-02  0.3825E-02  0.1681E-02  0.1681E-02  0.2282E-02  0.2282E-02  0.0000E+00  0.0000E+00  0.0000E+00  0.0000E+00  0.0000E+00  0.0000E+00  0.0000E+00  0.0000E+00  0.0000E+00  0.0000E+00
     -3.530  0.8810E-01  0.8810E-01  0.4875E-02  0.4875E-02  0.2467E-02  0.2467E-02  0.2017E-02  0.2017E-02  0.0000E+00  0.0000E+00  0.0000E+00  0.0000E+00  0.0000E+00  0.0000E+00  0.0000E+00  0.0000E+00  0.0000E+00  0.0000E+00
     -3.450  0.8305E-01  0.8305E-01  0.4449E-02  0.4449E-02  0.2389E-02  0.2389E-02  0.2254E-02  0.2254E-02  0.0000E+00  0.0000E+00  0.0000E+00  0.0000E+00  0.0000E+00  0.0000E+00  0.0000E+00  0.0000E+00  0.0000E+00  0.0000E+00
     -3.370  0.7059E-01  0.7059E-01  0.3667E-02  0.3667E-02  0.1811E-02  0.1811E-02  0.3052E-02  0.3052E-02  0.0000E+00  0.0000E+00  0.0000E+00  0.0000E+00  0.0000E+00  0.0000E+00  0.0000E+00  0.0000E+00  0.0000E+00  0.0000E+00
     -3.290  0.7594E-01  0.7594E-01  0.4306E-02  0.4306E-02  0.2156E-02  0.2156E-02  0.3358E-02  0.3358E-02  0.0000E+00  0.0000E+00  0.0000E+00  0.0000E+00  0.0000E+00  0.0000E+00  0.0000E+00  0.0000E+00  0.0000E+00  0.0000E+00