    8    8   15    2
  0.2001288E+02  0.5430000E-09  0.5430000E-09  0.5430000E-09  0.5000000E-15
  1.000000000000000E-004
  CAR 
 Diamond si                              
     32     56     32
 
  0.0000000E+00  0.0000000E+00  0.0000000E+00  0.7513148E-03
    1       -6.201888     -6.201893   1.000000   1.000000
    2       -2.124281     -2.124287   1.000000   1.000000
    3       -2.124281     -2.124287   1.000000   1.000000
    4       -2.124281     -2.124287   1.000000   1.000000
    5       -2.124281     -2.124287   1.000000   1.000000
    6       -2.124281     -2.124287   1.000000   1.000000
    7       -2.124281     -2.124287   1.000000   1.000000
    8        2.833214      2.833212   1.000000   1.000000
    9        2.833214      2.833212   1.000000   1.000000
   10        2.833214      2.833212   1.000000   1.000000
   11        2.833214      2.833212   1.000000   1.000000
   12        2.833214      2.833212   1.000000   1.000000
   13        2.833214      2.833212   1.000000   1.000000
   14        5.668385      5.668382   0.999996   0.999996
   15        5.668385      5.668382   0.999996   0.999996
   16        5.668385      5.668382   0.999996   0.999996
   17        6.439911      6.439911   0.000000   0.000000
   18        6.439911      6.439911   0.000000   0.000000
   19        6.439911      6.439911   0.000000   0.000000
   20        6.439911      6.439911   0.000000   0.000000
   21        6.439911      6.439911   0.000000   0.000000
   22        6.439911      6.439911   0.000000   0.000000
   23        8.238322      8.238318   0.000000   0.000000
   24        8.238322      8.238318   0.000000   0.000000
   25        8.238322      8.238318   0.000000   0.000000
   26        8.753440      8.753427   0.000000   0.000000
   27       13.513022     13.513035   0.000000   0.000000
   28       13.611009     13.611005   0.000000   0.000000
   29       13.611009     13.611005   0.000000   0.000000
   30       15.640403     15.640399   0.000000   0.000000
   31       15.640404     15.640400   0.000000   0.000000
   32       15.640404     15.640400   0.000000   0.000000
 
  0.9090909E-01  0.0000000E+00  0.0000000E+00  0.4507889E-02
    1       -6.166286     -6.166291   1.000000   1.000000
    2       -2.793213     -2.793219   1.000000   1.000000
    3       -2.113211     -2.113217   1.000000   1.000000
    4       -2.113211     -2.113217   1.000000   1.000000
    5       -2.113211     -2.113217   1.000000   1.000000
    6       -2.113211     -2.113217   1.000000   1.000000
    7       -1.411311     -1.411317   1.000000   1.000000
    8        2.732857      2.732855   1.000000   1.000000
    9        2.732857      2.732855   1.000000   1.000000
   10        2.732857      2.732855   1.000000   1.000000
   11        2.732857      2.732855   1.000000   1.000000
   12        2.866165      2.866163   1.000000   1.000000
   13        2.866165      2.866163   1.000000   1.000000
   14        5.421985      5.421982   1.000000   1.000000
   15        5.522861      5.522858   1.000000   1.000000
   16        5.522861      5.522858   1.000000   1.000000
   17        6.334906      6.334907   0.000000   0.000000
   18        6.632589      6.632589   0.000000   0.000000
   19        6.632589      6.632589   0.000000   0.000000
   20        6.632589      6.632589   0.000000   0.000000
   21        6.632589      6.632589   0.000000   0.000000
   22        6.654594      6.654594   0.000000   0.000000
   23        8.151655      8.151652   0.000000   0.000000
   24        8.428421      8.428417   0.000000   0.000000
   25        8.428421      8.428417   0.000000   0.000000
   26        8.991922      8.991909   0.000000   0.000000
   27       13.318710     13.318707   0.000000   0.000000
   28       13.650950     13.650946   0.000000   0.000000
   29       13.670730     13.670743   0.000000   0.000000
   30       15.168330     15.168194   0.000000   0.000000
   31       15.170777     15.184842   0.000000   0.000000
   32       15.305339     15.305335   0.000000   0.000000
 
  0.1818182E+00  0.0000000E+00  0.0000000E+00  0.4507889E-02
    1       -6.059640     -6.059645   1.000000   1.000000
    2       -3.415229     -3.415235   1.000000   1.000000
    3       -2.081662     -2.081668   1.000000   1.000000
    4       -2.081662     -2.081668   1.000000   1.000000
    5       -2.081662     -2.081668   1.000000   1.000000
    6       -2.081662     -2.081668   1.000000   1.000000
    7       -0.664652     -0.664658   1.000000   1.000000
    8        2.494654      2.494653   1.000000   1.000000
    9        2.494654      2.494653   1.000000   1.000000
   10        2.494654      2.494653   1.000000   1.000000
   11        2.494654      2.494653   1.000000   1.000000
   12        2.962347      2.962345   1.000000   1.000000
   13        2.962347      2.962345   1.000000   1.000000
   14        4.837439      4.837435   1.000000   1.000000
   15        5.178255      5.178253   1.000000   1.000000
   16        5.178255      5.178253   1.000000   1.000000
   17        6.307165      6.307166   0.000002   0.000002
   18        6.968522      6.968522   0.000000   0.000000
   19        7.149351      7.149350   0.000000   0.000000
   20        7.149351      7.149350   0.000000   0.000000
   21        7.149351      7.149350   0.000000   0.000000
   22        7.149351      7.149350   0.000000   0.000000
   23        7.922119      7.922116   0.000000   0.000000
   24        8.906043      8.906039   0.000000   0.000000
   25        8.906043      8.906039   0.000000   0.000000
   26        9.513966      9.513955   0.000000   0.000000
   27       12.698936     12.698933   0.000000   0.000000
   28       13.770754     13.770750   0.000000   0.000000
   29       14.112244     14.112256   0.000000   0.000000
   30       14.329597     14.329912   0.000000   0.000000
   31       14.345290     14.342507   0.000000   0.000000
   32       14.361600     14.361596   0.000000   0.000000
 
  0.2727273E+00  0.0000000E+00  0.0000000E+00  0.4507889E-02
    1       -5.882432     -5.882437   1.000000   1.000000
    2       -3.982572     -3.982577   1.000000   1.000000
    3       -2.039071     -2.039077   1.000000   1.000000
    4       -2.039071     -2.039077   1.000000   1.000000
    5       -2.039071     -2.039077   1.000000   1.000000
    6       -2.039071     -2.039077   1.000000   1.000000
    7        0.111293      0.111287   1.000000   1.000000
    8        2.225480      2.225479   1.000000   1.000000
    9        2.225480      2.225479   1.000000   1.000000
   10        2.225480      2.225479   1.000000   1.000000
   11        2.225480      2.225479   1.000000   1.000000
   12        3.123211      3.123209   1.000000   1.000000
   13        3.123211      3.123209   1.000000   1.000000
   14        4.111666      4.111661   1.000000   1.000000
   15        4.765030      4.765027   1.000000   1.000000
   16        4.765030      4.765027   1.000000   1.000000
   17        6.366019      6.366019   0.000000   0.000000
   18        7.385212      7.385212   0.000000   0.000000
   19        7.616260      7.616258   0.000000   0.000000
   20        7.882617      7.882616   0.000000   0.000000
   21        7.882617      7.882616   0.000000   0.000000
   22        7.882617      7.882616   0.000000   0.000000
   23        7.882617      7.882616   0.000000   0.000000
   24        9.543055      9.543052   0.000000   0.000000
   25        9.543055      9.543052   0.000000   0.000000
   26        9.930512      9.930504   0.000000   0.000000
   27       12.247226     12.247222   0.000000   0.000000
   28       13.208154     13.208151   0.000000   0.000000
   29       13.208154     13.208151   0.000000   0.000000
   30       13.208159     13.208151   0.000000   0.000000
   31       13.208237     13.208522   0.000000   0.000000
   32       13.482141     13.482164   0.000000   0.000000
 
  0.3636364E+00  0.0000000E+00  0.0000000E+00  0.4507889E-02
    1       -5.635614     -5.635619   1.000000   1.000000
    2       -4.491409     -4.491414   1.000000   1.000000
    3       -1.997883     -1.997889   1.000000   1.000000
    4       -1.997883     -1.997889   1.000000   1.000000
    5       -1.997883     -1.997889   1.000000   1.000000
    6       -1.997883     -1.997889   1.000000   1.000000
    7        0.906812      0.906806   1.000000   1.000000
    8        2.006449      2.006448   1.000000   1.000000
    9        2.006449      2.006448   1.000000   1.000000
   10        2.006449      2.006448   1.000000   1.000000
   11        2.006449      2.006448   1.000000   1.000000
   12        3.328662      3.328656   1.000000   1.000000
   13        3.345996      3.345994   1.000000   1.000000
   14        3.345996      3.345994   1.000000   1.000000
   15        4.346317      4.346314   1.000000   1.000000
   16        4.346317      4.346314   1.000000   1.000000
   17        6.504017      6.504016   0.000000   0.000000
   18        7.286307      7.286306   0.000000   0.000000
   19        7.902488      7.902487   0.000000   0.000000
   20        8.763381      8.763380   0.000000   0.000000
   21        8.763381      8.763380   0.000000   0.000000
   22        8.763381      8.763380   0.000000   0.000000
   23        8.763381      8.763380   0.000000   0.000000
   24        9.777095      9.777091   0.000000   0.000000
   25       10.259167     10.259164   0.000000   0.000000
   26       10.259167     10.259164   0.000000   0.000000
   27       12.043832     12.043829   0.000000   0.000000
   28       12.043832     12.043829   0.000000   0.000000
   29       12.043832     12.043829   0.000000   0.000000
   30       12.043841     12.043835   0.000000   0.000000
   31       12.424916     12.425698   0.000000   0.000000
   32       12.643944     12.643940   0.000000   0.000000
 
  0.4545455E+00  0.0000000E+00  0.0000000E+00  0.4507889E-02
    1       -5.320201     -5.320206   1.000000   1.000000
    2       -4.937910     -4.937915   1.000000   1.000000
    3       -1.972963     -1.972969   1.000000   1.000000
    4       -1.972963     -1.972969   1.000000   1.000000
    5       -1.972963     -1.972969   1.000000   1.000000
    6       -1.972963     -1.972969   1.000000   1.000000
    7        1.714352      1.714346   1.000000   1.000000
    8        1.884915      1.884914   1.000000   1.000000
    9        1.884915      1.884914   1.000000   1.000000
   10        1.884915      1.884914   1.000000   1.000000
   11        1.884915      1.884914   1.000000   1.000000
   12        2.524546      2.524540   1.000000   1.000000
   13        3.628776      3.628774   1.000000   1.000000
   14        3.628776      3.628774   1.000000   1.000000
   15        3.964696      3.964693   1.000000   1.000000
   16        3.964696      3.964693   1.000000   1.000000
   17        6.707430      6.707430   0.000000   0.000000
   18        6.975187      6.975186   0.000000   0.000000
   19        8.535856      8.535855   0.000000   0.000000
   20        9.193461      9.193460   0.000000   0.000000
   21        9.705830      9.705831   0.000000   0.000000
   22        9.705830      9.705831   0.000000   0.000000
   23        9.705830      9.705831   0.000000   0.000000
   24        9.705830      9.705831   0.000000   0.000000
   25       10.954025     10.954022   0.000000   0.000000
   26       10.954025     10.954022   0.000000   0.000000
   27       10.954025     10.954022   0.000000   0.000000
   28       10.954025     10.954022   0.000000   0.000000
   29       11.026112     11.026108   0.000000   0.000000
   30       11.026112     11.026108   0.000000   0.000000
   31       11.825633     11.825629   0.000000   0.000000
   32       11.825633     11.825629   0.000000   0.000000
 
  0.9090909E-01  0.9090909E-01  0.0000000E+00  0.9015778E-02
    1       -6.130774     -6.130779   1.000000   1.000000
    2       -2.775417     -2.775423   1.000000   1.000000
    3       -2.775417     -2.775423   1.000000   1.000000
    4       -2.159640     -2.159646   1.000000   1.000000
    5       -2.047851     -2.047857   1.000000   1.000000
    6       -1.410367     -1.410373   1.000000   1.000000
    7       -1.410367     -1.410373   1.000000   1.000000
    8        2.435281      2.435280   1.000000   1.000000
    9        2.751121      2.751119   1.000000   1.000000
   10        2.751121      2.751119   1.000000   1.000000
   11        2.785084      2.785082   1.000000   1.000000
   12        2.785084      2.785082   1.000000   1.000000
   13        2.889342      2.889339   1.000000   1.000000
   14        5.024146      5.024143   1.000000   1.000000
   15        5.377319      5.377316   1.000000   1.000000
   16        5.634734      5.634732   1.000000   1.000000
   17        6.508210      6.508211   0.000000   0.000000
   18        6.531107      6.531107   0.000000   0.000000
   19        6.531107      6.531107   0.000000   0.000000
   20        6.834551      6.834552   0.000000   0.000000
   21        6.834551      6.834552   0.000000   0.000000
   22        7.080798      7.080798   0.000000   0.000000
   23        8.312168      8.312165   0.000000   0.000000
   24        8.375639      8.375635   0.000000   0.000000
   25        8.415815      8.415809   0.000000   0.000000
   26        9.322258      9.322247   0.000000   0.000000
   27       13.230027     13.230024   0.000000   0.000000
   28       13.520003     13.519999   0.000000   0.000000
   29       13.821095     13.821108   0.000000   0.000000
   30       14.613327     14.613330   0.000000   0.000000
   31       14.613368     14.613424   0.000000   0.000000
   32       15.054262     15.051433   0.000000   0.000000
 
  0.1818182E+00  0.9090909E-01  0.0000000E+00  0.1803156E-01
    1       -6.024404     -6.024409   1.000000   1.000000
    2       -3.391672     -3.391677   1.000000   1.000000
    3       -2.722796     -2.722802   1.000000   1.000000
    4       -2.192878     -2.192885   1.000000   1.000000
    5       -1.958660     -1.958666   1.000000   1.000000
    6       -1.410539     -1.410545   1.000000   1.000000
    7       -0.676715     -0.676721   1.000000   1.000000
    8        2.108290      2.108289   1.000000   1.000000
    9        2.474706      2.474705   1.000000   1.000000
   10        2.595130      2.595128   1.000000   1.000000
   11        2.836450      2.836448   1.000000   1.000000
   12        2.847529      2.847527   1.000000   1.000000
   13        2.906755      2.906753   1.000000   1.000000
   14        4.441139      4.441135   1.000000   1.000000
   15        5.032005      5.032002   1.000000   1.000000
   16        5.429796      5.429793   1.000000   1.000000
   17        6.513766      6.513766   0.000000   0.000000
   18        6.766789      6.766789   0.000000   0.000000
   19        7.059495      7.059494   0.000000   0.000000
   20        7.137499      7.137499   0.000000   0.000000
   21        7.328925      7.328925   0.000000   0.000000
   22        7.757944      7.757944   0.000000   0.000000
   23        8.115945      8.115942   0.000000   0.000000
   24        8.669310      8.669304   0.000000   0.000000
   25        8.831808      8.831804   0.000000   0.000000
   26        9.908859      9.908850   0.000000   0.000000
   27       12.713058     12.713055   0.000000   0.000000
   28       13.565002     13.564998   0.000000   0.000000
   29       13.598937     13.598934   0.000000   0.000000
   30       13.815308     13.815318   0.000000   0.000000
   31       14.240623     14.241782   0.000000   0.000000
   32       14.241787     14.262118   0.000000   0.000000
 
  0.2727273E+00  0.9090909E-01  0.0000000E+00  0.1803156E-01
    1       -5.847706     -5.847711   1.000000   1.000000
    2       -3.955480     -3.955485   1.000000   1.000000
    3       -2.641155     -2.641161   1.000000   1.000000
    4       -2.227346     -2.227352   1.000000   1.000000
    5       -1.850562     -1.850568   1.000000   1.000000
    6       -1.421071     -1.421077   1.000000   1.000000
    7        0.078222      0.078216   1.000000   1.000000
    8        1.830734      1.830733   1.000000   1.000000
    9        2.155741      2.155740   1.000000   1.000000
   10        2.392435      2.392433   1.000000   1.000000
   11        2.666650      2.666649   1.000000   1.000000
   12        2.988212      2.988210   1.000000   1.000000
   13        3.098502      3.098500   1.000000   1.000000
   14        3.789215      3.789210   1.000000   1.000000
   15        4.614777      4.614774   1.000000   1.000000
   16        5.012482      5.012479   1.000000   1.000000
   17        6.576594      6.576594   0.000000   0.000000
   18        7.340756      7.340756   0.000000   0.000000
   19        7.541215      7.541214   0.000000   0.000000
   20        7.807041      7.807040   0.000000   0.000000
   21        7.817732      7.817729   0.000000   0.000000
   22        8.044371      8.044371   0.000000   0.000000
   23        8.581916      8.581916   0.000000   0.000000
   24        9.171836      9.171830   0.000000   0.000000
   25        9.476873      9.476870   0.000000   0.000000
   26       10.328032     10.328026   0.000000   0.000000
   27       12.327836     12.327832   0.000000   0.000000
   28       12.413180     12.413177   0.000000   0.000000
   29       13.002607     13.002603   0.000000   0.000000
   30       13.115896     13.115894   0.000000   0.000000
   31       13.338728     13.338724   0.000000   0.000000
   32       13.476083     13.476293   0.000000   0.000000
 
  0.3636364E+00  0.9090909E-01  0.0000000E+00  0.1803156E-01
    1       -5.601559     -5.601564   1.000000   1.000000
    2       -4.461551     -4.461557   1.000000   1.000000
    3       -2.541538     -2.541544   1.000000   1.000000
    4       -2.275552     -2.275559   1.000000   1.000000
    5       -1.731979     -1.731985   1.000000   1.000000
    6       -1.454646     -1.454653   1.000000   1.000000
    7        0.844260      0.844254   1.000000   1.000000
    8        1.653348      1.653348   1.000000   1.000000
    9        1.874717      1.874716   1.000000   1.000000
   10        2.252475      2.252474   1.000000   1.000000
   11        2.454378      2.454377   1.000000   1.000000
   12        3.091089      3.091084   1.000000   1.000000
   13        3.205081      3.205079   1.000000   1.000000
   14        3.359832      3.359830   1.000000   1.000000
   15        4.201039      4.201037   1.000000   1.000000
   16        4.536166      4.536163   1.000000   1.000000
   17        6.714295      6.714295   0.000000   0.000000
   18        7.493981      7.493980   0.000000   0.000000
   19        8.048676      8.048676   0.000000   0.000000
   20        8.132397      8.132397   0.000000   0.000000
   21        8.698364      8.698363   0.000000   0.000000
   22        8.909285      8.909284   0.000000   0.000000
   23        9.509326      9.509326   0.000000   0.000000
   24        9.634048      9.634042   0.000000   0.000000
   25       10.204814     10.204810   0.000000   0.000000
   26       10.280742     10.280739   0.000000   0.000000
   27       11.276214     11.276211   0.000000   0.000000
   28       11.972892     11.972889   0.000000   0.000000
   29       12.168694     12.168691   0.000000   0.000000
   30       12.211433     12.211428   0.000000   0.000000
   31       12.606318     12.606123   0.000000   0.000000
   32       12.625963     12.625623   0.000000   0.000000
 
  0.4545455E+00  0.9090909E-01  0.0000000E+00  0.1803156E-01
    1       -5.287192     -5.287197   1.000000   1.000000
    2       -4.906410     -4.906415   1.000000   1.000000
    3       -2.437646     -2.437653   1.000000   1.000000
    4       -2.346394     -2.346401   1.000000   1.000000
    5       -1.618468     -1.618474   1.000000   1.000000
    6       -1.521468     -1.521474   1.000000   1.000000
    7        1.600953      1.600953   1.000000   1.000000
    8        1.608945      1.608939   1.000000   1.000000
    9        1.679665      1.679664   1.000000   1.000000
   10        2.215293      2.215292   1.000000   1.000000
   11        2.288162      2.288161   1.000000   1.000000
   12        2.361529      2.361523   1.000000   1.000000
   13        3.482730      3.482728   1.000000   1.000000
   14        3.691957      3.691954   1.000000   1.000000
   15        3.817257      3.817255   1.000000   1.000000
   16        4.087223      4.087220   1.000000   1.000000
   17        6.919656      6.919656   0.000000   0.000000
   18        7.186317      7.186316   0.000000   0.000000
   19        8.657413      8.657412   0.000000   0.000000
   20        9.047447      9.047446   0.000000   0.000000
   21        9.290068      9.290065   0.000000   0.000000
   22        9.670741      9.670740   0.000000   0.000000
   23        9.731734      9.731736   0.000000   0.000000
   24       10.332809     10.332804   0.000000   0.000000
   25       10.345083     10.345084   0.000000   0.000000
   26       10.722030     10.722026   0.000000   0.000000
   27       10.983543     10.983539   0.000000   0.000000
   28       11.029289     11.029284   0.000000   0.000000
   29       11.048489     11.048486   0.000000   0.000000
   30       11.440709     11.440705   0.000000   0.000000
   31       11.736594     11.736591   0.000000   0.000000
   32       11.794334     11.794331   0.000000   0.000000
 
  0.1818182E+00  0.1818182E+00  0.0000000E+00  0.9015778E-02
    1       -5.918907     -5.918912   1.000000   1.000000
    2       -3.323190     -3.323195   1.000000   1.000000
    3       -3.323190     -3.323195   1.000000   1.000000
    4       -2.304276     -2.304283   1.000000   1.000000
    5       -1.815197     -1.815203   1.000000   1.000000
    6       -0.719584     -0.719590   1.000000   1.000000
    7       -0.719584     -0.719590   1.000000   1.000000
    8        1.770695      1.770694   1.000000   1.000000
    9        2.532869      2.532867   1.000000   1.000000
   10        2.532869      2.532867   1.000000   1.000000
   11        2.779797      2.779795   1.000000   1.000000
   12        2.779797      2.779795   1.000000   1.000000
   13        3.058729      3.058727   1.000000   1.000000
   14        3.859888      3.859883   1.000000   1.000000
   15        4.681336      4.681333   1.000000   1.000000
   16        5.522182      5.522180   1.000000   1.000000
   17        6.705816      6.705816   0.000000   0.000000
   18        7.054575      7.054575   0.000000   0.000000
   19        7.054575      7.054575   0.000000   0.000000
   20        7.606233      7.606232   0.000000   0.000000
   21        7.606233      7.606232   0.000000   0.000000
   22        8.521076      8.521075   0.000000   0.000000
   23        8.533464      8.533460   0.000000   0.000000
   24        8.555847      8.555840   0.000000   0.000000
   25        8.705357      8.705355   0.000000   0.000000
   26       10.506164     10.506157   0.000000   0.000000
   27       12.578080     12.578077   0.000000   0.000000
   28       12.789213     12.789209   0.000000   0.000000
   29       12.789213     12.789209   0.000000   0.000000
   30       13.429572     13.429569   0.000000   0.000000
   31       13.956937     13.956848   0.000000   0.000000
   32       14.332277     14.336496   0.000000   0.000000
 
  0.2727273E+00  0.1818182E+00  0.0000000E+00  0.1803156E-01
    1       -5.743674     -5.743679   1.000000   1.000000
    2       -3.875628     -3.875633   1.000000   1.000000
    3       -3.213610     -3.213616   1.000000   1.000000
    4       -2.427904     -2.427911   1.000000   1.000000
    5       -1.649699     -1.649705   1.000000   1.000000
    6       -0.800558     -0.800565   1.000000   1.000000
    7       -0.023885     -0.023891   1.000000   1.000000
    8        1.533422      1.533421   1.000000   1.000000
    9        2.177049      2.177048   1.000000   1.000000
   10        2.661801      2.661800   1.000000   1.000000
   11        2.664657      2.664656   1.000000   1.000000
   12        3.050797      3.050795   1.000000   1.000000
   13        3.070766      3.070764   1.000000   1.000000
   14        3.250696      3.250692   1.000000   1.000000
   15        4.264708      4.264706   1.000000   1.000000
   16        5.286230      5.286227   1.000000   1.000000
   17        7.020139      7.020138   0.000000   0.000000
   18        7.123583      7.123582   0.000000   0.000000
   19        7.809113      7.809112   0.000000   0.000000
   20        7.979287      7.979286   0.000000   0.000000
   21        8.294768      8.294768   0.000000   0.000000
   22        8.327213      8.327210   0.000000   0.000000
   23        8.791712      8.791705   0.000000   0.000000
   24        9.303478      9.303475   0.000000   0.000000
   25        9.393407      9.393406   0.000000   0.000000
   26       10.837593     10.837589   0.000000   0.000000
   27       11.666978     11.666975   0.000000   0.000000
   28       12.034106     12.034102   0.000000   0.000000
   29       12.375031     12.375027   0.000000   0.000000
   30       13.045227     13.045224   0.000000   0.000000
   31       13.448446     13.448442   0.000000   0.000000
   32       13.515147     13.515144   0.000000   0.000000
 
  0.3636364E+00  0.1818182E+00  0.0000000E+00  0.1803156E-01
    1       -5.499755     -5.499760   1.000000   1.000000
    2       -4.373063     -4.373069   1.000000   1.000000
    3       -3.070206     -3.070212   1.000000   1.000000
    4       -2.572323     -2.572330   1.000000   1.000000
    5       -1.466831     -1.466837   1.000000   1.000000
    6       -0.924201     -0.924207   1.000000   1.000000
    7        0.665788      0.665782   1.000000   1.000000
    8        1.422654      1.422654   1.000000   1.000000
    9        1.850373      1.850372   1.000000   1.000000
   10        2.614000      2.613998   1.000000   1.000000
   11        2.625237      2.625232   1.000000   1.000000
   12        2.868157      2.868155   1.000000   1.000000
   13        2.944134      2.944132   1.000000   1.000000
   14        3.407643      3.407641   1.000000   1.000000
   15        3.849121      3.849119   1.000000   1.000000
   16        4.841439      4.841436   1.000000   1.000000
   17        7.265830      7.265829   0.000000   0.000000
   18        7.648090      7.648089   0.000000   0.000000
   19        8.023371      8.023369   0.000000   0.000000
   20        8.459797      8.459796   0.000000   0.000000
   21        8.705658      8.705657   0.000000   0.000000
   22        9.139356      9.139356   0.000000   0.000000
   23        9.236724      9.236717   0.000000   0.000000
   24       10.056668     10.056665   0.000000   0.000000
   25       10.332433     10.332432   0.000000   0.000000
   26       10.505325     10.505323   0.000000   0.000000
   27       10.576145     10.576142   0.000000   0.000000
   28       11.325778     11.325774   0.000000   0.000000
   29       11.949219     11.949215   0.000000   0.000000
   30       12.355326     12.355323   0.000000   0.000000
   31       12.575976     12.575973   0.000000   0.000000
   32       12.733340     12.733335   0.000000   0.000000
 
  0.4545455E+00  0.1818182E+00  0.0000000E+00  0.1803156E-01
    1       -5.188486     -5.188491   1.000000   1.000000
    2       -4.811933     -4.811938   1.000000   1.000000
    3       -2.905500     -2.905506   1.000000   1.000000
    4       -2.735252     -2.735258   1.000000   1.000000
    5       -1.274749     -1.274755   1.000000   1.000000
    6       -1.088112     -1.088118   1.000000   1.000000
    7        1.338337      1.338331   1.000000   1.000000
    8        1.446646      1.446646   1.000000   1.000000
    9        1.597013      1.597012   1.000000   1.000000
   10        1.990007      1.990002   1.000000   1.000000
   11        2.657820      2.657819   1.000000   1.000000
   12        2.780657      2.780656   1.000000   1.000000
   13        3.138596      3.138594   1.000000   1.000000
   14        3.468487      3.468485   1.000000   1.000000
   15        3.844676      3.844674   1.000000   1.000000
   16        4.335526      4.335523   1.000000   1.000000
   17        7.473679      7.473678   0.000000   0.000000
   18        7.729065      7.729064   0.000000   0.000000
   19        8.478692      8.478691   0.000000   0.000000
   20        9.021413      9.021412   0.000000   0.000000
   21        9.406134      9.406134   0.000000   0.000000
   22        9.501719      9.501714   0.000000   0.000000
   23        9.685827      9.685826   0.000000   0.000000
   24       10.183246     10.183245   0.000000   0.000000
   25       10.216188     10.216184   0.000000   0.000000
   26       10.657050     10.657050   0.000000   0.000000
   27       10.662488     10.662484   0.000000   0.000000
   28       10.867121     10.867118   0.000000   0.000000
   29       11.231616     11.231613   0.000000   0.000000
   30       11.561904     11.561900   0.000000   0.000000
   31       11.713676     11.713672   0.000000   0.000000
   32       12.595083     12.595081   0.000000   0.000000
 
  0.2727273E+00  0.2727273E+00  0.0000000E+00  0.9015778E-02
    1       -5.571036     -5.571041   1.000000   1.000000
    2       -3.745143     -3.745148   1.000000   1.000000
    3       -3.745143     -3.745148   1.000000   1.000000
    4       -2.647627     -2.647633   1.000000   1.000000
    5       -1.430614     -1.430620   1.000000   1.000000
    6       -0.190489     -0.190496   1.000000   1.000000
    7       -0.190489     -0.190496   1.000000   1.000000
    8        1.362434      1.362434   1.000000   1.000000
    9        2.283111      2.283110   1.000000   1.000000
   10        2.283111      2.283110   1.000000   1.000000
   11        2.680468      2.680463   1.000000   1.000000
   12        3.033262      3.033260   1.000000   1.000000
   13        3.033262      3.033260   1.000000   1.000000
   14        3.331144      3.331142   1.000000   1.000000
   15        3.844198      3.844196   1.000000   1.000000
   16        5.306731      5.306728   1.000000   1.000000