       N       E                     dE             d eps       ncg     rms          rms(c)
DAV:   1    -0.162261457455E+02   -0.16226E+02   -0.64751E+03  7200   0.297E+02
DAV:   2    -0.428246033117E+02   -0.26598E+02   -0.26356E+02 11904   0.465E+01
DAV:   3    -0.429924541100E+02   -0.16785E+00   -0.16785E+00  8128   0.470E+00
DAV:   4    -0.429927409988E+02   -0.28689E-03   -0.28689E-03 13792   0.199E-01
DAV:   5    -0.429927410058E+02   -0.69493E-08   -0.69677E-08  7808   0.860E-04    0.387E-01
RMM:   6    -0.429862674414E+02    0.64736E-02   -0.24986E-03  7168   0.143E-01    0.220E-01
RMM:   7    -0.429831968614E+02    0.30706E-02   -0.46796E-03  7168   0.196E-01    0.273E-02
RMM:   8    -0.429832157794E+02   -0.18918E-04   -0.62562E-05  6766   0.279E-02    0.262E-03
RMM:   9    -0.429832170543E+02   -0.12748E-05   -0.17069E-06  4254   0.450E-03
   1 F= -.42983217E+02 E0= -.42983217E+02  d E =-.429832E+02  mag=     0.0000
       N       E                     dE             d eps       ncg     rms          rms(c)
DAV:   1    -0.430212810813E+02   -0.38065E-01   -0.10439E+00 11296   0.279E+00    0.647E-01
RMM:   2    -0.430030079427E+02    0.18273E-01   -0.87493E-03  7168   0.307E-01    0.370E-01
RMM:   3    -0.429939685558E+02    0.90394E-02   -0.13369E-02  7168   0.328E-01    0.445E-02
RMM:   4    -0.429939172445E+02    0.51311E-04   -0.17647E-04  7060   0.462E-02    0.866E-03
RMM:   5    -0.429939145656E+02    0.26788E-05   -0.66589E-06  4992   0.890E-03
   2 F= -.42993915E+02 E0= -.42993915E+02  d E =-.106975E-01  mag=    -0.0000
       N       E                     dE             d eps       ncg     rms          rms(c)
DAV:   1    -0.430077096475E+02   -0.13792E-01   -0.17792E-01 10976   0.116E+00    0.268E-01
RMM:   2    -0.430046528163E+02    0.30568E-02   -0.14965E-03  7168   0.128E-01    0.153E-01
RMM:   3    -0.430031788573E+02    0.14740E-02   -0.22256E-03  7168   0.134E-01    0.185E-02
RMM:   4    -0.430031908957E+02   -0.12038E-04   -0.28487E-05  5779   0.189E-02    0.412E-03
RMM:   5    -0.430031937264E+02   -0.28307E-05   -0.13008E-06  3732   0.424E-03
   3 F= -.43003194E+02 E0= -.43003194E+02  d E =-.199767E-01  mag=     0.0000
