 vasp.5.4.4.18Apr17-6-g9f103f2a35 (build Dec 09 2018 21:25:21) complex          
  
 executed on IFC18.0.1.163_CrayMP date 2019.03.16  08:01:34
 running on   32 total cores
 distrk:  each k-point on   32 cores,    1 groups
 distr:  one band on NCORES_PER_BAND=   1 cores,   32 groups


--------------------------------------------------------------------------------------------------------


 INCAR:
 POTCAR:   PAW_PBE Si 05Jan2001                   

 ----------------------------------------------------------------------------- 
|                                                                             |
|           W    W    AA    RRRRR   N    N  II  N    N   GGGG   !!!           |
|           W    W   A  A   R    R  NN   N  II  NN   N  G    G  !!!           |
|           W    W  A    A  R    R  N N  N  II  N N  N  G       !!!           |
|           W WW W  AAAAAA  RRRRR   N  N N  II  N  N N  G  GGG   !            |
|           WW  WW  A    A  R   R   N   NN  II  N   NN  G    G                |
|           W    W  A    A  R    R  N    N  II  N    N   GGGG   !!!           |
|                                                                             |
|      For optimal performance we recommend to set                            |
|        NCORE= 4 - approx SQRT( number of cores)                             |
|      NCORE specifies how many cores store one orbital (NPAR=cpu/NCORE).     |
|      This setting can  greatly improve the performance of VASP for DFT.     |
|      The default,   NCORE=1            might be grossly inefficient         |
|      on modern multi-core architectures or massively parallel machines.     |
|      Do your own testing !!!!                                               |
|      Unfortunately you need to use the default for GW and RPA calculations. |
|      (for HF NCORE is supported but not extensively tested yet)             |
|                                                                             |
 ----------------------------------------------------------------------------- 

 POTCAR:   PAW_PBE Si 05Jan2001                   
   VRHFIN =Si: s2p2                                                             
   LEXCH  = PE                                                                  
   EATOM  =   103.0669 eV,    7.5752 Ry                                         
                                                                                
   TITEL  = PAW_PBE Si 05Jan2001                                                
   LULTRA =        F    use ultrasoft PP ?                                      
   IUNSCR =        1    unscreen: 0-lin 1-nonlin 2-no                           
   RPACOR =    1.500    partial core radius                                     
   POMASS =   28.085; ZVAL   =    4.000    mass and valenz                      
   RCORE  =    1.900    outmost cutoff radius                                   
   RWIGS  =    2.480; RWIGS  =    1.312    wigner-seitz radius (au A)           
   ENMAX  =  245.345; ENMIN  =  184.009 eV                                      
   ICORE  =        2    local potential                                         
   LCOR   =        T    correct aug charges                                     
   LPAW   =        T    paw PP                                                  
   EAUG   =  322.069                                                            
   DEXC   =    -.007                                                            
   RMAX   =    2.944    core radius for proj-oper                               
   RAUG   =    1.300    factor for augmentation sphere                          
   RDEP   =    1.993    radius for radial grids                                 
   QCUT   =   -4.246; QGAM   =    8.493    optimization parameters              
                                                                                
   Description                                                                  
     l     E      TYP  RCUT    TYP  RCUT                                        
     0   .000     23  1.900                                                     
     0   .000     23  1.900                                                     
     1   .000     23  1.900                                                     
     1   .000     23  1.900                                                     
     2   .000      7  1.900                                                     
  local pseudopotential read in
  partial core-charges read in
  atomic valenz-charges read in
  non local Contribution for L=           0  read in
    real space projection operators read in
  non local Contribution for L=           0  read in
    real space projection operators read in
  non local Contribution for L=           1  read in
    real space projection operators read in
  non local Contribution for L=           1  read in
    real space projection operators read in
    PAW grid and wavefunctions read in
 
   number of l-projection  operators is LMAX  =           4
   number of lm-projection operators is LMMAX =           8
 

 ----------------------------------------------------------------------------- 
|                                                                             |
|  ADVICE TO THIS USER RUNNING 'VASP/VAMP'   (HEAR YOUR MASTER'S VOICE ...):  |
|                                                                             |
|      You have a (more or less) 'small supercell' and for smaller cells      |
|      it is recommended  to use the reciprocal-space projection scheme!      |
|      The real space optimization is not  efficient for small cells and it   |
|      is also less accurate ...                                              |
|      Therefore set LREAL=.FALSE. in the  INCAR file                         |
|                                                                             |
 ----------------------------------------------------------------------------- 

 Optimization of the real space projectors (new method)

 maximal supplied QI-value         = 19.84
 optimisation between [QCUT,QGAM] = [  6.15, 12.50] = [ 10.60, 43.76] Ry 
 Optimized for a Real-space Cutoff    2.39 Angstroem

   l    n(q)    QCUT    max X(q) W(low)/X(q) W(high)/X(q)  e(spline) 
   0      9     6.151     8.708    0.23E-04    0.24E-04    0.58E-07
   0      9     6.151   106.241    0.10E-03    0.95E-05    0.54E-06
   1      8     6.151     5.901    0.15E-04    0.43E-05    0.20E-06
   1      8     6.151    65.711    0.17E-03    0.54E-03    0.90E-06
 PAW_PBE Si 05Jan2001                   :
 energy of atom  1       EATOM= -103.0669
 kinetic energy error for atom=    0.0210 (will be added to EATOM!!)
 
 
 POSCAR: Si8                                     
  positions in direct lattice
  No initial velocities read in
 exchange correlation table for  LEXCH =        8
   RHO(1)=    0.500       N(1)  =     2000
   RHO(2)=  100.500       N(2)  =     4000
 


--------------------------------------------------------------------------------------------------------


 ion  position               nearest neighbor table
   1  0.000  0.000  0.000-   2 2.35   4 2.35   6 2.35   8 2.35
   2  0.250  0.250  0.250-   1 2.35   3 2.35   5 2.35   7 2.35
   3  0.500  0.500  0.000-   2 2.35   4 2.35   6 2.35   8 2.35
   4  0.250  0.750  0.750-   1 2.35   3 2.35   5 2.35   7 2.35
   5  0.500  0.000  0.500-   2 2.35   4 2.35   6 2.35   8 2.35
   6  0.750  0.250  0.750-   1 2.35   3 2.35   5 2.35   7 2.35
   7  0.000  0.500  0.500-   2 2.35   4 2.35   6 2.35   8 2.35
   8  0.750  0.750  0.250-   1 2.35   3 2.35   5 2.35   7 2.35
 
  LATTYP: Found a simple cubic cell.
 ALAT       =     5.4300000000
  
  Lattice vectors:
  
 A1 = (   5.4300000000,   0.0000000000,   0.0000000000)
 A2 = (   0.0000000000,   5.4300000000,   0.0000000000)
 A3 = (   0.0000000000,   0.0000000000,   5.4300000000)


Analysis of symmetry for initial positions (statically):
=====================================================================
 Subroutine PRICEL returns following result:
 
  LATTYP: Found a face centered cubic cell.
 ALAT       =     5.4300000000
  
  Lattice vectors:
  
 A1 = (   2.7150000000,   2.7150000000,   0.0000000000)
 A2 = (   2.7150000000,   0.0000000000,  -2.7150000000)
 A3 = (   0.0000000000,   2.7150000000,  -2.7150000000)
 
   4 primitive cells build up your supercell.
 

 Routine SETGRP: Setting up the symmetry group for a 
 simple cubic supercell.


 Subroutine GETGRP returns: Found 48 space group operations
 (whereof 24 operations were pure point group operations)
 out of a pool of 48 trial point group operations.


The static configuration has the point symmetry T_d .
 The point group associated with its full space group is O_h .


Analysis of symmetry for dynamics (positions and initial velocities):
=====================================================================
 Subroutine PRICEL returns following result:
 
  LATTYP: Found a face centered cubic cell.
 ALAT       =     5.4300000000
  
  Lattice vectors:
  
 A1 = (   2.7150000000,   2.7150000000,   0.0000000000)
 A2 = (   2.7150000000,   0.0000000000,  -2.7150000000)
 A3 = (   0.0000000000,   2.7150000000,  -2.7150000000)
 
   4 primitive cells build up your supercell.
 

 Routine SETGRP: Setting up the symmetry group for a 
 simple cubic supercell.


 Subroutine GETGRP returns: Found 48 space group operations
 (whereof 24 operations were pure point group operations)
 out of a pool of 48 trial point group operations.


The dynamic configuration has the point symmetry T_d .
 The point group associated with its full space group is O_h .


Analysis of structural, dynamic, and magnetic symmetry:
=====================================================================
 Subroutine PRICEL returns following result:
 
  LATTYP: Found a face centered cubic cell.
 ALAT       =     5.4300000000
  
  Lattice vectors:
  
 A1 = (   2.7150000000,   2.7150000000,   0.0000000000)
 A2 = (   2.7150000000,   0.0000000000,  -2.7150000000)
 A3 = (   0.0000000000,   2.7150000000,  -2.7150000000)
 
   4 primitive cells build up your supercell.
 

 Routine SETGRP: Setting up the symmetry group for a 
 simple cubic supercell.


 Subroutine GETGRP returns: Found 48 space group operations
 (whereof 24 operations were pure point group operations)
 out of a pool of 48 trial point group operations.


The magnetic configuration has the point symmetry T_d .
 The point group associated with its full space group is O_h .


 Subroutine INISYM returns: Found 48 space group operations
 (whereof 24 operations are pure point group operations),
 and found     4 'primitive' translations

 
 
 KPOINTS: Automatic kpoint scheme                 

Automatic generation of k-mesh.
Space group operators:
 irot       det(A)        alpha          n_x          n_y          n_z        tau_x        tau_y        tau_z
    1     1.000000     0.000001     1.000000     0.000000     0.000000     0.000000     0.000000     0.000000
    2     1.000000   120.000000    -0.577350    -0.577350    -0.577350     0.000000     0.000000     0.000000
    3     1.000000   120.000000     0.577350     0.577350     0.577350     0.000000     0.000000     0.000000
    4    -1.000000    90.000000     0.000000     0.000000    -1.000000     0.000000     0.000000     0.000000
    5    -1.000000   180.000000     0.000000     0.707107     0.707107     0.000000     0.000000     0.000000
    6    -1.000000    90.000000     0.000000     1.000000     0.000000     0.000000     0.000000     0.000000
    7     1.000000   180.000000     0.000000     0.000000     1.000000     0.000000     0.000000     0.000000
    8     1.000000   120.000000    -0.577350     0.577350     0.577350     0.000000     0.000000     0.000000
    9     1.000000   120.000000    -0.577350     0.577350    -0.577350     0.000000     0.000000     0.000000
   10    -1.000000    90.000000     0.000000     0.000000     1.000000     0.000000     0.000000     0.000000
   11    -1.000000    90.000000    -1.000000     0.000000     0.000000     0.000000     0.000000     0.000000
   12    -1.000000   180.000000     0.707107     0.000000     0.707107     0.000000     0.000000     0.000000
   13     1.000000   120.000000     0.577350    -0.577350     0.577350     0.000000     0.000000     0.000000
   14     1.000000   120.000000    -0.577350    -0.577350     0.577350     0.000000     0.000000     0.000000
   15     1.000000   180.000000     1.000000     0.000000     0.000000     0.000000     0.000000     0.000000
   16    -1.000000    90.000000     0.000000    -1.000000     0.000000     0.000000     0.000000     0.000000
   17    -1.000000   180.000000     0.707107     0.707107     0.000000     0.000000     0.000000     0.000000
   18    -1.000000    90.000000     1.000000     0.000000     0.000000     0.000000     0.000000     0.000000
   19     1.000000   120.000000     0.577350    -0.577350    -0.577350     0.000000     0.000000     0.000000
   20     1.000000   180.000000     0.000000     1.000000     0.000000     0.000000     0.000000     0.000000
   21     1.000000   120.000000     0.577350     0.577350    -0.577350     0.000000     0.000000     0.000000
   22    -1.000000   180.000000     0.000000    -0.707107     0.707107     0.000000     0.000000     0.000000
   23    -1.000000   180.000000     0.707107    -0.707107     0.000000     0.000000     0.000000     0.000000
   24    -1.000000   180.000000     0.707107     0.000000    -0.707107     0.000000     0.000000     0.000000
   25    -1.000000     0.000001     1.000000     0.000000     0.000000     0.750000     0.750000    -0.750000
   26    -1.000000   120.000000    -0.577350    -0.577350    -0.577350     0.750000     0.750000    -0.750000
   27    -1.000000   120.000000     0.577350     0.577350     0.577350     0.750000     0.750000    -0.750000
   28     1.000000    90.000000     0.000000     0.000000    -1.000000     0.750000     0.750000    -0.750000
   29     1.000000   180.000000     0.000000     0.707107     0.707107     0.750000     0.750000    -0.750000
   30     1.000000    90.000000     0.000000     1.000000     0.000000     0.750000     0.750000    -0.750000
   31    -1.000000   180.000000     0.000000     0.000000     1.000000     0.750000     0.750000    -0.750000
   32    -1.000000   120.000000    -0.577350     0.577350     0.577350     0.750000     0.750000    -0.750000
   33    -1.000000   120.000000    -0.577350     0.577350    -0.577350     0.750000     0.750000    -0.750000
   34     1.000000    90.000000     0.000000     0.000000     1.000000     0.750000     0.750000    -0.750000
   35     1.000000    90.000000    -1.000000     0.000000     0.000000     0.750000     0.750000    -0.750000
   36     1.000000   180.000000     0.707107     0.000000     0.707107     0.750000     0.750000    -0.750000
   37    -1.000000   120.000000     0.577350    -0.577350     0.577350     0.750000     0.750000    -0.750000
   38    -1.000000   120.000000    -0.577350    -0.577350     0.577350     0.750000     0.750000    -0.750000
   39    -1.000000   180.000000     1.000000     0.000000     0.000000     0.750000     0.750000    -0.750000
   40     1.000000    90.000000     0.000000    -1.000000     0.000000     0.750000     0.750000    -0.750000
   41     1.000000   180.000000     0.707107     0.707107     0.000000     0.750000     0.750000    -0.750000
   42     1.000000    90.000000     1.000000     0.000000     0.000000     0.750000     0.750000    -0.750000
   43    -1.000000   120.000000     0.577350    -0.577350    -0.577350     0.750000     0.750000    -0.750000
   44    -1.000000   180.000000     0.000000     1.000000     0.000000     0.750000     0.750000    -0.750000
   45    -1.000000   120.000000     0.577350     0.577350    -0.577350     0.750000     0.750000    -0.750000
   46     1.000000   180.000000     0.000000    -0.707107     0.707107     0.750000     0.750000    -0.750000
   47     1.000000   180.000000     0.707107    -0.707107     0.000000     0.750000     0.750000    -0.750000
   48     1.000000   180.000000     0.707107     0.000000    -0.707107     0.750000     0.750000    -0.750000
 
 Subroutine IBZKPT returns following result:
 ===========================================
 
 Found     56 irreducible k-points:
 
 Following reciprocal coordinates:
            Coordinates               Weight
  0.000000  0.000000  0.000000      1.000000
  0.090909  0.000000  0.000000      6.000000
  0.181818  0.000000  0.000000      6.000000
  0.272727  0.000000  0.000000      6.000000
  0.363636  0.000000  0.000000      6.000000
  0.454545  0.000000  0.000000      6.000000
  0.090909  0.090909  0.000000     12.000000
  0.181818  0.090909  0.000000     24.000000
  0.272727  0.090909  0.000000     24.000000
  0.363636  0.090909  0.000000     24.000000
  0.454545  0.090909  0.000000     24.000000
  0.181818  0.181818  0.000000     12.000000
  0.272727  0.181818  0.000000     24.000000
  0.363636  0.181818  0.000000     24.000000
  0.454545  0.181818  0.000000     24.000000
  0.272727  0.272727  0.000000     12.000000
  0.363636  0.272727  0.000000     24.000000
  0.454545  0.272727  0.000000     24.000000
  0.363636  0.363636  0.000000     12.000000
  0.454545  0.363636  0.000000     24.000000
  0.454545  0.454545  0.000000     12.000000
  0.090909  0.090909  0.090909      8.000000
  0.181818  0.090909  0.090909     24.000000
  0.272727  0.090909  0.090909     24.000000
  0.363636  0.090909  0.090909     24.000000
  0.454545  0.090909  0.090909     24.000000
  0.181818  0.181818  0.090909     24.000000
  0.272727  0.181818  0.090909     48.000000
  0.363636  0.181818  0.090909     48.000000
  0.454545  0.181818  0.090909     48.000000
  0.272727  0.272727  0.090909     24.000000
  0.363636  0.272727  0.090909     48.000000
  0.454545  0.272727  0.090909     48.000000
  0.363636  0.363636  0.090909     24.000000
  0.454545  0.363636  0.090909     48.000000
  0.454545  0.454545  0.090909     24.000000
  0.181818  0.181818  0.181818      8.000000
  0.272727  0.181818  0.181818     24.000000
  0.363636  0.181818  0.181818     24.000000
  0.454545  0.181818  0.181818     24.000000
  0.272727  0.272727  0.181818     24.000000
  0.363636  0.272727  0.181818     48.000000
  0.454545  0.272727  0.181818     48.000000
  0.363636  0.363636  0.181818     24.000000
  0.454545  0.363636  0.181818     48.000000
  0.454545  0.454545  0.181818     24.000000
  0.272727  0.272727  0.272727      8.000000
  0.363636  0.272727  0.272727     24.000000
  0.454545  0.272727  0.272727     24.000000
  0.363636  0.363636  0.272727     24.000000
  0.454545  0.363636  0.272727     48.000000
  0.454545  0.454545  0.272727     24.000000
  0.363636  0.363636  0.363636      8.000000
  0.454545  0.363636  0.363636     24.000000
  0.454545  0.454545  0.363636     24.000000
  0.454545  0.454545  0.454545      8.000000
 
 Following cartesian coordinates:
            Coordinates               Weight
  0.000000  0.000000  0.000000      1.000000
  0.016742  0.000000  0.000000      6.000000
  0.033484  0.000000  0.000000      6.000000
  0.050226  0.000000  0.000000      6.000000
  0.066968  0.000000  0.000000      6.000000
  0.083710  0.000000  0.000000      6.000000
  0.016742  0.016742  0.000000     12.000000
  0.033484  0.016742  0.000000     24.000000
  0.050226  0.016742  0.000000     24.000000
  0.066968  0.016742  0.000000     24.000000
  0.083710  0.016742  0.000000     24.000000
  0.033484  0.033484  0.000000     12.000000
  0.050226  0.033484  0.000000     24.000000
  0.066968  0.033484  0.000000     24.000000
  0.083710  0.033484  0.000000     24.000000
  0.050226  0.050226  0.000000     12.000000
  0.066968  0.050226  0.000000     24.000000
  0.083710  0.050226  0.000000     24.000000
  0.066968  0.066968  0.000000     12.000000
  0.083710  0.066968  0.000000     24.000000
  0.083710  0.083710  0.000000     12.000000
  0.016742  0.016742  0.016742      8.000000
  0.033484  0.016742  0.016742     24.000000
  0.050226  0.016742  0.016742     24.000000
  0.066968  0.016742  0.016742     24.000000
  0.083710  0.016742  0.016742     24.000000
  0.033484  0.033484  0.016742     24.000000
  0.050226  0.033484  0.016742     48.000000
  0.066968  0.033484  0.016742     48.000000
  0.083710  0.033484  0.016742     48.000000
  0.050226  0.050226  0.016742     24.000000
  0.066968  0.050226  0.016742     48.000000
  0.083710  0.050226  0.016742     48.000000
  0.066968  0.066968  0.016742     24.000000
  0.083710  0.066968  0.016742     48.000000
  0.083710  0.083710  0.016742     24.000000
  0.033484  0.033484  0.033484      8.000000
  0.050226  0.033484  0.033484     24.000000
  0.066968  0.033484  0.033484     24.000000
  0.083710  0.033484  0.033484     24.000000
  0.050226  0.050226  0.033484     24.000000
  0.066968  0.050226  0.033484     48.000000
  0.083710  0.050226  0.033484     48.000000
  0.066968  0.066968  0.033484     24.000000
  0.083710  0.066968  0.033484     48.000000
  0.083710  0.083710  0.033484     24.000000
  0.050226  0.050226  0.050226      8.000000
  0.066968  0.050226  0.050226     24.000000
  0.083710  0.050226  0.050226     24.000000
  0.066968  0.066968  0.050226     24.000000
  0.083710  0.066968  0.050226     48.000000
  0.083710  0.083710  0.050226     24.000000
  0.066968  0.066968  0.066968      8.000000
  0.083710  0.066968  0.066968     24.000000
  0.083710  0.083710  0.066968     24.000000
  0.083710  0.083710  0.083710      8.000000
 


--------------------------------------------------------------------------------------------------------




 Dimension of arrays:
   k-points           NKPTS =     56   k-points in BZ     NKDIM =     56   number of bands    NBANDS=     32
   number of dos      NEDOS =    301   number of ions     NIONS =      8
   non local maximal  LDIM  =      4   non local SUM 2l+1 LMDIM =      8
   total plane-waves  NPLWV =  13824
   max r-space proj   IRMAX =   4998   max aug-charges    IRDMAX=   3086
   dimension x,y,z NGX =    24 NGY =   24 NGZ =   24
   dimension x,y,z NGXF=    48 NGYF=   48 NGZF=   48
   support grid    NGXF=    48 NGYF=   48 NGZF=   48
   ions per type =               8
   NGX,Y,Z   is equivalent  to a cutoff of   7.35,  7.35,  7.35 a.u.
   NGXF,Y,Z  is equivalent  to a cutoff of  14.70, 14.70, 14.70 a.u.

 SYSTEM =  Diamond si                              
 POSCAR =  Si8                                     

 Startparameter for this run:
   NWRITE =      2    write-flag & timer
   PREC   = accura    normal or accurate (medium, high low for compatibility)
   ISTART =      0    job   : 0-new  1-cont  2-samecut
   ICHARG =      1    charge: 1-file 2-atom 10-const
   ISPIN  =      2    spin polarized calculation?
   LNONCOLLINEAR =      F non collinear calculations
   LSORBIT =      F    spin-orbit coupling
   INIWAV =      1    electr: 0-lowe 1-rand  2-diag
   LASPH  =      F    aspherical Exc in radial PAW
   METAGGA=      F    non-selfconsistent MetaGGA calc.

 Electronic Relaxation 1
   ENCUT  =  150.0 eV  11.02 Ry    3.32 a.u.   5.42  5.42  5.42*2*pi/ulx,y,z
   ENINI  =  150.0     initial cutoff
   ENAUG  =  322.1 eV  augmentation charge cutoff
   NELM   =    100;   NELMIN=  2; NELMDL=  0     # of ELM steps 
   EDIFF  = 0.1E-04   stopping-criterion for ELM
   LREAL  =      T    real-space projection
   NLSPLINE    = F    spline interpolate recip. space projectors
   LCOMPAT=      F    compatible to vasp.4.4
   GGA_COMPAT  = T    GGA compatible to vasp.4.4-vasp.4.6
   LMAXPAW     = -100 max onsite density
   LMAXMIX     =    2 max onsite mixed and CHGCAR
   VOSKOWN=      0    Vosko Wilk Nusair interpolation
   ROPT   =   -0.00025
 Ionic relaxation
   EDIFFG = -.1E-01   stopping-criterion for IOM
   NSW    =     15    number of steps for IOM
   NBLOCK =      1;   KBLOCK =     15    inner block; outer block 
   IBRION =      2    ionic relax: 0-MD 1-quasi-New 2-CG
   NFREE  =      1    steps in history (QN), initial steepest desc. (CG)
   ISIF   =      3    stress and relaxation
   IWAVPR =     11    prediction:  0-non 1-charg 2-wave 3-comb
   ISYM   =      2    0-nonsym 1-usesym 2-fastsym
   LCORR  =      T    Harris-Foulkes like correction to forces

   POTIM  = 0.5000    time-step for ionic-motion
   TEIN   =    0.0    initial temperature
   TEBEG  =    0.0;   TEEND  =   0.0 temperature during run
   SMASS  =  -3.00    Nose mass-parameter (am)
   estimated Nose-frequenzy (Omega)   =  0.10E-29 period in steps =****** mass=  -0.674E-27a.u.
   SCALEE = 1.0000    scale energy and forces
   NPACO  =    256;   APACO  = 16.0  distance and # of slots for P.C.
   PSTRESS=    0.0 pullay stress

  Mass of Ions in am
   POMASS =  28.09
  Ionic Valenz
   ZVAL   =   4.00
  Atomic Wigner-Seitz radii
   RWIGS  =  -1.00
  virtual crystal weights 
   VCA    =   1.00
   NELECT =      32.0000    total number of electrons
   NUPDOWN=      -1.0000    fix difference up-down

 DOS related values:
   EMIN   =  10.00;   EMAX   =-10.00  energy-range for DOS
   EFERMI =   0.00
   ISMEAR =     0;   SIGMA  =   0.10  broadening in eV -4-tet -1-fermi 0-gaus

 Electronic relaxation 2 (details)
   IALGO  =     68    algorithm
   LDIAG  =      T    sub-space diagonalisation (order eigenvalues)
   LSUBROT=      F    optimize rotation matrix (better conditioning)
   TURBO    =      0    0=normal 1=particle mesh
   IRESTART =      0    0=no restart 2=restart with 2 vectors
   NREBOOT  =      0    no. of reboots
   NMIN     =      0    reboot dimension
   EREF     =   0.00    reference energy to select bands
   IMIX   =      4    mixing-type and parameters
     AMIX     =   0.40;   BMIX     =  1.00
     AMIX_MAG =   1.60;   BMIX_MAG =  1.00
     AMIN     =   0.10
     WC   =   100.;   INIMIX=   1;  MIXPRE=   1;  MAXMIX= -45

 Intra band minimization:
   WEIMIN = 0.0010     energy-eigenvalue tresh-hold
   EBREAK =  0.78E-07  absolut break condition
   DEPER  =   0.30     relativ break condition  

   TIME   =   0.40     timestep for ELM

  volume/ion in A,a.u.               =      20.01       135.05
  Fermi-wavevector in a.u.,A,eV,Ry     =   0.957176  1.808800 12.465458  0.916185
  Thomas-Fermi vector in A             =   2.086170
 
 Write flags
   LWAVE        =      F    write WAVECAR
   LDOWNSAMPLE  =      F    k-point downsampling of WAVECAR
   LCHARG       =      T    write CHGCAR
   LVTOT        =      F    write LOCPOT, total local potential
   LVHAR        =      F    write LOCPOT, Hartree potential only
   LELF         =      F    write electronic localiz. function (ELF)
   LORBIT       =     11    0 simple, 1 ext, 2 COOP (PROOUT), +10 PAW based schemes


 Dipole corrections
   LMONO  =      F    monopole corrections only (constant potential shift)
   LDIPOL =      F    correct potential (dipole corrections)
   IDIPOL =      0    1-x, 2-y, 3-z, 4-all directions 
   EPSILON=  1.0000000 bulk dielectric constant

 Exchange correlation treatment:
   GGA     =    --    GGA type
   LEXCH   =     8    internal setting for exchange type
   VOSKOWN=      0    Vosko Wilk Nusair interpolation
   LHFCALC =     F    Hartree Fock is set to
   LHFONE  =     F    Hartree Fock one center treatment
   AEXX    =    0.0000 exact exchange contribution

 Linear response parameters
   LEPSILON=     F    determine dielectric tensor
   LRPA    =     F    only Hartree local field effects (RPA)
   LNABLA  =     F    use nabla operator in PAW spheres
   LVEL    =     F    velocity operator in full k-point grid
   LINTERFAST=   F  fast interpolation
   KINTER  =     0    interpolate to denser k-point grid
   CSHIFT  =0.1000    complex shift for real part using Kramers Kronig
   OMEGAMAX=  -1.0    maximum frequency
   DEG_THRESHOLD= 0.2000000E-02 threshold for treating states as degnerate
   RTIME   =   -0.100 relaxation time in fs
  (WPLASMAI=    0.000 imaginary part of plasma frequency in eV, 0.658/RTIME)
   DFIELD  = 0.0000000 0.0000000 0.0000000 field for delta impulse in time
 
 Orbital magnetization related:
   ORBITALMAG=     F  switch on orbital magnetization
   LCHIMAG   =     F  perturbation theory with respect to B field
   DQ        =  0.001000  dq finite difference perturbation B field
   LLRAUG    =     F  two centre corrections for induced B field



--------------------------------------------------------------------------------------------------------


 conjugate gradient relaxation of ions
 charge density and potential will be updated during run
 spin polarized calculation
 RMM-DIIS sequential band-by-band and
  variant of blocked Davidson during initial phase
 perform sub-space diagonalisation
    before iterative eigenvector-optimisation
 modified Broyden-mixing scheme, WC =      100.0
 initial mixing is a Kerker type mixing with AMIX =  0.4000 and BMIX =      1.0000
 Hartree-type preconditioning will be used
 using additional bands           16
 real space projection scheme for non local part
 use partial core corrections
 calculate Harris-corrections to forces 
   (improved forces if not selfconsistent)
 use gradient corrections 
 use of overlap-Matrix (Vanderbilt PP)
 Gauss-broadening in eV      SIGMA  =   0.10


--------------------------------------------------------------------------------------------------------


  energy-cutoff  :      150.00
  volume of cell :      160.10
      direct lattice vectors                 reciprocal lattice vectors
     5.430000000  0.000000000  0.000000000     0.184162063  0.000000000  0.000000000
     0.000000000  5.430000000  0.000000000     0.000000000  0.184162063  0.000000000
     0.000000000  0.000000000  5.430000000     0.000000000  0.000000000  0.184162063

  length of vectors
     5.430000000  5.430000000  5.430000000     0.184162063  0.184162063  0.184162063


 
 k-points in units of 2pi/SCALE and weight: Automatic kpoint scheme                 
   0.00000000  0.00000000  0.00000000       0.001
   0.01674201  0.00000000  0.00000000       0.005
   0.03348401  0.00000000  0.00000000       0.005
   0.05022602  0.00000000  0.00000000       0.005
   0.06696802  0.00000000  0.00000000       0.005
   0.08371003  0.00000000  0.00000000       0.005
   0.01674201  0.01674201  0.00000000       0.009
   0.03348401  0.01674201  0.00000000       0.018
   0.05022602  0.01674201  0.00000000       0.018
   0.06696802  0.01674201  0.00000000       0.018
   0.08371003  0.01674201  0.00000000       0.018
   0.03348401  0.03348401  0.00000000       0.009
   0.05022602  0.03348401  0.00000000       0.018
   0.06696802  0.03348401  0.00000000       0.018
   0.08371003  0.03348401  0.00000000       0.018
   0.05022602  0.05022602  0.00000000       0.009
   0.06696802  0.05022602  0.00000000       0.018
   0.08371003  0.05022602  0.00000000       0.018
   0.06696802  0.06696802  0.00000000       0.009
   0.08371003  0.06696802  0.00000000       0.018
   0.08371003  0.08371003  0.00000000       0.009
   0.01674201  0.01674201  0.01674201       0.006
   0.03348401  0.01674201  0.01674201       0.018
   0.05022602  0.01674201  0.01674201       0.018
   0.06696802  0.01674201  0.01674201       0.018
   0.08371003  0.01674201  0.01674201       0.018
   0.03348401  0.03348401  0.01674201       0.018
   0.05022602  0.03348401  0.01674201       0.036
   0.06696802  0.03348401  0.01674201       0.036
   0.08371003  0.03348401  0.01674201       0.036
   0.05022602  0.05022602  0.01674201       0.018
   0.06696802  0.05022602  0.01674201       0.036
   0.08371003  0.05022602  0.01674201       0.036
   0.06696802  0.06696802  0.01674201       0.018
   0.08371003  0.06696802  0.01674201       0.036
   0.08371003  0.08371003  0.01674201       0.018
   0.03348401  0.03348401  0.03348401       0.006
   0.05022602  0.03348401  0.03348401       0.018
   0.06696802  0.03348401  0.03348401       0.018
   0.08371003  0.03348401  0.03348401       0.018
   0.05022602  0.05022602  0.03348401       0.018
   0.06696802  0.05022602  0.03348401       0.036
   0.08371003  0.05022602  0.03348401       0.036
   0.06696802  0.06696802  0.03348401       0.018
   0.08371003  0.06696802  0.03348401       0.036
   0.08371003  0.08371003  0.03348401       0.018
   0.05022602  0.05022602  0.05022602       0.006
   0.06696802  0.05022602  0.05022602       0.018
   0.08371003  0.05022602  0.05022602       0.018
   0.06696802  0.06696802  0.05022602       0.018
   0.08371003  0.06696802  0.05022602       0.036
   0.08371003  0.08371003  0.05022602       0.018
   0.06696802  0.06696802  0.06696802       0.006
   0.08371003  0.06696802  0.06696802       0.018
   0.08371003  0.08371003  0.06696802       0.018
   0.08371003  0.08371003  0.08371003       0.006
 
 k-points in reciprocal lattice and weights: Automatic kpoint scheme                 
   0.00000000  0.00000000  0.00000000       0.001
   0.09090909  0.00000000  0.00000000       0.005
   0.18181818  0.00000000  0.00000000       0.005
   0.27272727  0.00000000  0.00000000       0.005
   0.36363636  0.00000000  0.00000000       0.005
   0.45454545  0.00000000  0.00000000       0.005
   0.09090909  0.09090909  0.00000000       0.009
   0.18181818  0.09090909  0.00000000       0.018
   0.27272727  0.09090909  0.00000000       0.018
   0.36363636  0.09090909  0.00000000       0.018
   0.45454545  0.09090909  0.00000000       0.018
   0.18181818  0.18181818  0.00000000       0.009
   0.27272727  0.18181818  0.00000000       0.018
   0.36363636  0.18181818  0.00000000       0.018
   0.45454545  0.18181818  0.00000000       0.018
   0.27272727  0.27272727  0.00000000       0.009
   0.36363636  0.27272727  0.00000000       0.018
   0.45454545  0.27272727  0.00000000       0.018
   0.36363636  0.36363636  0.00000000       0.009
   0.45454545  0.36363636  0.00000000       0.018
   0.45454545  0.45454545  0.00000000       0.009
   0.09090909  0.09090909  0.09090909       0.006
   0.18181818  0.09090909  0.09090909       0.018
   0.27272727  0.09090909  0.09090909       0.018
   0.36363636  0.09090909  0.09090909       0.018
   0.45454545  0.09090909  0.09090909       0.018
   0.18181818  0.18181818  0.09090909       0.018
   0.27272727  0.18181818  0.09090909       0.036
   0.36363636  0.18181818  0.09090909       0.036
   0.45454545  0.18181818  0.09090909       0.036
   0.27272727  0.27272727  0.09090909       0.018
   0.36363636  0.27272727  0.09090909       0.036
   0.45454545  0.27272727  0.09090909       0.036
   0.36363636  0.36363636  0.09090909       0.018
   0.45454545  0.36363636  0.09090909       0.036
   0.45454545  0.45454545  0.09090909       0.018
   0.18181818  0.18181818  0.18181818       0.006
   0.27272727  0.18181818  0.18181818       0.018
   0.36363636  0.18181818  0.18181818       0.018
   0.45454545  0.18181818  0.18181818       0.018
   0.27272727  0.27272727  0.18181818       0.018
   0.36363636  0.27272727  0.18181818       0.036
   0.45454545  0.27272727  0.18181818       0.036
   0.36363636  0.36363636  0.18181818       0.018
   0.45454545  0.36363636  0.18181818       0.036
   0.45454545  0.45454545  0.18181818       0.018
   0.27272727  0.27272727  0.27272727       0.006
   0.36363636  0.27272727  0.27272727       0.018
   0.45454545  0.27272727  0.27272727       0.018
   0.36363636  0.36363636  0.27272727       0.018
   0.45454545  0.36363636  0.27272727       0.036
   0.45454545  0.45454545  0.27272727       0.018
   0.36363636  0.36363636  0.36363636       0.006
   0.45454545  0.36363636  0.36363636       0.018
   0.45454545  0.45454545  0.36363636       0.018
   0.45454545  0.45454545  0.45454545       0.006
 
 position of ions in fractional coordinates (direct lattice) 
   0.00000000  0.00000000  0.00000000
   0.25000000  0.25000000  0.25000000
   0.50000000  0.50000000  0.00000000
   0.25000000  0.75000000  0.75000000
   0.50000000  0.00000000  0.50000000
   0.75000000  0.25000000  0.75000000
   0.00000000  0.50000000  0.50000000
   0.75000000  0.75000000  0.25000000
 
 position of ions in cartesian coordinates  (Angst):
   0.00000000  0.00000000  0.00000000
   1.35750000  1.35750000  1.35750000
   2.71500000  2.71500000  0.00000000
   1.35750000  4.07250000  4.07250000
   2.71500000  0.00000000  2.71500000
   4.07250000  1.35750000  4.07250000
   0.00000000  2.71500000  2.71500000
   4.07250000  4.07250000  1.35750000
 


--------------------------------------------------------------------------------------------------------


 k-point  1 :   0.0000 0.0000 0.0000  plane waves:     691
 k-point  2 :   0.0909 0.0000 0.0000  plane waves:     679
 k-point  3 :   0.1818 0.0000 0.0000  plane waves:     675
 k-point  4 :   0.2727 0.0000 0.0000  plane waves:     671
 k-point  5 :   0.3636 0.0000 0.0000  plane waves:     671
 k-point  6 :   0.4545 0.0000 0.0000  plane waves:     670
 k-point  7 :   0.0909 0.0909 0.0000  plane waves:     683
 k-point  8 :   0.1818 0.0909 0.0000  plane waves:     676
 k-point  9 :   0.2727 0.0909 0.0000  plane waves:     671
 k-point 10 :   0.3636 0.0909 0.0000  plane waves:     666
 k-point 11 :   0.4545 0.0909 0.0000  plane waves:     669
 k-point 12 :   0.1818 0.1818 0.0000  plane waves:     676
 k-point 13 :   0.2727 0.1818 0.0000  plane waves:     674
 k-point 14 :   0.3636 0.1818 0.0000  plane waves:     666
 k-point 15 :   0.4545 0.1818 0.0000  plane waves:     663
 k-point 16 :   0.2727 0.2727 0.0000  plane waves:     670
 k-point 17 :   0.3636 0.2727 0.0000  plane waves:     672
 k-point 18 :   0.4545 0.2727 0.0000  plane waves:     672
 k-point 19 :   0.3636 0.3636 0.0000  plane waves:     666
 k-point 20 :   0.4545 0.3636 0.0000  plane waves:     664
 k-point 21 :   0.4545 0.4545 0.0000  plane waves:     666
 k-point 22 :   0.0909 0.0909 0.0909  plane waves:     679
 k-point 23 :   0.1818 0.0909 0.0909  plane waves:     677
 k-point 24 :   0.2727 0.0909 0.0909  plane waves:     674
 k-point 25 :   0.3636 0.0909 0.0909  plane waves:     665
 k-point 26 :   0.4545 0.0909 0.0909  plane waves:     662
 k-point 27 :   0.1818 0.1818 0.0909  plane waves:     679
 k-point 28 :   0.2727 0.1818 0.0909  plane waves:     678
 k-point 29 :   0.3636 0.1818 0.0909  plane waves:     664
 k-point 30 :   0.4545 0.1818 0.0909  plane waves:     663
 k-point 31 :   0.2727 0.2727 0.0909  plane waves:     672
 k-point 32 :   0.3636 0.2727 0.0909  plane waves:     672
 k-point 33 :   0.4545 0.2727 0.0909  plane waves:     667
 k-point 34 :   0.3636 0.3636 0.0909  plane waves:     670
 k-point 35 :   0.4545 0.3636 0.0909  plane waves:     666
 k-point 36 :   0.4545 0.4545 0.0909  plane waves:     662
 k-point 37 :   0.1818 0.1818 0.1818  plane waves:     678
 k-point 38 :   0.2727 0.1818 0.1818  plane waves:     671
 k-point 39 :   0.3636 0.1818 0.1818  plane waves:     665
 k-point 40 :   0.4545 0.1818 0.1818  plane waves:     664
 k-point 41 :   0.2727 0.2727 0.1818  plane waves:     675
 k-point 42 :   0.3636 0.2727 0.1818  plane waves:     668
 k-point 43 :   0.4545 0.2727 0.1818  plane waves:     662
 k-point 44 :   0.3636 0.3636 0.1818  plane waves:     669
 k-point 45 :   0.4545 0.3636 0.1818  plane waves:     666
 k-point 46 :   0.4545 0.4545 0.1818  plane waves:     659
 k-point 47 :   0.2727 0.2727 0.2727  plane waves:     663
 k-point 48 :   0.3636 0.2727 0.2727  plane waves:     662
 k-point 49 :   0.4545 0.2727 0.2727  plane waves:     660
 k-point 50 :   0.3636 0.3636 0.2727  plane waves:     660
 k-point 51 :   0.4545 0.3636 0.2727  plane waves:     663
 k-point 52 :   0.4545 0.4545 0.2727  plane waves:     665
 k-point 53 :   0.3636 0.3636 0.3636  plane waves:     666
 k-point 54 :   0.4545 0.3636 0.3636  plane waves:     664
 k-point 55 :   0.4545 0.4545 0.3636  plane waves:     664
 k-point 56 :   0.4545 0.4545 0.4545  plane waves:     666

 maximum and minimum number of plane-waves per node :       691      659

 maximum number of plane-waves:       691
 maximum index in each direction: 
   IXMAX=    5   IYMAX=    5   IZMAX=    5
   IXMIN=   -5   IYMIN=   -5   IZMIN=   -5


 serial   3D FFT for wavefunctions
 parallel 3D FFT for charge:
    minimum data exchange during FFTs selected (reduces bandwidth)


 total amount of memory used by VASP MPI-rank0    36481. kBytes
=======================================================================

   base      :      30000. kBytes
   nonlr-proj:       3378. kBytes
   fftplans  :        212. kBytes
   grid      :       1466. kBytes
   one-center:         49. kBytes
   wavefun   :       1376. kBytes
 
     INWAV:  cpu time    0.0000: real time    0.0003
 Broyden mixing: mesh for mixing (old mesh)
   NGX = 11   NGY = 11   NGZ = 11
  (NGX  = 48   NGY  = 48   NGZ  = 48)
  gives a total of   1331 points

 initial charge density was supplied:
 number of electron      32.0000041 magnetization      -0.0000000
 keeping initial charge density in first step


--------------------------------------------------------------------------------------------------------


 Maximum index for non-local projection operator         4801
 Maximum index for augmentation-charges          241 (set IRDMAX)


--------------------------------------------------------------------------------------------------------


 First call to EWALD:  gamma=   0.326
 Maximum number of real-space cells 3x 3x 3
 Maximum number of reciprocal cells 3x 3x 3

    FEWALD:  cpu time    0.0040: real time    0.0070


--------------------------------------- Iteration      1(   1)  ---------------------------------------


    POTLOK:  cpu time    0.0560: real time    0.0924
    SETDIJ:  cpu time    0.0280: real time    0.0274
     EDDAV:  cpu time    9.8800: real time    9.8857
       DOS:  cpu time    0.0080: real time    0.0061
    --------------------------------------------
      LOOP:  cpu time    9.9720: real time   10.0121

 eigenvalue-minimisations  :  7200
 total energy-change (2. order) :-0.1622615E+02  (-0.6475089E+03)
 number of electron      32.0000041 magnetization      -0.0000000
 augmentation part       32.0000041 magnetization      -0.0000000

 Free energy of the ion-electron system (eV)
  ---------------------------------------------------
  alpha Z        PSCENC =        13.45656811
  Ewald energy   TEWEN  =      -914.25413255
  -Hartree energ DENC   =       -60.93171831
  -exchange      EXHF   =         0.00000000
  -V(xc)+E(xc)   XCENC  =       -71.67561511
  PAW double counting   =       303.89715195     -164.02850753
  entropy T*S    EENTRO =        -0.00581395
  eigenvalues    EBANDS =        52.94857594
  atomic energy  EATOM  =       824.36734571
  Solvation  Ediel_sol  =         0.00000000
  ---------------------------------------------------
  free energy    TOTEN  =       -16.22614575 eV

  energy without entropy =      -16.22033179  energy(sigma->0) =      -16.22323877


--------------------------------------------------------------------------------------------------------




--------------------------------------- Iteration      1(   2)  ---------------------------------------


     EDDAV:  cpu time   16.5440: real time   16.5583
       DOS:  cpu time    0.0040: real time    0.0048
    --------------------------------------------
      LOOP:  cpu time   16.5480: real time   16.5632

 eigenvalue-minimisations  : 11904
 total energy-change (2. order) :-0.2659846E+02  (-0.2635575E+02)
 number of electron      32.0000041 magnetization      -0.0000000
 augmentation part       32.0000041 magnetization      -0.0000000

 Free energy of the ion-electron system (eV)
  ---------------------------------------------------
  alpha Z        PSCENC =        13.45656811
  Ewald energy   TEWEN  =      -914.25413255
  -Hartree energ DENC   =       -60.93171831
  -exchange      EXHF   =         0.00000000
  -V(xc)+E(xc)   XCENC  =       -71.67561511
  PAW double counting   =       303.89715195     -164.02850753
  entropy T*S    EENTRO =        -0.00000022
  eigenvalues    EBANDS =        26.34430464
  atomic energy  EATOM  =       824.36734571
  Solvation  Ediel_sol  =         0.00000000
  ---------------------------------------------------
  free energy    TOTEN  =       -42.82460331 eV

  energy without entropy =      -42.82460309  energy(sigma->0) =      -42.82460320


--------------------------------------------------------------------------------------------------------




--------------------------------------- Iteration      1(   3)  ---------------------------------------


     EDDAV:  cpu time    7.8520: real time    7.8652
       DOS:  cpu time    0.0000: real time    0.0035
    --------------------------------------------
      LOOP:  cpu time    7.8520: real time    7.8689

 eigenvalue-minimisations  :  8128
 total energy-change (2. order) :-0.1678508E+00  (-0.1678508E+00)
 number of electron      32.0000041 magnetization      -0.0000000
 augmentation part       32.0000041 magnetization      -0.0000000

 Free energy of the ion-electron system (eV)
  ---------------------------------------------------
  alpha Z        PSCENC =        13.45656811
  Ewald energy   TEWEN  =      -914.25413255
  -Hartree energ DENC   =       -60.93171831
  -exchange      EXHF   =         0.00000000
  -V(xc)+E(xc)   XCENC  =       -71.67561511
  PAW double counting   =       303.89715195     -164.02850753
  entropy T*S    EENTRO =        -0.00000015
  eigenvalues    EBANDS =        26.17645377
  atomic energy  EATOM  =       824.36734571
  Solvation  Ediel_sol  =         0.00000000
  ---------------------------------------------------
  free energy    TOTEN  =       -42.99245411 eV

  energy without entropy =      -42.99245396  energy(sigma->0) =      -42.99245404


--------------------------------------------------------------------------------------------------------




--------------------------------------- Iteration      1(   4)  ---------------------------------------


     EDDAV:  cpu time   12.1520: real time   12.1621
       DOS:  cpu time    0.0040: real time    0.0033
    --------------------------------------------
      LOOP:  cpu time   12.1560: real time   12.1651

 eigenvalue-minimisations  : 13792
 total energy-change (2. order) :-0.2868888E-03  (-0.2868885E-03)
 number of electron      32.0000041 magnetization      -0.0000000
 augmentation part       32.0000041 magnetization      -0.0000000

 Free energy of the ion-electron system (eV)
  ---------------------------------------------------
  alpha Z        PSCENC =        13.45656811
  Ewald energy   TEWEN  =      -914.25413255
  -Hartree energ DENC   =       -60.93171831
  -exchange      EXHF   =         0.00000000
  -V(xc)+E(xc)   XCENC  =       -71.67561511
  PAW double counting   =       303.89715195     -164.02850753
  entropy T*S    EENTRO =        -0.00000015
  eigenvalues    EBANDS =        26.17616688
  atomic energy  EATOM  =       824.36734571
  Solvation  Ediel_sol  =         0.00000000
  ---------------------------------------------------
  free energy    TOTEN  =       -42.99274100 eV

  energy without entropy =      -42.99274085  energy(sigma->0) =      -42.99274092


--------------------------------------------------------------------------------------------------------




--------------------------------------- Iteration      1(   5)  ---------------------------------------


     EDDAV:  cpu time    6.5040: real time    6.5176
       DOS:  cpu time    0.0040: real time    0.0033
    CHARGE:  cpu time    0.1240: real time    0.1251
    MIXING:  cpu time    0.0000: real time    0.0025
    --------------------------------------------
      LOOP:  cpu time    6.6320: real time    6.6485

 eigenvalue-minimisations  :  7808
 total energy-change (2. order) :-0.6949335E-08  (-0.6967686E-08)
 number of electron      32.0000058 magnetization       0.0000000
 augmentation part       -1.8061251 magnetization       0.0000004

 Broyden mixing:
  rms(total) = 0.38678E-01    rms(broyden)= 0.38329E-01
  rms(prec ) = 0.87126E-01
  weight for this iteration     100.00

 Free energy of the ion-electron system (eV)
  ---------------------------------------------------
  alpha Z        PSCENC =        13.45656811
  Ewald energy   TEWEN  =      -914.25413255
  -Hartree energ DENC   =       -60.93171831
  -exchange      EXHF   =         0.00000000
  -V(xc)+E(xc)   XCENC  =       -71.67561511
  PAW double counting   =       303.89715195     -164.02850753
  entropy T*S    EENTRO =        -0.00000015
  eigenvalues    EBANDS =        26.17616687
  atomic energy  EATOM  =       824.36734571
  Solvation  Ediel_sol  =         0.00000000
  ---------------------------------------------------
  free energy    TOTEN  =       -42.99274101 eV

  energy without entropy =      -42.99274086  energy(sigma->0) =      -42.99274093


--------------------------------------------------------------------------------------------------------




--------------------------------------- Iteration      1(   6)  ---------------------------------------


    POTLOK:  cpu time    0.0320: real time    0.0430
    SETDIJ:  cpu time    0.0160: real time    0.0164
    EDDIAG:  cpu time    1.3000: real time    1.3036
  RMM-DIIS:  cpu time    3.2480: real time    3.2486
    ORTHCH:  cpu time    0.1480: real time    0.1499
       DOS:  cpu time    0.0040: real time    0.0036
    CHARGE:  cpu time    0.1240: real time    0.1252
    MIXING:  cpu time    0.0040: real time    0.0016
    --------------------------------------------
      LOOP:  cpu time    4.8760: real time    4.8918

 eigenvalue-minimisations  :  7168
 total energy-change (2. order) : 0.6473564E-02  (-0.2498581E-03)
 number of electron      32.0000058 magnetization      -0.0000000
 augmentation part       -1.8093929 magnetization      -0.0000001

 Broyden mixing:
  rms(total) = 0.22047E-01    rms(broyden)= 0.22032E-01
  rms(prec ) = 0.49971E-01
  weight for this iteration     100.00

 eigenvalues of (default mixing * dielectric matrix)
  average eigenvalue GAMMA=   2.3071
  2.3071

 Free energy of the ion-electron system (eV)
  ---------------------------------------------------
  alpha Z        PSCENC =        13.45656811
  Ewald energy   TEWEN  =      -914.25413255
  -Hartree energ DENC   =       -60.31433681
  -exchange      EXHF   =         0.00000000
  -V(xc)+E(xc)   XCENC  =       -71.69326098
  PAW double counting   =       304.72181797     -164.87208538
  entropy T*S    EENTRO =        -0.00000009
  eigenvalues    EBANDS =        25.60181658
  atomic energy  EATOM  =       824.36734571
  Solvation  Ediel_sol  =         0.00000000
  ---------------------------------------------------
  free energy    TOTEN  =       -42.98626744 eV

  energy without entropy =      -42.98626735  energy(sigma->0) =      -42.98626739


--------------------------------------------------------------------------------------------------------




--------------------------------------- Iteration      1(   7)  ---------------------------------------


    POTLOK:  cpu time    0.0280: real time    0.0427
    SETDIJ:  cpu time    0.0160: real time    0.0164
    EDDIAG:  cpu time    1.2320: real time    1.2307
  RMM-DIIS:  cpu time    1.9040: real time    1.9037
    ORTHCH:  cpu time    0.1040: real time    0.1067
       DOS:  cpu time    0.0040: real time    0.0030
    CHARGE:  cpu time    0.0720: real time    0.0735
    MIXING:  cpu time    0.0000: real time    0.0013
    --------------------------------------------
      LOOP:  cpu time    3.3600: real time    3.3779

 eigenvalue-minimisations  :  7168
 total energy-change (2. order) : 0.3070580E-02  (-0.4679599E-03)
 number of electron      32.0000058 magnetization       0.0000000
 augmentation part       -1.8139234 magnetization       0.0000004

 Broyden mixing:
  rms(total) = 0.27336E-02    rms(broyden)= 0.27277E-02
  rms(prec ) = 0.42465E-02
  weight for this iteration     100.00

 eigenvalues of (default mixing * dielectric matrix)
  average eigenvalue GAMMA=   2.4708
  2.3284  2.6132

 Free energy of the ion-electron system (eV)
  ---------------------------------------------------
  alpha Z        PSCENC =        13.45656811
  Ewald energy   TEWEN  =      -914.25413255
  -Hartree energ DENC   =       -59.51650608
  -exchange      EXHF   =         0.00000000
  -V(xc)+E(xc)   XCENC  =       -71.71032978
  PAW double counting   =       306.17809692     -166.36592276
  entropy T*S    EENTRO =        -0.00000005
  eigenvalues    EBANDS =        24.86168361
  atomic energy  EATOM  =       824.36734571
  Solvation  Ediel_sol  =         0.00000000
  ---------------------------------------------------
  free energy    TOTEN  =       -42.98319686 eV

  energy without entropy =      -42.98319681  energy(sigma->0) =      -42.98319683


--------------------------------------------------------------------------------------------------------




--------------------------------------- Iteration      1(   8)  ---------------------------------------


    POTLOK:  cpu time    0.0240: real time    0.0365
    SETDIJ:  cpu time    0.0120: real time    0.0120
    EDDIAG:  cpu time    1.1240: real time    1.1279
  RMM-DIIS:  cpu time    1.8920: real time    1.8904
    ORTHCH:  cpu time    0.1080: real time    0.1067
       DOS:  cpu time    0.0000: real time    0.0031
    CHARGE:  cpu time    0.0760: real time    0.0735
    MIXING:  cpu time    0.0000: real time    0.0010
    --------------------------------------------
      LOOP:  cpu time    3.2360: real time    3.2512

 eigenvalue-minimisations  :  6766
 total energy-change (2. order) :-0.1891809E-04  (-0.6256162E-05)
 number of electron      32.0000058 magnetization      -0.0000000
 augmentation part       -1.8142209 magnetization      -0.0000013

 Broyden mixing:
  rms(total) = 0.26249E-03    rms(broyden)= 0.25797E-03
  rms(prec ) = 0.40346E-03
  weight for this iteration     100.00

 eigenvalues of (default mixing * dielectric matrix)
  average eigenvalue GAMMA=   1.9623
  0.9064  2.6249  2.3556

 Free energy of the ion-electron system (eV)
  ---------------------------------------------------
  alpha Z        PSCENC =        13.45656811
  Ewald energy   TEWEN  =      -914.25413255
  -Hartree energ DENC   =       -59.52985450
  -exchange      EXHF   =         0.00000000
  -V(xc)+E(xc)   XCENC  =       -71.69939104
  PAW double counting   =       306.70664868     -166.91334956
  entropy T*S    EENTRO =        -0.00000006
  eigenvalues    EBANDS =        24.88294943
  atomic energy  EATOM  =       824.36734571
  Solvation  Ediel_sol  =         0.00000000
  ---------------------------------------------------
  free energy    TOTEN  =       -42.98321578 eV

  energy without entropy =      -42.98321572  energy(sigma->0) =      -42.98321575


--------------------------------------------------------------------------------------------------------




--------------------------------------- Iteration      1(   9)  ---------------------------------------


    POTLOK:  cpu time    0.0200: real time    0.0388
    SETDIJ:  cpu time    0.0120: real time    0.0121
    EDDIAG:  cpu time    1.1240: real time    1.1243
  RMM-DIIS:  cpu time    1.8520: real time    1.8522
    ORTHCH:  cpu time    0.1080: real time    0.1073
       DOS:  cpu time    0.0000: real time    0.0037
    --------------------------------------------
      LOOP:  cpu time    3.1160: real time    3.1384

 eigenvalue-minimisations  :  4254
 total energy-change (2. order) :-0.1274829E-05  (-0.1706913E-06)
 number of electron      32.0000058 magnetization      -0.0000000
 augmentation part       -1.8142209 magnetization      -0.0000013

 Free energy of the ion-electron system (eV)
  ---------------------------------------------------
  alpha Z        PSCENC =        13.45656811
  Ewald energy   TEWEN  =      -914.25413255
  -Hartree energ DENC   =       -59.53070176
  -exchange      EXHF   =         0.00000000
  -V(xc)+E(xc)   XCENC  =       -71.69921056
  PAW double counting   =       306.71238457     -166.91967819
  entropy T*S    EENTRO =        -0.00000006
  eigenvalues    EBANDS =        24.88420767
  atomic energy  EATOM  =       824.36734571
  Solvation  Ediel_sol  =         0.00000000
  ---------------------------------------------------
  free energy    TOTEN  =       -42.98321705 eV

  energy without entropy =      -42.98321700  energy(sigma->0) =      -42.98321703


--------------------------------------------------------------------------------------------------------




 average (electrostatic) potential at core
  the test charge radii are     0.9892
  (the norm of the test charge is              1.0000)
       1 -83.2633       2 -83.2633       3 -83.2633       4 -83.2633       5 -83.2633
       6 -83.2633       7 -83.2633       8 -83.2633
 
 
 
 E-fermi :   6.1739     XC(G=0):  -9.4135     alpha+bet :-11.9845


 spin component 1

 k-point     1 :       0.0000    0.0000    0.0000
  band No.  band energies     occupation 
      1      -6.1352      1.00000
      2      -1.9825      1.00000
      3      -1.9825      1.00000
      4      -1.9825      1.00000
      5      -1.9825      1.00000
      6      -1.9825      1.00000
      7      -1.9825      1.00000
      8       2.9866      1.00000
      9       2.9866      1.00000
     10       2.9866      1.00000
     11       2.9866      1.00000
     12       2.9866      1.00000
     13       2.9866      1.00000
     14       5.8767      0.99999
     15       5.8767      0.99999
     16       5.8767      0.99999
     17       6.6076      0.00000
     18       6.6076      0.00000
     19       6.6076      0.00000
     20       6.6076      0.00000
     21       6.6076      0.00000
     22       6.6076      0.00000
     23       8.4550      0.00000
     24       8.4550      0.00000
     25       8.4550      0.00000
     26       9.1989      0.00000
     27      13.8025      0.00000
     28      13.8265      0.00000
     29      13.8265      0.00000
     30      16.0271      0.00000
     31      16.0271      0.00000
     32      16.0271      0.00000

 k-point     2 :       0.0909    0.0000    0.0000
  band No.  band energies     occupation 
      1      -6.0990      1.00000
      2      -2.6639      1.00000
      3      -1.9707      1.00000
      4      -1.9707      1.00000
      5      -1.9707      1.00000
      6      -1.9707      1.00000
      7      -1.2563      1.00000
      8       2.8825      1.00000
      9       2.8825      1.00000
     10       2.8825      1.00000
     11       2.8825      1.00000
     12       3.0201      1.00000
     13       3.0201      1.00000
     14       5.6386      1.00000
     15       5.7271      1.00000
     16       5.7271      1.00000
     17       6.5043      0.00000
     18       6.8050      0.00000
     19       6.8050      0.00000
     20       6.8050      0.00000
     21       6.8050      0.00000
     22       6.8224      0.00000
     23       8.3667      0.00000
     24       8.6500      0.00000
     25       8.6500      0.00000
     26       9.4289      0.00000
     27      13.5299      0.00000
     28      13.8670      0.00000
     29      13.9627      0.00000
     30      15.5239      0.00000
     31      15.5349      0.00000
     32      15.6721      0.00000

 k-point     3 :       0.1818    0.0000    0.0000
  band No.  band energies     occupation 
      1      -5.9904      1.00000
      2      -3.2975      1.00000
      3      -1.9375      1.00000
      4      -1.9375      1.00000
      5      -1.9375      1.00000
      6      -1.9375      1.00000
      7      -0.4960      1.00000
      8       2.6360      1.00000
      9       2.6360      1.00000
     10       2.6360      1.00000
     11       2.6360      1.00000
     12       3.1179      1.00000
     13       3.1179      1.00000
     14       5.0639      1.00000
     15       5.3740      1.00000
     16       5.3740      1.00000
     17       6.4792      0.00001
     18       7.1385      0.00000
     19       7.3329      0.00000
     20       7.3329      0.00000
     21       7.3329      0.00000
     22       7.3329      0.00000
     23       8.1328      0.00000
     24       9.1384      0.00000
     25       9.1384      0.00000
     26       9.9353      0.00000
     27      12.9061      0.00000
     28      13.9886      0.00000
     29      14.4112      0.00000
     30      14.6584      0.00000
     31      14.6771      0.00000
     32      14.6884      0.00000

 k-point     4 :       0.2727    0.0000    0.0000
  band No.  band energies     occupation 
      1      -5.8100      1.00000
      2      -3.8753      1.00000
      3      -1.8924      1.00000
      4      -1.8924      1.00000
      5      -1.8924      1.00000
      6      -1.8924      1.00000
      7       0.2935      1.00000
      8       2.3578      1.00000
      9       2.3578      1.00000
     10       2.3578      1.00000
     11       2.3578      1.00000
     12       3.2813      1.00000
     13       3.2813      1.00000
     14       4.3404      1.00000
     15       4.9521      1.00000
     16       4.9521      1.00000
     17       6.5417      0.00000
     18       7.5600      0.00000
     19       7.8210      0.00000
     20       8.0798      0.00000
     21       8.0798      0.00000
     22       8.0798      0.00000
     23       8.0798      0.00000
     24       9.7879      0.00000
     25       9.7879      0.00000
     26      10.3048      0.00000
     27      12.4885      0.00000
     28      13.5084      0.00000
     29      13.5084      0.00000
     30      13.5084      0.00000
     31      13.5086      0.00000
     32      13.7930      0.00000

 k-point     5 :       0.3636    0.0000    0.0000
  band No.  band energies     occupation 
      1      -5.5587      1.00000
      2      -4.3936      1.00000
      3      -1.8487      1.00000
      4      -1.8487      1.00000
      5      -1.8487      1.00000
      6      -1.8487      1.00000
      7       1.1021      1.00000
      8       2.1316      1.00000
      9       2.1316      1.00000
     10       2.1316      1.00000
     11       2.1316      1.00000
     12       3.5078      1.00000
     13       3.5078      1.00000
     14       3.5537      1.00000
     15       4.5254      1.00000
     16       4.5254      1.00000
     17       6.6842      0.00000
     18       7.4846      0.00000
     19       8.0858      0.00000
     20       8.9741      0.00000
     21       8.9741      0.00000
     22       8.9741      0.00000
     23       8.9741      0.00000
     24      10.0554      0.00000
     25      10.5168      0.00000
     26      10.5168      0.00000
     27      12.3248      0.00000
     28      12.3248      0.00000
     29      12.3248      0.00000
     30      12.3249      0.00000
     31      12.7561      0.00000
     32      12.9406      0.00000

 k-point     6 :       0.4545    0.0000    0.0000
  band No.  band energies     occupation 
      1      -5.2376      1.00000
      2      -4.8483      1.00000
      3      -1.8221      1.00000
      4      -1.8221      1.00000
      5      -1.8221      1.00000
      6      -1.8221      1.00000
      7       1.9217      1.00000
      8       2.0060      1.00000
      9       2.0060      1.00000
     10       2.0060      1.00000
     11       2.0060      1.00000
     12       2.7421      1.00000
     13       3.7953      1.00000
     14       3.7953      1.00000
     15       4.1370      1.00000
     16       4.1370      1.00000
     17       6.8933      0.00000
     18       7.1671      0.00000
     19       8.7332      0.00000
     20       9.4166      0.00000
     21       9.9222      0.00000
     22       9.9222      0.00000
     23       9.9222      0.00000
     24       9.9222      0.00000
     25      11.2268      0.00000
     26      11.2268      0.00000
     27      11.2268      0.00000
     28      11.2268      0.00000
     29      11.2968      0.00000
     30      11.2968      0.00000
     31      12.1095      0.00000
     32      12.1095      0.00000

 k-point     7 :       0.0909    0.0909    0.0000
  band No.  band energies     occupation 
      1      -6.0628      1.00000
      2      -2.6455      1.00000
      3      -2.6455      1.00000
      4      -2.0164      1.00000
      5      -1.9050      1.00000
      6      -1.2549      1.00000
      7      -1.2549      1.00000
      8       2.5754      1.00000
      9       2.9012      1.00000
     10       2.9012      1.00000
     11       2.9356      1.00000
     12       2.9356      1.00000
     13       3.0439      1.00000
     14       5.2371      1.00000
     15       5.5775      1.00000
     16       5.8431      1.00000
     17       6.6774      0.00000
     18       6.7052      0.00000
     19       6.7052      0.00000
     20       7.0069      0.00000
     21       7.0069      0.00000
     22       7.2630      0.00000
     23       8.5300      0.00000
     24       8.5976      0.00000
     25       8.6688      0.00000
     26       9.7279      0.00000
     27      13.4394      0.00000
     28      13.7345      0.00000
     29      14.1155      0.00000
     30      14.9467      0.00000
     31      14.9471      0.00000
     32      15.4204      0.00000

 k-point     8 :       0.1818    0.0909    0.0000
  band No.  band energies     occupation 
      1      -5.9545      1.00000
      2      -3.2732      1.00000
      3      -2.5908      1.00000
      4      -2.0483      1.00000
      5      -1.8142      1.00000
      6      -1.2538      1.00000
      7      -0.5080      1.00000
      8       2.2382      1.00000
      9       2.6161      1.00000
     10       2.7380      1.00000
     11       2.9880      1.00000
     12       2.9995      1.00000
     13       3.0594      1.00000
     14       4.6552      1.00000
     15       5.2240      1.00000
     16       5.6364      1.00000
     17       6.6905      0.00000
     18       6.9422      0.00000
     19       7.2447      0.00000
     20       7.3117      0.00000
     21       7.5122      0.00000
     22       7.9528      0.00000
     23       8.3310      0.00000
     24       8.9398      0.00000
     25       9.0628      0.00000
     26      10.2935      0.00000
     27      12.9193      0.00000
     28      13.8151      0.00000
     29      13.8741      0.00000
     30      14.1322      0.00000
     31      14.5427      0.00000
     32      14.5753      0.00000

 k-point     9 :       0.2727    0.0909    0.0000
  band No.  band energies     occupation 
      1      -5.7746      1.00000
      2      -3.8476      1.00000
      3      -2.5061      1.00000
      4      -2.0813      1.00000
      5      -1.7033      1.00000
      6      -1.2631      1.00000
      7       0.2599      1.00000
      8       1.9522      1.00000
      9       2.2876      1.00000
     10       2.5276      1.00000
     11       2.8115      1.00000
     12       3.1424      1.00000
     13       3.2548      1.00000
     14       4.0040      1.00000
     15       4.7980      1.00000
     16       5.2120      1.00000
     17       6.7570      0.00000
     18       7.5284      0.00000
     19       7.7199      0.00000
     20       8.0059      0.00000
     21       8.0269      0.00000
     22       8.2411      0.00000
     23       8.7901      0.00000
     24       9.4550      0.00000
     25       9.7203      0.00000
     26      10.6586      0.00000
     27      12.5737      0.00000
     28      12.7018      0.00000
     29      13.3067      0.00000
     30      13.4144      0.00000
     31      13.6431      0.00000
     32      13.7874      0.00000

 k-point    10 :       0.3636    0.0909    0.0000
  band No.  band energies     occupation 
      1      -5.5240      1.00000
      2      -4.3631      1.00000
      3      -2.4027      1.00000
      4      -2.1291      1.00000
      5      -1.5812      1.00000
      6      -1.2963      1.00000
      7       1.0378      1.00000
      8       1.7694      1.00000
      9       1.9982      1.00000
     10       2.3824      1.00000
     11       2.5916      1.00000
     12       3.3052      1.00000
     13       3.3630      1.00000
     14       3.5214      1.00000
     15       4.3764      1.00000
     16       4.7250      1.00000
     17       6.8994      0.00000
     18       7.6968      0.00000
     19       8.2356      0.00000
     20       8.3344      0.00000
     21       8.9114      0.00000
     22       9.1185      0.00000
     23       9.7293      0.00000
     24       9.9315      0.00000
     25      10.4612      0.00000
     26      10.5146      0.00000
     27      11.5488      0.00000
     28      12.2550      0.00000
     29      12.4505      0.00000
     30      12.5050      0.00000
     31      12.9298      0.00000
     32      12.9491      0.00000

 k-point    11 :       0.4545    0.0909    0.0000
  band No.  band energies     occupation 
      1      -5.2039      1.00000
      2      -4.8162      1.00000
      3      -2.2951      1.00000
      4      -2.2011      1.00000
      5      -1.4640      1.00000
      6      -1.3643      1.00000
      7       1.7157      1.00000
      8       1.7972      1.00000
      9       1.8125      1.00000
     10       2.3439      1.00000
     11       2.4195      1.00000
     12       2.5721      1.00000
     13       3.6454      1.00000
     14       3.8607      1.00000
     15       3.9857      1.00000
     16       4.2652      1.00000
     17       7.1102      0.00000
     18       7.3828      0.00000
     19       8.8587      0.00000
     20       9.2613      0.00000
     21       9.5209      0.00000
     22       9.8948      0.00000
     23       9.9326      0.00000
     24      10.5576      0.00000
     25      10.6120      0.00000
     26      10.9864      0.00000
     27      11.2531      0.00000
     28      11.3151      0.00000
     29      11.3168      0.00000
     30      11.7224      0.00000
     31      12.0133      0.00000
     32      12.0772      0.00000

 k-point    12 :       0.1818    0.1818    0.0000
  band No.  band energies     occupation 
      1      -5.8471      1.00000
      2      -3.2027      1.00000
      3      -3.2027      1.00000
      4      -2.1593      1.00000
      5      -1.6693      1.00000
      6      -0.5507      1.00000
      7      -0.5507      1.00000
      8       1.8909      1.00000
      9       2.6757      1.00000
     10       2.6757      1.00000
     11       2.9263      1.00000
     12       2.9263      1.00000
     13       3.2165      1.00000
     14       4.0688      1.00000
     15       4.8652      1.00000
     16       5.7299      1.00000
     17       6.8797      0.00000
     18       7.2425      0.00000
     19       7.2425      0.00000
     20       7.7911      0.00000
     21       7.7911      0.00000
     22       8.7284      0.00000
     23       8.7546      0.00000
     24       8.8403      0.00000
     25       8.9366      0.00000
     26      10.8754      0.00000
     27      12.7764      0.00000
     28      13.0873      0.00000
     29      13.0873      0.00000
     30      13.6537      0.00000
     31      14.2767      0.00000
     32      14.6859      0.00000

 k-point    13 :       0.2727    0.1818    0.0000
  band No.  band energies     occupation 
      1      -5.6687      1.00000
      2      -3.7656      1.00000
      3      -3.0898      1.00000
      4      -2.2835      1.00000
      5      -1.5012      1.00000
      6      -0.6325      1.00000
      7       0.1560      1.00000
      8       1.6470      1.00000
      9       2.3102      1.00000
     10       2.8028      1.00000
     11       2.8102      1.00000
     12       3.2034      1.00000
     13       3.2272      1.00000
     14       3.4560      1.00000
     15       4.4400      1.00000
     16       5.4911      1.00000
     17       7.2015      0.00000
     18       7.3151      0.00000
     19       8.0106      0.00000
     20       8.1681      0.00000
     21       8.4927      0.00000
     22       8.5464      0.00000
     23       9.0806      0.00000
     24       9.5435      0.00000
     25       9.6132      0.00000
     26      11.1543      0.00000
     27      11.9467      0.00000
     28      12.3231      0.00000
     29      12.6056      0.00000
     30      13.3434      0.00000
     31      13.7588      0.00000
     32      13.8320      0.00000

 k-point    14 :       0.3636    0.1818    0.0000
  band No.  band energies     occupation 
      1      -5.4202      1.00000
      2      -4.2725      1.00000
      3      -2.9420      1.00000
      4      -2.4302      1.00000
      5      -1.3145      1.00000
      6      -0.7585      1.00000
      7       0.8546      1.00000
      8       1.5337      1.00000
      9       1.9747      1.00000
     10       2.7526      1.00000
     11       2.8275      1.00000
     12       3.0175      1.00000
     13       3.0948      1.00000
     14       3.5691      1.00000
     15       4.0164      1.00000
     16       5.0385      1.00000
     17       7.4619      0.00000
     18       7.8428      0.00000
     19       8.2367      0.00000
     20       8.6565      0.00000
     21       8.9216      0.00000
     22       9.3470      0.00000
     23       9.5327      0.00000
     24      10.3096      0.00000
     25      10.5602      0.00000
     26      10.7356      0.00000
     27      10.8435      0.00000
     28      11.6066      0.00000
     29      12.2348      0.00000
     30      12.6409      0.00000
     31      12.8706      0.00000
     32      13.0280      0.00000

 k-point    15 :       0.4545    0.1818    0.0000
  band No.  band energies     occupation 
      1      -5.1032      1.00000
      2      -4.7197      1.00000
      3      -2.7723      1.00000
      4      -2.5971      1.00000
      5      -1.1178      1.00000
      6      -0.9264      1.00000
      7       1.5335      1.00000
      8       1.5591      1.00000
      9       1.7142      1.00000
     10       2.1893      1.00000
     11       2.7978      1.00000
     12       2.9251      1.00000
     13       3.2929      1.00000
     14       3.6288      1.00000
     15       4.0177      1.00000
     16       4.5211      1.00000
     17       7.6750      0.00000
     18       7.9363      0.00000
     19       8.6878      0.00000
     20       9.2350      0.00000
     21       9.6169      0.00000
     22       9.7728      0.00000
     23       9.9150      0.00000
     24      10.4071      0.00000
     25      10.4791      0.00000
     26      10.8861      0.00000
     27      10.9311      0.00000
     28      11.1337      0.00000
     29      11.4974      0.00000
     30      11.8446      0.00000
     31      11.9942      0.00000
     32      12.8796      0.00000

 k-point    16 :       0.2727    0.2727    0.0000
  band No.  band energies     occupation 
      1      -5.4928      1.00000
      2      -3.6317      1.00000
      3      -3.6317      1.00000
      4      -2.5066      1.00000
      5      -1.2798      1.00000
      6      -0.0143      1.00000
      7      -0.0143      1.00000
      8       1.4722      1.00000
      9       2.4191      1.00000
     10       2.4191      1.00000
     11       2.8793      1.00000
     12       3.1835      1.00000
     13       3.1835      1.00000
     14       3.4944      1.00000
     15       4.0108      1.00000
     16       5.5115      1.00000
     17       7.1995      0.00000
     18       8.0868      0.00000
     19       8.0868      0.00000
     20       8.8444      0.00000
     21       8.8444      0.00000
     22       8.9483      0.00000
     23       9.1282      0.00000
     24       9.4035      0.00000
     25      10.5301      0.00000
     26      11.2529      0.00000
     27      11.2529      0.00000
     28      11.5193      0.00000
     29      12.3043      0.00000
     30      13.1342      0.00000
     31      13.7028      0.00000
     32      13.7273      0.00000

 k-point    17 :       0.3636    0.2727    0.0000
  band No.  band energies     occupation 
      1      -5.2483      1.00000
      2      -4.1244      1.00000
      3      -3.4526      1.00000
      4      -2.7484      1.00000
      5      -1.0365      1.00000
      6      -0.2408      1.00000
      7       0.5830      1.00000
      8       1.4368      1.00000
      9       2.0499      1.00000
     10       2.3024      1.00000
     11       2.6086      1.00000
     12       3.2289      1.00000
     13       3.5543      1.00000
     14       3.5869      1.00000
     15       3.6576      1.00000
     16       5.2281      1.00000
     17       7.5720      0.00000
     18       8.2308      0.00000
     19       8.9566      0.00000
     20       8.9956      0.00000
     21       9.1167      0.00000
     22       9.2926      0.00000
     23       9.6432      0.00000
     24      10.0966      0.00000
     25      10.2268      0.00000
     26      10.6062      0.00000
     27      11.1701      0.00000
     28      11.4514      0.00000
     29      12.2731      0.00000
     30      12.5907      0.00000
     31      12.7783      0.00000
     32      12.8935      0.00000

 k-point    18 :       0.4545    0.2727    0.0000
  band No.  band energies     occupation 
      1      -4.9368      1.00000
      2      -4.5611      1.00000
      3      -3.2368      1.00000
      4      -2.9968      1.00000
      5      -0.7732      1.00000
      6      -0.5020      1.00000
      7       1.1627      1.00000
      8       1.5334      1.00000
      9       1.7325      1.00000
     10       1.7449      1.00000
     11       2.8714      1.00000
     12       3.2010      1.00000
     13       3.3361      1.00000
     14       3.4684      1.00000
     15       4.1974      1.00000
     16       4.7498      1.00000
     17       8.2585      0.00000
     18       8.4353      0.00000
     19       8.6810      0.00000
     20       9.1313      0.00000
     21       9.4935      0.00000
     22       9.7984      0.00000
     23       9.9896      0.00000
     24      10.0750      0.00000
     25      10.5079      0.00000
     26      10.7010      0.00000
     27      10.9542      0.00000
     28      11.0267      0.00000
     29      11.7634      0.00000
     30      11.8535      0.00000
     31      12.6738      0.00000
     32      13.2778      0.00000

 k-point    19 :       0.3636    0.3636    0.0000
  band No.  band energies     occupation 
      1      -5.0096      1.00000
      2      -3.9223      1.00000
      3      -3.9223      1.00000
      4      -3.0725      1.00000
      5      -0.7376      1.00000
      6       0.2618      1.00000
      7       0.2618      1.00000
      8       1.4717      1.00000
      9       1.7743      1.00000
     10       2.2161      1.00000
     11       2.2161      1.00000
     12       3.1643      1.00000
     13       3.7800      1.00000
     14       3.7800      1.00000
     15       3.8619      1.00000
     16       5.1751      1.00000
     17       7.6222      0.00000
     18       8.8928      0.00000
     19       9.1340      0.00000
     20       9.1340      0.00000
     21       9.6198      0.00000
     22       9.6198      0.00000
     23       9.6568      0.00000
     24       9.9852      0.00000
     25      10.1232      0.00000
     26      10.1232      0.00000
     27      11.5952      0.00000
     28      12.0742      0.00000
     29      12.1519      0.00000
     30      12.1902      0.00000
     31      12.6785      0.00000
     32      12.6786      0.00000

 k-point    20 :       0.4545    0.3636    0.0000
  band No.  band energies     occupation 
      1      -4.7066      1.00000
      2      -4.3427      1.00000
      3      -3.6729      1.00000
      4      -3.3853      1.00000
      5      -0.4173      1.00000
      6      -0.0803      1.00000
      7       0.7587      1.00000
      8       1.2614      1.00000
      9       1.6257      1.00000
     10       1.8799      1.00000
     11       2.4630      1.00000
     12       2.7830      1.00000
     13       3.9028      1.00000
     14       3.9610      1.00000
     15       4.3517      1.00000
     16       4.8558      1.00000
     17       8.0415      0.00000
     18       8.7424      0.00000
     19       8.9373      0.00000
     20       9.2052      0.00000
     21       9.3197      0.00000
     22       9.5419      0.00000
     23      10.1155      0.00000
     24      10.6039      0.00000
     25      10.7533      0.00000
[...]
      7      -0.7256      1.00000
      8       0.3669      1.00000
      9       2.5943      1.00000
     10       2.9837      1.00000
     11       2.9837      1.00000
     12       3.8916      1.00000
     13       3.8916      1.00000
     14       3.9026      1.00000
     15       4.3341      1.00000
     16       4.7587      1.00000
     17       7.5640      0.00000
     18       7.7168      0.00000
     19       7.9071      0.00000
     20       7.9071      0.00000
     21       9.1720      0.00000
     22       9.3314      0.00000
     23       9.4475      0.00000
     24       9.4475      0.00000
     25       9.9739      0.00000
     26      10.4209      0.00000
     27      10.5125      0.00000
     28      10.5125      0.00000
     29      11.9154      0.00000
     30      11.9154      0.00000
     31      12.5997      0.00000
     32      13.1320      0.00000

 k-point    51 :       0.4545    0.3636    0.2727
  band No.  band energies     occupation 
      1      -4.5542      1.00000
      2      -4.2370      1.00000
      3      -3.7457      1.00000
      4      -3.6254      1.00000
      5      -1.1056      1.00000
      6      -0.9747      1.00000
      7      -0.4275      1.00000
      8      -0.0612      1.00000
      9       2.7823      1.00000
     10       2.9259      1.00000
     11       3.5442      1.00000
     12       3.9752      1.00000
     13       3.9925      1.00000
     14       3.9993      1.00000
     15       4.1894      1.00000
     16       4.5388      1.00000
     17       7.7789      0.00000
     18       7.9924      0.00000
     19       8.0196      0.00000
     20       8.3134      0.00000
     21       8.8668      0.00000
     22       9.0317      0.00000
     23       9.0397      0.00000
     24       9.3050      0.00000
     25       9.5542      0.00000
     26       9.9698      0.00000
     27      10.3647      0.00000
     28      10.4367      0.00000
     29      12.2640      0.00000
     30      12.7030      0.00000
     31      12.9109      0.00000
     32      13.5426      0.00000

 k-point    52 :       0.4545    0.4545    0.2727
  band No.  band energies     occupation 
      1      -4.3084      1.00000
      2      -4.0314      1.00000
      3      -4.0314      1.00000
      4      -3.8176      1.00000
      5      -0.9937      1.00000
      6      -0.7590      1.00000
      7      -0.7590      1.00000
      8      -0.4489      1.00000
      9       3.0819      1.00000
     10       3.3432      1.00000
     11       3.3432      1.00000
     12       3.6936      1.00000
     13       4.2486      1.00000
     14       4.3145      1.00000
     15       4.3145      1.00000
     16       4.5546      1.00000
     17       7.8130      0.00000
     18       7.9450      0.00000
     19       8.0391      0.00000
     20       8.0391      0.00000
     21       9.0102      0.00000
     22       9.0102      0.00000
     23       9.2424      0.00000
     24       9.3319      0.00000
     25       9.3632      0.00000
     26       9.7619      0.00000
     27       9.7912      0.00000
     28       9.7912      0.00000
     29      13.2007      0.00000
     30      13.2007      0.00000
     31      13.4042      0.00000
     32      13.8423      0.00000

 k-point    53 :       0.3636    0.3636    0.3636
  band No.  band energies     occupation 
      1      -4.6240      1.00000
      2      -3.8134      1.00000
      3      -3.8134      1.00000
      4      -3.8134      1.00000
      5      -1.0017      1.00000
      6      -1.0017      1.00000
      7      -1.0017      1.00000
      8      -0.0897      1.00000
      9       3.2563      1.00000
     10       3.2563      1.00000
     11       3.2563      1.00000
     12       4.0523      1.00000
     13       4.0523      1.00000
     14       4.0523      1.00000
     15       4.6000      1.00000
     16       4.6000      1.00000
     17       7.2847      0.00000
     18       7.8391      0.00000
     19       7.8391      0.00000
     20       7.8391      0.00000
     21       9.1991      0.00000
     22       9.1991      0.00000
     23       9.3223      0.00000
     24       9.3223      0.00000
     25       9.3223      0.00000
     26       9.9623      0.00000
     27       9.9623      0.00000
     28       9.9623      0.00000
     29      12.8080      0.00000
     30      12.8080      0.00000
     31      12.8080      0.00000
     32      13.5103      0.00000

 k-point    54 :       0.4545    0.3636    0.3636
  band No.  band energies     occupation 
      1      -4.3770      1.00000
      2      -4.0993      1.00000
      3      -3.7646      1.00000
      4      -3.7646      1.00000
      5      -1.1558      1.00000
      6      -1.1558      1.00000
      7      -0.7911      1.00000
      8      -0.4811      1.00000
      9       3.3959      1.00000
     10       3.3959      1.00000
     11       3.9034      1.00000
     12       4.1557      1.00000
     13       4.1557      1.00000
     14       4.2271      1.00000
     15       4.4183      1.00000
     16       4.4199      1.00000
     17       7.4231      0.00000
     18       7.7463      0.00000
     19       7.9573      0.00000
     20       7.9573      0.00000
     21       8.9680      0.00000
     22       8.9680      0.00000
     23       8.9890      0.00000
     24       9.0393      0.00000
     25       9.3430      0.00000
     26       9.5956      0.00000
     27       9.8209      0.00000
     28       9.8209      0.00000
     29      13.0620      0.00000
     30      13.3350      0.00000
     31      13.5916      0.00000
     32      13.5917      0.00000

 k-point    55 :       0.4545    0.4545    0.3636
  band No.  band energies     occupation 
      1      -4.1701      1.00000
      2      -3.9559      1.00000
      3      -3.9559      1.00000
      4      -3.8359      1.00000
      5      -1.1850      1.00000
      6      -1.0555      1.00000
      7      -1.0555      1.00000
      8      -0.8214      1.00000
      9       3.7270      1.00000
     10       3.9111      1.00000
     11       3.9111      1.00000
     12       4.2310      1.00000
     13       4.3298      1.00000
     14       4.3574      1.00000
     15       4.3574      1.00000
     16       4.5288      1.00000
     17       7.3741      0.00000
     18       7.6449      0.00000
     19       7.6449      0.00000
     20       7.7154      0.00000
     21       8.9835      0.00000
     22       8.9835      0.00000
     23       9.0537      0.00000
     24       9.1511      0.00000
     25       9.1512      0.00000
     26       9.4098      0.00000
     27       9.4098      0.00000
     28       9.4197      0.00000
     29      13.4983      0.00000
     30      13.5595      0.00000
     31      13.5595      0.00000
     32      13.7074      0.00000

 k-point    56 :       0.4545    0.4545    0.4545
  band No.  band energies     occupation 
      1      -4.0267      1.00000
      2      -3.9068      1.00000
      3      -3.9068      1.00000
      4      -3.9068      1.00000
      5      -1.2191      1.00000
      6      -1.2191      1.00000
      7      -1.2191      1.00000
      8      -1.0900      1.00000
      9       4.2636      1.00000
     10       4.2636      1.00000
     11       4.2636      1.00000
     12       4.4105      1.00000
     13       4.4105      1.00000
     14       4.4105      1.00000
     15       4.4795      1.00000
     16       4.4795      1.00000
     17       7.1482      0.00000
     18       7.3314      0.00000
     19       7.3314      0.00000
     20       7.3314      0.00000
     21       9.0389      0.00000
     22       9.0389      0.00000
     23       9.0389      0.00000
     24       9.1011      0.00000
     25       9.1011      0.00000
     26       9.1935      0.00000
     27       9.1935      0.00000
     28       9.1935      0.00000
     29      13.3973      0.00000
     30      13.4715      0.00000
     31      13.4715      0.00000
     32      13.4715      0.00000


--------------------------------------------------------------------------------------------------------


 soft charge-density along one line, spin component           1
         0         1         2         3         4         5         6         7         8         9
 total charge-density along one line
 
 soft charge-density along one line, spin component           2
         0         1         2         3         4         5         6         7         8         9
 total charge-density along one line
 
 pseudopotential strength for first ion, spin component:           1
 18.443  -0.001   0.000   0.000  -0.000  -0.000  -0.000   0.000
 -0.001   0.006  -0.000  -0.000   0.000   0.000   0.000  -0.000
  0.000  -0.000   4.182   0.000  -0.000  -0.005  -0.000   0.000
  0.000  -0.000   0.000   4.182  -0.000  -0.000  -0.005   0.000
 -0.000   0.000  -0.000  -0.000   4.182   0.000   0.000  -0.005
 -0.000   0.000  -0.005  -0.000   0.000   0.005   0.000  -0.000
 -0.000   0.000  -0.000  -0.005   0.000   0.000   0.005  -0.000
  0.000  -0.000   0.000   0.000  -0.005  -0.000  -0.000   0.005
 pseudopotential strength for first ion, spin component:           2
 18.443  -0.001   0.000   0.000  -0.000  -0.000  -0.000   0.000
 -0.001   0.006  -0.000  -0.000   0.000   0.000   0.000  -0.000
  0.000  -0.000   4.182   0.000  -0.000  -0.005  -0.000   0.000
  0.000  -0.000   0.000   4.182   0.000  -0.000  -0.005  -0.000
 -0.000   0.000  -0.000   0.000   4.182   0.000  -0.000  -0.005
 -0.000   0.000  -0.005  -0.000   0.000   0.005   0.000  -0.000
 -0.000   0.000  -0.000  -0.005  -0.000   0.000   0.005   0.000
  0.000  -0.000   0.000  -0.000  -0.005  -0.000   0.000   0.005
 total augmentation occupancy for first ion, spin component:           1
  1.496  -0.945  -0.000   0.000  -0.000  -0.000   0.000  -0.000
 -0.945   0.986  -0.000  -0.000  -0.000  -0.000  -0.000  -0.000
  0.000  -0.000   0.996   0.000   0.000  -0.912   0.000   0.000
 -0.000  -0.000  -0.000   0.996   0.000  -0.000  -0.912  -0.000
 -0.000  -0.000   0.000   0.000   0.996   0.000  -0.000  -0.912
 -0.000  -0.000  -0.912  -0.000   0.000   0.896  -0.000  -0.000
  0.000  -0.000  -0.000  -0.912  -0.000  -0.000   0.896  -0.000
 -0.000  -0.000   0.000   0.000  -0.912  -0.000   0.000   0.896
 total augmentation occupancy for first ion, spin component:           2
  0.000   0.000  -0.000  -0.000  -0.000  -0.000  -0.000  -0.000
  0.000  -0.000   0.000  -0.000  -0.000   0.000   0.000   0.000
 -0.000   0.000   0.000   0.000   0.000   0.000   0.000  -0.000
 -0.000  -0.000   0.000   0.000  -0.000  -0.000   0.000  -0.000
 -0.000  -0.000   0.000  -0.000   0.000   0.000  -0.000   0.000
 -0.000   0.000   0.000  -0.000   0.000  -0.000   0.000   0.000
 -0.000   0.000   0.000   0.000  -0.000   0.000  -0.000   0.000
 -0.000   0.000  -0.000  -0.000   0.000   0.000   0.000  -0.000


------------------------ aborting loop because EDIFF is reached ----------------------------------------


 


 total charge     
 
# of ion       s       p       d       tot
------------------------------------------
    1        0.762   0.970   0.000   1.732
    2        0.762   0.970   0.000   1.732
    3        0.762   0.970   0.000   1.732
    4        0.762   0.970   0.000   1.732
    5        0.762   0.970   0.000   1.732
    6        0.762   0.970   0.000   1.732
    7        0.762   0.970   0.000   1.732
    8        0.762   0.970   0.000   1.732
--------------------------------------------------
tot          6.095   7.763   0.000  13.858
 


 magnetization (x)
 
# of ion       s       p       d       tot
------------------------------------------
    1       -0.000   0.000   0.000   0.000
    2       -0.000   0.000   0.000   0.000
    3       -0.000   0.000   0.000   0.000
    4       -0.000   0.000   0.000   0.000
    5       -0.000   0.000   0.000   0.000
    6       -0.000   0.000   0.000   0.000
    7       -0.000   0.000   0.000   0.000
    8       -0.000   0.000   0.000   0.000
--------------------------------------------------
tot         -0.000   0.000   0.000   0.000
 
    CHARGE:  cpu time    0.4160: real time    0.4164
    FORLOC:  cpu time    0.0240: real time    0.0231
    FORNL :  cpu time    7.5960: real time    7.5960
    STRESS:  cpu time   22.6720: real time   22.6725
    FORCOR:  cpu time    0.2360: real time    0.2358
    FORHAR:  cpu time    0.0960: real time    0.0973
    MIXING:  cpu time    0.3680: real time    0.3662
    OFIELD:  cpu time    0.0000: real time    0.0004

  FORCE on cell =-STRESS in cart. coord.  units (eV):
  Direction    XX          YY          ZZ          XY          YZ          ZX
  --------------------------------------------------------------------------------------
  Alpha Z    13.18060    13.18060    13.18060
  Ewald    -302.65419  -302.65419  -302.65419     0.00000     0.00000    -0.00000
  Hartree    20.17101    20.17101    20.17101    -0.00000    -0.00000    -0.00000
  E(xc)    -101.07131  -101.07131  -101.07131    -0.00000     0.00000    -0.00000
  Local    -118.79862  -118.79862  -118.79862    -0.00000    -0.00000    -0.00000
  n-local   311.47790   314.71817   308.11881    -2.88780    -2.29390    -1.48292
  augment   -46.06513   -46.06513   -46.06513     0.00000     0.00000     0.00000
  Kinetic   216.66028   228.37194   226.38115    -3.71565    -5.27873    -2.55375
  Fock        0.00000     0.00000     0.00000     0.00000     0.00000     0.00000
  -------------------------------------------------------------------------------------
  Total       0.00510     0.00510     0.00510     0.00000     0.00000     0.00000
  in kB       0.04998     0.04998     0.04998     0.00000     0.00000     0.00000
  external pressure =        0.05 kB  Pullay stress =        0.00 kB


 VOLUME and BASIS-vectors are now :
 -----------------------------------------------------------------------------
  energy-cutoff  :      150.00
  volume of cell :      163.46
      direct lattice vectors                 reciprocal lattice vectors
     5.467635489 -0.000000000 -0.000000000     0.182894416  0.000000000 -0.000000000
    -0.000000000  5.467635489 -0.000000000     0.000000000  0.182894416  0.000000000
     0.000000000 -0.000000000  5.467635489     0.000000000  0.000000000  0.182894416

  length of vectors
     5.467635489  5.467635489  5.467635489     0.182894416  0.182894416  0.182894416


 FORCES acting on ions
    electron-ion (+dipol)            ewald-force                    non-local-force                 convergence-correction
 -----------------------------------------------------------------------------------------------
   0.520E-14 0.160E-14 0.725E-14   0.000E+00 0.000E+00 0.000E+00   -.817E-17 -.257E-18 0.301E-17   -.208E-15 0.307E-14 0.152E-15
   -.208E-13 0.976E-13 0.107E-13   0.345E-15 -.700E-14 0.711E-14   -.705E-17 -.326E-16 0.458E-17   -.102E-14 0.423E-16 0.210E-14
   0.585E-14 -.149E-12 -.160E-12   -.711E-14 0.000E+00 -.711E-14   0.112E-16 0.283E-16 -.568E-17   0.306E-14 0.365E-14 0.687E-16
   -.208E-13 0.983E-13 -.216E-13   0.776E-15 -.709E-14 0.487E-15   -.582E-18 -.296E-16 0.243E-17   -.910E-15 -.400E-15 0.806E-15
   -.123E-13 0.222E-14 -.362E-12   -.711E-14 0.711E-14 -.711E-14   0.112E-16 0.280E-16 0.273E-17   0.316E-14 0.266E-14 -.214E-15
   -.247E-13 -.102E-12 -.206E-12   0.712E-14 -.605E-16 0.759E-14   -.963E-17 -.107E-17 0.254E-17   -.646E-15 -.363E-15 0.144E-14
   0.975E-14 -.124E-13 -.796E-14   0.711E-14 0.711E-14 0.000E+00   0.434E-17 0.160E-17 0.259E-17   0.277E-15 0.416E-14 -.445E-15
   -.260E-13 -.311E-12 -.189E-13   0.805E-17 0.359E-16 0.507E-16   0.692E-17 0.489E-17 0.697E-18   -.361E-15 -.235E-15 0.227E-14
 -----------------------------------------------------------------------------------------------
   -.838E-13 -.375E-12 -.758E-12   0.114E-14 0.909E-16 0.103E-14   0.819E-17 -.743E-18 0.129E-16   0.335E-14 0.126E-13 0.618E-14
 
 
 POSITION                                       TOTAL-FORCE (eV/Angst)
 -----------------------------------------------------------------------------------
      0.00000      0.00000     -0.00000         0.000000     -0.000000     -0.000000
      1.36691      1.36691      1.36691        -0.000000      0.000000     -0.000000
      2.73382      2.73382     -0.00000         0.000000     -0.000000      0.000000
      1.36691      4.10073      4.10073        -0.000000      0.000000      0.000000
      2.73382     -0.00000      2.73382         0.000000     -0.000000     -0.000000
      4.10073      1.36691      4.10073        -0.000000      0.000000     -0.000000
     -0.00000      2.73382      2.73382         0.000000     -0.000000     -0.000000
      4.10073      4.10073      1.36691        -0.000000      0.000000      0.000000
 -----------------------------------------------------------------------------------
    total drift:                               -0.000000     -0.000000     -0.000000


--------------------------------------------------------------------------------------------------------



  FREE ENERGIE OF THE ION-ELECTRON SYSTEM (eV)
  ---------------------------------------------------
  free  energy   TOTEN  =       -43.00319373 eV

  energy  without entropy=      -43.00319371  energy(sigma->0) =      -43.00319372
 
 d Force = 0.0000000E+00[ 0.000E+00, 0.000E+00]  d Energy = 0.9279161E-02-0.928E-02
 d Force = 0.0000000E+00[ 0.000E+00, 0.000E+00]  d Ewald  = 0.4320355E+01-0.432E+01


--------------------------------------------------------------------------------------------------------


    POTLOK:  cpu time    0.4200: real time    0.4315


--------------------------------------------------------------------------------------------------------




--------------------------------------------------------------------------------------------------------


  
 reached required accuracy - stopping structural energy minimisation
     LOOP+:  cpu time  118.2120: real time  118.7185
    4ORBIT:  cpu time    0.0000: real time    0.0000
 


 total charge     
 
# of ion       s       p       d       tot
------------------------------------------
    1        0.762   0.970   0.000   1.732
    2        0.762   0.970   0.000   1.732
    3        0.762   0.970   0.000   1.732
    4        0.762   0.970   0.000   1.732
    5        0.762   0.970   0.000   1.732
    6        0.762   0.970   0.000   1.732
    7        0.762   0.970   0.000   1.732
    8        0.762   0.970   0.000   1.732
--------------------------------------------------
tot          6.095   7.763   0.000  13.858
 


 magnetization (x)
 
# of ion       s       p       d       tot
------------------------------------------
    1       -0.000   0.000   0.000   0.000
    2       -0.000   0.000   0.000   0.000
    3       -0.000   0.000   0.000   0.000
    4       -0.000   0.000   0.000   0.000
    5       -0.000   0.000   0.000   0.000
    6       -0.000   0.000   0.000   0.000
    7       -0.000   0.000   0.000   0.000
    8       -0.000   0.000   0.000   0.000
--------------------------------------------------
tot         -0.000   0.000   0.000   0.000
 

 total amount of memory used by VASP MPI-rank0    36481. kBytes
=======================================================================

   base      :      30000. kBytes
   nonlr-proj:       3378. kBytes
   fftplans  :        212. kBytes
   grid      :       1466. kBytes
   one-center:         49. kBytes
   wavefun   :       1376. kBytes
 
  
  
 General timing and accounting informations for this job:
 ========================================================
  
                  Total CPU time used (sec):      255.676
                            User time (sec):      244.804
                          System time (sec):       10.872
                         Elapsed time (sec):      276.338
  
                   Maximum memory used (kb):       14312.
                   Average memory used (kb):           0.
  
                          Minor page faults:        39502
                          Major page faults:           18
                 Voluntary context switches:       361971
