PROCAR lm decomposed
# of k-points:   56         # of bands:   32         # of ions:    8

 k-point     1 :    0.00000000 0.00000000 0.00000000     weight = 0.00075131

band     1 # energy   -6.20188754 # occ.  1.00000000
 
ion      s     py     pz     px    dxy    dyz    dz2    dxz  x2-y2    tot
    1  0.054  0.000  0.000  0.000  0.000  0.000  0.000  0.000  0.000  0.054
    2  0.054  0.000  0.000  0.000  0.000  0.000  0.000  0.000  0.000  0.054
    3  0.054  0.000  0.000  0.000  0.000  0.000  0.000  0.000  0.000  0.054
    4  0.054  0.000  0.000  0.000  0.000  0.000  0.000  0.000  0.000  0.054
    5  0.054  0.000  0.000  0.000  0.000  0.000  0.000  0.000  0.000  0.054
    6  0.054  0.000  0.000  0.000  0.000  0.000  0.000  0.000  0.000  0.054
    7  0.054  0.000  0.000  0.000  0.000  0.000  0.000  0.000  0.000  0.054
    8  0.054  0.000  0.000  0.000  0.000  0.000  0.000  0.000  0.000  0.054
tot    0.431  0.000  0.000  0.000  0.000  0.000  0.000  0.000  0.000  0.431
 
band     2 # energy   -2.12428067 # occ.  1.00000000
 
ion      s     py     pz     px    dxy    dyz    dz2    dxz  x2-y2    tot
    1  0.097  0.000  0.003  0.005  0.000  0.000  0.000  0.000  0.000  0.106
    2  0.030  0.011  0.001  0.002  0.000  0.000  0.000  0.000  0.000  0.044
    3  0.071  0.000  0.003  0.005  0.000  0.000  0.000  0.000  0.000  0.080
    4  0.039  0.011  0.001  0.002  0.000  0.000  0.000  0.000  0.000  0.053
    5  0.016  0.000  0.003  0.005  0.000  0.000  0.000  0.000  0.000  0.025
    6  0.037  0.011  0.001  0.002  0.000  0.000  0.000  0.000  0.000  0.051
    7  0.058  0.000  0.003  0.005  0.000  0.000  0.000  0.000  0.000  0.067
    8  0.043  0.011  0.001  0.002  0.000  0.000  0.000  0.000  0.000  0.057
tot    0.391  0.044  0.017  0.030  0.000  0.000  0.000  0.000  0.000  0.482
 
band     3 # energy   -2.12428067 # occ.  1.00000000
 
ion      s     py     pz     px    dxy    dyz    dz2    dxz  x2-y2    tot
    1  0.002  0.002  0.007  0.006  0.000  0.000  0.000  0.000  0.000  0.016
    2  0.077  0.002  0.003  0.005  0.000  0.000  0.000  0.000  0.000  0.086
    3  0.047  0.002  0.007  0.006  0.000  0.000  0.000  0.000  0.000  0.061
    4  0.014  0.002  0.003  0.005  0.000  0.000  0.000  0.000  0.000  0.023
    5  0.043  0.002  0.007  0.006  0.000  0.000  0.000  0.000  0.000  0.057
    6  0.064  0.002  0.003  0.005  0.000  0.000  0.000  0.000  0.000  0.073
    7  0.062  0.002  0.007  0.006  0.000  0.000  0.000  0.000  0.000  0.075
    8  0.083  0.002  0.003  0.005  0.000  0.000  0.000  0.000  0.000  0.092
tot    0.391  0.014  0.037  0.041  0.000  0.000  0.000  0.000  0.000  0.482
 
band     4 # energy   -2.12428067 # occ.  1.00000000
 
ion      s     py     pz     px    dxy    dyz    dz2    dxz  x2-y2    tot
    1  0.139  0.001  0.006  0.002  0.000  0.000  0.000  0.000  0.000  0.148
    2  0.018  0.001  0.006  0.007  0.000  0.000  0.000  0.000  0.000  0.031
    3  0.004  0.001  0.006  0.002  0.000  0.000  0.000  0.000  0.000  0.013
    4  0.100  0.001  0.006  0.007  0.000  0.000  0.000  0.000  0.000  0.113
    5  0.083  0.001  0.006  0.002  0.000  0.000  0.000  0.000  0.000  0.092
    6  0.004  0.001  0.006  0.007  0.000  0.000  0.000  0.000  0.000  0.018
    7  0.005  0.001  0.006  0.002  0.000  0.000  0.000  0.000  0.000  0.014
    8  0.039  0.001  0.006  0.007  0.000  0.000  0.000  0.000  0.000  0.052
tot    0.391  0.007  0.049  0.036  0.000  0.000  0.000  0.000  0.000  0.482
 
band     5 # energy   -2.12428067 # occ.  1.00000000
 
ion      s     py     pz     px    dxy    dyz    dz2    dxz  x2-y2    tot
    1  0.037  0.006  0.003  0.001  0.000  0.000  0.000  0.000  0.000  0.047
    2  0.060  0.002  0.008  0.003  0.000  0.000  0.000  0.000  0.000  0.072
    3  0.034  0.006  0.003  0.001  0.000  0.000  0.000  0.000  0.000  0.045
    4  0.093  0.002  0.008  0.003  0.000  0.000  0.000  0.000  0.000  0.105
    5  0.090  0.006  0.003  0.001  0.000  0.000  0.000  0.000  0.000  0.100
    6  0.007  0.002  0.008  0.003  0.000  0.000  0.000  0.000  0.000  0.020
    7  0.050  0.006  0.003  0.001  0.000  0.000  0.000  0.000  0.000  0.060
    8  0.021  0.002  0.008  0.003  0.000  0.000  0.000  0.000  0.000  0.033
tot    0.391  0.032  0.046  0.014  0.000  0.000  0.000  0.000  0.000  0.482
 
band     6 # energy   -2.12428067 # occ.  1.00000000
 
ion      s     py     pz     px    dxy    dyz    dz2    dxz  x2-y2    tot
    1  0.008  0.009  0.000  0.002  0.000  0.000  0.000  0.000  0.000  0.019
    2  0.066  0.001  0.005  0.006  0.000  0.000  0.000  0.000  0.000  0.078
    3  0.107  0.009  0.000  0.002  0.000  0.000  0.000  0.000  0.000  0.118
    4  0.009  0.001  0.005  0.006  0.000  0.000  0.000  0.000  0.000  0.021
    5  0.000  0.009  0.000  0.002  0.000  0.000  0.000  0.000  0.000  0.012
    6  0.021  0.001  0.005  0.006  0.000  0.000  0.000  0.000  0.000  0.032
    7  0.080  0.009  0.000  0.002  0.000  0.000  0.000  0.000  0.000  0.092
    8  0.099  0.001  0.005  0.006  0.000  0.000  0.000  0.000  0.000  0.110
tot    0.391  0.040  0.021  0.030  0.000  0.000  0.000  0.000  0.000  0.482
 
band     7 # energy   -2.12428067 # occ.  1.00000000
 
ion      s     py     pz     px    dxy    dyz    dz2    dxz  x2-y2    tot
    1  0.011  0.005  0.003  0.007  0.000  0.000  0.000  0.000  0.000  0.025
    2  0.043  0.007  0.000  0.001  0.000  0.000  0.000  0.000  0.000  0.051
    3  0.030  0.005  0.003  0.007  0.000  0.000  0.000  0.000  0.000  0.045
    4  0.039  0.007  0.000  0.001  0.000  0.000  0.000  0.000  0.000  0.047
    5  0.061  0.005  0.003  0.007  0.000  0.000  0.000  0.000  0.000  0.076
    6  0.160  0.007  0.000  0.001  0.000  0.000  0.000  0.000  0.000  0.168
    7  0.039  0.005  0.003  0.007  0.000  0.000  0.000  0.000  0.000  0.053
    8  0.009  0.007  0.000  0.001  0.000  0.000  0.000  0.000  0.000  0.017
tot    0.391  0.046  0.013  0.033  0.000  0.000  0.000  0.000  0.000  0.482
 
band     8 # energy    2.83321403 # occ.  1.00000000
 
ion      s     py     pz     px    dxy    dyz    dz2    dxz  x2-y2    tot
    1  0.000  0.010  0.005  0.016  0.000  0.000  0.000  0.000  0.000  0.031
    2  0.000  0.035  0.001  0.022  0.000  0.000  0.000  0.000  0.000  0.058
    3  0.000  0.002  0.005  0.026  0.000  0.000  0.000  0.000  0.000  0.033
    4  0.000  0.027  0.008  0.022  0.000  0.000  0.000  0.000  0.000  0.057
    5  0.000  0.010  0.043  0.026  0.000  0.000  0.000  0.000  0.000  0.079
    6  0.000  0.035  0.008  0.009  0.000  0.000  0.000  0.000  0.000  0.051
    7  0.000  0.002  0.043  0.016  0.000  0.000  0.000  0.000  0.000  0.061
    8  0.000  0.027  0.001  0.009  0.000  0.000  0.000  0.000  0.000  0.037
tot    0.000  0.149  0.113  0.146  0.000  0.000  0.000  0.000  0.000  0.407
 
band     9 # energy    2.83321403 # occ.  1.00000000
 
ion      s     py     pz     px    dxy    dyz    dz2    dxz  x2-y2    tot
    1  0.000  0.003  0.043  0.011  0.000  0.000  0.000  0.000  0.000  0.056
    2  0.000  0.013  0.000  0.031  0.000  0.000  0.000  0.000  0.000  0.044
    3  0.000  0.022  0.043  0.009  0.000  0.000  0.000  0.000  0.000  0.073
    4  0.000  0.012  0.039  0.031  0.000  0.000  0.000  0.000  0.000  0.082
    5  0.000  0.003  0.015  0.009  0.000  0.000  0.000  0.000  0.000  0.026
    6  0.000  0.013  0.039  0.006  0.000  0.000  0.000  0.000  0.000  0.059
    7  0.000  0.022  0.015  0.011  0.000  0.000  0.000  0.000  0.000  0.048
    8  0.000  0.012  0.000  0.006  0.000  0.000  0.000  0.000  0.000  0.019
tot    0.000  0.100  0.194  0.113  0.000  0.000  0.000  0.000  0.000  0.407
 
band    10 # energy    2.83321403 # occ.  1.00000000
 
ion      s     py     pz     px    dxy    dyz    dz2    dxz  x2-y2    tot
    1  0.000  0.001  0.026  0.032  0.000  0.000  0.000  0.000  0.000  0.060
    2  0.000  0.012  0.046  0.004  0.000  0.000  0.000  0.000  0.000  0.063
    3  0.000  0.001  0.026  0.039  0.000  0.000  0.000  0.000  0.000  0.067
    4  0.000  0.009  0.027  0.004  0.000  0.000  0.000  0.000  0.000  0.040
    5  0.000  0.001  0.002  0.039  0.000  0.000  0.000  0.000  0.000  0.042
    6  0.000  0.012  0.027  0.003  0.000  0.000  0.000  0.000  0.000  0.043
    7  0.000  0.001  0.002  0.032  0.000  0.000  0.000  0.000  0.000  0.035
    8  0.000  0.009  0.046  0.003  0.000  0.000  0.000  0.000  0.000  0.058
tot    0.000  0.046  0.203  0.157  0.000  0.000  0.000  0.000  0.000  0.407
 
band    11 # energy    2.83321403 # occ.  1.00000000
 
ion      s     py     pz     px    dxy    dyz    dz2    dxz  x2-y2    tot
    1  0.000  0.022  0.006  0.023  0.000  0.000  0.000  0.000  0.000  0.052
    2  0.000  0.026  0.008  0.019  0.000  0.000  0.000  0.000  0.000  0.053
    3  0.000  0.003  0.006  0.009  0.000  0.000  0.000  0.000  0.000  0.018
    4  0.000  0.026  0.000  0.019  0.000  0.000  0.000  0.000  0.000  0.046
    5  0.000  0.022  0.039  0.009  0.000  0.000  0.000  0.000  0.000  0.070
    6  0.000  0.026  0.000  0.022  0.000  0.000  0.000  0.000  0.000  0.048
    7  0.000  0.003  0.039  0.023  0.000  0.000  0.000  0.000  0.000  0.064
    8  0.000  0.026  0.008  0.022  0.000  0.000  0.000  0.000  0.000  0.056
tot    0.000  0.154  0.107  0.146  0.000  0.000  0.000  0.000  0.000  0.407
 
band    12 # energy    2.83321403 # occ.  1.00000000
 
ion      s     py     pz     px    dxy    dyz    dz2    dxz  x2-y2    tot
    1  0.000  0.053  0.003  0.015  0.000  0.000  0.000  0.000  0.000  0.072
    2  0.000  0.014  0.007  0.022  0.000  0.000  0.000  0.000  0.000  0.042
    3  0.000  0.018  0.003  0.010  0.000  0.000  0.000  0.000  0.000  0.031
    4  0.000  0.011  0.008  0.022  0.000  0.000  0.000  0.000  0.000  0.040
    5  0.000  0.053  0.002  0.010  0.000  0.000  0.000  0.000  0.000  0.065
    6  0.000  0.014  0.008  0.041  0.000  0.000  0.000  0.000  0.000  0.062
    7  0.000  0.018  0.002  0.015  0.000  0.000  0.000  0.000  0.000  0.036
    8  0.000  0.011  0.007  0.041  0.000  0.000  0.000  0.000  0.000  0.059
tot    0.000  0.192  0.040  0.175  0.000  0.000  0.000  0.000  0.000  0.407
 
band    13 # energy    2.83321403 # occ.  1.00000000
 
ion      s     py     pz     px    dxy    dyz    dz2    dxz  x2-y2    tot
    1  0.000  0.013  0.018  0.004  0.000  0.000  0.000  0.000  0.000  0.035
    2  0.000  0.002  0.039  0.004  0.000  0.000  0.000  0.000  0.000  0.045
    3  0.000  0.055  0.018  0.010  0.000  0.000  0.000  0.000  0.000  0.083
    4  0.000  0.017  0.020  0.004  0.000  0.000  0.000  0.000  0.000  0.041
    5  0.000  0.013  0.002  0.010  0.000  0.000  0.000  0.000  0.000  0.024
    6  0.000  0.002  0.020  0.020  0.000  0.000  0.000  0.000  0.000  0.042
    7  0.000  0.055  0.002  0.004  0.000  0.000  0.000  0.000  0.000  0.061
    8  0.000  0.017  0.039  0.020  0.000  0.000  0.000  0.000  0.000  0.076
tot    0.000  0.173  0.158  0.076  0.000  0.000  0.000  0.000  0.000  0.407
 
band    14 # energy    5.66838463 # occ.  0.99999596
 
ion      s     py     pz     px    dxy    dyz    dz2    dxz  x2-y2    tot
    1  0.000  0.046  0.004  0.006  0.000  0.000  0.000  0.000  0.000  0.056
    2  0.000  0.046  0.004  0.006  0.000  0.000  0.000  0.000  0.000  0.056
    3  0.000  0.046  0.004  0.006  0.000  0.000  0.000  0.000  0.000  0.056
    4  0.000  0.046  0.004  0.006  0.000  0.000  0.000  0.000  0.000  0.056
    5  0.000  0.046  0.004  0.006  0.000  0.000  0.000  0.000  0.000  0.056
    6  0.000  0.046  0.004  0.006  0.000  0.000  0.000  0.000  0.000  0.056
    7  0.000  0.046  0.004  0.006  0.000  0.000  0.000  0.000  0.000  0.056
    8  0.000  0.046  0.004  0.006  0.000  0.000  0.000  0.000  0.000  0.056
tot    0.000  0.365  0.033  0.050  0.000  0.000  0.000  0.000  0.000  0.448
 
band    15 # energy    5.66838463 # occ.  0.99999596
 
ion      s     py     pz     px    dxy    dyz    dz2    dxz  x2-y2    tot
    1  0.000  0.004  0.004  0.048  0.000  0.000  0.000  0.000  0.000  0.056
    2  0.000  0.004  0.004  0.048  0.000  0.000  0.000  0.000  0.000  0.056
    3  0.000  0.004  0.004  0.048  0.000  0.000  0.000  0.000  0.000  0.056
    4  0.000  0.004  0.004  0.048  0.000  0.000  0.000  0.000  0.000  0.056
    5  0.000  0.004  0.004  0.048  0.000  0.000  0.000  0.000  0.000  0.056
    6  0.000  0.004  0.004  0.048  0.000  0.000  0.000  0.000  0.000  0.056
    7  0.000  0.004  0.004  0.048  0.000  0.000  0.000  0.000  0.000  0.056
    8  0.000  0.004  0.004  0.048  0.000  0.000  0.000  0.000  0.000  0.056
tot    0.000  0.035  0.028  0.385  0.000  0.000  0.000  0.000  0.000  0.448
 
band    16 # energy    5.66838463 # occ.  0.99999596
 
ion      s     py     pz     px    dxy    dyz    dz2    dxz  x2-y2    tot
    1  0.000  0.006  0.048  0.002  0.000  0.000  0.000  0.000  0.000  0.056
    2  0.000  0.006  0.048  0.002  0.000  0.000  0.000  0.000  0.000  0.056
    3  0.000  0.006  0.048  0.002  0.000  0.000  0.000  0.000  0.000  0.056
    4  0.000  0.006  0.048  0.002  0.000  0.000  0.000  0.000  0.000  0.056
    5  0.000  0.006  0.048  0.002  0.000  0.000  0.000  0.000  0.000  0.056
    6  0.000  0.006  0.048  0.002  0.000  0.000  0.000  0.000  0.000  0.056
    7  0.000  0.006  0.048  0.002  0.000  0.000  0.000  0.000  0.000  0.056
    8  0.000  0.006  0.048  0.002  0.000  0.000  0.000  0.000  0.000  0.056
tot    0.000  0.048  0.387  0.013  0.000  0.000  0.000  0.000  0.000  0.448
 
band    17 # energy    6.43991111 # occ.  0.00000000
 
ion      s     py     pz     px    dxy    dyz    dz2    dxz  x2-y2    tot
    1  0.005  0.001  0.011  0.002  0.000  0.000  0.000  0.000  0.000  0.019
    2  0.009  0.002  0.001  0.003  0.000  0.000  0.000  0.000  0.000  0.015
    3  0.014  0.001  0.011  0.002  0.000  0.000  0.000  0.000  0.000  0.028
    4  0.029  0.002  0.001  0.003  0.000  0.000  0.000  0.000  0.000  0.034
    5  0.007  0.001  0.011  0.002  0.000  0.000  0.000  0.000  0.000  0.021
    6  0.013  0.002  0.001  0.003  0.000  0.000  0.000  0.000  0.000  0.019
    7  0.005  0.001  0.011  0.002  0.000  0.000  0.000  0.000  0.000  0.018
    8  0.023  0.002  0.001  0.003  0.000  0.000  0.000  0.000  0.000  0.029
tot    0.106  0.010  0.046  0.021  0.000  0.000  0.000  0.000  0.000  0.183
 
band    18 # energy    6.43991111 # occ.  0.00000000
 
ion      s     py     pz     px    dxy    dyz    dz2    dxz  x2-y2    tot
    1  0.004  0.007  0.000  0.010  0.000  0.000  0.000  0.000  0.000  0.021
    2  0.044  0.000  0.000  0.001  0.000  0.000  0.000  0.000  0.000  0.046
    3  0.000  0.007  0.000  0.010  0.000  0.000  0.000  0.000  0.000  0.018
    4  0.001  0.000  0.000  0.001  0.000  0.000  0.000  0.000  0.000  0.003
    5  0.006  0.007  0.000  0.010  0.000  0.000  0.000  0.000  0.000  0.024
    6  0.002  0.000  0.000  0.001  0.000  0.000  0.000  0.000  0.000  0.004
    7  0.001  0.007  0.000  0.010  0.000  0.000  0.000  0.000  0.000  0.018
    8  0.048  0.000  0.000  0.001  0.000  0.000  0.000  0.000  0.000  0.050
tot    0.106  0.029  0.002  0.046  0.000  0.000  0.000  0.000  0.000  0.183
 
band    19 # energy    6.43991111 # occ.  0.00000000
 
ion      s     py     pz     px    dxy    dyz    dz2    dxz  x2-y2    tot
    1  0.036  0.002  0.001  0.001  0.000  0.000  0.000  0.000  0.000  0.040
    2  0.003  0.009  0.000  0.006  0.000  0.000  0.000  0.000  0.000  0.019
    3  0.033  0.002  0.001  0.001  0.000  0.000  0.000  0.000  0.000  0.037
    4  0.013  0.009  0.000  0.006  0.000  0.000  0.000  0.000  0.000  0.029
    5  0.006  0.002  0.001  0.001  0.000  0.000  0.000  0.000  0.000  0.010
    6  0.002  0.009  0.000  0.006  0.000  0.000  0.000  0.000  0.000  0.018
    7  0.011  0.002  0.001  0.001  0.000  0.000  0.000  0.000  0.000  0.014
    8  0.000  0.009  0.000  0.006  0.000  0.000  0.000  0.000  0.000  0.016
tot    0.106  0.045  0.004  0.029  0.000  0.000  0.000  0.000  0.000  0.183
 
band    20 # energy    6.43991111 # occ.  0.00000000
 
ion      s     py     pz     px    dxy    dyz    dz2    dxz  x2-y2    tot
    1  0.007  0.006  0.001  0.003  0.000  0.000  0.000  0.000  0.000  0.017
    2  0.001  0.006  0.002  0.002  0.000  0.000  0.000  0.000  0.000  0.011
    3  0.004  0.006  0.001  0.003  0.000  0.000  0.000  0.000  0.000  0.014
    4  0.012  0.006  0.002  0.002  0.000  0.000  0.000  0.000  0.000  0.022
    5  0.029  0.006  0.001  0.003  0.000  0.000  0.000  0.000  0.000  0.039
    6  0.034  0.006  0.002  0.002  0.000  0.000  0.000  0.000  0.000  0.044
    7  0.013  0.006  0.001  0.003  0.000  0.000  0.000  0.000  0.000  0.023
    8  0.005  0.006  0.002  0.002  0.000  0.000  0.000  0.000  0.000  0.014
tot    0.106  0.045  0.012  0.020  0.000  0.000  0.000  0.000  0.000  0.183
 
band    21 # energy    6.43991111 # occ.  0.00000000
 
ion      s     py     pz     px    dxy    dyz    dz2    dxz  x2-y2    tot
    1  0.021  0.002  0.002  0.002  0.000  0.000  0.000  0.000  0.000  0.027
    2  0.008  0.001  0.011  0.001  0.000  0.000  0.000  0.000  0.000  0.022
    3  0.011  0.002  0.002  0.002  0.000  0.000  0.000  0.000  0.000  0.017
    4  0.018  0.001  0.011  0.001  0.000  0.000  0.000  0.000  0.000  0.031
    5  0.028  0.002  0.002  0.002  0.000  0.000  0.000  0.000  0.000  0.034
    6  0.006  0.001  0.011  0.001  0.000  0.000  0.000  0.000  0.000  0.019
    7  0.013  0.002  0.002  0.002  0.000  0.000  0.000  0.000  0.000  0.019
    8  0.001  0.001  0.011  0.001  0.000  0.000  0.000  0.000  0.000  0.014
tot    0.106  0.014  0.052  0.011  0.000  0.000  0.000  0.000  0.000  0.183
 
band    22 # energy    6.43991111 # occ.  0.00000000
 
ion      s     py     pz     px    dxy    dyz    dz2    dxz  x2-y2    tot
    1  0.006  0.002  0.005  0.002  0.000  0.000  0.000  0.000  0.000  0.014
    2  0.014  0.001  0.005  0.005  0.000  0.000  0.000  0.000  0.000  0.025
    3  0.016  0.002  0.005  0.002  0.000  0.000  0.000  0.000  0.000  0.024
    4  0.006  0.001  0.005  0.005  0.000  0.000  0.000  0.000  0.000  0.018
    5  0.003  0.002  0.005  0.002  0.000  0.000  0.000  0.000  0.000  0.011
    6  0.021  0.001  0.005  0.005  0.000  0.000  0.000  0.000  0.000  0.032
    7  0.037  0.002  0.005  0.002  0.000  0.000  0.000  0.000  0.000  0.045
    8  0.003  0.001  0.005  0.005  0.000  0.000  0.000  0.000  0.000  0.014
tot    0.106  0.012  0.038  0.027  0.000  0.000  0.000  0.000  0.000  0.183
 
band    23 # energy    8.23832186 # occ.  0.00000000
 
ion      s     py     pz     px    dxy    dyz    dz2    dxz  x2-y2    tot
    1  0.000  0.002  0.017  0.021  0.000  0.000  0.000  0.000  0.000  0.039
    2  0.000  0.002  0.017  0.021  0.000  0.000  0.000  0.000  0.000  0.039
    3  0.000  0.002  0.017  0.021  0.000  0.000  0.000  0.000  0.000  0.039
    4  0.000  0.002  0.017  0.021  0.000  0.000  0.000  0.000  0.000  0.039
    5  0.000  0.002  0.017  0.021  0.000  0.000  0.000  0.000  0.000  0.039
    6  0.000  0.002  0.017  0.021  0.000  0.000  0.000  0.000  0.000  0.039
    7  0.000  0.002  0.017  0.021  0.000  0.000  0.000  0.000  0.000  0.039
    8  0.000  0.002  0.017  0.021  0.000  0.000  0.000  0.000  0.000  0.039
tot    0.000  0.019  0.132  0.164  0.000  0.000  0.000  0.000  0.000  0.315
 
band    24 # energy    8.23832186 # occ.  0.00000000
 
ion      s     py     pz     px    dxy    dyz    dz2    dxz  x2-y2    tot
    1  0.000  0.034  0.000  0.005  0.000  0.000  0.000  0.000  0.000  0.039
    2  0.000  0.034  0.000  0.005  0.000  0.000  0.000  0.000  0.000  0.039
    3  0.000  0.034  0.000  0.005  0.000  0.000  0.000  0.000  0.000  0.039
    4  0.000  0.034  0.000  0.005  0.000  0.000  0.000  0.000  0.000  0.039
    5  0.000  0.034  0.000  0.005  0.000  0.000  0.000  0.000  0.000  0.039
    6  0.000  0.034  0.000  0.005  0.000  0.000  0.000  0.000  0.000  0.039
    7  0.000  0.034  0.000  0.005  0.000  0.000  0.000  0.000  0.000  0.039
    8  0.000  0.034  0.000  0.005  0.000  0.000  0.000  0.000  0.000  0.039
tot    0.000  0.273  0.001  0.042  0.000  0.000  0.000  0.000  0.000  0.315
 
band    25 # energy    8.23832186 # occ.  0.00000000
 
ion      s     py     pz     px    dxy    dyz    dz2    dxz  x2-y2    tot
    1  0.000  0.003  0.023  0.014  0.000  0.000  0.000  0.000  0.000  0.039
    2  0.000  0.003  0.023  0.014  0.000  0.000  0.000  0.000  0.000  0.039
    3  0.000  0.003  0.023  0.014  0.000  0.000  0.000  0.000  0.000  0.039
    4  0.000  0.003  0.023  0.014  0.000  0.000  0.000  0.000  0.000  0.039
    5  0.000  0.003  0.023  0.014  0.000  0.000  0.000  0.000  0.000  0.039
    6  0.000  0.003  0.023  0.014  0.000  0.000  0.000  0.000  0.000  0.039
    7  0.000  0.003  0.023  0.014  0.000  0.000  0.000  0.000  0.000  0.039
    8  0.000  0.003  0.023  0.014  0.000  0.000  0.000  0.000  0.000  0.039
tot    0.000  0.024  0.182  0.109  0.000  0.000  0.000  0.000  0.000  0.315
 
band    26 # energy    8.75344044 # occ.  0.00000000
 
ion      s     py     pz     px    dxy    dyz    dz2    dxz  x2-y2    tot
    1  0.089  0.000  0.000  0.000  0.000  0.000  0.000  0.000  0.000  0.089
    2  0.089  0.000  0.000  0.000  0.000  0.000  0.000  0.000  0.000  0.089
    3  0.089  0.000  0.000  0.000  0.000  0.000  0.000  0.000  0.000  0.089
    4  0.089  0.000  0.000  0.000  0.000  0.000  0.000  0.000  0.000  0.089
    5  0.089  0.000  0.000  0.000  0.000  0.000  0.000  0.000  0.000  0.089
    6  0.089  0.000  0.000  0.000  0.000  0.000  0.000  0.000  0.000  0.089
    7  0.089  0.000  0.000  0.000  0.000  0.000  0.000  0.000  0.000  0.089
    8  0.089  0.000  0.000  0.000  0.000  0.000  0.000  0.000  0.000  0.089
tot    0.716  0.000  0.000  0.000  0.000  0.000  0.000  0.000  0.000  0.716
 
band    27 # energy   13.51302190 # occ.  0.00000000
 
ion      s     py     pz     px    dxy    dyz    dz2    dxz  x2-y2    tot
    1  0.025  0.000  0.000  0.000  0.000  0.000  0.000  0.000  0.000  0.025
    2  0.025  0.000  0.000  0.000  0.000  0.000  0.000  0.000  0.000  0.025
    3  0.025  0.000  0.000  0.000  0.000  0.000  0.000  0.000  0.000  0.025
    4  0.025  0.000  0.000  0.000  0.000  0.000  0.000  0.000  0.000  0.025
    5  0.025  0.000  0.000  0.000  0.000  0.000  0.000  0.000  0.000  0.025
    6  0.025  0.000  0.000  0.000  0.000  0.000  0.000  0.000  0.000  0.025
    7  0.025  0.000  0.000  0.000  0.000  0.000  0.000  0.000  0.000  0.025
    8  0.025  0.000  0.000  0.000  0.000  0.000  0.000  0.000  0.000  0.025
tot    0.199  0.000  0.000  0.000  0.000  0.000  0.000  0.000  0.000  0.199
 
band    28 # energy   13.61100867 # occ.  0.00000000
 
ion      s     py     pz     px    dxy    dyz    dz2    dxz  x2-y2    tot
    1  0.000  0.000  0.000  0.000  0.000  0.000  0.000  0.000  0.000  0.000
    2  0.000  0.000  0.000  0.000  0.000  0.000  0.000  0.000  0.000  0.000
    3  0.000  0.000  0.000  0.000  0.000  0.000  0.000  0.000  0.000  0.000
    4  0.000  0.000  0.000  0.000  0.000  0.000  0.000  0.000  0.000  0.000
    5  0.000  0.000  0.000  0.000  0.000  0.000  0.000  0.000  0.000  0.000
    6  0.000  0.000  0.000  0.000  0.000  0.000  0.000  0.000  0.000  0.000
    7  0.000  0.000  0.000  0.000  0.000  0.000  0.000  0.000  0.000  0.000
    8  0.000  0.000  0.000  0.000  0.000  0.000  0.000  0.000  0.000  0.000
tot    0.000  0.000  0.000  0.000  0.000  0.000  0.000  0.000  0.000  0.000
 
band    29 # energy   13.61100867 # occ.  0.00000000
 
ion      s     py     pz     px    dxy    dyz    dz2    dxz  x2-y2    tot
    1  0.000  0.000  0.000  0.000  0.000  0.000  0.000  0.000  0.000  0.000
    2  0.000  0.000  0.000  0.000  0.000  0.000  0.000  0.000  0.000  0.000
    3  0.000  0.000  0.000  0.000  0.000  0.000  0.000  0.000  0.000  0.000
    4  0.000  0.000  0.000  0.000  0.000  0.000  0.000  0.000  0.000  0.000
    5  0.000  0.000  0.000  0.000  0.000  0.000  0.000  0.000  0.000  0.000
    6  0.000  0.000  0.000  0.000  0.000  0.000  0.000  0.000  0.000  0.000
    7  0.000  0.000  0.000  0.000  0.000  0.000  0.000  0.000  0.000  0.000
    8  0.000  0.000  0.000  0.000  0.000  0.000  0.000  0.000  0.000  0.000
tot    0.000  0.000  0.000  0.000  0.000  0.000  0.000  0.000  0.000  0.000
 
band    30 # energy   15.64040330 # occ.  0.00000000
 
ion      s     py     pz     px    dxy    dyz    dz2    dxz  x2-y2    tot
    1  0.000  0.002  0.041  0.001  0.000  0.000  0.000  0.000  0.000  0.045
    2  0.000  0.028  0.013  0.004  0.000  0.000  0.000  0.000  0.000  0.045
    3  0.000  0.051  0.041  0.022  0.000  0.000  0.000  0.000  0.000  0.114
    4  0.000  0.009  0.040  0.004  0.000  0.000  0.000  0.000  0.000  0.052
    5  0.000  0.002  0.009  0.022  0.000  0.000  0.000  0.000  0.000  0.033
    6  0.000  0.028  0.040  0.033  0.000  0.000  0.000  0.000  0.000  0.101
    7  0.000  0.051  0.009  0.001  0.000  0.000  0.000  0.000  0.000  0.061
    8  0.000  0.009  0.013  0.033  0.000  0.000  0.000  0.000  0.000  0.055
tot    0.000  0.181  0.205  0.120  0.000  0.000  0.000  0.000  0.000  0.506
 
band    31 # energy   15.64040361 # occ.  0.00000000
 
ion      s     py     pz     px    dxy    dyz    dz2    dxz  x2-y2    tot
    1  0.000  0.001  0.018  0.036  0.000  0.000  0.000  0.000  0.000  0.055
    2  0.000  0.023  0.021  0.035  0.000  0.000  0.000  0.000  0.000  0.078
    3  0.000  0.012  0.018  0.010  0.000  0.000  0.000  0.000  0.000  0.040
    4  0.000  0.003  0.028  0.035  0.000  0.000  0.000  0.000  0.000  0.066
    5  0.000  0.001  0.050  0.010  0.000  0.000  0.000  0.000  0.000  0.060
    6  0.000  0.022  0.028  0.017  0.000  0.000  0.000  0.000  0.000  0.068
    7  0.000  0.012  0.050  0.036  0.000  0.000  0.000  0.000  0.000  0.098
    8  0.000  0.003  0.021  0.017  0.000  0.000  0.000  0.000  0.000  0.041
tot    0.000  0.078  0.233  0.194  0.000  0.000  0.000  0.000  0.000  0.506
 
band    32 # energy   15.64040389 # occ.  0.00000000
 
ion      s     py     pz     px    dxy    dyz    dz2    dxz  x2-y2    tot
    1  0.000  0.038  0.032  0.010  0.000  0.000  0.000  0.000  0.000  0.080
    2  0.000  0.037  0.013  0.037  0.000  0.000  0.000  0.000  0.000  0.086
    3  0.000  0.003  0.032  0.002  0.000  0.000  0.000  0.000  0.000  0.037
    4  0.000  0.012  0.016  0.037  0.000  0.000  0.000  0.000  0.000  0.066
    5  0.000  0.038  0.042  0.002  0.000  0.000  0.000  0.000  0.000  0.082
    6  0.000  0.037  0.016  0.012  0.000  0.000  0.000  0.000  0.000  0.065
    7  0.000  0.003  0.042  0.010  0.000  0.000  0.000  0.000  0.000  0.055
    8  0.000  0.012  0.013  0.012  0.000  0.000  0.000  0.000  0.000  0.036
tot    0.000  0.178  0.206  0.121  0.000  0.000  0.000  0.000  0.000  0.506
 

 k-point     2 :    0.09090909 0.00000000 0.00000000     weight = 0.00450789

band     1 # energy   -6.16628586 # occ.  1.00000000
 
ion      s     py     pz     px    dxy    dyz    dz2    dxz  x2-y2    tot
    1  0.054  0.000  0.000  0.000  0.000  0.000  0.000  0.000  0.000  0.054
    2  0.054  0.000  0.000  0.000  0.000  0.000  0.000  0.000  0.000  0.054
    3  0.054  0.000  0.000  0.000  0.000  0.000  0.000  0.000  0.000  0.054
    4  0.054  0.000  0.000  0.000  0.000  0.000  0.000  0.000  0.000  0.054
    5  0.054  0.000  0.000  0.000  0.000  0.000  0.000  0.000  0.000  0.054
    6  0.054  0.000  0.000  0.000  0.000  0.000  0.000  0.000  0.000  0.054
    7  0.054  0.000  0.000  0.000  0.000  0.000  0.000  0.000  0.000  0.054
    8  0.054  0.000  0.000  0.000  0.000  0.000  0.000  0.000  0.000  0.054
tot    0.430  0.000  0.000  0.001  0.000  0.000  0.000  0.000  0.000  0.431
 
band     2 # energy   -2.79321330 # occ.  1.00000000
 
ion      s     py     pz     px    dxy    dyz    dz2    dxz  x2-y2    tot
    1  0.050  0.000  0.000  0.010  0.000  0.000  0.000  0.000  0.000  0.059
    2  0.050  0.000  0.000  0.010  0.000  0.000  0.000  0.000  0.000  0.059
    3  0.050  0.000  0.000  0.010  0.000  0.000  0.000  0.000  0.000  0.059
    4  0.050  0.000  0.000  0.010  0.000  0.000  0.000  0.000  0.000  0.059
    5  0.050  0.000  0.000  0.010  0.000  0.000  0.000  0.000  0.000  0.059
    6  0.050  0.000  0.000  0.010  0.000  0.000  0.000  0.000  0.000  0.059
    7  0.050  0.000  0.000  0.010  0.000  0.000  0.000  0.000  0.000  0.059
    8  0.050  0.000  0.000  0.010  0.000  0.000  0.000  0.000  0.000  0.059
tot    0.397  0.000  0.000  0.077  0.000  0.000  0.000  0.000  0.000  0.473
 
band     3 # energy   -2.11321095 # occ.  1.00000000
 
ion      s     py     pz     px    dxy    dyz    dz2    dxz  x2-y2    tot
    1  0.134  0.002  0.003  0.000  0.000  0.000  0.000  0.000  0.000  0.139
    2  0.010  0.012  0.006  0.000  0.000  0.000  0.000  0.000  0.000  0.028
    3  0.020  0.001  0.003  0.000  0.000  0.000  0.000  0.000  0.000  0.025
    4  0.010  0.012  0.006  0.000  0.000  0.000  0.000  0.000  0.000  0.028
    5  0.020  0.001  0.003  0.000  0.000  0.000  0.000  0.000  0.000  0.025
    6  0.032  0.009  0.009  0.000  0.000  0.000  0.000  0.000  0.000  0.050
    7  0.134  0.002  0.003  0.000  0.000  0.000  0.000  0.000  0.000  0.139
    8  0.032  0.009  0.009  0.000  0.000  0.000  0.000  0.000  0.000  0.050
tot    0.393  0.048  0.043  0.000  0.000  0.000  0.000  0.000  0.000  0.484
 
band     4 # energy   -2.11321095 # occ.  1.00000000
 
ion      s     py     pz     px    dxy    dyz    dz2    dxz  x2-y2    tot
    1  0.008  0.003  0.006  0.000  0.000  0.000  0.000  0.000  0.000  0.016
    2  0.003  0.004  0.011  0.000  0.000  0.000  0.000  0.000  0.000  0.017
    3  0.115  0.003  0.005  0.000  0.000  0.000  0.000  0.000  0.000  0.124
    4  0.003  0.004  0.011  0.000  0.000  0.000  0.000  0.000  0.000  0.017
    5  0.115  0.003  0.005  0.000  0.000  0.000  0.000  0.000  0.000  0.124
    6  0.070  0.004  0.010  0.000  0.000  0.000  0.000  0.000  0.000  0.085
    7  0.008  0.003  0.006  0.000  0.000  0.000  0.000  0.000  0.000  0.016
    8  0.070  0.004  0.010  0.000  0.000  0.000  0.000  0.000  0.000  0.085
tot    0.393  0.028  0.064  0.000  0.000  0.000  0.000  0.000  0.000  0.484
 
band     5 # energy   -2.11321095 # occ.  1.00000000
 
ion      s     py     pz     px    dxy    dyz    dz2    dxz  x2-y2    tot
    1  0.050  0.001  0.010  0.000  0.000  0.000  0.000  0.000  0.000  0.061
    2  0.017  0.006  0.006  0.000  0.000  0.000  0.000  0.000  0.000  0.029
    3  0.052  0.001  0.010  0.000  0.000  0.000  0.000  0.000  0.000  0.063