<?xml version="1.0" encoding="ISO-8859-1"?>
<modeling>
 <generator>
  <i name="program" type="string">vasp </i>
  <i name="version" type="string">5.4.4.18Apr17-6-g9f103f2a35  </i>
  <i name="subversion" type="string">(build Dec 09 2018 21:25:21) complex            parallel </i>
  <i name="platform" type="string">IFC18.0.1.163_CrayMPICH7.7.0_MKL18.0.1.163 </i>
  <i name="date" type="string">2019 03 16 </i>
  <i name="time" type="string">08:01:34 </i>
 </generator>
 <incar>
  <i type="string" name="SYSTEM"> Diamond si</i>
  <i type="string" name="PREC">accurate</i>
  <i type="string" name="ALGO"> Fast</i>
  <i type="int" name="ISPIN">     2</i>
  <i type="int" name="ICHARG">     1</i>
  <i type="int" name="NELM">   100</i>
  <i type="int" name="IBRION">     2</i>
  <i name="EDIFF">      0.00001000</i>
  <i name="EDIFFG">     -0.01000000</i>
  <i type="int" name="NSW">    15</i>
  <i type="int" name="ISIF">     3</i>
  <i name="ENCUT">    150.00000000</i>
  <v name="MAGMOM">      0.60000000      0.60000000      0.60000000      0.60000000      0.60000000      0.60000000      0.60000000      0.60000000</v>
  <i type="string" name="LREAL"> Auto</i>
  <i type="int" name="ISMEAR">     0</i>
  <i name="SIGMA">      0.10000000</i>
  <i type="logical" name="LWAVE"> F  </i>
  <i type="int" name="LORBIT">    11</i>
  <v type="int" name="KPOINT_BSE">    -1     0     0     0</v>
  <i type="int" name="NELM">   100</i>
 </incar>
 <structure name="primitive_cell" >
  <crystal>
   <varray name="basis" >
    <v>       2.71500000       2.71500000       0.00000000 </v>
    <v>       2.71500000       0.00000000      -2.71500000 </v>
    <v>       0.00000000       2.71500000      -2.71500000 </v>
   </varray>
   <i name="volume">     40.02575175 </i>
   <varray name="rec_basis" >
    <v>       0.18416206       0.18416206       0.18416206 </v>
    <v>       0.18416206      -0.18416206      -0.18416206 </v>
    <v>      -0.18416206       0.18416206      -0.18416206 </v>
   </varray>
  </crystal>
  <varray name="positions" >
   <v>       0.00000000       0.00000000       0.00000000 </v>
   <v>      -0.25000000      -0.25000000      -0.25000000 </v>
  </varray>
 </structure>
 <varray name="primitive_index" >
  <v type="int" >        1 </v>
  <v type="int" >        2 </v>
 </varray>
 <kpoints>
  <generation param="Monkhorst-Pack">
   <v type="int" name="divisions">      11       11       11 </v>
   <v name="usershift">      0.00000000       0.00000000       0.00000000 </v>
   <v name="genvec1">      0.09090909       0.00000000       0.00000000 </v>
   <v name="genvec2">      0.00000000       0.09090909       0.00000000 </v>
   <v name="genvec3">      0.00000000       0.00000000       0.09090909 </v>
   <v name="shift">      0.00000000       0.00000000       0.00000000 </v>
  </generation>
  <varray name="kpointlist" >
   <v>       0.00000000       0.00000000       0.00000000 </v>
   <v>       0.09090909       0.00000000       0.00000000 </v>
   <v>       0.18181818       0.00000000       0.00000000 </v>
   <v>       0.27272727       0.00000000       0.00000000 </v>
   <v>       0.36363636       0.00000000       0.00000000 </v>
   <v>       0.45454545       0.00000000       0.00000000 </v>
   <v>       0.09090909       0.09090909       0.00000000 </v>
   <v>       0.18181818       0.09090909       0.00000000 </v>
   <v>       0.27272727       0.09090909       0.00000000 </v>
   <v>       0.36363636       0.09090909       0.00000000 </v>
   <v>       0.45454545       0.09090909       0.00000000 </v>
   <v>       0.18181818       0.18181818       0.00000000 </v>
   <v>       0.27272727       0.18181818       0.00000000 </v>
   <v>       0.36363636       0.18181818       0.00000000 </v>
   <v>       0.45454545       0.18181818       0.00000000 </v>
   <v>       0.27272727       0.27272727       0.00000000 </v>
   <v>       0.36363636       0.27272727       0.00000000 </v>
   <v>       0.45454545       0.27272727       0.00000000 </v>
   <v>       0.36363636       0.36363636       0.00000000 </v>
   <v>       0.45454545       0.36363636       0.00000000 </v>
   <v>       0.45454545       0.45454545       0.00000000 </v>
   <v>       0.09090909       0.09090909       0.09090909 </v>
   <v>       0.18181818       0.09090909       0.09090909 </v>
   <v>       0.27272727       0.09090909       0.09090909 </v>
   <v>       0.36363636       0.09090909       0.09090909 </v>
   <v>       0.45454545       0.09090909       0.09090909 </v>
   <v>       0.18181818       0.18181818       0.09090909 </v>
   <v>       0.27272727       0.18181818       0.09090909 </v>
   <v>       0.36363636       0.18181818       0.09090909 </v>
   <v>       0.45454545       0.18181818       0.09090909 </v>
   <v>       0.27272727       0.27272727       0.09090909 </v>
   <v>       0.36363636       0.27272727       0.09090909 </v>
   <v>       0.45454545       0.27272727       0.09090909 </v>
   <v>       0.36363636       0.36363636       0.09090909 </v>
   <v>       0.45454545       0.36363636       0.09090909 </v>
   <v>       0.45454545       0.45454545       0.09090909 </v>
   <v>       0.18181818       0.18181818       0.18181818 </v>
   <v>       0.27272727       0.18181818       0.18181818 </v>
   <v>       0.36363636       0.18181818       0.18181818 </v>
   <v>       0.45454545       0.18181818       0.18181818 </v>
   <v>       0.27272727       0.27272727       0.18181818 </v>
   <v>       0.36363636       0.27272727       0.18181818 </v>
   <v>       0.45454545       0.27272727       0.18181818 </v>
   <v>       0.36363636       0.36363636       0.18181818 </v>
   <v>       0.45454545       0.36363636       0.18181818 </v>
   <v>       0.45454545       0.45454545       0.18181818 </v>
   <v>       0.27272727       0.27272727       0.27272727 </v>
   <v>       0.36363636       0.27272727       0.27272727 </v>
   <v>       0.45454545       0.27272727       0.27272727 </v>
   <v>       0.36363636       0.36363636       0.27272727 </v>
   <v>       0.45454545       0.36363636       0.27272727 </v>
   <v>       0.45454545       0.45454545       0.27272727 </v>
   <v>       0.36363636       0.36363636       0.36363636 </v>
   <v>       0.45454545       0.36363636       0.36363636 </v>
   <v>       0.45454545       0.45454545       0.36363636 </v>
   <v>       0.45454545       0.45454545       0.45454545 </v>
  </varray>
  <varray name="weights" >
   <v>       0.00075131 </v>
   <v>       0.00450789 </v>
   <v>       0.00450789 </v>
   <v>       0.00450789 </v>
   <v>       0.00450789 </v>
   <v>       0.00450789 </v>
   <v>       0.00901578 </v>
   <v>       0.01803156 </v>
   <v>       0.01803156 </v>
   <v>       0.01803156 </v>
   <v>       0.01803156 </v>
   <v>       0.00901578 </v>
   <v>       0.01803156 </v>
   <v>       0.01803156 </v>
   <v>       0.01803156 </v>
   <v>       0.00901578 </v>
   <v>       0.01803156 </v>
   <v>       0.01803156 </v>
   <v>       0.00901578 </v>
   <v>       0.01803156 </v>
   <v>       0.00901578 </v>
   <v>       0.00601052 </v>
   <v>       0.01803156 </v>
   <v>       0.01803156 </v>
   <v>       0.01803156 </v>
   <v>       0.01803156 </v>
   <v>       0.01803156 </v>
   <v>       0.03606311 </v>
   <v>       0.03606311 </v>
   <v>       0.03606311 </v>
   <v>       0.01803156 </v>
   <v>       0.03606311 </v>
   <v>       0.03606311 </v>
   <v>       0.01803156 </v>
   <v>       0.03606311 </v>
   <v>       0.01803156 </v>
   <v>       0.00601052 </v>
   <v>       0.01803156 </v>
   <v>       0.01803156 </v>
   <v>       0.01803156 </v>
   <v>       0.01803156 </v>
   <v>       0.03606311 </v>
   <v>       0.03606311 </v>
   <v>       0.01803156 </v>
   <v>       0.03606311 </v>
   <v>       0.01803156 </v>
   <v>       0.00601052 </v>
   <v>       0.01803156 </v>
   <v>       0.01803156 </v>
   <v>       0.01803156 </v>
   <v>       0.03606311 </v>
   <v>       0.01803156 </v>
   <v>       0.00601052 </v>
   <v>       0.01803156 </v>
   <v>       0.01803156 </v>
   <v>       0.00601052 </v>
  </varray>
 </kpoints>
 <parameters>
  <separator name="general" >
   <i type="string" name="SYSTEM">Diamond si</i>
   <i type="logical" name="LCOMPAT"> F  </i>
  </separator>
  <separator name="electronic" >
   <i type="string" name="PREC">accura</i>
   <i name="ENMAX">    150.00000000</i>
   <i name="ENAUG">    322.06900000</i>
   <i name="EDIFF">      0.00001000</i>
   <i type="int" name="IALGO">    68</i>
   <i type="int" name="IWAVPR">    11</i>
   <i type="int" name="NBANDS">    32</i>
   <i name="NELECT">     32.00000000</i>
   <i type="int" name="TURBO">     0</i>
   <i type="int" name="IRESTART">     0</i>
   <i type="int" name="NREBOOT">     0</i>
   <i type="int" name="NMIN">     0</i>
   <i name="EREF">      0.00000000</i>
   <separator name="electronic smearing" >
    <i type="int" name="ISMEAR">     0</i>
    <i name="SIGMA">      0.10000000</i>
    <i name="KSPACING">      0.50000000</i>
    <i type="logical" name="KGAMMA"> T  </i>
   </separator>
   <separator name="electronic projectors" >
    <i type="logical" name="LREAL"> T  </i>
    <v name="ROPT">     -0.00025000</v>
    <i type="int" name="LMAXPAW">  -100</i>
    <i type="int" name="LMAXMIX">     2</i>
    <i type="logical" name="NLSPLINE"> F  </i>
   </separator>
   <separator name="electronic startup" >
    <i type="int" name="ISTART">     0</i>
    <i type="int" name="ICHARG">     1</i>
    <i type="int" name="INIWAV">     1</i>
   </separator>
   <separator name="electronic spin" >
    <i type="int" name="ISPIN">     2</i>
    <i type="logical" name="LNONCOLLINEAR"> F  </i>
    <v name="MAGMOM">      0.60000000      0.60000000      0.60000000      0.60000000      0.60000000      0.60000000      0.60000000      0.60000000</v>
    <i name="NUPDOWN">     -1.00000000</i>
    <i type="logical" name="LSORBIT"> F  </i>
    <v name="SAXIS">      0.00000000      0.00000000      1.00000000</v>
    <i type="logical" name="LSPIRAL"> F  </i>
    <v name="QSPIRAL">      0.00000000      0.00000000      0.00000000</v>
    <i type="logical" name="LZEROZ"> F  </i>
   </separator>
   <separator name="electronic exchange-correlation" >
    <i type="logical" name="LASPH"> F  </i>
    <i type="logical" name="LMETAGGA"> F  </i>
   </separator>
   <separator name="electronic convergence" >
    <i type="int" name="NELM">   100</i>
    <i type="int" name="NELMDL">     0</i>
    <i type="int" name="NELMIN">     2</i>
    <i name="ENINI">    150.00000000</i>
    <separator name="electronic convergence detail" >
     <i type="logical" name="LDIAG"> T  </i>
     <i type="logical" name="LSUBROT"> F  </i>
     <i name="WEIMIN">      0.00100000</i>
     <i name="EBREAK">      0.00000008</i>
     <i name="DEPER">      0.30000000</i>
     <i type="int" name="NRMM">     4</i>
     <i name="TIME">      0.40000000</i>
    </separator>
   </separator>
   <separator name="electronic mixer" >
    <i name="AMIX">      0.40000000</i>
    <i name="BMIX">      1.00000000</i>
    <i name="AMIN">      0.10000000</i>
    <i name="AMIX_MAG">      1.60000000</i>
    <i name="BMIX_MAG">      1.00000000</i>
    <separator name="electronic mixer details" >
     <i type="int" name="IMIX">     4</i>
     <i type="logical" name="MIXFIRST"> F  </i>
     <i type="int" name="MAXMIX">   -45</i>
     <i name="WC">    100.00000000</i>
     <i type="int" name="INIMIX">     1</i>
     <i type="int" name="MIXPRE">     1</i>
     <i type="int" name="MREMOVE">     5</i>
    </separator>
   </separator>
   <separator name="electronic dipolcorrection" >
    <i type="logical" name="LDIPOL"> F  </i>
    <i type="logical" name="LMONO"> F  </i>
    <i type="int" name="IDIPOL">     0</i>
    <i name="EPSILON">      1.00000000</i>
    <v name="DIPOL">   -100.00000000   -100.00000000   -100.00000000</v>
    <i name="EFIELD">      0.00000000</i>
   </separator>
  </separator>
  <separator name="grids" >
   <i type="int" name="NGX">    24</i>
   <i type="int" name="NGY">    24</i>
   <i type="int" name="NGZ">    24</i>
   <i type="int" name="NGXF">    48</i>
   <i type="int" name="NGYF">    48</i>
   <i type="int" name="NGZF">    48</i>
   <i type="logical" name="ADDGRID"> F  </i>
  </separator>
  <separator name="ionic" >
   <i type="int" name="NSW">    15</i>
   <i type="int" name="IBRION">     2</i>
   <i type="int" name="MDALGO">     0</i>
   <i type="int" name="ISIF">     3</i>
   <i name="PSTRESS">      0.00000000</i>
   <i name="EDIFFG">     -0.01000000</i>
   <i type="int" name="NFREE">     1</i>
   <i name="POTIM">      0.50000000</i>
   <i name="SMASS">     -3.00000000</i>
   <i name="SCALEE">      1.00000000</i>
  </separator>
  <separator name="ionic md" >
   <i name="TEBEG">      0.00010000</i>
   <i name="TEEND">      0.00010000</i>
   <i type="int" name="NBLOCK">     1</i>
   <i type="int" name="KBLOCK">    15</i>
   <i type="int" name="NPACO">   256</i>
   <i name="APACO">     16.00000000</i>
  </separator>
  <separator name="symmetry" >
   <i type="int" name="ISYM">     2</i>
   <i name="SYMPREC">      0.00001000</i>
  </separator>
  <separator name="dos" >
   <i type="int" name="LORBIT">    11</i>
   <v name="RWIGS">     -1.00000000</v>
   <i type="int" name="NEDOS">   301</i>
   <i name="EMIN">     10.00000000</i>
   <i name="EMAX">    -10.00000000</i>
   <i name="EFERMI">      0.00000000</i>
  </separator>
  <separator name="writing" >
   <i type="int" name="NWRITE">     2</i>
   <i type="logical" name="LWAVE"> F  </i>
   <i type="logical" name="LDOWNSAMPLE"> F  </i>
   <i type="logical" name="LCHARG"> T  </i>
   <i type="logical" name="LPARD"> F  </i>
   <i type="logical" name="LVTOT"> F  </i>
   <i type="logical" name="LVHAR"> F  </i>
   <i type="logical" name="LELF"> F  </i>
   <i type="logical" name="LOPTICS"> F  </i>
   <v name="STM">      0.00000000      0.00000000      0.00000000      0.00000000      0.00000000      0.00000000      0.00000000</v>
  </separator>
  <separator name="performance" >
   <i type="int" name="NPAR">    32</i>
   <i type="int" name="NSIM">     4</i>
   <i type="int" name="NBLK">    -1</i>
   <i type="logical" name="LPLANE"> T  </i>
   <i type="logical" name="LSCALAPACK"> T  </i>
   <i type="logical" name="LSCAAWARE"> T  </i>
   <i type="logical" name="LSCALU"> F  </i>
   <i type="logical" name="LASYNC"> F  </i>
   <i type="logical" name="LORBITALREAL"> F  </i>
  </separator>
  <separator name="miscellaneous" >
   <i type="int" name="IDIOT">     3</i>
   <i type="int" name="ISPECIAL">     0</i>
   <i type="logical" name="LMUSIC"> F  </i>
   <v name="POMASS">     28.08500000</v>
   <v name="DARWINR">      0.00000000</v>
   <v name="DARWINV">      1.00000000</v>
   <i type="logical" name="LCORR"> T  </i>
  </separator>
  <i type="logical" name="GGA_COMPAT"> T  </i>
  <i type="logical" name="LBERRY"> F  </i>
  <i type="int" name="ICORELEVEL">     0</i>
  <i type="logical" name="LDAU"> F  </i>
  <i type="int" name="I_CONSTRAINED_M">     0</i>
  <separator name="electronic exchange-correlation" >
   <i type="string" name="GGA">--</i>
   <i type="int" name="VOSKOWN">     0</i>
   <i type="logical" name="LHFCALC"> F  </i>
   <i type="string" name="PRECFOCK"></i>
   <i type="logical" name="LSYMGRAD"> F  </i>
   <i type="logical" name="LHFONE"> F  </i>
   <i type="logical" name="LRHFCALC"> F  </i>
   <i type="logical" name="LTHOMAS"> F  </i>
   <i type="logical" name="LMODELHF"> F  </i>
   <i name="ENCUT4O">     -1.00000000</i>
   <i type="int" name="EXXOEP">     0</i>
   <i type="int" name="FOURORBIT">     0</i>
   <i name="AEXX">      0.00000000</i>
   <i name="HFALPHA">      0.00000000</i>
   <i name="MCALPHA">      0.00000000</i>
   <i name="ALDAX">      1.00000000</i>
   <i name="AGGAX">      1.00000000</i>
   <i name="ALDAC">      1.00000000</i>
   <i name="AGGAC">      1.00000000</i>
   <i type="int" name="NKREDX">     1</i>
   <i type="int" name="NKREDY">     1</i>
   <i type="int" name="NKREDZ">     1</i>
   <i type="logical" name="SHIFTRED"> F  </i>
   <i type="logical" name="ODDONLY"> F  </i>
   <i type="logical" name="EVENONLY"> F  </i>
   <i type="int" name="LMAXFOCK">     0</i>
   <i type="int" name="NMAXFOCKAE">     0</i>
   <i type="logical" name="LFOCKAEDFT"> F  </i>
   <i name="HFSCREEN">      0.00000000</i>
   <i name="HFSCREENC">      0.00000000</i>
   <i type="int" name="NBANDSGWLOW">     0</i>
  </separator>
  <separator name="vdW DFT" >
   <i type="logical" name="LUSE_VDW"> F  </i>
   <i name="Zab_VDW">     -0.84910000</i>
   <i name="PARAM1">      0.12340000</i>
   <i name="PARAM2">      1.00000000</i>
   <i name="PARAM3">      0.00000000</i>
  </separator>
  <separator name="model GW" >
   <i type="int" name="MODEL_GW">     0</i>
   <i name="MODEL_EPS0">     12.00772552</i>
   <i name="MODEL_ALPHA">      1.00000000</i>
  </separator>
  <separator name="linear response parameters" >
   <i type="logical" name="LEPSILON"> F  </i>
   <i type="logical" name="LRPA"> F  </i>
   <i type="logical" name="LNABLA"> F  </i>
   <i type="logical" name="LVEL"> F  </i>
   <i type="int" name="KINTER">     0</i>
   <i name="CSHIFT">      0.10000000</i>
   <i name="OMEGAMAX">     -1.00000000</i>
   <i name="DEG_THRESHOLD">      0.00200000</i>
   <i name="RTIME">     -0.10000000</i>
   <i name="WPLASMAI">      0.00000000</i>
   <v name="DFIELD">      0.00000000      0.00000000      0.00000000</v>
   <v name="WPLASMA">      0.00000000      0.00000000      0.00000000      0.00000000      0.00000000      0.00000000      0.00000000      0.00000000      0.00000000</v>
  </separator>
  <separator name="orbital magnetization" >
   <i type="logical" name="NUCIND"> F  </i>
   <v name="MAGPOS">      0.00000000      0.00000000      0.00000000</v>
   <i type="logical" name="LNICSALL"> T  </i>
   <i type="logical" name="ORBITALMAG"> F  </i>
   <i type="logical" name="LMAGBLOCH"> F  </i>
   <i type="logical" name="LCHIMAG"> F  </i>
   <i type="logical" name="LGAUGE"> T  </i>
   <i type="int" name="MAGATOM">     0</i>
   <v name="MAGDIPOL">      0.00000000      0.00000000      0.00000000</v>
   <v name="AVECCONST">      0.00000000      0.00000000      0.00000000</v>
  </separator>
  <separator name="response functions" >
   <i type="logical" name="LADDER"> F  </i>
   <i type="logical" name="LRPAFORCE"> F  </i>
   <i type="logical" name="LFXC"> F  </i>
   <i type="logical" name="LHARTREE"> T  </i>
   <i type="int" name="IBSE">     0</i>
   <v type="int" name="KPOINT">    -1     0     0     0</v>
   <i type="logical" name="LTCTE"> F  </i>
   <i type="logical" name="LTETE"> F  </i>
   <i type="logical" name="LTRIPLET"> F  </i>
   <i type="logical" name="LFXCEPS"> F  </i>
   <i type="logical" name="LFXHEG"> F  </i>
   <i type="int" name="NATURALO">     2</i>
   <i type="logical" name="L2ORDER"> F  </i>
   <i type="logical" name="LMP2LT"> F  </i>
   <i type="logical" name="LUSEW"> F  </i>
   <i name="ENCUTGW">     -2.00000000</i>
   <i name="ENCUTGWSOFT">     -2.00000000</i>
   <i name="ENCUTLF">     -1.00000000</i>
   <i type="int" name="LMAXMP2">    -1</i>
   <i name="SCISSOR">      0.00000000</i>
   <i type="int" name="NOMEGA">     0</i>
   <i type="int" name="NOMEGAR">     0</i>
   <i type="int" name="NBANDSGW">    -1</i>
   <i type="int" name="NBANDSO">    -1</i>
   <i type="int" name="NBANDSV">    -1</i>
   <i type="int" name="NELM">   100</i>
   <i type="int" name="NELMHF">     1</i>
   <i type="int" name="DIM">     3</i>
   <i type="int" name="ANTIRES">     0</i>
   <i name="OMEGAMAX">    -30.00000000</i>
   <i name="OMEGAMIN">    -30.00000000</i>
   <i name="OMEGATL">   -200.00000000</i>
   <i type="int" name="OMEGAGRID">   140</i>
   <i name="CSHIFT">     -0.10000000</i>
   <i type="logical" name="SELFENERGY"> F  </i>
   <i type="logical" name="LSPECTRAL"> F  </i>
   <i type="logical" name="LSPECTRALGW"> F  </i>
   <i type="logical" name="LSINGLES"> F  </i>
   <i type="logical" name="LFERMIGW"> F  </i>
   <i type="logical" name="ODDONLYGW"> F  </i>
   <i type="logical" name="EVENONLYGW"> F  </i>
   <i type="int" name="NKREDLFX">     1</i>
   <i type="int" name="NKREDLFY">     1</i>
   <i type="int" name="NKREDLFZ">     1</i>
   <i type="int" name="MAXMEM">  2800</i>
   <i type="int" name="TELESCOPE">     0</i>
   <i type="int" name="TAUPAR">     1</i>
   <i type="int" name="OMEGAPAR">    -1</i>
   <i name="LAMBDA">      1.00000000</i>
  </separator>
  <separator name="External order field" >
   <i name="OFIELD_KAPPA">      0.00000000</i>
   <v name="OFIELD_K">      0.00000000      0.00000000      0.00000000</v>
   <i name="OFIELD_Q6_NEAR">      0.00000000</i>
   <i name="OFIELD_Q6_FAR">      0.00000000</i>
   <i name="OFIELD_A">      0.00000000</i>
  </separator>
 </parameters>
 <atominfo>
  <atoms>       8 </atoms>
  <types>       1 </types>
  <array name="atoms" >
   <dimension dim="1">ion</dimension>
   <field type="string">element</field>
   <field type="int">atomtype</field>
   <set>
    <rc><c>Si</c><c>   1</c></rc>
    <rc><c>Si</c><c>   1</c></rc>
    <rc><c>Si</c><c>   1</c></rc>
    <rc><c>Si</c><c>   1</c></rc>
    <rc><c>Si</c><c>   1</c></rc>
    <rc><c>Si</c><c>   1</c></rc>
    <rc><c>Si</c><c>   1</c></rc>
    <rc><c>Si</c><c>   1</c></rc>
   </set>
  </array>
  <array name="atomtypes" >
   <dimension dim="1">type</dimension>
   <field type="int">atomspertype</field>
   <field type="string">element</field>
   <field>mass</field>
   <field>valence</field>
   <field type="string">pseudopotential</field>
   <set>
    <rc><c>   8</c><c>Si</c><c>     28.08500000</c><c>      4.00000000</c><c> PAW_PBE Si 05Jan2001                   </c></rc>
   </set>
  </array>
 </atominfo>
 <structure name="initialpos" >
  <crystal>
   <varray name="basis" >
    <v>       5.43000000       0.00000000       0.00000000 </v>
    <v>       0.00000000       5.43000000       0.00000000 </v>
    <v>       0.00000000       0.00000000       5.43000000 </v>
   </varray>
   <i name="volume">    160.10300700 </i>
   <varray name="rec_basis" >
    <v>       0.18416206       0.00000000       0.00000000 </v>
    <v>       0.00000000       0.18416206       0.00000000 </v>
    <v>       0.00000000       0.00000000       0.18416206 </v>
   </varray>
  </crystal>
  <varray name="positions" >
   <v>       0.00000000       0.00000000       0.00000000 </v>
   <v>       0.25000000       0.25000000       0.25000000 </v>
   <v>       0.50000000       0.50000000       0.00000000 </v>
   <v>       0.25000000       0.75000000       0.75000000 </v>
   <v>       0.50000000       0.00000000       0.50000000 </v>
   <v>       0.75000000       0.25000000       0.75000000 </v>
   <v>       0.00000000       0.50000000       0.50000000 </v>
   <v>       0.75000000       0.75000000       0.25000000 </v>
  </varray>
 </structure>
 <calculation>
  <scstep>
   <time name="dav">    9.88    9.89</time>
   <time name="total">    9.97   10.01</time>
   <energy>
    <i name="alphaZ">     13.45656811 </i>
    <i name="ewald">   -914.25413255 </i>
    <i name="hartreedc">    -60.93171831 </i>
    <i name="XCdc">    -71.67561511 </i>
    <i name="pawpsdc">    303.89715195 </i>
    <i name="pawaedc">   -164.02850753 </i>
    <i name="eentropy">     -0.00581395 </i>
    <i name="bandstr">     52.94857594 </i>
    <i name="atom">    824.36734571 </i>
    <i name="e_fr_energy">    -16.22614575 </i>
    <i name="e_wo_entrp">    -16.22033179 </i>
    <i name="e_0_energy">    -16.22323877 </i>
   </energy>
  </scstep>
  <scstep>
   <time name="dav">   16.54   16.56</time>
   <time name="total">   16.55   16.56</time>
   <energy>
    <i name="e_fr_energy">    -42.82460331 </i>
    <i name="e_wo_entrp">    -42.82460309 </i>
    <i name="e_0_energy">    -42.82460320 </i>
   </energy>
  </scstep>
  <scstep>
   <time name="dav">    7.85    7.87</time>
   <time name="total">    7.85    7.87</time>
   <energy>
    <i name="e_fr_energy">    -42.99245411 </i>
    <i name="e_wo_entrp">    -42.99245396 </i>
    <i name="e_0_energy">    -42.99245404 </i>
   </energy>
  </scstep>
  <scstep>
   <time name="dav">   12.15   12.16</time>
   <time name="total">   12.16   12.17</time>
   <energy>
    <i name="e_fr_energy">    -42.99274100 </i>
    <i name="e_wo_entrp">    -42.99274085 </i>
    <i name="e_0_energy">    -42.99274092 </i>
   </energy>
  </scstep>
  <scstep>
   <time name="dav">    6.50    6.52</time>
   <time name="total">    6.63    6.65</time>
   <energy>
    <i name="e_fr_energy">    -42.99274101 </i>
    <i name="e_wo_entrp">    -42.99274086 </i>
    <i name="e_0_energy">    -42.99274093 </i>
   </energy>
  </scstep>
  <scstep>
   <time name="diag">    1.30    1.30</time>
   <time name="diis">    3.25    3.25</time>
   <time name="orth">    0.15    0.15</time>
   <time name="total">    4.88    4.89</time>
   <energy>
    <i name="e_fr_energy">    -42.98626744 </i>
    <i name="e_wo_entrp">    -42.98626735 </i>
    <i name="e_0_energy">    -42.98626739 </i>
   </energy>
  </scstep>
  <scstep>
   <time name="diag">    1.23    1.23</time>
   <time name="diis">    1.90    1.90</time>
   <time name="orth">    0.10    0.11</time>
   <time name="total">    3.36    3.38</time>
   <energy>
    <i name="e_fr_energy">    -42.98319686 </i>
    <i name="e_wo_entrp">    -42.98319681 </i>
    <i name="e_0_energy">    -42.98319683 </i>
   </energy>
  </scstep>
  <scstep>
   <time name="diag">    1.12    1.13</time>
   <time name="diis">    1.89    1.89</time>
   <time name="orth">    0.11    0.11</time>
   <time name="total">    3.24    3.25</time>
   <energy>
    <i name="e_fr_energy">    -42.98321578 </i>
    <i name="e_wo_entrp">    -42.98321572 </i>
    <i name="e_0_energy">    -42.98321575 </i>
   </energy>
  </scstep>
  <scstep>
   <time name="diag">    1.12    1.12</time>
   <time name="diis">    1.85    1.85</time>
   <time name="orth">    0.11    0.11</time>
   <time name="total">    3.12    3.14</time>
   <energy>
    <i name="alphaZ">     13.45656811 </i>
    <i name="ewald">   -914.25413255 </i>
    <i name="hartreedc">    -59.53070176 </i>
    <i name="XCdc">    -71.69921056 </i>
    <i name="pawpsdc">    306.71238457 </i>
    <i name="pawaedc">   -166.91967819 </i>
    <i name="eentropy">     -0.00000006 </i>
    <i name="bandstr">     24.88420767 </i>
    <i name="atom">    824.36734571 </i>
    <i name="e_fr_energy">    -42.98321705 </i>
    <i name="e_wo_entrp">    -42.98321700 </i>
    <i name="e_0_energy">    -42.98321703 </i>
   </energy>
  </scstep>
  <structure>
   <crystal>
    <varray name="basis" >
     <v>       5.43000000       0.00000000       0.00000000 </v>
     <v>       0.00000000       5.43000000       0.00000000 </v>
     <v>       0.00000000       0.00000000       5.43000000 </v>
    </varray>
    <i name="volume">    160.10300700 </i>
    <varray name="rec_basis" >
     <v>       0.18416206       0.00000000       0.00000000 </v>
     <v>       0.00000000       0.18416206       0.00000000 </v>
     <v>       0.00000000       0.00000000       0.18416206 </v>
    </varray>
   </crystal>
   <varray name="positions" >
    <v>       0.00000000       0.00000000       0.00000000 </v>
    <v>       0.25000000       0.25000000       0.25000000 </v>
    <v>       0.50000000       0.50000000       0.00000000 </v>
    <v>       0.25000000       0.75000000       0.75000000 </v>
    <v>       0.50000000       0.00000000       0.50000000 </v>
    <v>       0.75000000       0.25000000       0.75000000 </v>
    <v>       0.00000000       0.50000000       0.50000000 </v>
    <v>       0.75000000       0.75000000       0.25000000 </v>
   </varray>
  </structure>
  <varray name="forces" >
   <v>       0.00000000       0.00000000      -0.00000000 </v>
   <v>       0.00000000       0.00000000       0.00000000 </v>
   <v>       0.00000000      -0.00000000      -0.00000000 </v>
   <v>      -0.00000000       0.00000000      -0.00000000 </v>
   <v>       0.00000000      -0.00000000       0.00000000 </v>
   <v>      -0.00000000       0.00000000      -0.00000000 </v>
   <v>       0.00000000      -0.00000000       0.00000000 </v>
   <v>      -0.00000000      -0.00000000       0.00000000 </v>
  </varray>
  <varray name="stress" >
   <v>      19.49086272      -0.00000000      -0.00000000 </v>
   <v>      -0.00000000      19.49086272      -0.00000000 </v>
   <v>       0.00000000      -0.00000000      19.49086272 </v>
  </varray>
  <energy>
   <i name="e_fr_energy">    -42.98321705 </i>
   <i name="e_wo_entrp">    -42.98321703 </i>
   <i name="e_0_energy">     -0.00000006 </i>
  </energy>
  <time name="totalsc">   79.10   81.77</time>
 </calculation>
 <calculation>
  <scstep>
   <time name="dav">    8.96    8.96</time>
   <time name="total">    9.13    9.14</time>
   <energy>
    <i name="alphaZ">     12.99334079 </i>
    <i name="ewald">   -903.64067357 </i>
    <i name="hartreedc">    -58.83894612 </i>
    <i name="XCdc">    -72.38653720 </i>
    <i name="pawpsdc">    306.69285072 </i>
    <i name="pawaedc">   -166.89979563 </i>
    <i name="eentropy">     -0.00000000 </i>
    <i name="bandstr">     14.69113422 </i>
    <i name="atom">    824.36734571 </i>
    <i name="e_fr_energy">    -43.02128108 </i>
    <i name="e_wo_entrp">    -43.02128108 </i>
    <i name="e_0_energy">    -43.02128108 </i>
   </energy>
  </scstep>
  <scstep>
   <time name="diag">    1.21    1.21</time>
   <time name="diis">    2.75    2.75</time>
   <time name="orth">    0.13    0.13</time>
   <time name="total">    4.25    4.26</time>
   <energy>
    <i name="e_fr_energy">    -43.00300794 </i>
    <i name="e_wo_entrp">    -43.00300794 </i>
    <i name="e_0_energy">    -43.00300794 </i>
   </energy>
  </scstep>
  <scstep>
   <time name="diag">    1.20    1.21</time>
   <time name="diis">    2.75    2.75</time>
   <time name="orth">    0.13    0.13</time>
   <time name="total">    4.25    4.26</time>
   <energy>
    <i name="e_fr_energy">    -42.99396856 </i>
    <i name="e_wo_entrp">    -42.99396855 </i>
    <i name="e_0_energy">    -42.99396855 </i>
   </energy>
  </scstep>
  <scstep>
   <time name="diag">    1.20    1.20</time>
   <time name="diis">    2.75    2.75</time>
   <time name="orth">    0.13    0.13</time>
   <time name="total">    4.24    4.27</time>
   <energy>
    <i name="e_fr_energy">    -42.99391724 </i>
    <i name="e_wo_entrp">    -42.99391724 </i>
    <i name="e_0_energy">    -42.99391724 </i>
   </energy>
  </scstep>
  <scstep>
   <time name="diag">    1.20    1.20</time>
   <time name="diis">    2.38    2.38</time>
   <time name="orth">    0.13    0.13</time>
   <time name="total">    3.76    3.77</time>
   <energy>
    <i name="alphaZ">     12.99334079 </i>
    <i name="ewald">   -903.64067357 </i>
    <i name="hartreedc">    -61.19194622 </i>
    <i name="XCdc">    -72.34105787 </i>
    <i name="pawpsdc">    301.95383197 </i>
    <i name="pawaedc">   -162.03278802 </i>
    <i name="eentropy">     -0.00000001 </i>
    <i name="bandstr">     16.89803266 </i>
    <i name="atom">    824.36734571 </i>
    <i name="e_fr_energy">    -42.99391457 </i>
    <i name="e_wo_entrp">    -42.99391456 </i>
    <i name="e_0_energy">    -42.99391456 </i>
   </energy>
  </scstep>
  <structure>
   <crystal>
    <varray name="basis" >
     <v>       5.49377655      -0.00000000      -0.00000000 </v>
     <v>      -0.00000000       5.49377655      -0.00000000 </v>
     <v>       0.00000000      -0.00000000       5.49377655 </v>
    </varray>
    <i name="volume">    165.81086050 </i>
    <varray name="rec_basis" >
     <v>       0.18202415       0.00000000      -0.00000000 </v>
     <v>       0.00000000       0.18202415       0.00000000 </v>
     <v>       0.00000000       0.00000000       0.18202415 </v>
    </varray>
   </crystal>
   <varray name="positions" >
    <v>       0.00000000       0.00000000      -0.00000000 </v>
    <v>       0.25000000       0.25000000       0.25000000 </v>
    <v>       0.50000000       0.50000000      -0.00000000 </v>
    <v>       0.25000000       0.75000000       0.75000000 </v>
    <v>       0.50000000      -0.00000000       0.50000000 </v>
    <v>       0.75000000       0.25000000       0.75000000 </v>
    <v>       0.00000000       0.50000000       0.50000000 </v>
    <v>       0.75000000       0.75000000       0.25000000 </v>
   </varray>
  </structure>
  <varray name="forces" >
   <v>      -0.00000000      -0.00000000      -0.00000000 </v>
   <v>       0.00000000       0.00000000       0.00000000 </v>
   <v>      -0.00000000      -0.00000000      -0.00000000 </v>
   <v>       0.00000000      -0.00000000       0.00000000 </v>
   <v>      -0.00000000       0.00000000      -0.00000000 </v>
   <v>       0.00000000      -0.00000000      -0.00000000 </v>
   <v>      -0.00000000      -0.00000000       0.00000000 </v>
   <v>       0.00000000       0.00000000       0.00000000 </v>
  </varray>
  <varray name="stress" >
   <v>     -12.43335122      -0.00000000      -0.00000000 </v>
   <v>       0.00000000     -12.43335122       0.00000000 </v>
   <v>       0.00000000       0.00000000     -12.43335122 </v>
  </varray>
  <energy>
   <i name="e_fr_energy">    -42.99391457 </i>
   <i name="e_wo_entrp">    -42.99391456 </i>
   <i name="e_0_energy">     -0.00000001 </i>
  </energy>
  <time name="totalsc">   37.78   38.28</time>
 </calculation>
 <calculation>
  <scstep>
   <time name="dav">    8.67    8.67</time>
   <time name="total">    8.83    8.85</time>
   <energy>
    <i name="alphaZ">     13.18059882 </i>
    <i name="ewald">   -907.96102812 </i>
    <i name="hartreedc">    -61.48631934 </i>
    <i name="XCdc">    -72.06287636 </i>
    <i name="pawpsdc">    301.96715297 </i>
    <i name="pawaedc">   -162.04631672 </i>
    <i name="eentropy">     -0.00000004 </i>
    <i name="bandstr">     21.03373343 </i>
    <i name="atom">    824.36734571 </i>
    <i name="e_fr_energy">    -43.00770965 </i>
    <i name="e_wo_entrp">    -43.00770961 </i>
    <i name="e_0_energy">    -43.00770963 </i>
   </energy>
  </scstep>
  <scstep>
   <time name="diag">    1.20    1.20</time>
   <time name="diis">    2.78    2.78</time>
   <time name="orth">    0.13    0.13</time>
   <time name="total">    4.27    4.29</time>
   <energy>
    <i name="e_fr_energy">    -43.00465282 </i>
    <i name="e_wo_entrp">    -43.00465279 </i>
    <i name="e_0_energy">    -43.00465280 </i>
   </energy>
  </scstep>
  <scstep>
   <time name="diag">    1.20    1.20</time>
   <time name="diis">    2.78    2.78</time>
   <time name="orth">    0.13    0.13</time>
   <time name="total">    4.27    4.29</time>
   <energy>
    <i name="e_fr_energy">    -43.00317886 </i>
    <i name="e_wo_entrp">    -43.00317884 </i>
    <i name="e_0_energy">    -43.00317885 </i>
   </energy>
  </scstep>
  <scstep>
   <time name="diag">    1.20    1.20</time>
   <time name="diis">    2.57    2.57</time>
   <time name="orth">    0.13    0.13</time>
   <time name="total">    4.07    4.08</time>
   <energy>
    <i name="e_fr_energy">    -43.00319090 </i>
    <i name="e_wo_entrp">    -43.00319088 </i>
    <i name="e_0_energy">    -43.00319089 </i>
   </energy>
  </scstep>
  <scstep>
   <time name="diag">   50.02   50.03</time>
   <time name="diis">    6.72    6.72</time>
   <time name="orth">    6.78    6.79</time>
   <time name="total">   64.22   64.26</time>
   <energy>
    <i name="alphaZ">     13.18059882 </i>
    <i name="ewald">   -907.96102812 </i>
    <i name="hartreedc">    -60.51442248 </i>
    <i name="XCdc">    -72.07902343 </i>
    <i name="pawpsdc">    303.89255842 </i>
    <i name="pawaedc">   -164.02365117 </i>
    <i name="eentropy">     -0.00000002 </i>
    <i name="bandstr">     20.13442854 </i>
    <i name="atom">    824.36734571 </i>
    <i name="e_fr_energy">    -43.00319373 </i>
    <i name="e_wo_entrp">    -43.00319371 </i>
    <i name="e_0_energy">    -43.00319372 </i>
   </energy>
  </scstep>
  <structure>
   <crystal>
    <varray name="basis" >
     <v>       5.46763549      -0.00000000      -0.00000000 </v>
     <v>      -0.00000000       5.46763549      -0.00000000 </v>
     <v>       0.00000000      -0.00000000       5.46763549 </v>
    </varray>
    <i name="volume">    163.45516981 </i>
    <varray name="rec_basis" >
     <v>       0.18289442       0.00000000      -0.00000000 </v>
     <v>       0.00000000       0.18289442       0.00000000 </v>
     <v>       0.00000000       0.00000000       0.18289442 </v>
    </varray>
   </crystal>
   <varray name="positions" >
    <v>       0.00000000       0.00000000      -0.00000000 </v>
    <v>       0.25000000       0.25000000       0.25000000 </v>
    <v>       0.50000000       0.50000000      -0.00000000 </v>
    <v>       0.25000000       0.75000000       0.75000000 </v>
    <v>       0.50000000      -0.00000000       0.50000000 </v>
    <v>       0.75000000       0.25000000       0.75000000 </v>
    <v>       0.00000000       0.50000000       0.50000000 </v>
    <v>       0.75000000       0.75000000       0.25000000 </v>
   </varray>
  </structure>
  <varray name="forces" >
   <v>       0.00000000      -0.00000000      -0.00000000 </v>
   <v>      -0.00000000       0.00000000      -0.00000000 </v>
   <v>       0.00000000      -0.00000000       0.00000000 </v>
   <v>      -0.00000000       0.00000000       0.00000000 </v>
   <v>       0.00000000      -0.00000000      -0.00000000 </v>
   <v>      -0.00000000       0.00000000      -0.00000000 </v>
   <v>       0.00000000      -0.00000000      -0.00000000 </v>
   <v>      -0.00000000       0.00000000       0.00000000 </v>
  </varray>
  <varray name="stress" >
   <v>       0.04997769      -0.00000000       0.00000000 </v>
   <v>       0.00000000       0.04997769      -0.00000000 </v>
   <v>      -0.00000000       0.00000000       0.04997769 </v>
  </varray>
  <energy>
   <i name="e_fr_energy">    -43.00319373 </i>
   <i name="e_wo_entrp">    -43.00319372 </i>
   <i name="e_0_energy">     -0.00000002 </i>
  </energy>
  <time name="totalsc">  118.21  118.72</time>
  <eigenvalues>
   <array>
    <dimension dim="1">band</dimension>
    <dimension dim="2">kpoint</dimension>
    <dimension dim="3">spin</dimension>
    <field>eigene</field>
    <field>occ</field>
    <set>
     <set comment="spin 1">
      <set comment="kpoint 1">
       <r>   -6.2019    1.0000 </r>
       <r>   -2.1243    1.0000 </r>
       <r>   -2.1243    1.0000 </r>
       <r>   -2.1243    1.0000 </r>
       <r>   -2.1243    1.0000 </r>
       <r>   -2.1243    1.0000 </r>
       <r>   -2.1243    1.0000 </r>
       <r>    2.8332    1.0000 </r>
       <r>    2.8332    1.0000 </r>
       <r>    2.8332    1.0000 </r>
       <r>    2.8332    1.0000 </r>
       <r>    2.8332    1.0000 </r>
       <r>    2.8332    1.0000 </r>
       <r>    5.6684    1.0000 </r>
       <r>    5.6684    1.0000 </r>
       <r>    5.6684    1.0000 </r>
       <r>    6.4399    0.0000 </r>
       <r>    6.4399    0.0000 </r>
       <r>    6.4399    0.0000 </r>
       <r>    6.4399    0.0000 </r>
       <r>    6.4399    0.0000 </r>
       <r>    6.4399    0.0000 </r>
       <r>    8.2383    0.0000 </r>
       <r>    8.2383    0.0000 </r>
       <r>    8.2383    0.0000 </r>
       <r>    8.7534    0.0000 </r>
       <r>   13.5130    0.0000 </r>
       <r>   13.6110    0.0000 </r>
       <r>   13.6110    0.0000 </r>
       <r>   15.6404    0.0000 </r>
       <r>   15.6404    0.0000 </r>
       <r>   15.6404    0.0000 </r>
      </set>
      <set comment="kpoint 2">
       <r>   -6.1663    1.0000 </r>
       <r>   -2.7932    1.0000 </r>
       <r>   -2.1132    1.0000 </r>
       <r>   -2.1132    1.0000 </r>
       <r>   -2.1132    1.0000 </r>
       <r>   -2.1132    1.0000 </r>
       <r>   -1.4113    1.0000 </r>
       <r>    2.7329    1.0000 </r>
       <r>    2.7329    1.0000 </r>
       <r>    2.7329    1.0000 </r>
       <r>    2.7329    1.0000 </r>
       <r>    2.8662    1.0000 </r>
       <r>    2.8662    1.0000 </r>
       <r>    5.4220    1.0000 </r>
       <r>    5.5229    1.0000 </r>
       <r>    5.5229    1.0000 </r>
       <r>    6.3349    0.0000 </r>
       <r>    6.6326    0.0000 </r>
       <r>    6.6326    0.0000 </r>
       <r>    6.6326    0.0000 </r>
       <r>    6.6326    0.0000 </r>
       <r>    6.6546    0.0000 </r>
       <r>    8.1517    0.0000 </r>
       <r>    8.4284    0.0000 </r>
       <r>    8.4284    0.0000 </r>
       <r>    8.9919    0.0000 </r>
       <r>   13.3187    0.0000 </r>
       <r>   13.6509    0.0000 </r>
       <r>   13.6707    0.0000 </r>
       <r>   15.1683    0.0000 </r>
       <r>   15.1708    0.0000 </r>
       <r>   15.3053    0.0000 </r>
      </set>
      <set comment="kpoint 3">
       <r>   -6.0596    1.0000 </r>
       <r>   -3.4152    1.0000 </r>
       <r>   -2.0817    1.0000 </r>
       <r>   -2.0817    1.0000 </r>
       <r>   -2.0817    1.0000 </r>
       <r>   -2.0817    1.0000 </r>
       <r>   -0.6647    1.0000 </r>
       <r>    2.4947    1.0000 </r>
       <r>    2.4947    1.0000 </r>
       <r>    2.4947    1.0000 </r>
       <r>    2.4947    1.0000 </r>
       <r>    2.9623    1.0000 </r>
       <r>    2.9623    1.0000 </r>
       <r>    4.8374    1.0000 </r>
       <r>    5.1783    1.0000 </r>
       <r>    5.1783    1.0000 </r>
       <r>    6.3072    0.0000 </r>
       <r>    6.9685    0.0000 </r>
       <r>    7.1494    0.0000 </r>
       <r>    7.1494    0.0000 </r>
       <r>    7.1494    0.0000 </r>
       <r>    7.1494    0.0000 </r>
       <r>    7.9221    0.0000 </r>
       <r>    8.9060    0.0000 </r>
       <r>    8.9060    0.0000 </r>
       <r>    9.5140    0.0000 </r>
       <r>   12.6989    0.0000 </r>
       <r>   13.7708    0.0000 </r>
       <r>   14.1122    0.0000 </r>
       <r>   14.3296    0.0000 </r>
       <r>   14.3453    0.0000 </r>
       <r>   14.3616    0.0000 </r>
      </set>
      <set comment="kpoint 4">
       <r>   -5.8824    1.0000 </r>
       <r>   -3.9826    1.0000 </r>
       <r>   -2.0391    1.0000 </r>
       <r>   -2.0391    1.0000 </r>
       <r>   -2.0391    1.0000 </r>
       <r>   -2.0391    1.0000 </r>
       <r>    0.1113    1.0000 </r>
       <r>    2.2255    1.0000 </r>
       <r>    2.2255    1.0000 </r>
       <r>    2.2255    1.0000 </r>
       <r>    2.2255    1.0000 </r>
       <r>    3.1232    1.0000 </r>
       <r>    3.1232    1.0000 </r>
       <r>    4.1117    1.0000 </r>
       <r>    4.7650    1.0000 </r>
       <r>    4.7650    1.0000 </r>
       <r>    6.3660    0.0000 </r>
       <r>    7.3852    0.0000 </r>
       <r>    7.6163    0.0000 </r>
       <r>    7.8826    0.0000 </r>
       <r>    7.8826    0.0000 </r>
       <r>    7.8826    0.0000 </r>
       <r>    7.8826    0.0000 </r>
       <r>    9.5431    0.0000 </r>
       <r>    9.5431    0.0000 </r>
       <r>    9.9305    0.0000 </r>
       <r>   12.2472    0.0000 </r>
       <r>   13.2082    0.0000 </r>
       <r>   13.2082    0.0000 </r>
       <r>   13.2082    0.0000 </r>
       <r>   13.2082    0.0000 </r>
       <r>   13.4821    0.0000 </r>
      </set>
      <set comment="kpoint 5">
       <r>   -5.6356    1.0000 </r>
       <r>   -4.4914    1.0000 </r>
       <r>   -1.9979    1.0000 </r>
       <r>   -1.9979    1.0000 </r>
       <r>   -1.9979    1.0000 </r>
       <r>   -1.9979    1.0000 </r>
       <r>    0.9068    1.0000 </r>
       <r>    2.0064    1.0000 </r>
       <r>    2.0064    1.0000 </r>
       <r>    2.0064    1.0000 </r>
       <r>    2.0064    1.0000 </r>
       <r>    3.3287    1.0000 </r>
       <r>    3.3460    1.0000 </r>
       <r>    3.3460    1.0000 </r>
       <r>    4.3463    1.0000 </r>
       <r>    4.3463    1.0000 </r>
       <r>    6.5040    0.0000 </r>
       <r>    7.2863    0.0000 </r>
       <r>    7.9025    0.0000 </r>
       <r>    8.7634    0.0000 </r>
       <r>    8.7634    0.0000 </r>
       <r>    8.7634    0.0000 </r>
       <r>    8.7634    0.0000 </r>
       <r>    9.7771    0.0000 </r>
       <r>   10.2592    0.0000 </r>
       <r>   10.2592    0.0000 </r>
       <r>   12.0438    0.0000 </r>
       <r>   12.0438    0.0000 </r>
       <r>   12.0438    0.0000 </r>
       <r>   12.0438    0.0000 </r>
       <r>   12.4249    0.0000 </r>
       <r>   12.6439    0.0000 </r>
      </set>
      <set comment="kpoint 6">
       <r>   -5.3202    1.0000 </r>
       <r>   -4.9379    1.0000 </r>
       <r>   -1.9730    1.0000 </r>
       <r>   -1.9730    1.0000 </r>
       <r>   -1.9730    1.0000 </r>
       <r>   -1.9730    1.0000 </r>
       <r>    1.7144    1.0000 </r>
       <r>    1.8849    1.0000 </r>
       <r>    1.8849    1.0000 </r>
       <r>    1.8849    1.0000 </r>
       <r>    1.8849    1.0000 </r>
       <r>    2.5245    1.0000 </r>
       <r>    3.6288    1.0000 </r>
       <r>    3.6288    1.0000 </r>
       <r>    3.9647    1.0000 </r>
       <r>    3.9647    1.0000 </r>
       <r>    6.7074    0.0000 </r>
       <r>    6.9752    0.0000 </r>
       <r>    8.5359    0.0000 </r>
       <r>    9.1935    0.0000 </r>
       <r>    9.7058    0.0000 </r>
       <r>    9.7058    0.0000 </r>
       <r>    9.7058    0.0000 </r>
       <r>    9.7058    0.0000 </r>
       <r>   10.9540    0.0000 </r>
       <r>   10.9540    0.0000 </r>
       <r>   10.9540    0.0000 </r>
       <r>   10.9540    0.0000 </r>
       <r>   11.0261    0.0000 </r>
       <r>   11.0261    0.0000 </r>
       <r>   11.8256    0.0000 </r>
       <r>   11.8256    0.0000 </r>
      </set>
      <set comment="kpoint 7">
       <r>   -6.1308    1.0000 </r>
       <r>   -2.7754    1.0000 </r>
       <r>   -2.7754    1.0000 </r>
       <r>   -2.1596    1.0000 </r>
       <r>   -2.0479    1.0000 </r>
       <r>   -1.4104    1.0000 </r>
       <r>   -1.4104    1.0000 </r>
       <r>    2.4353    1.0000 </r>
       <r>    2.7511    1.0000 </r>
       <r>    2.7511    1.0000 </r>
       <r>    2.7851    1.0000 </r>
       <r>    2.7851    1.0000 </r>
       <r>    2.8893    1.0000 </r>
       <r>    5.0241    1.0000 </r>
       <r>    5.3773    1.0000 </r>
       <r>    5.6347    1.0000 </r>
       <r>    6.5082    0.0000 </r>
       <r>    6.5311    0.0000 </r>
       <r>    6.5311    0.0000 </r>
       <r>    6.8346    0.0000 </r>
       <r>    6.8346    0.0000 </r>
       <r>    7.0808    0.0000 </r>
       <r>    8.3122    0.0000 </r>
       <r>    8.3756    0.0000 </r>
       <r>    8.4158    0.0000 </r>
       <r>    9.3223    0.0000 </r>
       <r>   13.2300    0.0000 </r>
       <r>   13.5200    0.0000 </r>
       <r>   13.8211    0.0000 </r>
       <r>   14.6133    0.0000 </r>
       <r>   14.6134    0.0000 </r>
       <r>   15.0543    0.0000 </r>
      </set>
      <set comment="kpoint 8">
       <r>   -6.0244    1.0000 </r>
       <r>   -3.3917    1.0000 </r>
       <r>   -2.7228    1.0000 </r>
       <r>   -2.1929    1.0000 </r>
       <r>   -1.9587    1.0000 </r>
       <r>   -1.4105    1.0000 </r>
       <r>   -0.6767    1.0000 </r>
       <r>    2.1083    1.0000 </r>
       <r>    2.4747    1.0000 </r>
       <r>    2.5951    1.0000 </r>
       <r>    2.8364    1.0000 </r>
       <r>    2.8475    1.0000 </r>
       <r>    2.9068    1.0000 </r>
       <r>    4.4411    1.0000 </r>
       <r>    5.0320    1.0000 </r>
       <r>    5.4298    1.0000 </r>
       <r>    6.5138    0.0000 </r>
       <r>    6.7668    0.0000 </r>
       <r>    7.0595    0.0000 </r>
       <r>    7.1375    0.0000 </r>
       <r>    7.3289    0.0000 </r>
       <r>    7.7579    0.0000 </r>
       <r>    8.1159    0.0000 </r>
       <r>    8.6693    0.0000 </r>
       <r>    8.8318    0.0000 </r>
       <r>    9.9089    0.0000 </r>
       <r>   12.7131    0.0000 </r>
       <r>   13.5650    0.0000 </r>
       <r>   13.5989    0.0000 </r>
       <r>   13.8153    0.0000 </r>
       <r>   14.2406    0.0000 </r>
       <r>   14.2418    0.0000 </r>
      </set>
      <set comment="kpoint 9">
       <r>   -5.8477    1.0000 </r>
       <r>   -3.9555    1.0000 </r>
       <r>   -2.6412    1.0000 </r>
       <r>   -2.2273    1.0000 </r>
       <r>   -1.8506    1.0000 </r>
       <r>   -1.4211    1.0000 </r>
       <r>    0.0782    1.0000 </r>
       <r>    1.8307    1.0000 </r>
       <r>    2.1557    1.0000 </r>
       <r>    2.3924    1.0000 </r>
       <r>    2.6667    1.0000 </r>
       <r>    2.9882    1.0000 </r>
       <r>    3.0985    1.0000 </r>
       <r>    3.7892    1.0000 </r>
       <r>    4.6148    1.0000 </r>
       <r>    5.0125    1.0000 </r>
       <r>    6.5766    0.0000 </r>
       <r>    7.3408    0.0000 </r>
       <r>    7.5412    0.0000 </r>
       <r>    7.8070    0.0000 </r>
       <r>    7.8177    0.0000 </r>
       <r>    8.0444    0.0000 </r>
       <r>    8.5819    0.0000 </r>
       <r>    9.1718    0.0000 </r>
       <r>    9.4769    0.0000 </r>
       <r>   10.3280    0.0000 </r>
       <r>   12.3278    0.0000 </r>
       <r>   12.4132    0.0000 </r>
       <r>   13.0026    0.0000 </r>
       <r>   13.1159    0.0000 </r>
       <r>   13.3387    0.0000 </r>
       <r>   13.4761    0.0000 </r>
      </set>
      <set comment="kpoint 10">
       <r>   -5.6016    1.0000 </r>
       <r>   -4.4616    1.0000 </r>
       <r>   -2.5415    1.0000 </r>
       <r>   -2.2756    1.0000 </r>
       <r>   -1.7320    1.0000 </r>
       <r>   -1.4546    1.0000 </r>
       <r>    0.8443    1.0000 </r>
       <r>    1.6533    1.0000 </r>
       <r>    1.8747    1.0000 </r>
       <r>    2.2525    1.0000 </r>
       <r>    2.4544    1.0000 </r>
       <r>    3.0911    1.0000 </r>
       <r>    3.2051    1.0000 </r>
       <r>    3.3598    1.0000 </r>
       <r>    4.2010    1.0000 </r>
       <r>    4.5362    1.0000 </r>
       <r>    6.7143    0.0000 </r>
       <r>    7.4940    0.0000 </r>
       <r>    8.0487    0.0000 </r>
       <r>    8.1324    0.0000 </r>
       <r>    8.6984    0.0000 </r>
       <r>    8.9093    0.0000 </r>
       <r>    9.5093    0.0000 </r>
       <r>    9.6340    0.0000 </r>
       <r>   10.2048    0.0000 </r>
       <r>   10.2807    0.0000 </r>
       <r>   11.2762    0.0000 </r>
       <r>   11.9729    0.0000 </r>
       <r>   12.1687    0.0000 </r>
       <r>   12.2114    0.0000 </r>
       <r>   12.6063    0.0000 </r>
       <r>   12.6260    0.0000 </r>
      </set>
      <set comment="kpoint 11">
       <r>   -5.2872    1.0000 </r>
       <r>   -4.9064    1.0000 </r>
       <r>   -2.4376    1.0000 </r>
       <r>   -2.3464    1.0000 </r>
       <r>   -1.6185    1.0000 </r>
       <r>   -1.5215    1.0000 </r>
       <r>    1.6010    1.0000 </r>
       <r>    1.6089    1.0000 </r>
       <r>    1.6797    1.0000 </r>
       <r>    2.2153    1.0000 </r>
       <r>    2.2882    1.0000 </r>
       <r>    2.3615    1.0000 </r>
       <r>    3.4827    1.0000 </r>
       <r>    3.6920    1.0000 </r>
       <r>    3.8173    1.0000 </r>
       <r>    4.0872    1.0000 </r>
       <r>    6.9197    0.0000 </r>
       <r>    7.1863    0.0000 </r>
       <r>    8.6574    0.0000 </r>
       <r>    9.0474    0.0000 </r>
       <r>    9.2901    0.0000 </r>
       <r>    9.6707    0.0000 </r>
       <r>    9.7317    0.0000 </r>
       <r>   10.3328    0.0000 </r>
       <r>   10.3451    0.0000 </r>
       <r>   10.7220    0.0000 </r>
       <r>   10.9835    0.0000 </r>
       <r>   11.0293    0.0000 </r>
       <r>   11.0485    0.0000 </r>
       <r>   11.4407    0.0000 </r>
       <r>   11.7366    0.0000 </r>
       <r>   11.7943    0.0000 </r>
      </set>
      <set comment="kpoint 12">
       <r>   -5.9189    1.0000 </r>
       <r>   -3.3232    1.0000 </r>
       <r>   -3.3232    1.0000 </r>
       <r>   -2.3043    1.0000 </r>
       <r>   -1.8152    1.0000 </r>
       <r>   -0.7196    1.0000 </r>
       <r>   -0.7196    1.0000 </r>
       <r>    1.7707    1.0000 </r>
       <r>    2.5329    1.0000 </r>
       <r>    2.5329    1.0000 </r>
       <r>    2.7798    1.0000 </r>
       <r>    2.7798    1.0000 </r>
       <r>    3.0587    1.0000 </r>
       <r>    3.8599    1.0000 </r>
       <r>    4.6813    1.0000 </r>
       <r>    5.5222    1.0000 </r>
       <r>    6.7058    0.0000 </r>
       <r>    7.0546    0.0000 </r>
       <r>    7.0546    0.0000 </r>
       <r>    7.6062    0.0000 </r>
       <r>    7.6062    0.0000 </r>
       <r>    8.5211    0.0000 </r>
       <r>    8.5335    0.0000 </r>
       <r>    8.5558    0.0000 </r>
       <r>    8.7054    0.0000 </r>
       <r>   10.5062    0.0000 </r>
       <r>   12.5781    0.0000 </r>
       <r>   12.7892    0.0000 </r>
       <r>   12.7892    0.0000 </r>
       <r>   13.4296    0.0000 </r>
       <r>   13.9569    0.0000 </r>
       <r>   14.3323    0.0000 </r>
      </set>
      <set comment="kpoint 13">
       <r>   -5.7437    1.0000 </r>
       <r>   -3.8756    1.0000 </r>
       <r>   -3.2136    1.0000 </r>
       <r>   -2.4279    1.0000 </r>
       <r>   -1.6497    1.0000 </r>
       <r>   -0.8006    1.0000 </r>
       <r>   -0.0239    1.0000 </r>
       <r>    1.5334    1.0000 </r>
       <r>    2.1770    1.0000 </r>
       <r>    2.6618    1.0000 </r>
       <r>    2.6647    1.0000 </r>
       <r>    3.0508    1.0000 </r>
       <r>    3.0708    1.0000 </r>
       <r>    3.2507    1.0000 </r>
       <r>    4.2647    1.0000 </r>
       <r>    5.2862    1.0000 </r>
       <r>    7.0201    0.0000 </r>
       <r>    7.1236    0.0000 </r>
       <r>    7.8091    0.0000 </r>
       <r>    7.9793    0.0000 </r>
       <r>    8.2948    0.0000 </r>
       <r>    8.3272    0.0000 </r>
       <r>    8.7917    0.0000 </r>
       <r>    9.3035    0.0000 </r>
       <r>    9.3934    0.0000 </r>
       <r>   10.8376    0.0000 </r>
       <r>   11.6670    0.0000 </r>
       <r>   12.0341    0.0000 </r>
       <r>   12.3750    0.0000 </r>
       <r>   13.0452    0.0000 </r>
       <r>   13.4484    0.0000 </r>
       <r>   13.5151    0.0000 </r>
      </set>
      <set comment="kpoint 14">
       <r>   -5.4998    1.0000 </r>
       <r>   -4.3731    1.0000 </r>
       <r>   -3.0702    1.0000 </r>
       <r>   -2.5723    1.0000 </r>
       <r>   -1.4668    1.0000 </r>
       <r>   -0.9242    1.0000 </r>
       <r>    0.6658    1.0000 </r>
       <r>    1.4227    1.0000 </r>
       <r>    1.8504    1.0000 </r>
       <r>    2.6140    1.0000 </r>
       <r>    2.6252    1.0000 </r>
       <r>    2.8682    1.0000 </r>
       <r>    2.9441    1.0000 </r>
       <r>    3.4076    1.0000 </r>
       <r>    3.8491    1.0000 </r>
       <r>    4.8414    1.0000 </r>
       <r>    7.2658    0.0000 </r>
       <r>    7.6481    0.0000 </r>
       <r>    8.0234    0.0000 </r>
       <r>    8.4598    0.0000 </r>
       <r>    8.7057    0.0000 </r>
       <r>    9.1394    0.0000 </r>
       <r>    9.2367    0.0000 </r>
       <r>   10.0567    0.0000 </r>
       <r>   10.3324    0.0000 </r>
       <r>   10.5053    0.0000 </r>
       <r>   10.5761    0.0000 </r>
       <r>   11.3258    0.0000 </r>
       <r>   11.9492    0.0000 </r>
       <r>   12.3553    0.0000 </r>
       <r>   12.5760    0.0000 </r>
       <r>   12.7333    0.0000 </r>
      </set>
      <set comment="kpoint 15">
       <r>   -5.1885    1.0000 </r>
       <r>   -4.8119    1.0000 </r>
       <r>   -2.9055    1.0000 </r>
       <r>   -2.7353    1.0000 </r>
       <r>   -1.2747    1.0000 </r>
       <r>   -1.0881    1.0000 </r>
       <r>    1.3383    1.0000 </r>
       <r>    1.4466    1.0000 </r>
       <r>    1.5970    1.0000 </r>
       <r>    1.9900    1.0000 </r>
       <r>    2.6578    1.0000 </r>
       <r>    2.7807    1.0000 </r>
       <r>    3.1386    1.0000 </r>
       <r>    3.4685    1.0000 </r>
       <r>    3.8447    1.0000 </r>
       <r>    4.3355    1.0000 </r>
       <r>    7.4737    0.0000 </r>
       <r>    7.7291    0.0000 </r>
       <r>    8.4787    0.0000 </r>
       <r>    9.0214    0.0000 </r>
       <r>    9.4061    0.0000 </r>
       <r>    9.5017    0.0000 </r>
       <r>    9.6858    0.0000 </r>
       <r>   10.1832    0.0000 </r>
       <r>   10.2162    0.0000 </r>
       <r>   10.6570    0.0000 </r>
       <r>   10.6625    0.0000 </r>
       <r>   10.8671    0.0000 </r>
       <r>   11.2316    0.0000 </r>
       <r>   11.5619    0.0000 </r>
       <r>   11.7137    0.0000 </r>
       <r>   12.5951    0.0000 </r>
      </set>
      <set comment="kpoint 16">
       <r>   -5.5710    1.0000 </r>
       <r>   -3.7451    1.0000 </r>
       <r>   -3.7451    1.0000 </r>
       <r>   -2.6476    1.0000 </r>
       <r>   -1.4306    1.0000 </r>
       <r>   -0.1905    1.0000 </r>
       <r>   -0.1905    1.0000 </r>
       <r>    1.3624    1.0000 </r>
       <r>    2.2831    1.0000 </r>
       <r>    2.2831    1.0000 </r>
       <r>    2.6805    1.0000 </r>
       <r>    3.0333    1.0000 </r>
       <r>    3.0333    1.0000 </r>
       <r>    3.3311    1.0000 </r>
       <r>    3.8442    1.0000 </r>
       <r>    5.3067    1.0000 </r>
       <r>    7.0177    0.0000 </r>
       <r>    7.8817    0.0000 </r>
       <r>    7.8817    0.0000 </r>
       <r>    8.6432    0.0000 </r>
       <r>    8.6432    0.0000 </r>
       <r>    8.6627    0.0000 </r>
       <r>    8.9016    0.0000 </r>
       <r>    9.1636    0.0000 </r>
       <r>   10.2998    0.0000 </r>
       <r>   10.9802    0.0000 </r>
       <r>   10.9802    0.0000 </r>
       <r>   11.2035    0.0000 </r>
       <r>   12.1139    0.0000 </r>
       <r>   12.8403    0.0000 </r>
       <r>   13.3989    0.0000 </r>
       <r>   13.4191    0.0000 </r>
      </set>
      <set comment="kpoint 17">
       <r>   -5.3310    1.0000 </r>
       <r>   -4.2284    1.0000 </r>
       <r>   -3.5706    1.0000 </r>
       <r>   -2.8843    1.0000 </r>
       <r>   -1.1910    1.0000 </r>
       <r>   -0.4117    1.0000 </r>
       <r>    0.4009    1.0000 </r>
       <r>    1.3269    1.0000 </r>
       <r>    1.9228    1.0000 </r>
       <r>    2.1085    1.0000 </r>
       <r>    2.4685    1.0000 </r>
       <r>    3.0781    1.0000 </r>
       <r>    3.3912    1.0000 </r>
       <r>    3.4283    1.0000 </r>
       <r>    3.4949    1.0000 </r>
       <r>    5.0281    1.0000 </r>
       <r>    7.3812    0.0000 </r>
       <r>    8.0213    0.0000 </r>
       <r>    8.7310    0.0000 </r>
       <r>    8.7759    0.0000 </r>
       <r>    8.8351    0.0000 </r>
       <r>    9.0828    0.0000 </r>
       <r>    9.4423    0.0000 </r>
       <r>    9.8480    0.0000 </r>
       <r>    9.9561    0.0000 </r>
       <r>   10.3416    0.0000 </r>
       <r>   10.9207    0.0000 </r>
       <r>   11.2209    0.0000 </r>
       <r>   11.9825    0.0000 </r>
       <r>   12.3532    0.0000 </r>
       <r>   12.4870    0.0000 </r>
       <r>   12.5964    0.0000 </r>
      </set>
      <set comment="kpoint 18">
       <r>   -5.0254    1.0000 </r>
       <r>   -4.6568    1.0000 </r>
       <r>   -3.3605    1.0000 </r>
       <r>   -3.1267    1.0000 </r>
       <r>   -0.9325    1.0000 </r>
       <r>   -0.6670    1.0000 </r>
       <r>    0.9764    1.0000 </r>
       <r>    1.4200    1.0000 </r>
       <r>    1.5426    1.0000 </r>
       <r>    1.6255    1.0000 </r>
       <r>    2.7263    1.0000 </r>
       <r>    3.0497    1.0000 </r>
       <r>    3.1821    1.0000 </r>
       <r>    3.3097    1.0000 </r>
       <r>    4.0207    1.0000 </r>
       <r>    4.5597    1.0000 </r>
       <r>    8.0531    0.0000 </r>
       <r>    8.2207    0.0000 </r>
       <r>    8.4609    0.0000 </r>
       <r>    8.9125    0.0000 </r>
       <r>    9.2111    0.0000 </r>
       <r>    9.5361    0.0000 </r>
       <r>    9.7556    0.0000 </r>
       <r>    9.8569    0.0000 </r>
       <r>   10.2948    0.0000 </r>
       <r>   10.4487    0.0000 </r>
       <r>   10.6921    0.0000 </r>
       <r>   10.7820    0.0000 </r>
       <r>   11.4943    0.0000 </r>
       <r>   11.5772    0.0000 </r>
       <r>   12.4023    0.0000 </r>
       <r>   13.0107    0.0000 </r>
      </set>
      <set comment="kpoint 19">
       <r>   -5.0970    1.0000 </r>
       <r>   -4.0310    1.0000 </r>
       <r>   -4.0310    1.0000 </r>
       <r>   -3.2012    1.0000 </r>
       <r>   -0.8953    1.0000 </r>
       <r>    0.0870    1.0000 </r>
       <r>    0.0870    1.0000 </r>
       <r>    1.3596    1.0000 </r>
       <r>    1.5869    1.0000 </r>
       <r>    2.0849    1.0000 </r>
       <r>    2.0849    1.0000 </r>
       <r>    3.0140    1.0000 </r>
       <r>    3.6147    1.0000 </r>
       <r>    3.6147    1.0000 </r>
       <r>    3.6913    1.0000 </r>
       <r>    4.9767    1.0000 </r>
       <r>    7.4285    0.0000 </r>
       <r>    8.6259    0.0000 </r>
       <r>    8.9100    0.0000 </r>
       <r>    8.9100    0.0000 </r>
       <r>    9.3860    0.0000 </r>
       <r>    9.3860    0.0000 </r>
       <r>    9.4224    0.0000 </r>
       <r>    9.7371    0.0000 </r>
       <r>    9.8840    0.0000 </r>
       <r>    9.8840    0.0000 </r>
       <r>   11.3038    0.0000 </r>
       <r>   11.8003    0.0000 </r>
       <r>   11.9632    0.0000 </r>
       <r>   11.9695    0.0000 </r>
       <r>   12.3918    0.0000 </r>
       <r>   12.3918    0.0000 </r>
      </set>
      <set comment="kpoint 20">
       <r>   -4.7998    1.0000 </r>
       <r>   -4.4431    1.0000 </r>
       <r>   -3.7875    1.0000 </r>
       <r>   -3.5067    1.0000 </r>
       <r>   -0.5795    1.0000 </r>
       <r>   -0.2483    1.0000 </r>
       <r>    0.5804    1.0000 </r>
       <r>    1.0791    1.0000 </r>
       <r>    1.5088    1.0000 </r>
       <r>    1.7565    1.0000 </r>
       <r>    2.3265    1.0000 </r>
       <r>    2.6401    1.0000 </r>
       <r>    3.7341    1.0000 </r>
       <r>    3.7894    1.0000 </r>
       <r>    4.1719    1.0000 </r>
       <r>    4.6642    1.0000 </r>
       <r>    7.8364    0.0000 </r>
       <r>    8.5211    0.0000 </r>
       <r>    8.6820    0.0000 </r>
       <r>    8.9577    0.0000 </r>
       <r>    9.0908    0.0000 </r>
       <r>    9.3080    0.0000 </r>
       <r>    9.8767    0.0000 </r>
       <r>   10.3697    0.0000 </r>
       <r>   10.4962    0.0000 </r>
       <r>   10.8019    0.0000 </r>
       <r>   10.8905    0.0000 </r>
       <r>   10.9191    0.0000 </r>
       <r>   11.4233    0.0000 </r>
       <r>   11.8117    0.0000 </r>
       <r>   12.1466    0.0000 </r>
       <r>   12.2705    0.0000 </r>
      </set>
      <set comment="kpoint 21">
       <r>   -4.5150    1.0000 </r>
       <r>   -4.1755    1.0000 </r>
       <r>   -4.1755    1.0000 </r>
       <r>   -3.8605    1.0000 </r>
       <r>   -0.2100    1.0000 </r>
       <r>    0.1788    1.0000 </r>
       <r>    0.1788    1.0000 </r>
       <r>    0.6208    1.0000 </r>
       <r>    1.6991    1.0000 </r>
       <r>    1.9769    1.0000 </r>
       <r>    1.9769    1.0000 </r>
       <r>    2.2756    1.0000 </r>
       <r>    4.1173    1.0000 </r>
       <r>    4.2313    1.0000 </r>
       <r>    4.2313    1.0000 </r>
       <r>    4.5646    1.0000 </r>
       <r>    7.9078    0.0000 </r>
       <r>    8.3058    0.0000 </r>
       <r>    8.3058    0.0000 </r>
       <r>    8.3448    0.0000 </r>
       <r>   10.0319    0.0000 </r>
       <r>   10.0319    0.0000 </r>
       <r>   10.0808    0.0000 </r>
       <r>   10.4383    0.0000 </r>
       <r>   10.8759    0.0000 </r>
       <r>   11.2273    0.0000 </r>
       <r>   11.2273    0.0000 </r>
       <r>   11.2649    0.0000 </r>
       <r>   11.2702    0.0000 </r>
       <r>   11.2702    0.0000 </r>
       <r>   11.5049    0.0000 </r>
       <r>   11.9932    0.0000 </r>
      </set>
      <set comment="kpoint 22">
       <r>   -6.0954    1.0000 </r>
       <r>   -2.7604    1.0000 </r>
       <r>   -2.7604    1.0000 </r>
       <r>   -2.7604    1.0000 </r>
       <r>   -1.4097    1.0000 </r>
       <r>   -1.4097    1.0000 </r>
       <r>   -1.4097    1.0000 </r>
       <r>    2.4771    1.0000 </r>
       <r>    2.4771    1.0000 </r>
       <r>    2.4771    1.0000 </r>
       <r>    2.9221    1.0000 </r>
       <r>    2.9221    1.0000 </r>
       <r>    2.9221    1.0000 </r>
       <r>    4.6703    1.0000 </r>
       <r>    5.5011    1.0000 </r>
       <r>    5.5011    1.0000 </r>
       <r>    6.5250    0.0000 </r>
       <r>    6.5250    0.0000 </r>
       <r>    6.5250    0.0000 </r>
       <r>    7.1658    0.0000 </r>
       <r>    7.1658    0.0000 </r>
       <r>    7.1658    0.0000 </r>
       <r>    8.2189    0.0000 </r>
       <r>    8.4837    0.0000 </r>
       <r>    8.4837    0.0000 </r>
       <r>    9.5975    0.0000 </r>
       <r>   13.2836    0.0000 </r>
       <r>   13.2836    0.0000 </r>
       <r>   13.9615    0.0000 </r>
       <r>   14.5786    0.0000 </r>
       <r>   14.5821    0.0000 </r>
       <r>   14.6069    0.0000 </r>
      </set>
      <set comment="kpoint 23">
       <r>   -5.9893    1.0000 </r>
       <r>   -3.3699    1.0000 </r>
       <r>   -2.7175    1.0000 </r>
       <r>   -2.7175    1.0000 </r>
       <r>   -1.4087    1.0000 </r>
       <r>   -1.4087    1.0000 </r>
       <r>   -0.6931    1.0000 </r>
       <r>    2.1566    1.0000 </r>
       <r>    2.1566    1.0000 </r>
       <r>    2.6005    1.0000 </r>
       <r>    2.8839    1.0000 </r>
       <r>    2.8839    1.0000 </r>
       <r>    3.0185    1.0000 </r>
       <r>    4.1019    1.0000 </r>
       <r>    5.1780    1.0000 </r>
       <r>    5.3702    1.0000 </r>
       <r>    6.5745    0.0000 </r>
       <r>    6.7956    0.0000 </r>
       <r>    6.7956    0.0000 </r>
       <r>    7.3954    0.0000 </r>
       <r>    7.8191    0.0000 </r>
       <r>    7.8191    0.0000 </r>
       <r>    8.1933    0.0000 </r>
       <r>    8.4925    0.0000 </r>
       <r>    8.9195    0.0000 </r>
       <r>   10.1640    0.0000 </r>
       <r>   12.7483    0.0000 </r>
       <r>   13.4442    0.0000 </r>
       <r>   13.5710    0.0000 </r>
       <r>   13.5710    0.0000 </r>
       <r>   13.7909    0.0000 </r>
       <r>   13.8262    0.0000 </r>
      </set>
      <set comment="kpoint 24">
       <r>   -5.8131    1.0000 </r>
       <r>   -3.9292    1.0000 </r>
       <r>   -2.6567    1.0000 </r>
       <r>   -2.6567    1.0000 </r>
       <r>   -1.4127    1.0000 </r>
       <r>   -1.4127    1.0000 </r>
       <r>    0.0380    1.0000 </r>
       <r>    1.8825    1.0000 </r>
       <r>    1.8825    1.0000 </r>
       <r>    2.7179    1.0000 </r>
       <r>    2.7179    1.0000 </r>
       <r>    2.8075    1.0000 </r>
       <r>    3.1773    1.0000 </r>
       <r>    3.4865    1.0000 </r>
       <r>    4.7800    1.0000 </r>
       <r>    4.9569    1.0000 </r>
       <r>    6.6811    0.0000 </r>
       <r>    7.3721    0.0000 </r>
       <r>    7.3721    0.0000 </r>
       <r>    7.7530    0.0000 </r>
       <r>    7.9611    0.0000 </r>
       <r>    8.6322    0.0000 </r>
       <r>    8.6322    0.0000 </r>
       <r>    8.9190    0.0000 </r>
       <r>    9.5033    0.0000 </r>
       <r>   10.5544    0.0000 </r>
       <r>   12.4152    0.0000 </r>
       <r>   12.4243    0.0000 </r>
       <r>   12.4243    0.0000 </r>
       <r>   12.9474    0.0000 </r>
       <r>   13.0562    0.0000 </r>
       <r>   13.7115    0.0000 </r>
      </set>
      <set comment="kpoint 25">
       <r>   -5.5677    1.0000 </r>
       <r>   -4.4322    1.0000 </r>
       <r>   -2.5952    1.0000 </r>
       <r>   -2.5952    1.0000 </r>
       <r>   -1.4231    1.0000 </r>
       <r>   -1.4231    1.0000 </r>
       <r>    0.7698    1.0000 </r>
       <r>    1.6953    1.0000 </r>
       <r>    1.6953    1.0000 </r>
       <r>    2.5352    1.0000 </r>
       <r>    2.5352    1.0000 </r>
       <r>    2.8459    1.0000 </r>
       <r>    3.0993    1.0000 </r>
       <r>    3.3980    1.0000 </r>
       <r>    4.3796    1.0000 </r>
       <r>    4.4412    1.0000 </r>
       <r>    6.8467    0.0000 </r>
       <r>    7.6501    0.0000 </r>
       <r>    8.1633    0.0000 </r>
       <r>    8.1633    0.0000 </r>
       <r>    8.2316    0.0000 </r>
       <r>    9.4724    0.0000 </r>
       <r>    9.5514    0.0000 </r>
       <r>    9.5514    0.0000 </r>
       <r>   10.1571    0.0000 </r>
       <r>   10.3648    0.0000 </r>
       <r>   11.2991    0.0000 </r>
       <r>   11.2991    0.0000 </r>
       <r>   12.1054    0.0000 </r>
       <r>   12.3085    0.0000 </r>
       <r>   12.7830    0.0000 </r>
       <r>   12.8949    0.0000 </r>
      </set>
      <set comment="kpoint 26">
       <r>   -5.2544    1.0000 </r>
       <r>   -4.8751    1.0000 </r>
       <r>   -2.5549    1.0000 </r>
       <r>   -2.5549    1.0000 </r>
       <r>   -1.4335    1.0000 </r>
       <r>   -1.4335    1.0000 </r>
       <r>    1.4873    1.0000 </r>
       <r>    1.6043    1.0000 </r>
       <r>    1.6043    1.0000 </r>
       <r>    2.1798    1.0000 </r>
       <r>    2.4205    1.0000 </r>
       <r>    2.4205    1.0000 </r>
       <r>    3.4756    1.0000 </r>
       <r>    3.6746    1.0000 </r>
       <r>    3.9299    1.0000 </r>
       <r>    4.0044    1.0000 </r>
       <r>    7.0688    0.0000 </r>
       <r>    7.3418    0.0000 </r>
       <r>    8.8091    0.0000 </r>
       <r>    9.0782    0.0000 </r>
       <r>    9.0782    0.0000 </r>
       <r>    9.3963    0.0000 </r>
       <r>   10.0678    0.0000 </r>
       <r>   10.0678    0.0000 </r>
       <r>   10.5559    0.0000 </r>
       <r>   10.6966    0.0000 </r>
       <r>   10.6966    0.0000 </r>
       <r>   10.8508    0.0000 </r>
       <r>   11.2921    0.0000 </r>
       <r>   11.5683    0.0000 </r>
       <r>   11.7823    0.0000 </r>
       <r>   11.7823    0.0000 </r>
      </set>
      <set comment="kpoint 27">
       <r>   -5.8841    1.0000 </r>
       <r>   -3.3062    1.0000 </r>
       <r>   -3.3062    1.0000 </r>
       <r>   -2.7079    1.0000 </r>
       <r>   -1.4014    1.0000 </r>
       <r>   -0.7451    1.0000 </r>
       <r>   -0.7451    1.0000 </r>
       <r>    1.8384    1.0000 </r>
       <r>    2.3024    1.0000 </r>
       <r>    2.3024    1.0000 </r>
       <r>    2.9943    1.0000 </r>
       <r>    2.9943    1.0000 </r>
       <r>    3.0894    1.0000 </r>
       <r>    3.5433    1.0000 </r>
       <r>    4.9235    1.0000 </r>
       <r>    5.4205    1.0000 </r>
       <r>    6.7433    0.0000 </r>
       <r>    6.8851    0.0000 </r>
       <r>    6.8851    0.0000 </r>
       <r>    7.9990    0.0000 </r>
       <r>    7.9990    0.0000 </r>
       <r>    8.1858    0.0000 </r>
       <r>    8.5671    0.0000 </r>
       <r>    8.6512    0.0000 </r>
       <r>    8.9411    0.0000 </r>
       <r>   10.7060    0.0000 </r>
       <r>   12.6697    0.0000 </r>
       <r>   12.7921    0.0000 </r>
       <r>   12.7921    0.0000 </r>
       <r>   13.2913    0.0000 </r>
       <r>   13.5381    0.0000 </r>
       <r>   13.6417    0.0000 </r>
      </set>
      <set comment="kpoint 28">
       <r>   -5.7095    1.0000 </r>
       <r>   -3.8520    1.0000 </r>
       <r>   -3.2061    1.0000 </r>
       <r>   -2.7104    1.0000 </r>
       <r>   -1.3798    1.0000 </r>
       <r>   -0.8365    1.0000 </r>
       <r>   -0.0825    1.0000 </r>
       <r>    1.6201    1.0000 </r>
       <r>    2.0344    1.0000 </r>
       <r>    2.5422    1.0000 </r>
       <r>    2.8755    1.0000 </r>
       <r>    2.9562    1.0000 </r>
       <r>    3.1049    1.0000 </r>
       <r>    3.1818    1.0000 </r>
       <r>    4.5205    1.0000 </r>
       <r>    5.1962    1.0000 </r>
       <r>    7.0293    0.0000 </r>
       <r>    7.0579    0.0000 </r>
       <r>    7.4705    0.0000 </r>
       <r>    8.2432    0.0000 </r>
       <r>    8.3002    0.0000 </r>
       <r>    8.7017    0.0000 </r>
       <r>    8.7895    0.0000 </r>
       <r>    9.3896    0.0000 </r>
       <r>    9.4337    0.0000 </r>
       <r>   11.0258    0.0000 </r>
       <r>   11.6819    0.0000 </r>
       <r>   12.0335    0.0000 </r>
       <r>   12.4673    0.0000 </r>
       <r>   12.4865    0.0000 </r>
       <r>   12.9869    0.0000 </r>
       <r>   13.5813    0.0000 </r>
      </set>
      <set comment="kpoint 29">
       <r>   -5.4664    1.0000 </r>
       <r>   -4.3457    1.0000 </r>
       <r>   -3.0804    1.0000 </r>
       <r>   -2.7467    1.0000 </r>
       <r>   -1.3272    1.0000 </r>
       <r>   -0.9628    1.0000 </r>
       <r>    0.5626    1.0000 </r>
       <r>    1.5223    1.0000 </r>
       <r>    1.8161    1.0000 </r>
       <r>    2.3693    1.0000 </r>
       <r>    2.7752    1.0000 </r>
       <r>    2.8669    1.0000 </r>
       <r>    2.9908    1.0000 </r>
       <r>    3.4518    1.0000 </r>
       <r>    4.0919    1.0000 </r>
       <r>    4.7589    1.0000 </r>
       <r>    7.2306    0.0000 </r>
       <r>    7.6859    0.0000 </r>
       <r>    8.0469    0.0000 </r>
       <r>    8.2607    0.0000 </r>
       <r>    8.7160    0.0000 </r>
       <r>    9.1189    0.0000 </r>
       <r>    9.6848    0.0000 </r>
       <r>   10.0074    0.0000 </r>
       <r>   10.3671    0.0000 </r>
       <r>   10.6076    0.0000 </r>
       <r>   10.6624    0.0000 </r>
       <r>   11.3060    0.0000 </r>
       <r>   11.3775    0.0000 </r>
       <r>   12.1900    0.0000 </r>
       <r>   12.9422    0.0000 </r>
       <r>   12.9682    0.0000 </r>
      </set>
      <set comment="kpoint 30">
       <r>   -5.1565    1.0000 </r>
       <r>   -4.7819    1.0000 </r>
       <r>   -2.9473    1.0000 </r>
       <r>   -2.8284    1.0000 </r>
       <r>   -1.2338    1.0000 </r>
       <r>   -1.1047    1.0000 </r>
       <r>    1.1828    1.0000 </r>
       <r>    1.5390    1.0000 </r>
       <r>    1.6461    1.0000 </r>
       <r>    1.7813    1.0000 </r>
       <r>    2.7636    1.0000 </r>
       <r>    2.8501    1.0000 </r>
       <r>    3.2519    1.0000 </r>
       <r>    3.6656    1.0000 </r>
       <r>    3.8155    1.0000 </r>
       <r>    4.2655    1.0000 </r>
       <r>    7.4770    0.0000 </r>
       <r>    7.7586    0.0000 </r>
       <r>    8.5137    0.0000 </r>
       <r>    9.1561    0.0000 </r>
       <r>    9.2296    0.0000 </r>
       <r>    9.4963    0.0000 </r>
       <r>    9.5689    0.0000 </r>
       <r>   10.1887    0.0000 </r>
       <r>   10.2009    0.0000 </r>
       <r>   10.6129    0.0000 </r>
       <r>   10.6966    0.0000 </r>
       <r>   10.7637    0.0000 </r>
       <r>   11.4216    0.0000 </r>
       <r>   11.4531    0.0000 </r>
       <r>   11.9259    0.0000 </r>
       <r>   12.6283    0.0000 </r>
      </set>
      <set comment="kpoint 31">
       <r>   -5.5376    1.0000 </r>
       <r>   -3.7272    1.0000 </r>
       <r>   -3.7272    1.0000 </r>
       <r>   -2.8150    1.0000 </r>
       <r>   -1.3034    1.0000 </r>
       <r>   -0.2717    1.0000 </r>
       <r>   -0.2717    1.0000 </r>
       <r>    1.4813    1.0000 </r>
       <r>    2.2699    1.0000 </r>
       <r>    2.2699    1.0000 </r>
       <r>    2.3983    1.0000 </r>
       <r>    3.1476    1.0000 </r>
       <r>    3.1476    1.0000 </r>
       <r>    3.3594    1.0000 </r>
       <r>    4.1178    1.0000 </r>
       <r>    5.2437    1.0000 </r>
       <r>    7.0575    0.0000 </r>
       <r>    7.6273    0.0000 </r>
       <r>    7.6273    0.0000 </r>
       <r>    8.3330    0.0000 </r>
       <r>    8.9393    0.0000 </r>
       <r>    9.0548    0.0000 </r>
       <r>    9.0548    0.0000 </r>
       <r>    9.3024    0.0000 </r>
       <r>   10.3392    0.0000 </r>
       <r>   10.9857    0.0000 </r>
       <r>   10.9857    0.0000 </r>
       <r>   11.4396    0.0000 </r>
       <r>   12.2555    0.0000 </r>
       <r>   12.4730    0.0000 </r>
       <r>   12.5895    0.0000 </r>
       <r>   12.9585    0.0000 </r>
      </set>
      <set comment="kpoint 32">
       <r>   -5.2988    1.0000 </r>
       <r>   -4.2043    1.0000 </r>
       <r>   -3.5622    1.0000 </r>
       <r>   -2.9717    1.0000 </r>
       <r>   -1.1720    1.0000 </r>
       <r>   -0.5066    1.0000 </r>
       <r>    0.2700    1.0000 </r>
       <r>    1.4708    1.0000 </r>
       <r>    1.8501    1.0000 </r>
       <r>    2.0029    1.0000 </r>
       <r>    2.5680    1.0000 </r>
       <r>    3.1584    1.0000 </r>
       <r>    3.4219    1.0000 </r>
       <r>    3.5333    1.0000 </r>
       <r>    3.6957    1.0000 </r>
       <r>    4.9814    1.0000 </r>
       <r>    7.4201    0.0000 </r>
       <r>    7.8364    0.0000 </r>
       <r>    8.4136    0.0000 </r>
       <r>    8.4509    0.0000 </r>
       <r>    8.9356    0.0000 </r>
       <r>    9.4220    0.0000 </r>
       <r>    9.7823    0.0000 </r>
       <r>    9.8157    0.0000 </r>
       <r>   10.0785    0.0000 </r>
       <r>   10.3436    0.0000 </r>
       <r>   11.1510    0.0000 </r>
       <r>   11.1743    0.0000 </r>
       <r>   11.5738    0.0000 </r>
       <r>   12.1077    0.0000 </r>
       <r>   12.5640    0.0000 </r>
       <r>   12.5734    0.0000 </r>
      </set>
      <set comment="kpoint 33">
       <r>   -4.9949    1.0000 </r>
       <r>   -4.6287    1.0000 </r>
       <r>   -3.3689    1.0000 </r>
       <r>   -3.1643    1.0000 </r>
       <r>   -0.9835    1.0000 </r>
       <r>   -0.7539    1.0000 </r>
       <r>    0.7957    1.0000 </r>
       <r>    1.3174    1.0000 </r>
       <r>    1.5724    1.0000 </r>
       <r>    1.7602    1.0000 </r>
       <r>    2.9104    1.0000 </r>
       <r>    3.2364    1.0000 </r>
       <r>    3.2879    1.0000 </r>
       <r>    3.3490    1.0000 </r>
       <r>    4.0125    1.0000 </r>
       <r>    4.5247    1.0000 </r>
       <r>    8.0844    0.0000 </r>
       <r>    8.0871    0.0000 </r>
       <r>    8.3332    0.0000 </r>
       <r>    8.9418    0.0000 </r>
       <r>    9.2108    0.0000 </r>
       <r>    9.3278    0.0000 </r>
       <r>    9.6893    0.0000 </r>
       <r>    9.9719    0.0000 </r>
       <r>   10.3228    0.0000 </r>
       <r>   10.3942    0.0000 </r>
       <r>   10.6270    0.0000 </r>
       <r>   10.9617    0.0000 </r>
       <r>   11.2888    0.0000 </r>
       <r>   11.9802    0.0000 </r>
       <r>   12.4315    0.0000 </r>
       <r>   12.8333    0.0000 </r>
      </set>
      <set comment="kpoint 34">
       <r>   -5.0663    1.0000 </r>
       <r>   -4.0129    1.0000 </r>
       <r>   -4.0129    1.0000 </r>
       <r>   -3.2376    1.0000 </r>
       <r>   -0.9584    1.0000 </r>
       <r>   -0.0603    1.0000 </r>
       <r>   -0.0603    1.0000 </r>
       <r>    1.3407    1.0000 </r>
       <r>    1.5380    1.0000 </r>
       <r>    2.2485    1.0000 </r>
       <r>    2.2485    1.0000 </r>
       <r>    3.2861    1.0000 </r>
       <r>    3.6462    1.0000 </r>
       <r>    3.6462    1.0000 </r>
       <r>    3.7155    1.0000 </r>
       <r>    4.9534    1.0000 </r>
       <r>    7.4677    0.0000 </r>
       <r>    8.4661    0.0000 </r>
       <r>    8.6102    0.0000 </r>
       <r>    8.6102    0.0000 </r>
       <r>    9.3617    0.0000 </r>
       <r>    9.3945    0.0000 </r>
       <r>    9.3945    0.0000 </r>
       <r>    9.6026    0.0000 </r>
       <r>   10.2818    0.0000 </r>
       <r>   10.2818    0.0000 </r>
       <r>   11.4924    0.0000 </r>
       <r>   11.5203    0.0000 </r>
       <r>   11.6444    0.0000 </r>
       <r>   12.0057    0.0000 </r>
       <r>   12.0057    0.0000 </r>
       <r>   12.1575    0.0000 </r>
      </set>
      <set comment="kpoint 35">
       <r>   -4.7716    1.0000 </r>
       <r>   -4.4186    1.0000 </r>
       <r>   -3.7791    1.0000 </r>
       <r>   -3.5150    1.0000 </r>
       <r>   -0.6947    1.0000 </r>
       <r>   -0.3899    1.0000 </r>
       <r>    0.3887    1.0000 </r>
       <r>    0.8536    1.0000 </r>
       <r>    1.7048    1.0000 </r>
       <r>    1.9506    1.0000 </r>
       <r>    2.5486    1.0000 </r>
       <r>    2.8976    1.0000 </r>
       <r>    3.7602    1.0000 </r>
       <r>    3.8136    1.0000 </r>
       <r>    4.1766    1.0000 </r>
       <r>    4.6528    1.0000 </r>
       <r>    7.8600    0.0000 </r>
       <r>    8.5362    0.0000 </r>
       <r>    8.5786    0.0000 </r>
       <r>    8.7663    0.0000 </r>
       <r>    9.0503    0.0000 </r>
       <r>    9.1995    0.0000 </r>
       <r>    9.5107    0.0000 </r>
       <r>   10.2377    0.0000 </r>
       <r>   10.4853    0.0000 </r>
       <r>   10.6671    0.0000 </r>
       <r>   11.1645    0.0000 </r>
       <r>   11.2245    0.0000 </r>
       <r>   11.2684    0.0000 </r>
       <r>   11.6442    0.0000 </r>
       <r>   11.9031    0.0000 </r>
       <r>   12.3741    0.0000 </r>
[...]
        <r>  0.0261  0.0080  0.0080  0.0080  0.0000  0.0000  0.0000  0.0000  0.0000 </r>
        <r>  0.0261  0.0080  0.0080  0.0080  0.0000  0.0000  0.0000  0.0000  0.0000 </r>
        <r>  0.0261  0.0080  0.0080  0.0080  0.0000  0.0000  0.0000  0.0000  0.0000 </r>
        <r>  0.0261  0.0080  0.0080  0.0080  0.0000  0.0000  0.0000  0.0000  0.0000 </r>
        <r>  0.0261  0.0080  0.0080  0.0080  0.0000  0.0000  0.0000  0.0000  0.0000 </r>
        <r>  0.0261  0.0080  0.0080  0.0080  0.0000  0.0000  0.0000  0.0000  0.0000 </r>
       </set>
       <set comment="band 9">
        <r>  0.0052  0.0384  0.0292  0.0118  0.0000  0.0000  0.0000  0.0000  0.0000 </r>
        <r>  0.0052  0.0340  0.0275  0.0178  0.0000  0.0000  0.0000  0.0000  0.0000 </r>
        <r>  0.0002  0.0098  0.0009  0.0015  0.0000  0.0000  0.0000  0.0000  0.0000 </r>
        <r>  0.0066  0.0441  0.0352  0.0195  0.0000  0.0000  0.0000  0.0000  0.0000 </r>
        <r>  0.0007  0.0103  0.0038  0.0054  0.0000  0.0000  0.0000  0.0000  0.0000 </r>
        <r>  0.0007  0.0146  0.0004  0.0044  0.0000  0.0000  0.0000  0.0000  0.0000 </r>
        <r>  0.0066  0.0414  0.0319  0.0255  0.0000  0.0000  0.0000  0.0000  0.0000 </r>
        <r>  0.0002  0.0071  0.0026  0.0025  0.0000  0.0000  0.0000  0.0000  0.0000 </r>
       </set>
       <set comment="band 10">
        <r>  0.0002  0.0028  0.0071  0.0018  0.0000  0.0000  0.0000  0.0000  0.0000 </r>
        <r>  0.0002  0.0011  0.0099  0.0009  0.0000  0.0000  0.0000  0.0000  0.0000 </r>
        <r>  0.0074  0.0365  0.0484  0.0241  0.0000  0.0000  0.0000  0.0000  0.0000 </r>
        <r>  0.0008  0.0014  0.0138  0.0052  0.0000  0.0000  0.0000  0.0000  0.0000 </r>
        <r>  0.0044  0.0236  0.0329  0.0121  0.0000  0.0000  0.0000  0.0000  0.0000 </r>
        <r>  0.0044  0.0253  0.0352  0.0081  0.0000  0.0000  0.0000  0.0000  0.0000 </r>
        <r>  0.0008  0.0001  0.0160  0.0043  0.0000  0.0000  0.0000  0.0000  0.0000 </r>
        <r>  0.0074  0.0352  0.0457  0.0281  0.0000  0.0000  0.0000  0.0000  0.0000 </r>
       </set>
       <set comment="band 11">
        <r>  0.0042  0.0112  0.0161  0.0388  0.0000  0.0000  0.0000  0.0000  0.0000 </r>
        <r>  0.0042  0.0173  0.0150  0.0338  0.0000  0.0000  0.0000  0.0000  0.0000 </r>
        <r>  0.0020  0.0062  0.0031  0.0268  0.0000  0.0000  0.0000  0.0000  0.0000 </r>
        <r>  0.0021  0.0070  0.0035  0.0277  0.0000  0.0000  0.0000  0.0000  0.0000 </r>
        <r>  0.0045  0.0186  0.0158  0.0349  0.0000  0.0000  0.0000  0.0000  0.0000 </r>
        <r>  0.0045  0.0125  0.0168  0.0400  0.0000  0.0000  0.0000  0.0000  0.0000 </r>
        <r>  0.0021  0.0110  0.0045  0.0227  0.0000  0.0000  0.0000  0.0000  0.0000 </r>
        <r>  0.0020  0.0102  0.0042  0.0218  0.0000  0.0000  0.0000  0.0000  0.0000 </r>
       </set>
       <set comment="band 12">
        <r>  0.0000  0.0005  0.0325  0.0374  0.0000  0.0000  0.0000  0.0000  0.0000 </r>
        <r>  0.0000  0.0005  0.0325  0.0374  0.0000  0.0000  0.0000  0.0000  0.0000 </r>
        <r>  0.0000  0.0025  0.0325  0.0179  0.0000  0.0000  0.0000  0.0000  0.0000 </r>
        <r>  0.0000  0.0025  0.0210  0.0374  0.0000  0.0000  0.0000  0.0000  0.0000 </r>
        <r>  0.0000  0.0005  0.0210  0.0179  0.0000  0.0000  0.0000  0.0000  0.0000 </r>
        <r>  0.0000  0.0005  0.0210  0.0179  0.0000  0.0000  0.0000  0.0000  0.0000 </r>
        <r>  0.0000  0.0025  0.0210  0.0374  0.0000  0.0000  0.0000  0.0000  0.0000 </r>
        <r>  0.0000  0.0025  0.0325  0.0179  0.0000  0.0000  0.0000  0.0000  0.0000 </r>
       </set>
       <set comment="band 13">
        <r>  0.0000  0.0547  0.0156  0.0119  0.0000  0.0000  0.0000  0.0000  0.0000 </r>
        <r>  0.0000  0.0547  0.0156  0.0119  0.0000  0.0000  0.0000  0.0000  0.0000 </r>
        <r>  0.0000  0.0006  0.0156  0.0163  0.0000  0.0000  0.0000  0.0000  0.0000 </r>
        <r>  0.0000  0.0006  0.0129  0.0119  0.0000  0.0000  0.0000  0.0000  0.0000 </r>
        <r>  0.0000  0.0547  0.0129  0.0163  0.0000  0.0000  0.0000  0.0000  0.0000 </r>
        <r>  0.0000  0.0547  0.0129  0.0163  0.0000  0.0000  0.0000  0.0000  0.0000 </r>
        <r>  0.0000  0.0006  0.0129  0.0119  0.0000  0.0000  0.0000  0.0000  0.0000 </r>
        <r>  0.0000  0.0006  0.0156  0.0163  0.0000  0.0000  0.0000  0.0000  0.0000 </r>
       </set>
       <set comment="band 14">
        <r>  0.0000  0.0008  0.0079  0.0066  0.0000  0.0000  0.0000  0.0000  0.0000 </r>
        <r>  0.0000  0.0008  0.0079  0.0066  0.0000  0.0000  0.0000  0.0000  0.0000 </r>
        <r>  0.0000  0.0529  0.0079  0.0218  0.0000  0.0000  0.0000  0.0000  0.0000 </r>
        <r>  0.0000  0.0529  0.0221  0.0066  0.0000  0.0000  0.0000  0.0000  0.0000 </r>
        <r>  0.0000  0.0008  0.0221  0.0218  0.0000  0.0000  0.0000  0.0000  0.0000 </r>
        <r>  0.0000  0.0008  0.0221  0.0218  0.0000  0.0000  0.0000  0.0000  0.0000 </r>
        <r>  0.0000  0.0529  0.0221  0.0066  0.0000  0.0000  0.0000  0.0000  0.0000 </r>
        <r>  0.0000  0.0529  0.0079  0.0218  0.0000  0.0000  0.0000  0.0000  0.0000 </r>
       </set>
       <set comment="band 15">
        <r>  0.0000  0.0037  0.0312  0.0214  0.0000  0.0000  0.0000  0.0000  0.0000 </r>
        <r>  0.0000  0.0037  0.0312  0.0214  0.0000  0.0000  0.0000  0.0000  0.0000 </r>
        <r>  0.0000  0.0037  0.0312  0.0214  0.0000  0.0000  0.0000  0.0000  0.0000 </r>
        <r>  0.0000  0.0037  0.0312  0.0214  0.0000  0.0000  0.0000  0.0000  0.0000 </r>
        <r>  0.0000  0.0037  0.0312  0.0214  0.0000  0.0000  0.0000  0.0000  0.0000 </r>
        <r>  0.0000  0.0037  0.0312  0.0214  0.0000  0.0000  0.0000  0.0000  0.0000 </r>
        <r>  0.0000  0.0037  0.0312  0.0214  0.0000  0.0000  0.0000  0.0000  0.0000 </r>
        <r>  0.0000  0.0037  0.0312  0.0214  0.0000  0.0000  0.0000  0.0000  0.0000 </r>
       </set>
       <set comment="band 16">
        <r>  0.0000  0.0339  0.0063  0.0161  0.0000  0.0000  0.0000  0.0000  0.0000 </r>
        <r>  0.0000  0.0339  0.0063  0.0161  0.0000  0.0000  0.0000  0.0000  0.0000 </r>
        <r>  0.0000  0.0339  0.0063  0.0161  0.0000  0.0000  0.0000  0.0000  0.0000 </r>
        <r>  0.0000  0.0339  0.0063  0.0161  0.0000  0.0000  0.0000  0.0000  0.0000 </r>
        <r>  0.0000  0.0339  0.0063  0.0161  0.0000  0.0000  0.0000  0.0000  0.0000 </r>
        <r>  0.0000  0.0339  0.0063  0.0161  0.0000  0.0000  0.0000  0.0000  0.0000 </r>
        <r>  0.0000  0.0339  0.0063  0.0161  0.0000  0.0000  0.0000  0.0000  0.0000 </r>
        <r>  0.0000  0.0339  0.0063  0.0161  0.0000  0.0000  0.0000  0.0000  0.0000 </r>
       </set>
       <set comment="band 17">
        <r>  0.0472  0.0019  0.0019  0.0019  0.0000  0.0000  0.0000  0.0000  0.0000 </r>
        <r>  0.0472  0.0019  0.0019  0.0019  0.0000  0.0000  0.0000  0.0000  0.0000 </r>
        <r>  0.0472  0.0019  0.0019  0.0019  0.0000  0.0000  0.0000  0.0000  0.0000 </r>
        <r>  0.0472  0.0019  0.0019  0.0019  0.0000  0.0000  0.0000  0.0000  0.0000 </r>
        <r>  0.0472  0.0019  0.0019  0.0019  0.0000  0.0000  0.0000  0.0000  0.0000 </r>
        <r>  0.0472  0.0019  0.0019  0.0019  0.0000  0.0000  0.0000  0.0000  0.0000 </r>
        <r>  0.0472  0.0019  0.0019  0.0019  0.0000  0.0000  0.0000  0.0000  0.0000 </r>
        <r>  0.0472  0.0019  0.0019  0.0019  0.0000  0.0000  0.0000  0.0000  0.0000 </r>
       </set>
       <set comment="band 18">
        <r>  0.0255  0.0063  0.0012  0.0013  0.0000  0.0000  0.0000  0.0000  0.0000 </r>
        <r>  0.0255  0.0021  0.0005  0.0063  0.0000  0.0000  0.0000  0.0000  0.0000 </r>
        <r>  0.0097  0.0069  0.0006  0.0009  0.0000  0.0000  0.0000  0.0000  0.0000 </r>
        <r>  0.0875  0.0061  0.0038  0.0008  0.0000  0.0000  0.0000  0.0000  0.0000 </r>
        <r>  0.0519  0.0018  0.0041  0.0037  0.0000  0.0000  0.0000  0.0000  0.0000 </r>
        <r>  0.0519  0.0061  0.0031  0.0005  0.0000  0.0000  0.0000  0.0000  0.0000 </r>
        <r>  0.0875  0.0022  0.0027  0.0057  0.0000  0.0000  0.0000  0.0000  0.0000 </r>
        <r>  0.0097  0.0030  0.0014  0.0041  0.0000  0.0000  0.0000  0.0000  0.0000 </r>
       </set>
       <set comment="band 19">
        <r>  0.0526  0.0001  0.0075  0.0021  0.0000  0.0000  0.0000  0.0000  0.0000 </r>
        <r>  0.0526  0.0064  0.0002  0.0031  0.0000  0.0000  0.0000  0.0000  0.0000 </r>
        <r>  0.0663  0.0016  0.0001  0.0084  0.0000  0.0000  0.0000  0.0000  0.0000 </r>
        <r>  0.0038  0.0022  0.0035  0.0025  0.0000  0.0000  0.0000  0.0000  0.0000 </r>
        <r>  0.0518  0.0064  0.0031  0.0002  0.0000  0.0000  0.0000  0.0000  0.0000 </r>
        <r>  0.0518  0.0001  0.0010  0.0085  0.0000  0.0000  0.0000  0.0000  0.0000 </r>
        <r>  0.0038  0.0032  0.0014  0.0036  0.0000  0.0000  0.0000  0.0000  0.0000 </r>
        <r>  0.0663  0.0027  0.0074  0.0000  0.0000  0.0000  0.0000  0.0000  0.0000 </r>
       </set>
       <set comment="band 20">
        <r>  0.0528  0.0030  0.0007  0.0060  0.0000  0.0000  0.0000  0.0000  0.0000 </r>
        <r>  0.0528  0.0009  0.0087  0.0000  0.0000  0.0000  0.0000  0.0000  0.0000 </r>
        <r>  0.0549  0.0009  0.0087  0.0001  0.0000  0.0000  0.0000  0.0000  0.0000 </r>
        <r>  0.0396  0.0011  0.0021  0.0062  0.0000  0.0000  0.0000  0.0000  0.0000 </r>
        <r>  0.0272  0.0012  0.0022  0.0056  0.0000  0.0000  0.0000  0.0000  0.0000 </r>
        <r>  0.0272  0.0032  0.0053  0.0004  0.0000  0.0000  0.0000  0.0000  0.0000 </r>
        <r>  0.0396  0.0039  0.0052  0.0001  0.0000  0.0000  0.0000  0.0000  0.0000 </r>
        <r>  0.0549  0.0038  0.0006  0.0053  0.0000  0.0000  0.0000  0.0000  0.0000 </r>
       </set>
       <set comment="band 21">
        <r>  0.0002  0.0021  0.0073  0.0065  0.0000  0.0000  0.0000  0.0000  0.0000 </r>
        <r>  0.0002  0.0016  0.0095  0.0048  0.0000  0.0000  0.0000  0.0000  0.0000 </r>
        <r>  0.0005  0.0085  0.0163  0.0085  0.0000  0.0000  0.0000  0.0000  0.0000 </r>
        <r>  0.0003  0.0030  0.0085  0.0078  0.0000  0.0000  0.0000  0.0000  0.0000 </r>
        <r>  0.0004  0.0073  0.0129  0.0102  0.0000  0.0000  0.0000  0.0000  0.0000 </r>
        <r>  0.0004  0.0078  0.0152  0.0074  0.0000  0.0000  0.0000  0.0000  0.0000 </r>
        <r>  0.0003  0.0023  0.0109  0.0061  0.0000  0.0000  0.0000  0.0000  0.0000 </r>
        <r>  0.0005  0.0078  0.0142  0.0114  0.0000  0.0000  0.0000  0.0000  0.0000 </r>
       </set>
       <set comment="band 22">
        <r>  0.0000  0.0024  0.0012  0.0007  0.0000  0.0000  0.0000  0.0000  0.0000 </r>
        <r>  0.0000  0.0018  0.0014  0.0012  0.0000  0.0000  0.0000  0.0000  0.0000 </r>
        <r>  0.0001  0.0027  0.0043  0.0047  0.0000  0.0000  0.0000  0.0000  0.0000 </r>
        <r>  0.0007  0.0157  0.0125  0.0166  0.0000  0.0000  0.0000  0.0000  0.0000 </r>
        <r>  0.0006  0.0151  0.0099  0.0132  0.0000  0.0000  0.0000  0.0000  0.0000 </r>
        <r>  0.0006  0.0157  0.0073  0.0151  0.0000  0.0000  0.0000  0.0000  0.0000 </r>
        <r>  0.0007  0.0178  0.0099  0.0170  0.0000  0.0000  0.0000  0.0000  0.0000 </r>
        <r>  0.0001  0.0048  0.0041  0.0028  0.0000  0.0000  0.0000  0.0000  0.0000 </r>
       </set>
       <set comment="band 23">
        <r>  0.0008  0.0202  0.0163  0.0176  0.0000  0.0000  0.0000  0.0000  0.0000 </r>
        <r>  0.0008  0.0213  0.0139  0.0188  0.0000  0.0000  0.0000  0.0000  0.0000 </r>
        <r>  0.0004  0.0135  0.0041  0.0115  0.0000  0.0000  0.0000  0.0000  0.0000 </r>
        <r>  0.0001  0.0061  0.0037  0.0004  0.0000  0.0000  0.0000  0.0000  0.0000 </r>
        <r>  0.0000  0.0023  0.0019  0.0013  0.0000  0.0000  0.0000  0.0000  0.0000 </r>
        <r>  0.0000  0.0012  0.0022  0.0022  0.0000  0.0000  0.0000  0.0000  0.0000 </r>
        <r>  0.0001  0.0047  0.0040  0.0016  0.0000  0.0000  0.0000  0.0000  0.0000 </r>
        <r>  0.0004  0.0121  0.0065  0.0106  0.0000  0.0000  0.0000  0.0000  0.0000 </r>
       </set>
       <set comment="band 24">
        <r>  0.0000  0.0122  0.0001  0.0134  0.0000  0.0000  0.0000  0.0000  0.0000 </r>
        <r>  0.0000  0.0122  0.0001  0.0134  0.0000  0.0000  0.0000  0.0000  0.0000 </r>
        <r>  0.0000  0.0122  0.0001  0.0134  0.0000  0.0000  0.0000  0.0000  0.0000 </r>
        <r>  0.0000  0.0122  0.0001  0.0134  0.0000  0.0000  0.0000  0.0000  0.0000 </r>
        <r>  0.0000  0.0122  0.0001  0.0134  0.0000  0.0000  0.0000  0.0000  0.0000 </r>
        <r>  0.0000  0.0122  0.0001  0.0134  0.0000  0.0000  0.0000  0.0000  0.0000 </r>
        <r>  0.0000  0.0122  0.0001  0.0134  0.0000  0.0000  0.0000  0.0000  0.0000 </r>
        <r>  0.0000  0.0122  0.0001  0.0134  0.0000  0.0000  0.0000  0.0000  0.0000 </r>
       </set>
       <set comment="band 25">
        <r>  0.0000  0.0050  0.0170  0.0037  0.0000  0.0000  0.0000  0.0000  0.0000 </r>
        <r>  0.0000  0.0050  0.0170  0.0037  0.0000  0.0000  0.0000  0.0000  0.0000 </r>
        <r>  0.0000  0.0050  0.0170  0.0037  0.0000  0.0000  0.0000  0.0000  0.0000 </r>
        <r>  0.0000  0.0050  0.0170  0.0037  0.0000  0.0000  0.0000  0.0000  0.0000 </r>
        <r>  0.0000  0.0050  0.0170  0.0037  0.0000  0.0000  0.0000  0.0000  0.0000 </r>
        <r>  0.0000  0.0050  0.0170  0.0037  0.0000  0.0000  0.0000  0.0000  0.0000 </r>
        <r>  0.0000  0.0050  0.0170  0.0037  0.0000  0.0000  0.0000  0.0000  0.0000 </r>
        <r>  0.0000  0.0050  0.0170  0.0037  0.0000  0.0000  0.0000  0.0000  0.0000 </r>
       </set>
       <set comment="band 26">
        <r>  0.0000  0.0240  0.0056  0.0080  0.0000  0.0000  0.0000  0.0000  0.0000 </r>
        <r>  0.0000  0.0240  0.0056  0.0080  0.0000  0.0000  0.0000  0.0000  0.0000 </r>
        <r>  0.0000  0.0011  0.0056  0.0092  0.0000  0.0000  0.0000  0.0000  0.0000 </r>
        <r>  0.0000  0.0011  0.0035  0.0080  0.0000  0.0000  0.0000  0.0000  0.0000 </r>
        <r>  0.0000  0.0240  0.0035  0.0092  0.0000  0.0000  0.0000  0.0000  0.0000 </r>
        <r>  0.0000  0.0240  0.0035  0.0092  0.0000  0.0000  0.0000  0.0000  0.0000 </r>
        <r>  0.0000  0.0011  0.0035  0.0080  0.0000  0.0000  0.0000  0.0000  0.0000 </r>
        <r>  0.0000  0.0011  0.0056  0.0092  0.0000  0.0000  0.0000  0.0000  0.0000 </r>
       </set>
       <set comment="band 27">
        <r>  0.0000  0.0007  0.0159  0.0163  0.0000  0.0000  0.0000  0.0000  0.0000 </r>
        <r>  0.0000  0.0007  0.0159  0.0163  0.0000  0.0000  0.0000  0.0000  0.0000 </r>
        <r>  0.0000  0.0013  0.0159  0.0088  0.0000  0.0000  0.0000  0.0000  0.0000 </r>
        <r>  0.0000  0.0013  0.0086  0.0163  0.0000  0.0000  0.0000  0.0000  0.0000 </r>
        <r>  0.0000  0.0007  0.0086  0.0088  0.0000  0.0000  0.0000  0.0000  0.0000 </r>
        <r>  0.0000  0.0007  0.0086  0.0088  0.0000  0.0000  0.0000  0.0000  0.0000 </r>
        <r>  0.0000  0.0013  0.0086  0.0163  0.0000  0.0000  0.0000  0.0000  0.0000 </r>
        <r>  0.0000  0.0013  0.0159  0.0088  0.0000  0.0000  0.0000  0.0000  0.0000 </r>
       </set>
       <set comment="band 28">
        <r>  0.0000  0.0011  0.0043  0.0015  0.0000  0.0000  0.0000  0.0000  0.0000 </r>
        <r>  0.0000  0.0011  0.0043  0.0015  0.0000  0.0000  0.0000  0.0000  0.0000 </r>
        <r>  0.0000  0.0233  0.0043  0.0077  0.0000  0.0000  0.0000  0.0000  0.0000 </r>
        <r>  0.0000  0.0233  0.0137  0.0015  0.0000  0.0000  0.0000  0.0000  0.0000 </r>
        <r>  0.0000  0.0011  0.0137  0.0077  0.0000  0.0000  0.0000  0.0000  0.0000 </r>
        <r>  0.0000  0.0011  0.0137  0.0077  0.0000  0.0000  0.0000  0.0000  0.0000 </r>
        <r>  0.0000  0.0233  0.0137  0.0015  0.0000  0.0000  0.0000  0.0000  0.0000 </r>
        <r>  0.0000  0.0233  0.0043  0.0077  0.0000  0.0000  0.0000  0.0000  0.0000 </r>
       </set>
       <set comment="band 29">
        <r>  0.0012  0.0050  0.0050  0.0050  0.0000  0.0000  0.0000  0.0000  0.0000 </r>
        <r>  0.0012  0.0050  0.0050  0.0050  0.0000  0.0000  0.0000  0.0000  0.0000 </r>
        <r>  0.0012  0.0050  0.0050  0.0050  0.0000  0.0000  0.0000  0.0000  0.0000 </r>
        <r>  0.0012  0.0050  0.0050  0.0050  0.0000  0.0000  0.0000  0.0000  0.0000 </r>
        <r>  0.0012  0.0050  0.0050  0.0050  0.0000  0.0000  0.0000  0.0000  0.0000 </r>
        <r>  0.0012  0.0050  0.0050  0.0050  0.0000  0.0000  0.0000  0.0000  0.0000 </r>
        <r>  0.0012  0.0050  0.0050  0.0050  0.0000  0.0000  0.0000  0.0000  0.0000 </r>
        <r>  0.0012  0.0050  0.0050  0.0050  0.0000  0.0000  0.0000  0.0000  0.0000 </r>
       </set>
       <set comment="band 30">
        <r>  0.0005  0.0131  0.0036  0.0016  0.0000  0.0000  0.0000  0.0000  0.0000 </r>
        <r>  0.0005  0.0067  0.0108  0.0007  0.0000  0.0000  0.0000  0.0000  0.0000 </r>
        <r>  0.0012  0.0027  0.0078  0.0055  0.0000  0.0000  0.0000  0.0000  0.0000 </r>
        <r>  0.0001  0.0080  0.0081  0.0037  0.0000  0.0000  0.0000  0.0000  0.0000 </r>
        <r>  0.0017  0.0011  0.0003  0.0127  0.0000  0.0000  0.0000  0.0000  0.0000 </r>
        <r>  0.0017  0.0075  0.0037  0.0029  0.0000  0.0000  0.0000  0.0000  0.0000 </r>
        <r>  0.0001  0.0055  0.0115  0.0028  0.0000  0.0000  0.0000  0.0000  0.0000 </r>
        <r>  0.0012  0.0003  0.0005  0.0152  0.0000  0.0000  0.0000  0.0000  0.0000 </r>
       </set>
       <set comment="band 31">
        <r>  0.0012  0.0019  0.0133  0.0006  0.0000  0.0000  0.0000  0.0000  0.0000 </r>
        <r>  0.0012  0.0071  0.0041  0.0046  0.0000  0.0000  0.0000  0.0000  0.0000 </r>
        <r>  0.0014  0.0025  0.0033  0.0094  0.0000  0.0000  0.0000  0.0000  0.0000 </r>
        <r>  0.0002  0.0082  0.0057  0.0054  0.0000  0.0000  0.0000  0.0000  0.0000 </r>
        <r>  0.0007  0.0099  0.0037  0.0043  0.0000  0.0000  0.0000  0.0000  0.0000 </r>
        <r>  0.0007  0.0047  0.0002  0.0130  0.0000  0.0000  0.0000  0.0000  0.0000 </r>
        <r>  0.0002  0.0077  0.0022  0.0094  0.0000  0.0000  0.0000  0.0000  0.0000 </r>
        <r>  0.0014  0.0020  0.0125  0.0007  0.0000  0.0000  0.0000  0.0000  0.0000 </r>
       </set>
       <set comment="band 32">
        <r>  0.0009  0.0021  0.0002  0.0149  0.0000  0.0000  0.0000  0.0000  0.0000 </r>
        <r>  0.0009  0.0032  0.0021  0.0118  0.0000  0.0000  0.0000  0.0000  0.0000 </r>
        <r>  0.0001  0.0118  0.0060  0.0022  0.0000  0.0000  0.0000  0.0000  0.0000 </r>
        <r>  0.0023  0.0009  0.0032  0.0079  0.0000  0.0000  0.0000  0.0000  0.0000 </r>
        <r>  0.0003  0.0060  0.0131  0.0001  0.0000  0.0000  0.0000  0.0000  0.0000 </r>
        <r>  0.0003  0.0049  0.0132  0.0011  0.0000  0.0000  0.0000  0.0000  0.0000 </r>
        <r>  0.0023  0.0039  0.0033  0.0048  0.0000  0.0000  0.0000  0.0000  0.0000 </r>
        <r>  0.0001  0.0147  0.0040  0.0012  0.0000  0.0000  0.0000  0.0000  0.0000 </r>
       </set>
      </set>
     </set>
    </set>
   </array>
  </projected>
 </calculation>
 <structure name="finalpos" >
  <crystal>
   <varray name="basis" >
    <v>       5.46763549      -0.00000000      -0.00000000 </v>
    <v>      -0.00000000       5.46763549      -0.00000000 </v>
    <v>       0.00000000      -0.00000000       5.46763549 </v>
   </varray>
   <i name="volume">    163.45516981 </i>
   <varray name="rec_basis" >
    <v>       0.18289442       0.00000000      -0.00000000 </v>
    <v>       0.00000000       0.18289442       0.00000000 </v>
    <v>       0.00000000       0.00000000       0.18289442 </v>
   </varray>
  </crystal>
  <varray name="positions" >
   <v>       0.00000000       0.00000000      -0.00000000 </v>
   <v>       0.25000000       0.25000000       0.25000000 </v>
   <v>       0.50000000       0.50000000      -0.00000000 </v>
   <v>       0.25000000       0.75000000       0.75000000 </v>
   <v>       0.50000000      -0.00000000       0.50000000 </v>
   <v>       0.75000000       0.25000000       0.75000000 </v>
   <v>       0.00000000       0.50000000       0.50000000 </v>
   <v>       0.75000000       0.75000000       0.25000000 </v>
  </varray>
 </structure>
</modeling>
