Diamond si                              
           1
     5.430000    0.000000    0.000000
     0.000000    5.430000    0.000000
     0.000000    0.000000    5.430000
   Si
   8
Direct configuration=     1
   0.00000000  0.00000000  0.00000000
   0.25000000  0.25000000  0.25000000
   0.50000000  0.50000000  0.00000000
   0.25000000  0.75000000  0.75000000
   0.50000000  0.00000000  0.50000000
   0.75000000  0.25000000  0.75000000
   0.00000000  0.50000000  0.50000000
   0.75000000  0.75000000  0.25000000
Diamond si                              
           1
     5.493777   -0.000000   -0.000000
    -0.000000    5.493777   -0.000000
     0.000000   -0.000000    5.493777
   Si
   8
Direct configuration=     2
   0.00000000  0.00000000 -0.00000000
   0.25000000  0.25000000  0.25000000
   0.50000000  0.50000000 -0.00000000
   0.25000000  0.75000000  0.75000000
   0.50000000 -0.00000000  0.50000000
   0.75000000  0.25000000  0.75000000
   0.00000000  0.50000000  0.50000000
   0.75000000  0.75000000  0.25000000
Diamond si                              
           1
     5.467635   -0.000000   -0.000000
    -0.000000    5.467635   -0.000000
     0.000000   -0.000000    5.467635
   Si
   8
Direct configuration=     3
   0.00000000  0.00000000 -0.00000000
   0.25000000  0.25000000  0.25000000
   0.50000000  0.50000000 -0.00000000
   0.25000000  0.75000000  0.75000000
   0.50000000 -0.00000000  0.50000000
   0.75000000  0.25000000  0.75000000
   0.00000000  0.50000000  0.50000000
   0.75000000  0.75000000  0.25000000
