<?xml version="1.0" encoding="ISO-8859-1"?>
<modeling>
 <generator>
  <i name="program" type="string">vasp </i>
  <i name="version" type="string">5.4.4.18Apr17-6-g9f103f2a35  </i>
  <i name="subversion" type="string">(build Dec 09 2018 21:25:21) complex            parallel </i>
  <i name="platform" type="string">IFC18.0.1.163_CrayMPICH7.7.0_MKL18.0.1.163 </i>
  <i name="date" type="string">2019 03 20 </i>
  <i name="time" type="string">09:54:35 </i>
 </generator>
 <incar>
  <i type="string" name="PREC">normal</i>
  <i type="int" name="IBRION">     2</i>
  <i name="EDIFF">      0.00040000</i>
  <i name="EDIFFG">     -0.01000000</i>
  <i type="int" name="NSW">    15</i>
  <i type="int" name="ISIF">     3</i>
  <i name="ENCUT">    250.00000000</i>
  <i type="int" name="NBANDS">     8</i>
  <i type="logical" name="LREAL"> F  </i>
  <i type="int" name="ISMEAR">     0</i>
  <i name="SIGMA">      0.20000000</i>
  <v type="int" name="KPOINT_BSE">    -1     0     0     0</v>
 </incar>
 <structure name="primitive_cell" >
  <crystal>
   <varray name="basis" >
    <v>       0.00000000       2.71500000       2.71500000 </v>
    <v>       2.71500000       0.00000000       2.71500000 </v>
    <v>       2.71500000       2.71500000       0.00000000 </v>
   </varray>
   <i name="volume">     40.02575175 </i>
   <varray name="rec_basis" >
    <v>      -0.18416206       0.18416206       0.18416206 </v>
    <v>       0.18416206      -0.18416206       0.18416206 </v>
    <v>       0.18416206       0.18416206      -0.18416206 </v>
   </varray>
  </crystal>
  <varray name="positions" >
   <v>      -0.50000000      -0.50000000      -0.50000000 </v>
   <v>      -0.25000000      -0.25000000      -0.25000000 </v>
  </varray>
 </structure>
 <varray name="primitive_index" >
  <v type="int" >        1 </v>
  <v type="int" >        2 </v>
 </varray>
 <kpoints>
  <generation param="Monkhorst-Pack">
   <v type="int" name="divisions">       9        9        9 </v>
   <v name="usershift">      0.00000000       0.00000000       0.00000000 </v>
   <v name="genvec1">      0.11111111      -0.00000000       0.00000000 </v>
   <v name="genvec2">     -0.00000000       0.11111111      -0.00000000 </v>
   <v name="genvec3">      0.00000000       0.00000000       0.11111111 </v>
   <v name="shift">      0.00000000       0.00000000       0.00000000 </v>
  </generation>
  <varray name="kpointlist" >
   <v>       0.00000000       0.00000000       0.00000000 </v>
   <v>       0.11111111       0.00000000       0.00000000 </v>
   <v>       0.22222222      -0.00000000       0.00000000 </v>
   <v>       0.33333333       0.00000000       0.00000000 </v>
   <v>       0.44444444      -0.00000000       0.00000000 </v>
   <v>       0.11111111       0.11111111       0.00000000 </v>
   <v>       0.22222222       0.11111111       0.00000000 </v>
   <v>       0.33333333       0.11111111       0.00000000 </v>
   <v>       0.44444444       0.11111111       0.00000000 </v>
   <v>      -0.44444444       0.11111111       0.00000000 </v>
   <v>      -0.33333333       0.11111111      -0.00000000 </v>
   <v>      -0.22222222       0.11111111       0.00000000 </v>
   <v>      -0.11111111       0.11111111      -0.00000000 </v>
   <v>       0.22222222       0.22222222       0.00000000 </v>
   <v>       0.33333333       0.22222222       0.00000000 </v>
   <v>       0.44444444       0.22222222       0.00000000 </v>
   <v>      -0.44444444       0.22222222       0.00000000 </v>
   <v>      -0.33333333       0.22222222       0.00000000 </v>
   <v>      -0.22222222       0.22222222      -0.00000000 </v>
   <v>       0.33333333       0.33333333       0.00000000 </v>
   <v>       0.44444444       0.33333333       0.00000000 </v>
   <v>      -0.44444444       0.33333333      -0.00000000 </v>
   <v>      -0.33333333       0.33333333       0.00000000 </v>
   <v>       0.44444444       0.44444444       0.00000000 </v>
   <v>      -0.44444444       0.44444444      -0.00000000 </v>
   <v>       0.33333333       0.22222222       0.11111111 </v>
   <v>       0.44444444       0.22222222       0.11111111 </v>
   <v>      -0.44444444       0.22222222       0.11111111 </v>
   <v>       0.44444444       0.33333333       0.11111111 </v>
   <v>      -0.44444444       0.33333333       0.11111111 </v>
   <v>      -0.33333333       0.33333333       0.11111111 </v>
   <v>      -0.22222222       0.33333333       0.11111111 </v>
   <v>      -0.44444444       0.44444444       0.11111111 </v>
   <v>      -0.33333333       0.44444444       0.11111111 </v>
   <v>      -0.33333333       0.44444444       0.22222222 </v>
  </varray>
  <varray name="weights" >
   <v>       0.00137174 </v>
   <v>       0.01097394 </v>
   <v>       0.01097394 </v>
   <v>       0.01097394 </v>
   <v>       0.01097394 </v>
   <v>       0.00823045 </v>
   <v>       0.03292181 </v>
   <v>       0.03292181 </v>
   <v>       0.03292181 </v>
   <v>       0.03292181 </v>
   <v>       0.03292181 </v>
   <v>       0.03292181 </v>
   <v>       0.01646091 </v>
   <v>       0.00823045 </v>
   <v>       0.03292181 </v>
   <v>       0.03292181 </v>
   <v>       0.03292181 </v>
   <v>       0.03292181 </v>
   <v>       0.01646091 </v>
   <v>       0.00823045 </v>
   <v>       0.03292181 </v>
   <v>       0.03292181 </v>
   <v>       0.01646091 </v>
   <v>       0.00823045 </v>
   <v>       0.01646091 </v>
   <v>       0.03292181 </v>
   <v>       0.06584362 </v>
   <v>       0.06584362 </v>
   <v>       0.03292181 </v>
   <v>       0.06584362 </v>
   <v>       0.06584362 </v>
   <v>       0.03292181 </v>
   <v>       0.03292181 </v>
   <v>       0.03292181 </v>
   <v>       0.03292181 </v>
  </varray>
 </kpoints>
 <parameters>
  <separator name="general" >
   <i type="string" name="SYSTEM">unknown system</i>
   <i type="logical" name="LCOMPAT"> F  </i>
  </separator>
  <separator name="electronic" >
   <i type="string" name="PREC">normal</i>
   <i name="ENMAX">    250.00000000</i>
   <i name="ENAUG">    322.06900000</i>
   <i name="EDIFF">      0.00040000</i>
   <i type="int" name="IALGO">    38</i>
   <i type="int" name="IWAVPR">    11</i>
   <i type="int" name="NBANDS">     8</i>
   <i name="NELECT">      8.00000000</i>
   <i type="int" name="TURBO">     0</i>
   <i type="int" name="IRESTART">     0</i>
   <i type="int" name="NREBOOT">     0</i>
   <i type="int" name="NMIN">     0</i>
   <i name="EREF">      0.00000000</i>
   <separator name="electronic smearing" >
    <i type="int" name="ISMEAR">     0</i>
    <i name="SIGMA">      0.20000000</i>
    <i name="KSPACING">      0.50000000</i>
    <i type="logical" name="KGAMMA"> T  </i>
   </separator>
   <separator name="electronic projectors" >
    <i type="logical" name="LREAL"> F  </i>
    <v name="ROPT">      0.00000000</v>
    <i type="int" name="LMAXPAW">  -100</i>
    <i type="int" name="LMAXMIX">     2</i>
    <i type="logical" name="NLSPLINE"> F  </i>
   </separator>
   <separator name="electronic startup" >
    <i type="int" name="ISTART">     0</i>
    <i type="int" name="ICHARG">     2</i>
    <i type="int" name="INIWAV">     1</i>
   </separator>
   <separator name="electronic spin" >
    <i type="int" name="ISPIN">     1</i>
    <i type="logical" name="LNONCOLLINEAR"> F  </i>
    <v name="MAGMOM">      1.00000000      1.00000000</v>
    <i name="NUPDOWN">     -1.00000000</i>
    <i type="logical" name="LSORBIT"> F  </i>
    <v name="SAXIS">      0.00000000      0.00000000      1.00000000</v>
    <i type="logical" name="LSPIRAL"> F  </i>
    <v name="QSPIRAL">      0.00000000      0.00000000      0.00000000</v>
    <i type="logical" name="LZEROZ"> F  </i>
   </separator>
   <separator name="electronic exchange-correlation" >
    <i type="logical" name="LASPH"> F  </i>
    <i type="logical" name="LMETAGGA"> F  </i>
   </separator>
   <separator name="electronic convergence" >
    <i type="int" name="NELM">    60</i>
    <i type="int" name="NELMDL">    -5</i>
    <i type="int" name="NELMIN">     2</i>
    <i name="ENINI">    250.00000000</i>
    <separator name="electronic convergence detail" >
     <i type="logical" name="LDIAG"> T  </i>
     <i type="logical" name="LSUBROT"> F  </i>
     <i name="WEIMIN">      0.00100000</i>
     <i name="EBREAK">      0.00001250</i>
     <i name="DEPER">      0.30000000</i>
     <i type="int" name="NRMM">     4</i>
     <i name="TIME">      0.40000000</i>
    </separator>
   </separator>
   <separator name="electronic mixer" >
    <i name="AMIX">      0.40000000</i>
    <i name="BMIX">      1.00000000</i>
    <i name="AMIN">      0.10000000</i>
    <i name="AMIX_MAG">      1.60000000</i>
    <i name="BMIX_MAG">      1.00000000</i>
    <separator name="electronic mixer details" >
     <i type="int" name="IMIX">     4</i>
     <i type="logical" name="MIXFIRST"> F  </i>
     <i type="int" name="MAXMIX">   -45</i>
     <i name="WC">    100.00000000</i>
     <i type="int" name="INIMIX">     1</i>
     <i type="int" name="MIXPRE">     1</i>
     <i type="int" name="MREMOVE">     5</i>
    </separator>
   </separator>
   <separator name="electronic dipolcorrection" >
    <i type="logical" name="LDIPOL"> F  </i>
    <i type="logical" name="LMONO"> F  </i>
    <i type="int" name="IDIPOL">     0</i>
    <i name="EPSILON">      1.00000000</i>
    <v name="DIPOL">   -100.00000000   -100.00000000   -100.00000000</v>
    <i name="EFIELD">      0.00000000</i>
   </separator>
  </separator>
  <separator name="grids" >
   <i type="int" name="NGX">    16</i>
   <i type="int" name="NGY">    16</i>
   <i type="int" name="NGZ">    16</i>
   <i type="int" name="NGXF">    32</i>
   <i type="int" name="NGYF">    32</i>
   <i type="int" name="NGZF">    32</i>
   <i type="logical" name="ADDGRID"> F  </i>
  </separator>
  <separator name="ionic" >
   <i type="int" name="NSW">    15</i>
   <i type="int" name="IBRION">     2</i>
   <i type="int" name="MDALGO">     0</i>
   <i type="int" name="ISIF">     3</i>
   <i name="PSTRESS">      0.00000000</i>
   <i name="EDIFFG">     -0.01000000</i>
   <i type="int" name="NFREE">     1</i>
   <i name="POTIM">      0.50000000</i>
   <i name="SMASS">     -3.00000000</i>
   <i name="SCALEE">      1.00000000</i>
  </separator>
  <separator name="ionic md" >
   <i name="TEBEG">      0.00010000</i>
   <i name="TEEND">      0.00010000</i>
   <i type="int" name="NBLOCK">     1</i>
   <i type="int" name="KBLOCK">    15</i>
   <i type="int" name="NPACO">   256</i>
   <i name="APACO">     16.00000000</i>
  </separator>
  <separator name="symmetry" >
   <i type="int" name="ISYM">     2</i>
   <i name="SYMPREC">      0.00001000</i>
  </separator>
  <separator name="dos" >
   <i type="int" name="LORBIT">     0</i>
   <v name="RWIGS">     -1.00000000</v>
   <i type="int" name="NEDOS">   301</i>
   <i name="EMIN">     10.00000000</i>
   <i name="EMAX">    -10.00000000</i>
   <i name="EFERMI">      0.00000000</i>
  </separator>
  <separator name="writing" >
   <i type="int" name="NWRITE">     2</i>
   <i type="logical" name="LWAVE"> T  </i>
   <i type="logical" name="LDOWNSAMPLE"> F  </i>
   <i type="logical" name="LCHARG"> T  </i>
   <i type="logical" name="LPARD"> F  </i>
   <i type="logical" name="LVTOT"> F  </i>
   <i type="logical" name="LVHAR"> F  </i>
   <i type="logical" name="LELF"> F  </i>
   <i type="logical" name="LOPTICS"> F  </i>
   <v name="STM">      0.00000000      0.00000000      0.00000000      0.00000000      0.00000000      0.00000000      0.00000000</v>
  </separator>
  <separator name="performance" >
   <i type="int" name="NPAR">     8</i>
   <i type="int" name="NSIM">     4</i>
   <i type="int" name="NBLK">    -1</i>
   <i type="logical" name="LPLANE"> T  </i>
   <i type="logical" name="LSCALAPACK"> T  </i>
   <i type="logical" name="LSCAAWARE"> F  </i>
   <i type="logical" name="LSCALU"> F  </i>
   <i type="logical" name="LASYNC"> F  </i>
   <i type="logical" name="LORBITALREAL"> F  </i>
  </separator>
  <separator name="miscellaneous" >
   <i type="int" name="IDIOT">     3</i>
   <i type="int" name="ISPECIAL">     0</i>
   <i type="logical" name="LMUSIC"> F  </i>
   <v name="POMASS">     28.08500000</v>
   <v name="DARWINR">      0.00000000</v>
   <v name="DARWINV">      1.00000000</v>
   <i type="logical" name="LCORR"> T  </i>
  </separator>
  <i type="logical" name="GGA_COMPAT"> T  </i>
  <i type="logical" name="LBERRY"> F  </i>
  <i type="int" name="ICORELEVEL">     0</i>
  <i type="logical" name="LDAU"> F  </i>
  <i type="int" name="I_CONSTRAINED_M">     0</i>
  <separator name="electronic exchange-correlation" >
   <i type="string" name="GGA">--</i>
   <i type="int" name="VOSKOWN">     0</i>
   <i type="logical" name="LHFCALC"> F  </i>
   <i type="string" name="PRECFOCK"></i>
   <i type="logical" name="LSYMGRAD"> F  </i>
   <i type="logical" name="LHFONE"> F  </i>
   <i type="logical" name="LRHFCALC"> F  </i>
   <i type="logical" name="LTHOMAS"> F  </i>
   <i type="logical" name="LMODELHF"> F  </i>
   <i name="ENCUT4O">     -1.00000000</i>
   <i type="int" name="EXXOEP">     0</i>
   <i type="int" name="FOURORBIT">     0</i>
   <i name="AEXX">      0.00000000</i>
   <i name="HFALPHA">      0.00000000</i>
   <i name="MCALPHA">      0.00000000</i>
   <i name="ALDAX">      1.00000000</i>
   <i name="AGGAX">      1.00000000</i>
   <i name="ALDAC">      1.00000000</i>
   <i name="AGGAC">      1.00000000</i>
   <i type="int" name="NKREDX">     1</i>
   <i type="int" name="NKREDY">     1</i>
   <i type="int" name="NKREDZ">     1</i>
   <i type="logical" name="SHIFTRED"> F  </i>
   <i type="logical" name="ODDONLY"> F  </i>
   <i type="logical" name="EVENONLY"> F  </i>
   <i type="int" name="LMAXFOCK">     0</i>
   <i type="int" name="NMAXFOCKAE">     0</i>
   <i type="logical" name="LFOCKAEDFT"> F  </i>
   <i name="HFSCREEN">      0.00000000</i>
   <i name="HFSCREENC">      0.00000000</i>
   <i type="int" name="NBANDSGWLOW">     0</i>
  </separator>
  <separator name="vdW DFT" >
   <i type="logical" name="LUSE_VDW"> F  </i>
   <i name="Zab_VDW">     -0.84910000</i>
   <i name="PARAM1">      0.12340000</i>
   <i name="PARAM2">      1.00000000</i>
   <i name="PARAM3">      0.00000000</i>
  </separator>
  <separator name="model GW" >
   <i type="int" name="MODEL_GW">     0</i>
   <i name="MODEL_EPS0">     12.00772552</i>
   <i name="MODEL_ALPHA">      1.00000000</i>
  </separator>
  <separator name="linear response parameters" >
   <i type="logical" name="LEPSILON"> F  </i>
   <i type="logical" name="LRPA"> F  </i>
   <i type="logical" name="LNABLA"> F  </i>
   <i type="logical" name="LVEL"> F  </i>
   <i type="int" name="KINTER">     0</i>
   <i name="CSHIFT">      0.10000000</i>
   <i name="OMEGAMAX">     -1.00000000</i>
   <i name="DEG_THRESHOLD">      0.00200000</i>
   <i name="RTIME">     -0.10000000</i>
   <i name="WPLASMAI">      0.00000000</i>
   <v name="DFIELD">      0.00000000      0.00000000      0.00000000</v>
   <v name="WPLASMA">      0.00000000      0.00000000      0.00000000      0.00000000      0.00000000      0.00000000      0.00000000      0.00000000      0.00000000</v>
  </separator>
  <separator name="orbital magnetization" >
   <i type="logical" name="NUCIND"> F  </i>
   <v name="MAGPOS">      0.00000000      0.00000000      0.00000000</v>
   <i type="logical" name="LNICSALL"> T  </i>
   <i type="logical" name="ORBITALMAG"> F  </i>
   <i type="logical" name="LMAGBLOCH"> F  </i>
   <i type="logical" name="LCHIMAG"> F  </i>
   <i type="logical" name="LGAUGE"> T  </i>
   <i type="int" name="MAGATOM">     0</i>
   <v name="MAGDIPOL">      0.00000000      0.00000000      0.00000000</v>
   <v name="AVECCONST">      0.00000000      0.00000000      0.00000000</v>
  </separator>
  <separator name="response functions" >
   <i type="logical" name="LADDER"> F  </i>
   <i type="logical" name="LRPAFORCE"> F  </i>
   <i type="logical" name="LFXC"> F  </i>
   <i type="logical" name="LHARTREE"> T  </i>
   <i type="int" name="IBSE">     0</i>
   <v type="int" name="KPOINT">    -1     0     0     0</v>
   <i type="logical" name="LTCTE"> F  </i>
   <i type="logical" name="LTETE"> F  </i>
   <i type="logical" name="LTRIPLET"> F  </i>
   <i type="logical" name="LFXCEPS"> F  </i>
   <i type="logical" name="LFXHEG"> F  </i>
   <i type="int" name="NATURALO">     2</i>
   <i type="logical" name="L2ORDER"> F  </i>
   <i type="logical" name="LMP2LT"> F  </i>
   <i type="logical" name="LUSEW"> F  </i>
   <i name="ENCUTGW">     -2.00000000</i>
   <i name="ENCUTGWSOFT">     -2.00000000</i>
   <i name="ENCUTLF">     -1.00000000</i>
   <i type="int" name="LMAXMP2">    -1</i>
   <i name="SCISSOR">      0.00000000</i>
   <i type="int" name="NOMEGA">     0</i>
   <i type="int" name="NOMEGAR">     0</i>
   <i type="int" name="NBANDSGW">    -1</i>
   <i type="int" name="NBANDSO">    -1</i>
   <i type="int" name="NBANDSV">    -1</i>
   <i type="int" name="NELM">     1</i>
   <i type="int" name="NELMHF">     1</i>
   <i type="int" name="DIM">     3</i>
   <i type="int" name="ANTIRES">     0</i>
   <i name="OMEGAMAX">    -30.00000000</i>
   <i name="OMEGAMIN">    -30.00000000</i>
   <i name="OMEGATL">   -200.00000000</i>
   <i type="int" name="OMEGAGRID">   140</i>
   <i name="CSHIFT">     -0.10000000</i>
   <i type="logical" name="SELFENERGY"> F  </i>
   <i type="logical" name="LSPECTRAL"> F  </i>
   <i type="logical" name="LSPECTRALGW"> F  </i>
   <i type="logical" name="LSINGLES"> F  </i>
   <i type="logical" name="LFERMIGW"> F  </i>
   <i type="logical" name="ODDONLYGW"> F  </i>
   <i type="logical" name="EVENONLYGW"> F  </i>
   <i type="int" name="NKREDLFX">     1</i>
   <i type="int" name="NKREDLFY">     1</i>
   <i type="int" name="NKREDLFZ">     1</i>
   <i type="int" name="MAXMEM">  2800</i>
   <i type="int" name="TELESCOPE">     0</i>
   <i type="int" name="TAUPAR">     1</i>
   <i type="int" name="OMEGAPAR">    -1</i>
   <i name="LAMBDA">      1.00000000</i>
  </separator>
  <separator name="External order field" >
   <i name="OFIELD_KAPPA">      0.00000000</i>
   <v name="OFIELD_K">      0.00000000      0.00000000      0.00000000</v>
   <i name="OFIELD_Q6_NEAR">      0.00000000</i>
   <i name="OFIELD_Q6_FAR">      0.00000000</i>
   <i name="OFIELD_A">      0.00000000</i>
  </separator>
 </parameters>
 <atominfo>
  <atoms>       2 </atoms>
  <types>       1 </types>
  <array name="atoms" >
   <dimension dim="1">ion</dimension>
   <field type="string">element</field>
   <field type="int">atomtype</field>
   <set>
    <rc><c>Si</c><c>   1</c></rc>
    <rc><c>Si</c><c>   1</c></rc>
   </set>
  </array>
  <array name="atomtypes" >
   <dimension dim="1">type</dimension>
   <field type="int">atomspertype</field>
   <field type="string">element</field>
   <field>mass</field>
   <field>valence</field>
   <field type="string">pseudopotential</field>
   <set>
    <rc><c>   2</c><c>Si</c><c>     28.08500000</c><c>      4.00000000</c><c> PAW_PBE Si 05Jan2001                   </c></rc>
   </set>
  </array>
 </atominfo>
 <structure name="initialpos" >
  <crystal>
   <varray name="basis" >
    <v>       0.00000000       2.71500000       2.71500000 </v>
    <v>       2.71500000       0.00000000       2.71500000 </v>
    <v>       2.71500000       2.71500000       0.00000000 </v>
   </varray>
   <i name="volume">     40.02575175 </i>
   <varray name="rec_basis" >
    <v>      -0.18416206       0.18416206       0.18416206 </v>
    <v>       0.18416206      -0.18416206       0.18416206 </v>
    <v>       0.18416206       0.18416206      -0.18416206 </v>
   </varray>
  </crystal>
  <varray name="positions" >
   <v>       0.50000000       0.50000000       0.50000000 </v>
   <v>       0.75000000       0.75000000       0.75000000 </v>
  </varray>
 </structure>
 <calculation>
  <scstep>
   <time name="dav">    0.32    0.33</time>
   <time name="total">    0.36    0.38</time>
   <energy>
    <i name="alphaZ">      3.36414203 </i>
    <i name="ewald">   -228.56352493 </i>
    <i name="hartreedc">    -11.00108243 </i>
    <i name="XCdc">    -18.60181216 </i>
    <i name="pawpsdc">     65.95520812 </i>
    <i name="pawaedc">    -30.76852678 </i>
    <i name="eentropy">     -0.01037446 </i>
    <i name="bandstr">     13.12011690 </i>
    <i name="atom">    206.12349923 </i>
    <i name="e_fr_energy">     -0.38235450 </i>
    <i name="e_wo_entrp">     -0.37198004 </i>
    <i name="e_0_energy">     -0.37716727 </i>
   </energy>
  </scstep>
  <scstep>
   <time name="dav">    0.50    0.51</time>
   <time name="total">    0.50    0.51</time>
   <energy>
    <i name="e_fr_energy">    -10.90487265 </i>
    <i name="e_wo_entrp">    -10.90486207 </i>
    <i name="e_0_energy">    -10.90486736 </i>
   </energy>
  </scstep>
  <scstep>
   <time name="dav">    0.36    0.36</time>
   <time name="total">    0.36    0.37</time>
   <energy>
    <i name="e_fr_energy">    -11.00131710 </i>
    <i name="e_wo_entrp">    -11.00130871 </i>
    <i name="e_0_energy">    -11.00131291 </i>
   </energy>
  </scstep>
  <scstep>
   <time name="dav">    0.52    0.53</time>
   <time name="total">    0.52    0.53</time>
   <energy>
    <i name="e_fr_energy">    -11.00165036 </i>
    <i name="e_wo_entrp">    -11.00164198 </i>
    <i name="e_0_energy">    -11.00164617 </i>
   </energy>
  </scstep>
  <scstep>
   <time name="dav">    0.35    0.36</time>
   <time name="total">    0.37    0.38</time>
   <energy>
    <i name="e_fr_energy">    -11.00165046 </i>
    <i name="e_wo_entrp">    -11.00164208 </i>
    <i name="e_0_energy">    -11.00164627 </i>
   </energy>
  </scstep>
  <scstep>
   <time name="dav">    0.35    0.35</time>
   <time name="total">    0.40    0.40</time>
   <energy>
    <i name="e_fr_energy">    -10.87725393 </i>
    <i name="e_wo_entrp">    -10.87721452 </i>
    <i name="e_0_energy">    -10.87723423 </i>
   </energy>
  </scstep>
  <scstep>
   <time name="dav">    0.36    0.36</time>
   <time name="total">    0.41    0.42</time>
   <energy>
    <i name="e_fr_energy">    -10.82073323 </i>
    <i name="e_wo_entrp">    -10.82053647 </i>
    <i name="e_0_energy">    -10.82063485 </i>
   </energy>
  </scstep>
  <scstep>
   <time name="dav">    0.30    0.31</time>
   <time name="total">    0.35    0.36</time>
   <energy>
    <i name="e_fr_energy">    -10.82203312 </i>
    <i name="e_wo_entrp">    -10.82186931 </i>
    <i name="e_0_energy">    -10.82195121 </i>
   </energy>
  </scstep>
  <scstep>
   <time name="dav">    0.26    0.26</time>
   <time name="total">    0.29    0.31</time>
   <energy>
    <i name="alphaZ">      3.36414203 </i>
    <i name="ewald">   -228.56352493 </i>
    <i name="hartreedc">    -14.90353438 </i>
    <i name="XCdc">    -17.95371620 </i>
    <i name="pawpsdc">     74.98799939 </i>
    <i name="pawaedc">    -40.03165947 </i>
    <i name="eentropy">     -0.00016287 </i>
    <i name="bandstr">      6.15483261 </i>
    <i name="atom">    206.12349923 </i>
    <i name="e_fr_energy">    -10.82212460 </i>
    <i name="e_wo_entrp">    -10.82196173 </i>
    <i name="e_0_energy">    -10.82204316 </i>
   </energy>
  </scstep>
  <structure>
   <crystal>
    <varray name="basis" >
     <v>       0.00000000       2.71500000       2.71500000 </v>
     <v>       2.71500000       0.00000000       2.71500000 </v>
     <v>       2.71500000       2.71500000       0.00000000 </v>
    </varray>
    <i name="volume">     40.02575175 </i>
    <varray name="rec_basis" >
     <v>      -0.18416206       0.18416206       0.18416206 </v>
     <v>       0.18416206      -0.18416206       0.18416206 </v>
     <v>       0.18416206       0.18416206      -0.18416206 </v>
    </varray>
   </crystal>
   <varray name="positions" >
    <v>       0.50000000       0.50000000       0.50000000 </v>
    <v>       0.75000000       0.75000000       0.75000000 </v>
   </varray>
  </structure>
  <varray name="forces" >
   <v>       0.00000000       0.00000000       0.00000000 </v>
   <v>      -0.00000000      -0.00000000      -0.00000000 </v>
  </varray>
  <varray name="stress" >
   <v>      18.21973604      -0.00000000       0.00000000 </v>
   <v>      -0.00000000      18.21973604      -0.00000000 </v>
   <v>       0.00000000      -0.00000000      18.21973604 </v>
  </varray>
  <energy>
   <i name="e_fr_energy">    -10.82212460 </i>
   <i name="e_wo_entrp">    -10.82204316 </i>
   <i name="e_0_energy">     -0.00016287 </i>
  </energy>
  <time name="totalsc">    4.52    5.28</time>
 </calculation>
 <calculation>
  <scstep>
   <time name="dav">    0.34    0.34</time>
   <time name="total">    0.39    0.39</time>
   <energy>
    <i name="alphaZ">      3.25572423 </i>
    <i name="ewald">   -226.08132430 </i>
    <i name="hartreedc">    -14.75358505 </i>
    <i name="XCdc">    -18.11370410 </i>
    <i name="pawpsdc">     74.98415622 </i>
    <i name="pawaedc">    -40.02879079 </i>
    <i name="eentropy">     -0.00006419 </i>
    <i name="bandstr">      3.78382891 </i>
    <i name="atom">    206.12349923 </i>
    <i name="e_fr_energy">    -10.83025984 </i>
    <i name="e_wo_entrp">    -10.83019565 </i>
    <i name="e_0_energy">    -10.83022774 </i>
   </energy>
  </scstep>
  <scstep>
   <time name="dav">    0.36    0.36</time>
   <time name="total">    0.41    0.42</time>
   <energy>
    <i name="e_fr_energy">    -10.82637639 </i>
    <i name="e_wo_entrp">    -10.82629723 </i>
    <i name="e_0_energy">    -10.82633681 </i>
   </energy>
  </scstep>
  <scstep>
   <time name="dav">    0.33    0.33</time>
   <time name="total">    0.38    0.39</time>
   <energy>
    <i name="e_fr_energy">    -10.82437503 </i>
    <i name="e_wo_entrp">    -10.82427294 </i>
    <i name="e_0_energy">    -10.82432399 </i>
   </energy>
  </scstep>
  <scstep>
   <time name="dav">    0.17    0.17</time>
   <time name="total">    0.20    0.21</time>
   <energy>
    <i name="alphaZ">      3.25572423 </i>
    <i name="ewald">   -226.08132430 </i>
    <i name="hartreedc">    -15.30154972 </i>
    <i name="XCdc">    -18.10242668 </i>
    <i name="pawpsdc">     74.00203019 </i>
    <i name="pawaedc">    -39.01925447 </i>
    <i name="eentropy">     -0.00010068 </i>
    <i name="bandstr">      4.29903736 </i>
    <i name="atom">    206.12349923 </i>
    <i name="e_fr_energy">    -10.82436485 </i>
    <i name="e_wo_entrp">    -10.82426416 </i>
    <i name="e_0_energy">    -10.82431450 </i>
   </energy>
  </scstep>
  <structure>
   <crystal>
    <varray name="basis" >
     <v>       0.00000000       2.74480863       2.74480863 </v>
     <v>       2.74480863      -0.00000000       2.74480863 </v>
     <v>       2.74480863       2.74480863       0.00000000 </v>
    </varray>
    <i name="volume">     41.35863602 </i>
    <varray name="rec_basis" >
     <v>      -0.18216206       0.18216206       0.18216206 </v>
     <v>       0.18216206      -0.18216206       0.18216206 </v>
     <v>       0.18216206       0.18216206      -0.18216206 </v>
    </varray>
   </crystal>
   <varray name="positions" >
    <v>       0.50000000       0.50000000       0.50000000 </v>
    <v>       0.75000000       0.75000000       0.75000000 </v>
   </varray>
  </structure>
  <varray name="forces" >
   <v>      -0.00000000      -0.00000000      -0.00000000 </v>
   <v>       0.00000000       0.00000000       0.00000000 </v>
  </varray>
  <varray name="stress" >
   <v>     -11.60370017       0.00000000       0.00000000 </v>
   <v>      -0.00000000     -11.60370017       0.00000000 </v>
   <v>       0.00000000       0.00000000     -11.60370017 </v>
  </varray>
  <energy>
   <i name="e_fr_energy">    -10.82436485 </i>
   <i name="e_wo_entrp">    -10.82431450 </i>
   <i name="e_0_energy">     -0.00010068 </i>
  </energy>
  <time name="totalsc">    1.68    1.90</time>
 </calculation>
 <calculation>
  <scstep>
   <time name="dav">    0.35    0.35</time>
   <time name="total">    0.39    0.40</time>
   <energy>
    <i name="alphaZ">      3.29818894 </i>
    <i name="ewald">   -227.06001463 </i>
    <i name="hartreedc">    -15.37020302 </i>
    <i name="XCdc">    -18.04027336 </i>
    <i name="pawpsdc">     73.96561858 </i>
    <i name="pawaedc">    -38.98128384 </i>
    <i name="eentropy">     -0.00014311 </i>
    <i name="bandstr">      5.23726370 </i>
    <i name="atom">    206.12349923 </i>
    <i name="e_fr_energy">    -10.82734751 </i>
    <i name="e_wo_entrp">    -10.82720440 </i>
    <i name="e_0_energy">    -10.82727596 </i>
   </energy>
  </scstep>
  <scstep>
   <time name="dav">    0.34    0.33</time>
   <time name="total">    0.38    0.39</time>
   <energy>
    <i name="e_fr_energy">    -10.82673549 </i>
    <i name="e_wo_entrp">    -10.82660282 </i>
    <i name="e_0_energy">    -10.82666915 </i>
   </energy>
  </scstep>
  <scstep>
   <time name="dav">    0.21    0.21</time>
   <time name="total">    0.24    0.25</time>
   <energy>
    <i name="alphaZ">      3.29818894 </i>
    <i name="ewald">   -227.06001463 </i>
    <i name="hartreedc">    -15.14779631 </i>
    <i name="XCdc">    -18.04561160 </i>
    <i name="pawpsdc">     74.29593178 </i>
    <i name="pawaedc">    -39.32001256 </i>
    <i name="eentropy">     -0.00012043 </i>
    <i name="bandstr">      5.02952129 </i>
    <i name="atom">    206.12349923 </i>
    <i name="e_fr_energy">    -10.82641430 </i>
    <i name="e_wo_entrp">    -10.82629387 </i>
    <i name="e_0_energy">    -10.82635408 </i>
   </energy>
  </scstep>
  <structure>
   <crystal>
    <varray name="basis" >
     <v>       0.00000000       2.73297776       2.73297776 </v>
     <v>       2.73297776      -0.00000000       2.73297776 </v>
     <v>       2.73297776       2.73297776       0.00000000 </v>
    </varray>
    <i name="volume">     40.82613698 </i>
    <varray name="rec_basis" >
     <v>      -0.18295063       0.18295063       0.18295063 </v>
     <v>       0.18295063      -0.18295063       0.18295063 </v>
     <v>       0.18295063       0.18295063      -0.18295063 </v>
    </varray>
   </crystal>
   <varray name="positions" >
    <v>       0.50000000       0.50000000       0.50000000 </v>
    <v>       0.75000000       0.75000000       0.75000000 </v>
   </varray>
  </structure>
  <varray name="forces" >
   <v>      -0.00000000      -0.00000000      -0.00000000 </v>
   <v>       0.00000000       0.00000000       0.00000000 </v>
  </varray>
  <varray name="stress" >
   <v>      -0.52148829      -0.00000000       0.00000000 </v>
   <v>      -0.00000000      -0.52148829       0.00000000 </v>
   <v>       0.00000000       0.00000000      -0.52148829 </v>
  </varray>
  <energy>
   <i name="e_fr_energy">    -10.82641430 </i>
   <i name="e_wo_entrp">    -10.82635408 </i>
   <i name="e_0_energy">     -0.00012043 </i>
  </energy>
  <time name="totalsc">    1.36    1.57</time>
  <eigenvalues>
   <array>
    <dimension dim="1">band</dimension>
    <dimension dim="2">kpoint</dimension>
    <dimension dim="3">spin</dimension>
    <field>eigene</field>
    <field>occ</field>
    <set>
     <set comment="spin 1">
      <set comment="kpoint 1">
       <r>   -6.1937    1.0000 </r>
       <r>    5.6431    0.9814 </r>
       <r>    5.6431    0.9813 </r>
       <r>    5.6431    0.9813 </r>
       <r>    8.2027    0.0000 </r>
       <r>    8.2027    0.0000 </r>
       <r>    8.2027    0.0000 </r>
       <r>    8.7829    0.0000 </r>
      </set>
      <set comment="kpoint 2">
       <r>   -6.0349    1.0000 </r>
       <r>    4.2994    1.0000 </r>
       <r>    5.4094    0.9999 </r>
       <r>    5.4094    0.9999 </r>
       <r>    8.1367    0.0000 </r>
       <r>    8.5466    0.0000 </r>
       <r>    8.5466    0.0000 </r>
       <r>    9.9422    0.0000 </r>
      </set>
      <set comment="kpoint 3">
       <r>   -5.5685    1.0000 </r>
       <r>    2.2446    1.0000 </r>
       <r>    4.9892    1.0000 </r>
       <r>    4.9893    1.0000 </r>
       <r>    7.7123    0.0000 </r>
       <r>    9.0731    0.0000 </r>
       <r>    9.0731    0.0000 </r>
       <r>   11.9244    0.0000 </r>
      </set>
      <set comment="kpoint 4">
       <r>   -4.8418    1.0000 </r>
       <r>    0.3590    1.0000 </r>
       <r>    4.6537    1.0000 </r>
       <r>    4.6537    1.0000 </r>
       <r>    7.3432    0.0000 </r>
       <r>    9.1561    0.0000 </r>
       <r>    9.1561    0.0000 </r>
       <r>   13.4310    0.0000 </r>
      </set>
      <set comment="kpoint 5">
       <r>   -4.0692    1.0000 </r>
       <r>   -1.0103    1.0000 </r>
       <r>    4.4788    1.0000 </r>
       <r>    4.4788    1.0000 </r>
       <r>    7.1418    0.0000 </r>
       <r>    9.0285    0.0000 </r>
       <r>    9.0285    0.0000 </r>
       <r>   13.3824    0.0000 </r>
      </set>
      <set comment="kpoint 6">
       <r>   -5.9815    1.0000 </r>
       <r>    4.5125    1.0000 </r>
       <r>    4.9778    1.0000 </r>
       <r>    4.9778    1.0000 </r>
       <r>    7.7561    0.0000 </r>
       <r>    9.1277    0.0000 </r>
       <r>    9.1277    0.0000 </r>
       <r>    9.7548    0.0000 </r>
      </set>
      <set comment="kpoint 7">
       <r>   -5.6156    1.0000 </r>
       <r>    2.8513    1.0000 </r>
       <r>    4.5106    1.0000 </r>
       <r>    4.6385    1.0000 </r>
       <r>    7.8434    0.0000 </r>
       <r>    9.1132    0.0000 </r>
       <r>    9.8352    0.0000 </r>
       <r>   10.5294    0.0000 </r>
      </set>
      <set comment="kpoint 8">
       <r>   -4.9666    1.0000 </r>
       <r>    0.9722    1.0000 </r>
       <r>    4.1365    1.0000 </r>
       <r>    4.2081    1.0000 </r>
       <r>    7.9497    0.0000 </r>
       <r>    9.1042    0.0000 </r>
       <r>   10.0146    0.0000 </r>
       <r>   10.9822    0.0000 </r>
      </set>
      <set comment="kpoint 9">
       <r>   -4.1577    1.0000 </r>
       <r>   -0.5908    1.0000 </r>
       <r>    3.7066    1.0000 </r>
       <r>    4.1249    1.0000 </r>
       <r>    7.8179    0.0000 </r>
       <r>    9.0334    0.0000 </r>
       <r>    9.7474    0.0000 </r>
       <r>   12.3986    0.0000 </r>
      </set>
      <set comment="kpoint 10">
       <r>   -3.7895    1.0000 </r>
       <r>   -1.1500    1.0000 </r>
       <r>    3.4525    1.0000 </r>
       <r>    4.2610    1.0000 </r>
       <r>    7.8145    0.0000 </r>
       <r>    9.0655    0.0000 </r>
       <r>    9.4894    0.0000 </r>
       <r>   13.7622    0.0000 </r>
      </set>
      <set comment="kpoint 11">
       <r>   -4.4299    1.0000 </r>
       <r>   -0.1235    1.0000 </r>
       <r>    3.4220    1.0000 </r>
       <r>    4.5857    1.0000 </r>
       <r>    7.9943    0.0000 </r>
       <r>    9.2908    0.0000 </r>
       <r>    9.3622    0.0000 </r>
       <r>   12.9789    0.0000 </r>
      </set>
      <set comment="kpoint 12">
       <r>   -5.2130    1.0000 </r>
       <r>    1.5783    1.0000 </r>
       <r>    3.6566    1.0000 </r>
       <r>    5.0294    1.0000 </r>
       <r>    8.3135    0.0000 </r>
       <r>    9.1407    0.0000 </r>
       <r>    9.4225    0.0000 </r>
       <r>   11.6634    0.0000 </r>
      </set>
      <set comment="kpoint 13">
       <r>   -5.7727    1.0000 </r>
       <r>    3.3195    1.0000 </r>
       <r>    4.3032    1.0000 </r>
       <r>    5.4186    0.9999 </r>
       <r>    8.5871    0.0000 </r>
       <r>    8.6403    0.0000 </r>
       <r>    8.8435    0.0000 </r>
       <r>   10.9077    0.0000 </r>
      </set>
      <set comment="kpoint 14">
       <r>   -5.3509    1.0000 </r>
       <r>    2.6105    1.0000 </r>
       <r>    3.9977    1.0000 </r>
       <r>    3.9977    1.0000 </r>
       <r>    6.9695    0.0000 </r>
       <r>    9.1984    0.0000 </r>
       <r>   10.8702    0.0000 </r>
       <r>   10.8702    0.0000 </r>
      </set>
      <set comment="kpoint 15">
       <r>   -4.7913    1.0000 </r>
       <r>    1.2983    1.0000 </r>
       <r>    3.3794    1.0000 </r>
       <r>    3.6597    1.0000 </r>
       <r>    7.1240    0.0000 </r>
       <r>    8.8273    0.0000 </r>
       <r>   11.1044    0.0000 </r>
       <r>   11.4481    0.0000 </r>
      </set>
      <set comment="kpoint 16">
       <r>   -4.0072    1.0000 </r>
       <r>   -0.1459    1.0000 </r>
       <r>    2.6481    1.0000 </r>
       <r>    3.5617    1.0000 </r>
       <r>    7.3129    0.0000 </r>
       <r>    9.8351    0.0000 </r>
       <r>   10.8540    0.0000 </r>
       <r>   11.2748    0.0000 </r>
      </set>
      <set comment="kpoint 17">
       <r>   -3.3687    1.0000 </r>
       <r>   -1.0664    1.0000 </r>
       <r>    2.1363    1.0000 </r>
       <r>    3.7128    1.0000 </r>
       <r>    7.4594    0.0000 </r>
       <r>   10.6243    0.0000 </r>
       <r>   10.8964    0.0000 </r>
       <r>   11.7837    0.0000 </r>
      </set>
      <set comment="kpoint 18">
       <r>   -3.7709    1.0000 </r>
       <r>   -0.5017    1.0000 </r>
       <r>    1.9617    1.0000 </r>
       <r>    4.0870    1.0000 </r>
       <r>    7.8345    0.0000 </r>
       <r>   10.5507    0.0000 </r>
       <r>   10.5705    0.0000 </r>
       <r>   12.7765    0.0000 </r>
      </set>
      <set comment="kpoint 19">
       <r>   -4.5770    1.0000 </r>
       <r>    0.7238    1.0000 </r>
       <r>    2.3457    1.0000 </r>
       <r>    4.5999    1.0000 </r>
       <r>    8.3432    0.0000 </r>
       <r>    9.9404    0.0000 </r>
       <r>   10.2742    0.0000 </r>
       <r>   11.4363    0.0000 </r>
      </set>
      <set comment="kpoint 20">
       <r>   -4.3213    1.0000 </r>
       <r>    0.6428    1.0000 </r>
       <r>    3.2638    1.0000 </r>
       <r>    3.2638    1.0000 </r>
       <r>    6.4030    0.0005 </r>
       <r>    7.6743    0.0000 </r>
       <r>   12.8402    0.0000 </r>
       <r>   12.8402    0.0000 </r>
      </set>
      <set comment="kpoint 21">
       <r>   -3.5951    1.0000 </r>
       <r>   -0.3930    1.0000 </r>
       <r>    2.5549    1.0000 </r>
       <r>    3.1083    1.0000 </r>
       <r>    6.6485    0.0000 </r>
       <r>    7.7118    0.0000 </r>
       <r>   13.1322    0.0000 </r>
       <r>   13.1955    0.0000 </r>
      </set>
      <set comment="kpoint 22">
       <r>   -2.8184    1.0000 </r>
       <r>   -1.2748    1.0000 </r>
       <r>    1.6708    1.0000 </r>
       <r>    3.2133    1.0000 </r>
       <r>    6.8458    0.0000 </r>
       <r>    9.2894    0.0000 </r>
       <r>   12.8241    0.0000 </r>
       <r>   12.9188    0.0000 </r>
      </set>
      <set comment="kpoint 23">
       <r>   -2.9920    1.0000 </r>
       <r>   -1.0849    1.0000 </r>
       <r>    1.3154    1.0000 </r>
       <r>    3.5624    1.0000 </r>
       <r>    7.2376    0.0000 </r>
       <r>   11.4449    0.0000 </r>
       <r>   12.0619    0.0000 </r>
       <r>   12.6388    0.0000 </r>
      </set>
      <set comment="kpoint 24">
       <r>   -2.9305    1.0000 </r>
       <r>   -1.2438    1.0000 </r>
       <r>    2.8833    1.0000 </r>
       <r>    2.8834    1.0000 </r>
       <r>    6.2708    0.0092 </r>
       <r>    6.6725    0.0000 </r>
       <r>   14.8924    0.0000 </r>
       <r>   14.8924    0.0000 </r>
      </set>
      <set comment="kpoint 25">
       <r>   -2.1734    1.0000 </r>
       <r>   -2.0035    1.0000 </r>
       <r>    2.2847    1.0000 </r>
       <r>    2.9201    1.0000 </r>
       <r>    6.4971    0.0000 </r>
       <r>    7.3131    0.0000 </r>
       <r>   14.7533    0.0000 </r>
       <r>   15.0512    0.0000 </r>
      </set>
      <set comment="kpoint 26">
       <r>   -5.1539    1.0000 </r>
       <r>    1.8609    1.0000 </r>
       <r>    3.3168    1.0000 </r>
       <r>    4.4909    1.0000 </r>
       <r>    8.0233    0.0000 </r>
       <r>    9.3981    0.0000 </r>
       <r>   10.0615    0.0000 </r>
       <r>   10.6313    0.0000 </r>
      </set>
      <set comment="kpoint 27">
       <r>   -4.4321    1.0000 </r>
       <r>    0.3958    1.0000 </r>
       <r>    2.7126    1.0000 </r>
       <r>    4.0622    1.0000 </r>
       <r>    8.4045    0.0000 </r>
       <r>    9.2273    0.0000 </r>
       <r>   10.4163    0.0000 </r>
       <r>   11.0839    0.0000 </r>
      </set>
      <set comment="kpoint 28">
       <r>   -3.6535    1.0000 </r>
       <r>   -0.8664    1.0000 </r>
       <r>    2.5172    1.0000 </r>
       <r>    3.7462    1.0000 </r>
       <r>    8.4882    0.0000 </r>
       <r>    8.8507    0.0000 </r>
       <r>   11.0184    0.0000 </r>
       <r>   12.1442    0.0000 </r>
      </set>
      <set comment="kpoint 29">
       <r>   -4.1508    1.0000 </r>
       <r>    0.3453    1.0000 </r>
       <r>    2.6156    1.0000 </r>
       <r>    3.2939    1.0000 </r>
       <r>    7.4807    0.0000 </r>
       <r>    8.4942    0.0000 </r>
       <r>   11.0445    0.0000 </r>
       <r>   12.7525    0.0000 </r>
      </set>
      <set comment="kpoint 30">
       <r>   -3.3403    1.0000 </r>
       <r>   -0.7206    1.0000 </r>
       <r>    1.9630    1.0000 </r>
       <r>    2.9948    1.0000 </r>
       <r>    7.8853    0.0000 </r>
       <r>    9.5753    0.0000 </r>
       <r>   10.6063    0.0000 </r>
       <r>   13.1488    0.0000 </r>
      </set>
      <set comment="kpoint 31">
       <r>   -2.9849    1.0000 </r>
       <r>   -1.1356    1.0000 </r>
       <r>    1.5843    1.0000 </r>
       <r>    3.1047    1.0000 </r>
       <r>    8.1726    0.0000 </r>
       <r>   10.1471    0.0000 </r>
       <r>   11.6791    0.0000 </r>
       <r>   12.2032    0.0000 </r>
      </set>
      <set comment="kpoint 32">
       <r>   -3.6706    1.0000 </r>
       <r>   -0.3489    1.0000 </r>
       <r>    1.7308    1.0000 </r>
       <r>    3.5326    1.0000 </r>
       <r>    8.6734    0.0000 </r>
       <r>    9.6533    0.0000 </r>
       <r>   10.5039    0.0000 </r>
       <r>   12.5238    0.0000 </r>
      </set>
      <set comment="kpoint 33">
       <r>   -2.8179    1.0000 </r>
       <r>   -1.2617    1.0000 </r>
       <r>    2.3338    1.0000 </r>
       <r>    2.5407    1.0000 </r>
       <r>    7.3152    0.0000 </r>
       <r>    7.6286    0.0000 </r>
       <r>   12.8061    0.0000 </r>
       <r>   14.6335    0.0000 </r>
      </set>
      <set comment="kpoint 34">
       <r>   -2.3088    1.0000 </r>
       <r>   -1.7137    1.0000 </r>
       <r>    1.6294    1.0000 </r>
       <r>    2.6273    1.0000 </r>
       <r>    7.6838    0.0000 </r>
       <r>    9.3077    0.0000 </r>
       <r>   12.2636    0.0000 </r>
       <r>   12.5214    0.0000 </r>
      </set>
      <set comment="kpoint 35">
       <r>   -2.5499    1.0000 </r>
       <r>   -1.4066    1.0000 </r>
       <r>    1.6664    1.0000 </r>
       <r>    2.2968    1.0000 </r>
       <r>    9.4917    0.0000 </r>
       <r>    9.6066    0.0000 </r>
       <r>   10.2243    0.0000 </r>
       <r>   11.9715    0.0000 </r>
      </set>
     </set>
    </set>
   </array>
  </eigenvalues>
  <separator name="orbital magnetization" >
   <v name="MAGDIPOLOUT">      0.00000000      0.00000000      0.00000000</v>
  </separator>
  <dos>
   <i name="efermi">      5.93764003 </i>
   <total>
    <array>
     <dimension dim="1">gridpoints</dimension>
     <dimension dim="2">spin</dimension>
     <field>energy</field>
     <field>total</field>
     <field>integrated</field>
     <set>
      <set comment="spin 1">
       <r>    -8.1937     0.0000     0.0000 </r>
       <r>    -8.1095     0.0000     0.0000 </r>
       <r>    -8.0254     0.0000     0.0000 </r>
       <r>    -7.9412     0.0000     0.0000 </r>
       <r>    -7.8571     0.0000     0.0000 </r>
       <r>    -7.7729     0.0000     0.0000 </r>
       <r>    -7.6888     0.0000     0.0000 </r>
       <r>    -7.6046     0.0000     0.0000 </r>
       <r>    -7.5205     0.0000     0.0000 </r>
       <r>    -7.4363     0.0000     0.0000 </r>
       <r>    -7.3522     0.0000     0.0000 </r>
       <r>    -7.2680     0.0000     0.0000 </r>
       <r>    -7.1839     0.0000     0.0000 </r>
       <r>    -7.0997     0.0000     0.0000 </r>
       <r>    -7.0156     0.0000     0.0000 </r>
       <r>    -6.9314     0.0000     0.0000 </r>
       <r>    -6.8473     0.0000     0.0000 </r>
       <r>    -6.7631     0.0000     0.0000 </r>
       <r>    -6.6790     0.0000     0.0000 </r>
       <r>    -6.5948     0.0001     0.0000 </r>
       <r>    -6.5107     0.0004     0.0000 </r>
       <r>    -6.4265     0.0020     0.0002 </r>
       <r>    -6.3424     0.0072     0.0008 </r>
       <r>    -6.2582     0.0208     0.0026 </r>
       <r>    -6.1741     0.0478     0.0066 </r>
       <r>    -6.0899     0.0862     0.0138 </r>
       <r>    -6.0058     0.1232     0.0242 </r>
       <r>    -5.9216     0.1503     0.0369 </r>
       <r>    -5.8375     0.1792     0.0519 </r>
       <r>    -5.7533     0.2269     0.0710 </r>
       <r>    -5.6692     0.2824     0.0948 </r>
       <r>    -5.5850     0.3073     0.1206 </r>
       <r>    -5.5009     0.2835     0.1445 </r>
       <r>    -5.4167     0.2511     0.1656 </r>
       <r>    -5.3326     0.2727     0.1886 </r>
       <r>    -5.2484     0.3554     0.2185 </r>
       <r>    -5.1643     0.4378     0.2553 </r>
       <r>    -5.0801     0.4659     0.2945 </r>
       <r>    -4.9960     0.4516     0.3325 </r>
       <r>    -4.9118     0.4335     0.3690 </r>
       <r>    -4.8277     0.4163     0.4041 </r>
       <r>    -4.7435     0.3892     0.4368 </r>
       <r>    -4.6594     0.3810     0.4689 </r>
       <r>    -4.5752     0.4481     0.5066 </r>
       <r>    -4.4911     0.5857     0.5559 </r>
       <r>    -4.4069     0.6975     0.6146 </r>
       <r>    -4.3228     0.7105     0.6743 </r>
       <r>    -4.2386     0.6713     0.7308 </r>
       <r>    -4.1545     0.6525     0.7857 </r>
       <r>    -4.0703     0.6412     0.8397 </r>
       <r>    -3.9862     0.6097     0.8910 </r>
       <r>    -3.9020     0.6137     0.9426 </r>
       <r>    -3.8179     0.7287     1.0040 </r>
       <r>    -3.7337     0.9182     1.0812 </r>
       <r>    -3.6496     1.0357     1.1684 </r>
       <r>    -3.5655     0.9890     1.2516 </r>
       <r>    -3.4813     0.8524     1.3233 </r>
       <r>    -3.3972     0.7477     1.3863 </r>
       <r>    -3.3130     0.6724     1.4428 </r>
       <r>    -3.2289     0.5694     1.4907 </r>
       <r>    -3.1447     0.4896     1.5320 </r>
       <r>    -3.0606     0.5297     1.5765 </r>
       <r>    -2.9764     0.6621     1.6322 </r>
       <r>    -2.8923     0.7516     1.6955 </r>
       <r>    -2.8081     0.7099     1.7552 </r>
       <r>    -2.7240     0.5675     1.8030 </r>
       <r>    -2.6398     0.4180     1.8382 </r>
       <r>    -2.5557     0.3258     1.8656 </r>
       <r>    -2.4715     0.2903     1.8900 </r>
       <r>    -2.3874     0.2867     1.9141 </r>
       <r>    -2.3032     0.2952     1.9390 </r>
       <r>    -2.2191     0.2919     1.9635 </r>
       <r>    -2.1349     0.2629     1.9857 </r>
       <r>    -2.0508     0.2193     2.0041 </r>
       <r>    -1.9666     0.1817     2.0194 </r>
       <r>    -1.8825     0.1666     2.0334 </r>
       <r>    -1.7983     0.1811     2.0487 </r>
       <r>    -1.7142     0.2080     2.0662 </r>
       <r>    -1.6300     0.2233     2.0850 </r>
       <r>    -1.5459     0.2466     2.1057 </r>
       <r>    -1.4617     0.3384     2.1342 </r>
       <r>    -1.3776     0.5353     2.1792 </r>
       <r>    -1.2934     0.8087     2.2473 </r>
       <r>    -1.2093     1.0707     2.3374 </r>
       <r>    -1.1251     1.2078     2.4390 </r>
       <r>    -1.0410     1.1645     2.5370 </r>
       <r>    -0.9568     1.0145     2.6224 </r>
       <r>    -0.8727     0.8903     2.6973 </r>
       <r>    -0.7885     0.8410     2.7681 </r>
       <r>    -0.7044     0.8211     2.8372 </r>
       <r>    -0.6202     0.7887     2.9035 </r>
       <r>    -0.5361     0.7491     2.9666 </r>
       <r>    -0.4519     0.7155     3.0268 </r>
       <r>    -0.3678     0.6770     3.0837 </r>
       <r>    -0.2836     0.6241     3.1363 </r>
       <r>    -0.1995     0.5667     3.1839 </r>
       <r>    -0.1153     0.4962     3.2257 </r>
       <r>    -0.0312     0.3848     3.2581 </r>
       <r>     0.0530     0.2559     3.2796 </r>
       <r>     0.1371     0.1963     3.2961 </r>
       <r>     0.2213     0.2731     3.3191 </r>
       <r>     0.3054     0.4534     3.3573 </r>
       <r>     0.3896     0.5995     3.4077 </r>
       <r>     0.4737     0.5886     3.4572 </r>
       <r>     0.5579     0.4462     3.4948 </r>
       <r>     0.6420     0.2991     3.5200 </r>
       <r>     0.7262     0.2210     3.5386 </r>
       <r>     0.8103     0.2014     3.5555 </r>
       <r>     0.8945     0.2110     3.5733 </r>
       <r>     0.9786     0.2244     3.5922 </r>
       <r>     1.0628     0.2247     3.6111 </r>
       <r>     1.1469     0.2299     3.6304 </r>
       <r>     1.2311     0.2740     3.6535 </r>
       <r>     1.3152     0.3600     3.6838 </r>
       <r>     1.3994     0.4934     3.7253 </r>
       <r>     1.4835     0.7232     3.7861 </r>
       <r>     1.5677     1.0383     3.8735 </r>
       <r>     1.6518     1.2802     3.9812 </r>
       <r>     1.7360     1.3056     4.0911 </r>
       <r>     1.8201     1.1763     4.1901 </r>
       <r>     1.9043     1.0477     4.2783 </r>
       <r>     1.9884     0.9576     4.3588 </r>
       <r>     2.0726     0.8667     4.4318 </r>
       <r>     2.1567     0.8035     4.4994 </r>
       <r>     2.2409     0.8301     4.5692 </r>
       <r>     2.3250     0.9452     4.6488 </r>
       <r>     2.4092     1.1246     4.7434 </r>
       <r>     2.4933     1.3637     4.8582 </r>
       <r>     2.5775     1.5885     4.9918 </r>
       <r>     2.6616     1.6481     5.1305 </r>
       <r>     2.7458     1.4958     5.2564 </r>
       <r>     2.8299     1.2756     5.3637 </r>
       <r>     2.9141     1.1630     5.4616 </r>
       <r>     2.9982     1.1953     5.5622 </r>
       <r>     3.0824     1.2899     5.6707 </r>
       <r>     3.1665     1.3702     5.7860 </r>
       <r>     3.2507     1.4266     5.9061 </r>
       <r>     3.3348     1.4722     6.0300 </r>
       <r>     3.4190     1.5033     6.1565 </r>
       <r>     3.5031     1.5302     6.2852 </r>
       <r>     3.5873     1.5702     6.4174 </r>
       <r>     3.6714     1.5706     6.5495 </r>
       <r>     3.7556     1.4267     6.6696 </r>
       <r>     3.8397     1.1544     6.7667 </r>
       <r>     3.9239     0.9585     6.8474 </r>
       <r>     4.0080     1.0081     6.9322 </r>
       <r>     4.0922     1.2103     7.0341 </r>
       <r>     4.1763     1.3220     7.1453 </r>
       <r>     4.2605     1.2393     7.2496 </r>
       <r>     4.3446     1.0826     7.3407 </r>
       <r>     4.4288     1.0216     7.4267 </r>
       <r>     4.5129     1.0713     7.5168 </r>
       <r>     4.5971     1.0810     7.6078 </r>
       <r>     4.6812     0.9244     7.6856 </r>
       <r>     4.7653     0.6589     7.7410 </r>
       <r>     4.8495     0.4559     7.7794 </r>
       <r>     4.9336     0.4015     7.8132 </r>
       <r>     5.0178     0.4168     7.8482 </r>
       <r>     5.1019     0.3813     7.8803 </r>
       <r>     5.1861     0.2858     7.9044 </r>
       <r>     5.2702     0.2140     7.9224 </r>
       <r>     5.3544     0.2102     7.9401 </r>
       <r>     5.4385     0.2276     7.9592 </r>
       <r>     5.5227     0.2052     7.9765 </r>
       <r>     5.6068     0.1424     7.9885 </r>
       <r>     5.6910     0.0785     7.9951 </r>
       <r>     5.7751     0.0367     7.9982 </r>
       <r>     5.8593     0.0154     7.9994 </r>
       <r>     5.9434     0.0070     8.0000 </r>
       <r>     6.0276     0.0086     8.0008 </r>
       <r>     6.1117     0.0216     8.0026 </r>
       <r>     6.1959     0.0488     8.0067 </r>
       <r>     6.2800     0.0897     8.0142 </r>
       <r>     6.3642     0.1418     8.0262 </r>
       <r>     6.4483     0.2039     8.0433 </r>
       <r>     6.5325     0.2726     8.0663 </r>
       <r>     6.6166     0.3348     8.0944 </r>
       <r>     6.7008     0.3710     8.1257 </r>
       <r>     6.7849     0.3738     8.1571 </r>
       <r>     6.8691     0.3566     8.1871 </r>
       <r>     6.9532     0.3487     8.2165 </r>
       <r>     7.0374     0.3896     8.2493 </r>
       <r>     7.1215     0.5066     8.2919 </r>
       <r>     7.2057     0.6829     8.3494 </r>
       <r>     7.2898     0.8552     8.4213 </r>
       <r>     7.3740     0.9542     8.5016 </r>
       <r>     7.4581     0.9731     8.5835 </r>
       <r>     7.5423     0.9974     8.6674 </r>
       <r>     7.6264     1.1359     8.7630 </r>
       <r>     7.7106     1.4073     8.8814 </r>
       <r>     7.7947     1.6970     9.0242 </r>
       <r>     7.8789     1.8326     9.1785 </r>
       <r>     7.9630     1.7281     9.3239 </r>
       <r>     8.0472     1.4661     9.4473 </r>
       <r>     8.1313     1.2170     9.5497 </r>
       <r>     8.2155     1.0979     9.6421 </r>
       <r>     8.2996     1.1321     9.7373 </r>
       <r>     8.3838     1.2676     9.8440 </r>
       <r>     8.4679     1.3851     9.9605 </r>
       <r>     8.5521     1.3694    10.0758 </r>
       <r>     8.6362     1.2306    10.1793 </r>
       <r>     8.7204     1.0990    10.2718 </r>
       <r>     8.8045     1.0804    10.3627 </r>
       <r>     8.8887     1.1871    10.4626 </r>
       <r>     8.9728     1.4091    10.5812 </r>
       <r>     9.0570     1.7251    10.7264 </r>
       <r>     9.1411     2.0255    10.8968 </r>
       <r>     9.2253     2.1716    11.0795 </r>
       <r>     9.3094     2.1375    11.2594 </r>
       <r>     9.3936     2.0014    11.4278 </r>
       <r>     9.4777     1.8405    11.5827 </r>
       <r>     9.5619     1.6767    11.7238 </r>
       <r>     9.6460     1.4972    11.8498 </r>
       <r>     9.7302     1.3112    11.9601 </r>
       <r>     9.8143     1.1573    12.0575 </r>
       <r>     9.8985     1.0633    12.1470 </r>
       <r>     9.9826     1.0325    12.2339 </r>
       <r>    10.0668     1.0444    12.3218 </r>
       <r>    10.1509     1.0496    12.4101 </r>
       <r>    10.2351     1.0223    12.4961 </r>
       <r>    10.3192     1.0299    12.5828 </r>
       <r>    10.4034     1.1809    12.6822 </r>
       <r>    10.4875     1.4620    12.8052 </r>
       <r>    10.5717     1.6770    12.9463 </r>
       <r>    10.6558     1.6348    13.0839 </r>
       <r>    10.7400     1.4026    13.2019 </r>
       <r>    10.8241     1.2574    13.3077 </r>
       <r>    10.9083     1.3545    13.4217 </r>
       <r>    10.9924     1.5549    13.5525 </r>
       <r>    11.0766     1.5974    13.6870 </r>
       <r>    11.1607     1.3728    13.8025 </r>
       <r>    11.2449     1.0193    13.8883 </r>
       <r>    11.3290     0.7515    13.9515 </r>
       <r>    11.4132     0.6499    14.0062 </r>
       <r>    11.4973     0.6638    14.0620 </r>
       <r>    11.5815     0.7334    14.1238 </r>
       <r>    11.6656     0.8101    14.1919 </r>
       <r>    11.7498     0.8248    14.2613 </r>
       <r>    11.8339     0.7580    14.3251 </r>
       <r>    11.9181     0.6968    14.3838 </r>
       <r>    12.0022     0.7444    14.4464 </r>
       <r>    12.0864     0.9026    14.5223 </r>
       <r>    12.1705     1.0596    14.6115 </r>
       <r>    12.2547     1.0878    14.7031 </r>
       <r>    12.3388     0.9789    14.7854 </r>
       <r>    12.4230     0.8461    14.8566 </r>
       <r>    12.5071     0.7815    14.9224 </r>
       <r>    12.5913     0.7990    14.9896 </r>
       <r>    12.6754     0.8974    15.0651 </r>
       <r>    12.7596     1.0521    15.1537 </r>
       <r>    12.8437     1.1654    15.2517 </r>
       <r>    12.9279     1.1578    15.3492 </r>
       <r>    13.0120     1.0806    15.4401 </r>
       <r>    13.0961     1.0203    15.5260 </r>
       <r>    13.1803     0.9473    15.6057 </r>
       <r>    13.2644     0.7798    15.6713 </r>
       <r>    13.3486     0.5396    15.7167 </r>
       <r>    13.4327     0.3272    15.7442 </r>
       <r>    13.5169     0.1989    15.7610 </r>
       <r>    13.6010     0.1526    15.7738 </r>
       <r>    13.6852     0.1646    15.7877 </r>
       <r>    13.7693     0.1887    15.8035 </r>
       <r>    13.8535     0.1751    15.8183 </r>
       <r>    13.9376     0.1193    15.8283 </r>
       <r>    14.0218     0.0581    15.8332 </r>
       <r>    14.1059     0.0202    15.8349 </r>
       <r>    14.1901     0.0055    15.8354 </r>
       <r>    14.2742     0.0046    15.8358 </r>
       <r>    14.3584     0.0169    15.8372 </r>
       <r>    14.4425     0.0537    15.8417 </r>
       <r>    14.5267     0.1244    15.8522 </r>
       <r>    14.6108     0.2129    15.8701 </r>
       <r>    14.6950     0.2777    15.8935 </r>
       <r>    14.7791     0.2913    15.9180 </r>
       <r>    14.8633     0.2659    15.9403 </r>
       <r>    14.9474     0.2284    15.9596 </r>
       <r>    15.0316     0.1883    15.9754 </r>
       <r>    15.1157     0.1409    15.9873 </r>
       <r>    15.1999     0.0880    15.9947 </r>
       <r>    15.2840     0.0428    15.9983 </r>
       <r>    15.3682     0.0156    15.9996 </r>
       <r>    15.4523     0.0041    15.9999 </r>
       <r>    15.5365     0.0008    16.0000 </r>
       <r>    15.6206     0.0001    16.0000 </r>
       <r>    15.7048     0.0000    16.0000 </r>
       <r>    15.7889     0.0000    16.0000 </r>
       <r>    15.8731     0.0000    16.0000 </r>
       <r>    15.9572     0.0000    16.0000 </r>
       <r>    16.0414     0.0000    16.0000 </r>
       <r>    16.1255     0.0000    16.0000 </r>
       <r>    16.2097     0.0000    16.0000 </r>
       <r>    16.2938     0.0000    16.0000 </r>
       <r>    16.3780     0.0000    16.0000 </r>
       <r>    16.4621     0.0000    16.0000 </r>
       <r>    16.5463     0.0000    16.0000 </r>
       <r>    16.6304     0.0000    16.0000 </r>
       <r>    16.7146     0.0000    16.0000 </r>
       <r>    16.7987     0.0000    16.0000 </r>
       <r>    16.8829     0.0000    16.0000 </r>
       <r>    16.9670     0.0000    16.0000 </r>
       <r>    17.0512     0.0000    16.0000 </r>
      </set>
     </set>
    </array>
   </total>
  </dos>
 </calculation>
 <structure name="finalpos" >
  <crystal>
   <varray name="basis" >
    <v>       0.00000000       2.73297776       2.73297776 </v>
    <v>       2.73297776      -0.00000000       2.73297776 </v>
    <v>       2.73297776       2.73297776       0.00000000 </v>
   </varray>
   <i name="volume">     40.82613698 </i>
   <varray name="rec_basis" >
    <v>      -0.18295063       0.18295063       0.18295063 </v>
    <v>       0.18295063      -0.18295063       0.18295063 </v>
    <v>       0.18295063       0.18295063      -0.18295063 </v>
   </varray>
  </crystal>
  <varray name="positions" >
   <v>       0.50000000       0.50000000       0.50000000 </v>
   <v>       0.75000000       0.75000000       0.75000000 </v>
  </varray>
 </structure>
</modeling>
