unknown system                          
   1.00000000000000     
     0.000000    2.733712    2.733712
     2.733712   -0.000000    2.733712
     2.733712    2.733712    0.000000
   Si
     2
Direct
  0.500000  0.500000  0.500000
  0.750000  0.750000  0.750000
 
   28   28   28
 0.85816687141E+00 0.88476782495E+00 0.96681992875E+00 0.11113394482E+01 0.13303222401E+01
 0.16396128984E+01 0.20552457943E+01 0.25871425686E+01 0.32314570583E+01 0.39637288221E+01
 0.47350843587E+01 0.54735742380E+01 0.60925564278E+01 0.65066966194E+01 0.66525790861E+01
 0.65066849078E+01 0.60925659621E+01 0.54736193900E+01 0.47351330321E+01 0.39637377528E+01
 0.32314210117E+01 0.25870954715E+01 0.20552210568E+01 0.16396153344E+01 0.13303355160E+01
 0.11113481411E+01 0.96682058302E+00 0.88476550966E+00 0.88476782495E+00 0.92961948186E+00
 0.10227086187E+01 0.11710911918E+01 0.13853078284E+01 0.16776808428E+01 0.20584686490E+01
 0.25302151108E+01 0.30816834752E+01 0.36833843252E+01 0.42867049729E+01 0.48281947219E+01
 0.52396030629E+01 0.54623416735E+01 0.54623432267E+01 0.52396155296E+01 0.48282219363E+01
 0.42867247288E+01 0.36833695861E+01 0.30816402674E+01 0.25301793287E+01 0.20584651219E+01
 0.16777008422E+01 0.13853281149E+01 0.11711007518E+01 0.10227113015E+01 0.92962088928E+00
 0.88476858135E+00 0.96681992875E+00 0.10227086187E+01 0.11203193772E+01 0.12663835754E+01
 0.14696193640E+01 0.17386725901E+01 0.20785009383E+01 0.24857171184E+01 0.29442271204E+01
 0.34229650223E+01 0.38773289446E+01 0.42550945034E+01 0.45062400182E+01 0.45944017373E+01
 0.45062456480E+01 0.42551012463E+01 0.38773243584E+01 0.34229405663E+01 0.29441957755E+01
 0.24857050506E+01 0.20785171962E+01 0.17386987564E+01 0.14696334031E+01 0.12663828814E+01
 0.11203153114E+01 0.10227085220E+01 0.96682191263E+00 0.94862910781E+00 0.11113394482E+01
 0.11710911918E+01 0.12663835754E+01 0.14034112121E+01 0.15889062629E+01 0.18280494905E+01
 0.21214120435E+01 0.24614544747E+01 0.28297857771E+01 0.31966860108E+01 0.35239869070E+01
 0.37713719966E+01 0.39048312123E+01 0.39048316397E+01 0.37713719359E+01 0.35239829230E+01
 0.31966773083E+01 0.28297799774E+01 0.24614615348E+01 0.21214291961E+01 0.18280606534E+01
 0.15889014205E+01 0.14033982753E+01 0.12663755866E+01 0.11710903398E+01 0.11113402905E+01
 0.10826242582E+01 0.10826241215E+01 0.13303222401E+01 0.13853078284E+01 0.14696193640E+01
 0.15889062629E+01 0.17480791776E+01 0.19494729179E+01 0.21905291669E+01 0.24614530948E+01
 0.27438410048E+01 0.30114238923E+01 0.32335549539E+01 0.33810360216E+01 0.34327655778E+01
 0.33810375758E+01 0.32335614719E+01 0.30114358340E+01 0.27438537094E+01 0.24614607102E+01
 0.21905275025E+01 0.19494609488E+01 0.17480626146E+01 0.15888965010E+01 0.14696222948E+01
 0.13853160481E+01 0.13303249789E+01 0.12996283337E+01 0.12898026856E+01 0.12996307732E+01
 0.16396128984E+01 0.16776808428E+01 0.17386725901E+01 0.18280494905E+01 0.19494729179E+01
 0.21034027639E+01 0.22855798798E+01 0.24857162923E+01 0.26871426385E+01 0.28682236448E+01
 0.30058422800E+01 0.30803282628E+01 0.30803307278E+01 0.30058510995E+01 0.28682371560E+01
 0.26871501261E+01 0.24857065624E+01 0.22855553000E+01 0.21033793115E+01 0.19494657399E+01
 0.18280608740E+01 0.17386925096E+01 0.16776958947E+01 0.16396159371E+01 0.16185398589E+01
 0.16094500263E+01 0.16094535529E+01 0.16185451073E+01 0.20552457943E+01 0.20584686490E+01
 0.20785009383E+01 0.21214120435E+01 0.21905291669E+01 0.22855798798E+01 0.24019493043E+01
 0.25302181328E+01 0.26564995519E+01 0.27641284494E+01 0.28368074430E+01 0.28625168459E+01
 0.28368145972E+01 0.27641335296E+01 0.26564896908E+01 0.25301892109E+01 0.24019155092E+01
 0.22855654412E+01 0.21905454379E+01 0.21214448310E+01 0.20785245223E+01 0.20584708576E+01
 0.20552353888E+01 0.20611541885E+01 0.20685626611E+01 0.20717404019E+01 0.20685653568E+01
 0.20611629019E+01 0.25871425686E+01 0.25302151108E+01 0.24857171184E+01 0.24614544747E+01
 0.24614530948E+01 0.24857162923E+01 0.25302181328E+01 0.25871460251E+01 0.26457136567E+01
 0.26939048679E+01 0.27211351371E+01 0.27211405540E+01 0.26939094272E+01 0.26456982227E+01
 0.25871117806E+01 0.25301912773E+01 0.24857226467E+01 0.24614904580E+01 0.24614926094E+01
 0.24857257303E+01 0.25301917670E+01 0.25871125674E+01 0.26457020396E+01 0.26939124046E+01
 0.27211390606E+01 0.27211325268E+01 0.26939048117E+01 0.26457133394E+01 0.32314570583E+01
 0.30816834752E+01 0.29442271204E+01 0.28297857771E+01 0.27438410048E+01 0.26871426385E+01
 0.26564995519E+01 0.26457136567E+01 0.26467840908E+01 0.26515886407E+01 0.26539664526E+01
 0.26515937216E+01 0.26467737773E+01 0.26456848337E+01 0.26564816027E+01 0.26871628288E+01
 0.27438872216E+01 0.28298171432E+01 0.29442173695E+01 0.30816446453E+01 0.32314228639E+01
 0.33779422816E+01 0.35024195494E+01 0.35863579345E+01 0.36160257190E+01 0.35863390672E+01
 0.35024019012E+01 0.33779486392E+01 0.39637288221E+01 0.36833843252E+01 0.34229650223E+01
 0.31966860108E+01 0.30114238923E+01 0.28682236448E+01 0.27641284494E+01 0.26939048679E+01
 0.26515886407E+01 0.26319667390E+01 0.26319653264E+01 0.26515755589E+01 0.26938758515E+01
 0.27641084102E+01 0.28682413852E+01 0.30114688952E+01 0.31967150126E+01 0.34229528605E+01
 0.36833497684E+01 0.39637066701E+01 0.42420264896E+01 0.44901256872E+01 0.46778190714E+01
 0.47792000830E+01 0.47791950023E+01 0.46778046290E+01 0.44901087214E+01 0.42420230738E+01
 0.47350843587E+01 0.42867049729E+01 0.38773289446E+01 0.35239869070E+01 0.32335549539E+01
 0.30058422800E+01 0.28368074430E+01 0.27211351371E+01 0.26539664526E+01 0.26319653264E+01
 0.26539444345E+01 0.27210960166E+01 0.28367761683E+01 0.30058497551E+01 0.32335988028E+01
 0.35240270826E+01 0.38773333073E+01 0.42866833071E+01 0.47350675698E+01 0.51935497037E+01
 0.56222918959E+01 0.59752843828E+01 0.62085946419E+01 0.62902740826E+01 0.62085962832E+01
 0.59752816169E+01 0.56222840655E+01 0.51935487511E+01 0.54735742380E+01 0.48281947219E+01
 0.42550945034E+01 0.37713719966E+01 0.33810360216E+01 0.30803282628E+01 0.28625168459E+01
 0.27211405540E+01 0.26515937216E+01 0.26515755589E+01 0.27210960166E+01 0.28624765130E+01
 0.30803287975E+01 0.33810844225E+01 0.37714312424E+01 0.42551195547E+01 0.48281768886E+01
 0.54735399506E+01 0.61569976665E+01 0.68266060660E+01 0.74172140083E+01 0.78604720804E+01
 0.80986968454E+01 0.80986883285E+01 0.78604538415E+01 0.74172006907E+01 0.68266090287E+01
 0.61570209655E+01 0.60925564278E+01 0.52396030629E+01 0.45062400182E+01 0.39048312123E+01
 0.34327655778E+01 0.30803307278E+01 0.28368145972E+01 0.26939094272E+01 0.26467737773E+01
 0.26938758515E+01 0.28367761683E+01 0.30803287975E+01 0.34328176048E+01 0.39049045084E+01
 0.45062763935E+01 0.52395750149E+01 0.60924902210E+01 0.70303413018E+01 0.79922544700E+01
 0.88937086726E+01 0.96369483724E+01 0.10128616241E+02 0.10300795416E+02 0.10128565581E+02
 0.96368815493E+01 0.88936674609E+01 0.79922629767E+01 0.70303957108E+01 0.65066966194E+01
 0.54623416735E+01 0.45944017373E+01 0.39048316397E+01 0.33810375758E+01 0.30058510995E+01
 0.27641335296E+01 0.26456982227E+01 0.26456848337E+01 0.27641084102E+01 0.30058497551E+01
 0.33810844225E+01 0.39049045084E+01 0.45944391223E+01 0.54623023711E+01 0.65066075582E+01
 0.76997607290E+01 0.89798167415E+01 0.10248429591E+02 0.11378568831E+02 0.12233550222E+02
 0.12695478049E+02 0.12695453417E+02 0.12233483045E+02 0.11378481989E+02 0.10248363637E+02
 0.89798138606E+01 0.76998282872E+01 0.66525790861E+01 0.54623432267E+01 0.45062456480E+01
 0.37713719359E+01 0.32335614719E+01 0.28682371560E+01 0.26564896908E+01 0.25871117806E+01
 0.26564816027E+01 0.28682413852E+01 0.32335988028E+01 0.37714312424E+01 0.45062763935E+01
 0.54623023711E+01 0.66524903691E+01 0.80644160958E+01 0.96463210859E+01 0.11298247970E+02
 0.12872938155E+02 0.14191023133E+02 0.15073013871E+02 0.15383429407E+02 0.15073035984E+02
 0.14191015031E+02 0.12872866938E+02 0.11298154994E+02 0.96462869543E+01 0.80644713662E+01
 0.65066849078E+01 0.52396155296E+01 0.42551012463E+01 0.35239829230E+01 0.30114358340E+01
 0.26871501261E+01 0.25301892109E+01 0.25301912773E+01 0.26871628288E+01 0.30114688952E+01
 0.35240270826E+01 0.42551195547E+01 0.52395750149E+01 0.65066075582E+01 0.80644160958E+01
 0.98822549773E+01 0.11874491374E+02 0.13891788937E+02 0.15725515064E+02 0.17124657467E+02
 0.17877799450E+02 0.17877861862E+02 0.17124778099E+02 0.15725565787E+02 0.13891715770E+02
 0.11874365715E+02 0.98821904839E+01 0.80644518514E+01 0.60925659621E+01 0.48282219363E+01
 0.38773243584E+01 0.31966773083E+01 0.27438537094E+01 0.24857065624E+01 0.24019155092E+01
 0.24857226467E+01 0.27438872216E+01 0.31967150126E+01 0.38773333073E+01 0.48281768886E+01
 0.60924902210E+01 0.76997607290E+01 0.96463210859E+01 0.11874491374E+02 0.14254489167E+02
 0.16571536915E+02 0.18513033592E+02 0.19793394639E+02 0.20239251379E+02 0.19793536562E+02
 0.18513189715E+02 0.16571573289E+02 0.14254386427E+02 0.11874348858E+02 0.96462523437E+01
 0.76997940730E+01 0.54736193900E+01 0.42867247288E+01 0.34229405663E+01 0.28297799774E+01
 0.24614607102E+01 0.22855553000E+01 0.22855654412E+01 0.24614904580E+01 0.28298171432E+01
 0.34229528605E+01 0.42866833071E+01 0.54735399506E+01 0.70303413018E+01 0.89798167415E+01
 0.11298247970E+02 0.13891788937E+02 0.16571536915E+02 0.19003519280E+02 0.20831513728E+02
 0.21807365802E+02 0.21807442732E+02 0.20831680207E+02 0.19003639340E+02 0.16571520248E+02
 0.13891661221E+02 0.11298116668E+02 0.89797733127E+01 0.70303919194E+01 0.47351330321E+01
 0.36833695861E+01 0.29441957755E+01 0.24614615348E+01 0.21905275025E+01 0.21033793115E+01
 0.21905454379E+01 0.24614926094E+01 0.29442173695E+01 0.36833497684E+01 0.47350675698E+01
 0.61569976665E+01 0.79922544700E+01 0.10248429591E+02 0.12872938155E+02 0.15725515064E+02
 0.18513033592E+02 0.20831513728E+02 0.22356106527E+02 0.22886719354E+02 0.22356248581E+02
 0.20831683077E+02 0.18513102706E+02 0.15725447646E+02 0.12872804207E+02 0.10248333854E+02
 0.79922516577E+01 0.61570625822E+01 0.39637377528E+01 0.30816402674E+01 0.24857050506E+01
 0.21214291961E+01 0.19494609488E+01 0.19494657399E+01 0.21214448310E+01 0.24857257303E+01
 0.30816446453E+01 0.39637066701E+01 0.51935497037E+01 0.68266060660E+01 0.88937086726E+01
 0.11378568831E+02 0.14191023133E+02 0.17124657467E+02 0.19793394639E+02 0.21807365802E+02
 0.22886719354E+02 0.22886804949E+02 0.21807549040E+02 0.19793528045E+02 0.17124656259E+02
 0.14190922473E+02 0.11378466081E+02 0.88936731424E+01 0.68266387723E+01 0.51936045034E+01
 0.32314210117E+01 0.25301793287E+01 0.20785171962E+01 0.18280606534E+01 0.17480626146E+01
 0.18280608740E+01 0.20785245223E+01 0.25301917670E+01 0.32314228639E+01 0.42420264896E+01
 0.56222918959E+01 0.74172140083E+01 0.96369483724E+01 0.12233550222E+02 0.15073013871E+02
 0.17877799450E+02 0.20239251379E+02 0.21807442732E+02 0.22356248581E+02 0.21807549040E+02
 0.20239361613E+02 0.17877822399E+02 0.15072955601E+02 0.12233483809E+02 0.96369291909E+01
 0.74172412488E+01 0.56223316120E+01 0.42420487994E+01 0.25870954715E+01 0.20584651219E+01
 0.17386987564E+01 0.15889014205E+01 0.15888965010E+01 0.17386925096E+01 0.20584708576E+01
 0.25871125674E+01 0.33779422816E+01 0.44901256872E+01 0.59752843828E+01 0.78604720804E+01
 0.10128616241E+02 0.12695478049E+02 0.15383429407E+02 0.17877861862E+02 0.19793536562E+02
 0.20831680207E+02 0.20831683077E+02 0.19793528045E+02 0.17877822399E+02 0.15383379927E+02
 0.12695463161E+02 0.10128651627E+02 0.78605298487E+01 0.59753268289E+01 0.44901368051E+01
 0.33779298198E+01 0.20552210568E+01 0.16777008422E+01 0.14696334031E+01 0.14033982753E+01
 0.14696222948E+01 0.16776958947E+01 0.20552353888E+01 0.26457020396E+01 0.35024195494E+01
 0.46778190714E+01 0.62085946419E+01 0.80986968454E+01 0.10300795416E+02 0.12695453417E+02
 0.15073035984E+02 0.17124778099E+02 0.18513189715E+02 0.19003639340E+02 0.18513102706E+02
 0.17124656259E+02 0.15072955601E+02 0.12695463161E+02 0.10300878929E+02 0.80987915783E+01
 0.62086485036E+01 0.46778230145E+01 0.35023942851E+01 0.26456729990E+01 0.16396153344E+01
 0.13853281149E+01 0.12663828814E+01 0.12663755866E+01 0.13853160481E+01 0.16396159371E+01
 0.20611541885E+01 0.26939124046E+01 0.35863579345E+01 0.47792000830E+01 0.62902740826E+01
 0.80986883285E+01 0.10128565581E+02 0.12233483045E+02 0.14191015031E+02 0.15725565787E+02
 0.16571573289E+02 0.16571520248E+02 0.15725447646E+02 0.14190922473E+02 0.12233483809E+02
 0.10128651627E+02 0.80987915783E+01 0.62903320416E+01 0.47792006461E+01 0.35863268525E+01
 0.26938782623E+01 0.20611337844E+01 0.13303355160E+01 0.11711007518E+01 0.11203153114E+01
 0.11710903398E+01 0.13303249789E+01 0.16185398589E+01 0.20685626611E+01 0.27211390606E+01
 0.36160257190E+01 0.47791950023E+01 0.62085962832E+01 0.78604538415E+01 0.96368815493E+01
 0.11378481989E+02 0.12872866938E+02 0.13891715770E+02 0.14254386427E+02 0.13891661221E+02
 0.12872804207E+02 0.11378466081E+02 0.96369291909E+01 0.78605298487E+01 0.62086485036E+01
 0.47792006461E+01 0.36160007154E+01 0.27211110355E+01 0.20685473365E+01 0.16185398909E+01
 0.11113481411E+01 0.10227113015E+01 0.10227085220E+01 0.11113402905E+01 0.12996283337E+01
 0.16094500263E+01 0.20717404019E+01 0.27211325268E+01 0.35863390672E+01 0.46778046290E+01
 0.59752816169E+01 0.74172006907E+01 0.88936674609E+01 0.10248363637E+02 0.11298154994E+02
 0.11874365715E+02 0.11874348858E+02 0.11298116668E+02 0.10248333854E+02 0.88936731424E+01
 0.74172412488E+01 0.59753268289E+01 0.46778230145E+01 0.35863268525E+01 0.27211110355E+01
 0.20717300520E+01 0.16094539771E+01 0.12996381652E+01 0.96682058302E+00 0.92962088928E+00
 0.96682191263E+00 0.10826242582E+01 0.12898026856E+01 0.16094535529E+01 0.20685653568E+01
 0.26939048117E+01 0.35024019012E+01 0.44901087214E+01 0.56222840655E+01 0.68266090287E+01
 0.79922629767E+01 0.89798138606E+01 0.96462869543E+01 0.98821904839E+01 0.96462523437E+01
 0.89797733127E+01 0.79922516577E+01 0.68266387723E+01 0.56223316120E+01 0.44901368051E+01
 0.35023942851E+01 0.26938782623E+01 0.20685473365E+01 0.16094539771E+01 0.12898108359E+01
 0.10826277705E+01 0.88476550966E+00 0.88476858135E+00 0.94862910781E+00 0.10826241215E+01
 0.12996307732E+01 0.16185451073E+01 0.20611629019E+01 0.26457133394E+01 0.33779486392E+01
 0.42420230738E+01 0.51935487511E+01 0.61570209655E+01 0.70303957108E+01 0.76998282872E+01
 0.80644713662E+01 0.80644518514E+01 0.76997940730E+01 0.70303919194E+01 0.61570625822E+01
 0.51936045034E+01 0.42420487994E+01 0.33779298198E+01 0.26456729990E+01 0.20611337844E+01
 0.16185398909E+01 0.12996381652E+01 0.10826277705E+01 0.94862535518E+00 0.88476802610E+00
 0.92962074638E+00 0.10227098799E+01 0.11710921030E+01 0.13853091298E+01 0.16776826004E+01
 0.20584698223E+01 0.25302152509E+01 0.30816831724E+01 0.36833836351E+01 0.42867031695E+01
 0.48281920391E+01 0.52396009535E+01 0.54623408716E+01 0.54623431628E+01 0.52396159775E+01
 0.48282234856E+01 0.42867272188E+01 0.36833718020E+01 0.30816416455E+01 0.25301803378E+01
 0.20584656407E+01 0.16776999291E+01 0.13853258173E+01 0.11710984367E+01 0.10227097496E+01
 0.92961968578E+00 0.88476769728E+00 0.92962074638E+00 0.98405814468E+00 0.10789162761E+01
 0.12205731708E+01 0.14174546554E+01 0.16780426649E+01 0.20072819658E+01 0.24019479382E+01
 0.28463589030E+01 0.33102358754E+01 0.37502363843E+01 0.41158067622E+01 0.43586998856E+01
 0.44439365560E+01 0.43587095716E+01 0.41158217590E+01 0.37502395510E+01 0.33102101577E+01
 0.28463144517E+01 0.24019193368E+01 0.20072904350E+01 0.16780736414E+01 0.14174794624E+01
 0.12205807537E+01 0.10789154193E+01 0.98405853364E+00 0.92962275492E+00 0.91187516795E+00
 0.10227098799E+01 0.10789162761E+01 0.11681274550E+01 0.12960255672E+01 0.14690699472E+01
 0.16924468992E+01 0.19669696087E+01 0.22855821143E+01 0.26307644505E+01 0.29742979429E+01
 0.32802738985E+01 0.35111552393E+01 0.36355579515E+01 0.36355608218E+01 0.35111579110E+01
 0.32802635123E+01 0.29742691669E+01 0.26307320267E+01 0.22855713464E+01 0.19669890164E+01
 0.16924775585E+01 0.14690876106E+01 0.12960257235E+01 0.11681221790E+01 0.10789147646E+01
 0.10227114228E+01 0.99557896131E+00 0.99557799486E+00 0.11710921030E+01 0.12205731708E+01
 0.12960255672E+01 0.14026690794E+01 0.15453855316E+01 0.17268082956E+01 0.19448807174E+01
 0.21905314539E+01 0.24465491903E+01 0.26886533335E+01 0.28890422625E+01 0.30217249045E+01
 0.30681900773E+01 0.30217254000E+01 0.28890359514E+01 0.26886384799E+01 0.24465374650E+01
 0.21905369055E+01 0.19449012204E+01 0.17268252162E+01 0.15453851612E+01 0.14026576874E+01
 0.12960179379E+01 0.12205732137E+01 0.11710932166E+01 0.11432541757E+01 0.11342900062E+01
 0.11432550920E+01 0.13853091298E+01 0.14174546554E+01 0.14690699472E+01 0.15453855316E+01
 0.16502755620E+01 0.17846668542E+01 0.19448797638E+01 0.21214119994E+01 0.22989189168E+01
 0.24579412794E+01 0.25782807520E+01 0.26431965580E+01 0.26431974672E+01 0.25782813057E+01
 0.24579395838E+01 0.22989188001E+01 0.21214181466E+01 0.19448885067E+01 0.17846681523E+01
 0.16502661754E+01 0.15453748829E+01 0.14690686516E+01 0.14174609943E+01 0.13853127442E+01
 0.13673962776E+01 0.13595765605E+01 0.13595792588E+01 0.13673992129E+01 0.16776826004E+01
 0.16780426649E+01 0.16924468992E+01 0.17268082956E+01 0.17846668542E+01 0.18661124860E+01
 0.19669691026E+01 0.20785018160E+01 0.21880738859E+01 0.22810128784E+01 0.23434616748E+01
 0.23654834119E+01 0.23434627746E+01 0.22810116343E+01 0.21880688734E+01 0.20784952489E+01
 0.19669630097E+01 0.18661074238E+01 0.17846647578E+01 0.17268120121E+01 0.16924552154E+01
 0.16780493715E+01 0.16776826695E+01 0.16843719611E+01 0.16915433433E+01 0.16945034793E+01
 0.16915482264E+01 0.16843772035E+01 0.20584698223E+01 0.20072819658E+01 0.19669696087E+01
 0.19448807174E+01 0.19448797638E+01 0.19669691026E+01 0.20072842626E+01 0.20584725233E+01
 0.21106760508E+01 0.21532756000E+01 0.21772011674E+01 0.21772012531E+01 0.21532714667E+01
 0.21106626099E+01 0.20584549587E+01 0.20072744569E+01 0.19669734228E+01 0.19448943814E+01
 0.19448959904E+01 0.19669758612E+01 0.20072752018E+01 0.20584559792E+01 0.21106657217E+01
 0.21532738159E+01 0.21772002085E+01 0.21771991220E+01 0.21532752407E+01 0.21106754983E+01
 0.25302152509E+01 0.24019479382E+01 0.22855821143E+01 0.21905314539E+01 0.21214119994E+01
 0.20785018160E+01 0.20584725233E+01 0.20552489837E+01 0.20611626889E+01 0.20685645976E+01
 0.20717410202E+01 0.20685613754E+01 0.20611493026E+01 0.20552311064E+01 0.20584702215E+01
 0.20785246474E+01 0.21214435680E+01 0.21905459760E+01 0.22855697078E+01 0.24019197100E+01
 0.25301905298E+01 0.26564908156E+01 0.27641361025E+01 0.28368149841E+01 0.28625130305E+01
 0.28368034434E+01 0.27641273033E+01 0.26564985151E+01 0.30816831724E+01 0.28463589030E+01
 0.26307644505E+01 0.24465491903E+01 0.22989189168E+01 0.21880738859E+01 0.21106760508E+01
 0.20611626889E+01 0.20331026626E+01 0.20207731474E+01 0.20207705578E+01 0.20330922192E+01
 0.20611492351E+01 0.21106809003E+01 0.21881089655E+01 0.22989602402E+01 0.24465573697E+01
 0.26307304956E+01 0.28463137453E+01 0.30816617476E+01 0.33179858260E+01 0.35305530810E+01
 0.36924043320E+01 0.37801621302E+01 0.37801548799E+01 0.36923844713E+01 0.35305293847E+01
 0.33179764480E+01 0.36833836351E+01 0.33102358754E+01 0.29742979429E+01 0.26886533335E+01
 0.24579412794E+01 0.22810128784E+01 0.21532756000E+01 0.20685645976E+01 0.20207731474E+01
 0.20053941507E+01 0.20207620467E+01 0.20685513229E+01 0.21532810498E+01 0.22810493743E+01
 0.24579848951E+01 0.26886597559E+01 0.29742556474E+01 0.33101853101E+01 0.36833718570E+01
 0.40701654947E+01 0.44364267657E+01 0.47411852346E+01 0.49441693591E+01 0.50155204792E+01
 0.49441683524E+01 0.47411677430E+01 0.44363893764E+01 0.40701354043E+01 0.42867031695E+01
 0.37502363843E+01 0.32802738985E+01 0.28890422625E+01 0.25782807520E+01 0.23434616748E+01
 0.21772011674E+01 0.20717410202E+01 0.20207705578E+01 0.20207620467E+01 0.20717259019E+01
 0.21772036948E+01 0.23434961526E+01 0.25783262905E+01 0.28890549608E+01 0.32802372535E+01
 0.37501875868E+01 0.42866933509E+01 0.48629472761E+01 0.54356537181E+01 0.59475790597E+01
 0.63360134847E+01 0.65462889000E+01 0.65462974767E+01 0.63360239611E+01 0.59475638177E+01
 0.54356099342E+01 0.48629108026E+01 0.48281920391E+01 0.41158067622E+01 0.35111552393E+01
 0.30217249045E+01 0.26431965580E+01 0.23654834119E+01 0.21772012531E+01 0.20685613754E+01
 0.20330922192E+01 0.20685513229E+01 0.21772036948E+01 0.23655165013E+01 0.26432451502E+01
 0.30217468533E+01 0.35111271006E+01 0.41157566685E+01 0.48281721753E+01 0.56224205353E+01
 0.64491033065E+01 0.72352213512E+01 0.78918204478E+01 0.83304173370E+01 0.84848346946E+01
 0.83304308431E+01 0.78918257691E+01 0.72351968722E+01 0.64490568160E+01 0.56223917244E+01
 0.52396009535E+01 0.43586998856E+01 0.36355579515E+01 0.30681900773E+01 0.26431974672E+01
 0.23434627746E+01 0.21532714667E+01 0.20611493026E+01 0.20611492351E+01 0.21532810498E+01
 0.23434961526E+01 0.26432451502E+01 0.30682153566E+01 0.36355325793E+01 0.43586424247E+01
 0.52395659126E+01 0.62593706168E+01 0.73691642266E+01 0.84852777831E+01 0.94932189122E+01
 0.10264222381E+02 0.10683782348E+02 0.10683794754E+02 0.10264243270E+02 0.94932144480E+01
 0.84852323699E+01 0.73691052287E+01 0.62593483602E+01 0.54623408716E+01 0.44439365560E+01
 0.36355608218E+01 0.30217254000E+01 0.25782813057E+01 0.22810116343E+01 0.21106626099E+01
 0.20552311064E+01 0.21106809003E+01 0.22810493743E+01 0.25783262905E+01 0.30217468533E+01
 0.36355325793E+01 0.44438720816E+01 0.54622962171E+01 0.66857411957E+01 0.80752349108E+01
 0.95468725308E+01 0.10968669519E+02 0.12172311466E+02 0.12984344429E+02 0.13271769861E+02
 0.12984411580E+02 0.12172377524E+02 0.10968664608E+02 0.95467933952E+01 0.80751472947E+01
 0.66857149609E+01 0.54623431628E+01 0.43587095716E+01 0.35111579110E+01 0.28890359514E+01
 0.24579395838E+01 0.21880688734E+01 0.20584549587E+01 0.20584702215E+01 0.21881089655E+01
 0.24579848951E+01 0.28890549608E+01 0.35111271006E+01 0.43586424247E+01 0.54622962171E+01
 0.68359813071E+01 0.84601475070E+01 0.10264497245E+02 0.12115396291E+02 0.13817125751E+02
 0.15137849233E+02 0.15863432017E+02 0.15863510277E+02 0.15138016540E+02 0.13817242922E+02
 0.12115377857E+02 0.10264376758E+02 0.84600307770E+01 0.68359476418E+01 0.52396159775E+01
 0.41158217590E+01 0.32802635123E+01 0.26886384799E+01 0.22989188001E+01 0.20784952489E+01
 0.20072744569E+01 0.20785246474E+01 0.22989602402E+01 0.26886597559E+01 0.32802372535E+01
 0.41157566685E+01 0.52395659126E+01 0.66857411957E+01 0.84601475070E+01 0.10518732045E+02
 0.12745900748E+02 0.14941771854E+02 0.16833800307E+02 0.18127058893E+02 0.18588034612E+02
 0.18127228766E+02 0.16834011372E+02 0.14941876930E+02 0.12745848989E+02 0.10518590424E+02
 0.84600285814E+01 0.66857131658E+01 0.48282234856E+01 0.37502395510E+01 0.29742691669E+01
 0.24465374650E+01 0.21214181466E+01 0.19669630097E+01 0.19669734228E+01 0.21214435680E+01
 0.24465573697E+01 0.29742556474E+01 0.37501875868E+01 0.48281721753E+01 0.62593706168E+01
 0.80752349108E+01 0.10264497245E+02 0.12745900748E+02 0.15342669888E+02 0.17774429316E+02
 0.19689368566E+02 0.20748405475E+02 0.20748474727E+02 0.19689529565E+02 0.17774577380E+02
 0.15342718269E+02 0.12745836356E+02 0.10264380427E+02 0.80751499937E+01 0.62593638232E+01
 0.42867272188E+01 0.33102101577E+01 0.26307320267E+01 0.21905369055E+01 0.19448885067E+01
 0.18661074238E+01 0.19448943814E+01 0.21905459760E+01 0.26307304956E+01 0.33101853101E+01
 0.42866933509E+01 0.56224205353E+01 0.73691642266E+01 0.95468725308E+01 0.12115396291E+02
 0.14941771854E+02 0.17774429316E+02 0.20248164347E+02 0.21946272625E+02 0.22551018531E+02
 0.21946319999E+02 0.20248237964E+02 0.17774494312E+02 0.14941794375E+02 0.12115365016E+02
 0.95468133770E+01 0.73691245411E+01 0.56224266834E+01 0.36833718020E+01 0.28463144517E+01
 0.22855713464E+01 0.19449012204E+01 0.17846681523E+01 0.17846647578E+01 0.19448959904E+01
 0.22855697078E+01 0.28463137453E+01 0.36833718570E+01 0.48629472761E+01 0.64491033065E+01
 0.84852777831E+01 0.10968669519E+02 0.13817125751E+02 0.16833800307E+02 0.19689368566E+02
 0.21946272625E+02 0.23193649422E+02 0.23193641820E+02 0.21946260983E+02 0.19689375860E+02
 0.16833836338E+02 0.13817171173E+02 0.10968692715E+02 0.84852694910E+01 0.64490839107E+01
 0.48629376855E+01 0.30816416455E+01 0.24019193368E+01 0.19669890164E+01 0.17268252162E+01
 0.16502661754E+01 0.17268120121E+01 0.19669758612E+01 0.24019197100E+01 0.30816617476E+01
 0.40701654947E+01 0.54356537181E+01 0.72352213512E+01 0.94932189122E+01 0.12172311466E+02
 0.15137849233E+02 0.18127058893E+02 0.20748405475E+02 0.22551018531E+02 0.23193641820E+02
 0.22550964158E+02 0.20748339759E+02 0.18127039600E+02 0.15137901324E+02 0.12172400801E+02
 0.94932832189E+01 0.72352286040E+01 0.54356214229E+01 0.40701289730E+01 0.25301803378E+01
 0.20072904350E+01 0.16924775585E+01 0.15453851612E+01 0.15453748829E+01 0.16924552154E+01
 0.20072752018E+01 0.25301905298E+01 0.33179858260E+01 0.44364267657E+01 0.59475790597E+01
 0.78918204478E+01 0.10264222381E+02 0.12984344429E+02 0.15863432017E+02 0.18588034612E+02
 0.20748474727E+02 0.21946319999E+02 0.21946260983E+02 0.20748339759E+02 0.18587922239E+02
 0.15863425736E+02 0.12984444854E+02 0.10264348655E+02 0.78918864414E+01 0.59475646220E+01
 0.44363739204E+01 0.33179440615E+01 0.20584656407E+01 0.16780736414E+01 0.14690876106E+01
 0.14026576874E+01 0.14690686516E+01 0.16780493715E+01 0.20584559792E+01 0.26564908156E+01
 0.35305530810E+01 0.47411852346E+01 0.63360134847E+01 0.83304173370E+01 0.10683782348E+02
 0.13271769861E+02 0.15863510277E+02 0.18127228766E+02 0.19689529565E+02 0.20248237964E+02
 0.19689375860E+02 0.18127039600E+02 0.15863425736E+02 0.13271838612E+02 0.10683931195E+02
 0.83305291108E+01 0.63360303198E+01 0.47411359787E+01 0.35304992547E+01 0.26564685838E+01
 0.16776999291E+01 0.14174794624E+01 0.12960257235E+01 0.12960179379E+01 0.14174609943E+01
 0.16776826695E+01 0.21106657217E+01 0.27641361025E+01 0.36924043320E+01 0.49441693591E+01
 0.65462889000E+01 0.84848346946E+01 0.10683794754E+02 0.12984411580E+02 0.15138016540E+02
 0.16834011372E+02 0.17774577380E+02 0.17774494312E+02 0.16833836338E+02 0.15137901324E+02
 0.12984444854E+02 0.10683931195E+02 0.84849557044E+01 0.65463182152E+01 0.49441227662E+01
 0.36923441335E+01 0.27641045256E+01 0.21106661060E+01 0.13853258173E+01 0.12205807537E+01
 0.11681221790E+01 0.12205732137E+01 0.13853127442E+01 0.16843719611E+01 0.21532738159E+01
 0.28368149841E+01 0.37801621302E+01 0.50155204792E+01 0.65462974767E+01 0.83304308431E+01
 0.10264243270E+02 0.12172377524E+02 0.13817242922E+02 0.14941876930E+02 0.15342718269E+02
 0.14941794375E+02 0.13817171173E+02 0.12172400801E+02 0.10264348655E+02 0.83305291108E+01
 0.65463182152E+01 0.50154711789E+01 0.37800996817E+01 0.28367819949E+01 0.21532727256E+01
 0.16843849271E+01 0.11710984367E+01 0.10789154193E+01 0.10789147646E+01 0.11710932166E+01
 0.13673962776E+01 0.16915433433E+01 0.21772002085E+01 0.28625130305E+01 0.37801548799E+01
 0.49441683524E+01 0.63360239611E+01 0.78918257691E+01 0.94932144480E+01 0.10968664608E+02
 0.12115377857E+02 0.12745848989E+02 0.12745836356E+02 0.12115365016E+02 0.10968692715E+02
 0.94932832189E+01 0.78918864414E+01 0.63360303198E+01 0.49441227662E+01 0.37800996817E+01
 0.28624859963E+01 0.21772060800E+01 0.16915627828E+01 0.13674108471E+01 0.10227097496E+01
 0.98405853364E+00 0.10227114228E+01 0.11432541757E+01 0.13595765605E+01 0.16945034793E+01
 0.21771991220E+01 0.28368034434E+01 0.36923844713E+01 0.47411677430E+01 0.59475638177E+01
 0.72351968722E+01 0.84852323699E+01 0.95467933952E+01 0.10264376758E+02 0.10518590424E+02
 0.10264380427E+02 0.95468133770E+01 0.84852694910E+01 0.72352286040E+01 0.59475646220E+01
 0.47411359787E+01 0.36923441335E+01 0.28367819949E+01 0.21772060800E+01 0.16945269656E+01
 0.13595967466E+01 0.11432607859E+01 0.92961968578E+00 0.92962275492E+00 0.99557896131E+00
 0.11342900062E+01 0.13595792588E+01 0.16915482264E+01 0.21532752407E+01 0.27641273033E+01
 0.35305293847E+01 0.44363893764E+01 0.54356099342E+01 0.64490568160E+01 0.73691052287E+01
 0.80751472947E+01 0.84600307770E+01 0.84600285814E+01 0.80751499937E+01 0.73691245411E+01
 0.64490839107E+01 0.54356214229E+01 0.44363739204E+01 0.35304992547E+01 0.27641045256E+01
 0.21532727256E+01 0.16915627828E+01 0.13595967466E+01 0.11342975640E+01 0.99557611810E+00
 0.88476769728E+00 0.91187516795E+00 0.99557799486E+00 0.11432550920E+01 0.13673992129E+01
 0.16843772035E+01 0.21106754983E+01 0.26564985151E+01 0.33179764480E+01 0.40701354043E+01
 0.48629108026E+01 0.56223917244E+01 0.62593483602E+01 0.66857149609E+01 0.68359476418E+01
 0.66857131658E+01 0.62593638232E+01 0.56224266834E+01 0.48629376855E+01 0.40701289730E+01
 0.33179440615E+01 0.26564685838E+01 0.21106661060E+01 0.16843849271E+01 0.13674108471E+01
 0.11432607859E+01 0.99557611810E+00 0.91187111027E+00 0.96682187517E+00 0.10227115551E+01
 0.11203214115E+01 0.12663844754E+01 0.14696205925E+01 0.17386740525E+01 0.20785008448E+01
 0.24857152250E+01 0.29442249896E+01 0.34229629956E+01 0.38773260564E+01 0.42550914939E+01
 0.45062391427E+01 0.45944033083E+01 0.45062478343E+01 0.42551034023E+01 0.38773274026E+01
 0.34229439896E+01 0.29441975537E+01 0.24857047859E+01 0.20785162750E+01 0.17386973133E+01
 0.14696303154E+01 0.12663788762E+01 0.11203128135E+01 0.10227081530E+01 0.96682218949E+00
 0.94862967037E+00 0.10227115551E+01 0.10789178728E+01 0.11681281770E+01 0.12960255348E+01
 0.14690698715E+01 0.16924466239E+01 0.19669683964E+01 0.22855801553E+01 0.26307626878E+01
 0.29742966538E+01 0.32802728499E+01 0.35111549267E+01 0.36355591598E+01 0.36355631389E+01
 0.35111601020E+01 0.32802651665E+01 0.29742706092E+01 0.26307329237E+01 0.22855709115E+01
 0.19669874111E+01 0.16924756774E+01 0.14690857033E+01 0.12960236128E+01 0.11681205274E+01
 0.10789146031E+01 0.10227125915E+01 0.99558040983E+00 0.99557939374E+00 0.11203214115E+01
 0.11681281770E+01 0.12407989603E+01 0.13433844926E+01 0.14807462472E+01 0.16556177754E+01