unknown system                          
   1.00000000000000     
    -2.548696    2.548696    1.454388
     2.548696   -2.548696    1.454388
     2.548696    2.548696   -1.454388
   Si
     2
Direct
  0.000000  0.000000  0.000000
  0.250000  0.750000  0.500000
 
   36   36   36
 -6.1255     -4.8923     -1.5387      3.0297      7.6735      11.385      13.552      14.054      13.208      11.600    
  9.8294      8.1703      6.7345      5.5726      4.6860      4.0478      3.6227      3.3805      3.3018      3.3805    
  3.6227      4.0478      4.6860      5.5726      6.7345      8.1704      9.8294      11.600      13.208      14.054    
  13.552      11.385      7.6734      3.0297     -1.5387     -4.8924     -4.8924     -5.4384     -3.6037     0.93705E-01
  4.6647      8.9974      12.198      13.802      13.830      12.690      10.993      9.2546      7.6663      6.3205    
  5.2512      4.4493      3.8838      3.5202      3.3313      3.3020      3.4295      3.7242      4.2084      4.9147    
  5.8777      7.1187      8.6249      10.330      12.104      13.584      14.146      13.260      10.716      6.7654    
  2.1356     -2.1143     -1.5387     -3.6037     -3.4866     -1.2315      2.5195      6.7671      10.496      12.973    
  13.901      13.430      12.033      10.306      8.6273      7.1325      5.8928      4.9256      4.2129      3.7217    
  3.4196      3.2835      3.3022      3.4770      3.8213      4.3601      5.1272      6.1548      7.4577      9.0119    
  10.739      12.487      13.831      14.164      13.033      10.340      6.4425      2.1356      3.0297     0.93675E-01
 -1.2315     -.57466      1.8573      5.3618      9.0001      11.909      13.539      13.763      12.836      11.263    
  9.5645      7.9717      6.5897      5.4672      4.6069      3.9842      3.5661      3.3237      3.2382      3.3026    
  3.5214      3.9107      4.4975      5.3151      6.3926      7.7375      9.3163      11.041      12.742      13.967    
  14.158      12.949      10.340      6.7654      7.6734      4.6647      2.5195      1.8573      2.8606      5.2092    
  8.2061      11.031      13.004      13.769      13.345      12.066      10.427      8.7958      7.3131      6.0580    
  5.0584      4.3050      3.7697      3.4212      3.2348      3.1965      3.3028      3.5611      3.9893      4.6152    
  5.4708      6.5809      7.9464      9.5261      11.226      12.869      14.010      14.158      13.033      10.716    
  11.385      8.9974      6.7671      5.3618      5.2092      6.3383      8.3727      10.678      12.590      13.625    
  13.603      12.663      11.176      9.5639      8.0300      6.6760      5.5555      4.6789      4.0284      3.5749    
  3.2904      3.1552      3.1594      3.3028      3.5947      4.0541      4.7084      5.5874      6.7114      8.0755    
  9.6332      11.289      12.869      13.967      14.164      13.260      13.552      12.198      10.496      9.0001    
  8.2061      8.3727      9.4225      10.977      12.507      13.518      13.712      13.060      11.782      10.242    
  8.7073      7.2957      6.0820      5.0973      4.3386      3.7834      3.4040      3.1768      3.0869      3.1281    
  3.3026      3.6209      4.1024      4.7730      5.6596      6.7782      8.1192      9.6332      11.226      12.742    
  13.831      14.146      14.054      13.802      12.973      11.909      11.031      10.678      10.977      11.793    
  12.787      13.556      13.774      13.304      12.228      10.806      9.3160      7.8907      6.6182      5.5484    
  4.6945      4.0445      3.5746      3.2603      3.0828      3.0316      3.1035      3.3023      3.6390      4.1322    
  4.8061      5.6841      6.7782      8.0755      9.5261      11.041      12.487      13.584      13.208      13.830    
  13.901      13.539      13.004      12.590      12.507      12.787      13.282      13.723      13.832      13.435    
  12.520      11.241      9.8326      8.4360      7.1432      6.0174      5.0876      4.3543      3.8011      3.4051    
  3.1462      3.0105      2.9909      3.0865      3.3020      3.6481      4.1423      4.8061      5.6596      6.7114    
  7.9464      9.3163      10.739      12.104      11.600      12.690      13.430      13.763      13.769      13.625    
  13.518      13.556      13.723      13.883      13.848      13.460      12.663      11.532      10.238      8.9093    
  7.6358      6.4877      5.5070      4.7071      4.0810      3.6107      3.2768      3.0636      2.9613      2.9660    
  3.0779      3.3019      3.6481      4.1322      4.7730      5.5874      6.5809      7.7375      9.0119      10.330    
  9.8294      10.993      12.033      12.836      13.345      13.603      13.712      13.774      13.832      13.848    
  13.721      13.340      12.646      11.667      10.515      9.2911      8.0760      6.9422      5.9402      5.0953    
  4.4108      3.8760      3.4745      3.1908      3.0135      2.9365      2.9576      3.0779      3.3020      3.6390    
  4.1024      4.7084      5.4708      6.3926      7.4577      8.6249      8.1704      9.2546      10.306      11.263    
  12.066      12.663      13.060      13.304      13.435      13.460      13.340      13.016      12.443      11.632    
  10.649      9.5636      8.4456      7.3640      6.3740      5.5101      4.7860      4.1996      3.7397      3.3928    
  3.1476      2.9967      2.9365      2.9660      3.0865      3.3023      3.6209      4.0541      4.6152      5.3151    
  6.1548      7.1187      6.7345      7.6663      8.6273      9.5645      10.427      11.176      11.782      12.228    
  12.520      12.663      12.646      12.443      12.030      11.414      10.626      9.7112      8.7274      7.7369    
  6.7950      5.9424      5.2019      4.5802      4.0733      3.6717      3.3656      3.1476      3.0135      2.9613    
  2.9909      3.1035      3.3026      3.5947      3.9893      4.4975      5.1272      5.8777      5.5726      6.3205    
  7.1325      7.9717      8.7959      9.5639      10.242      10.806      11.241      11.532      11.667      11.632    
  11.414      11.012      10.438      9.7214      8.9065      8.0454      7.1898      6.3824      5.6531      5.0169    
  4.4776      4.0313      3.6717      3.3928      3.1908      3.0636      3.0105      3.0316      3.1281      3.3028    
  3.5611      3.9107      4.3601      4.9147      4.6860      5.2512      5.8928      6.5897      7.3132      8.0300    
  8.7073      9.3160      9.8325      10.238      10.515      10.649      10.626      10.438      10.087      9.5879    
  8.9707      8.2748      7.5438      6.8189      6.1331      5.5081      4.9553      4.4776      4.0733      3.7397    
  3.4745      3.2768      3.1462      3.0828      3.0869      3.1594      3.3028      3.5214      3.8213      4.2084    
  4.0478      4.4493      4.9256      5.4672      6.0580      6.6760      7.2957      7.8907      8.4360      8.9093    
  9.2910      9.5636      9.7112      9.7214      9.5879      9.3138      8.9135      8.4122      7.8421      7.2380    
  6.6320      6.0497      5.5081      5.0169      4.5802      4.1996      3.8760      3.6107      3.4051      3.2603    
  3.1768      3.1552      3.1965      3.3026      3.4770      3.7242      3.6227      3.8838      4.2129      4.6069    
  5.0584      5.5555      6.0820      6.6182      7.1432      7.6358      8.0760      8.4456      8.7274      8.9065    
  8.9707      8.9135      8.7361      8.4485      8.0692      7.6226      7.1353      6.6320      6.1331      5.6531    
  5.2019      4.7860      4.4108      4.0810      3.8011      3.5746      3.4040      3.2904      3.2348      3.2382    
  3.3022      3.4295      3.3805      3.5202      3.7217      3.9842      4.3050      4.6789      5.0973      5.5484    
  6.0174      6.4877      6.9422      7.3640      7.7369      8.0454      8.2748      8.4122      8.4485      8.3803    
  8.2117      7.9537      7.6226      7.2380      6.8189      6.3824      5.9424      5.5101      5.0953      4.7071    
  4.3543      4.0445      3.7834      3.5749      3.4212      3.3237      3.2835      3.3020      3.3018      3.3313    
  3.4196      3.5661      3.7697      4.0284      4.3386      4.6945      5.0876      5.5070      5.9402      6.3740    
  6.7950      7.1898      7.5438      7.8421      8.0692      8.2117      8.2604      8.2117      8.0692      7.8421    
  7.5438      7.1898      6.7950      6.3740      5.9402      5.5070      5.0876      4.6945      4.3386      4.0284    
  3.7697      3.5661      3.4196      3.3313      3.3805      3.3019      3.2835      3.3236      3.4212      3.5749    
  3.7834      4.0445      4.3544      4.7071      5.0953      5.5101      5.9424      6.3824      6.8189      7.2380    
  7.6226      7.9537      8.2117      8.3803      8.4485      8.4122      8.2748      8.0454      7.7369      7.3640    
  6.9422      6.4877      6.0174      5.5484      5.0973      4.6789      4.3050      3.9842      3.7217      3.5202    
  3.6227      3.4295      3.3022      3.2381      3.2348      3.2904      3.4040      3.5746      3.8011      4.0810    
  4.4108      4.7860      5.2019      5.6531      6.1331      6.6320      7.1353      7.6226      8.0692      8.4485    
  8.7361      8.9135      8.9707      8.9065      8.7274      8.4456      8.0760      7.6358      7.1432      6.6182    
  6.0820      5.5555      5.0584      4.6069      4.2129      3.8838      4.0478      3.7241      3.4770      3.3025    
  3.1964      3.1552      3.1768      3.2603      3.4051      3.6107      3.8760      4.1996      4.5803      5.0169    
  5.5081      6.0497      6.6320      7.2380      7.8421      8.4122      8.9135      9.3138      9.5879      9.7214    
  9.7112      9.5636      9.2911      8.9093      8.4360      7.8907      7.2957      6.6760      6.0580      5.4672    
  4.9256      4.4493      4.6860      4.2083      3.8212      3.5214      3.3028      3.1594      3.0869      3.0829    
  3.1462      3.2768      3.4746      3.7397      4.0733      4.4776      4.9553      5.5081      6.1331      6.8189    
  7.5438      8.2748      8.9707      9.5879      10.087      10.438      10.626      10.649      10.515      10.238    
  9.8326      9.3160      8.7073      8.0300      7.3131      6.5897      5.8928      5.2512      5.5726      4.9147    
  4.3601      3.9107      3.5610      3.3028      3.1281      3.0317      3.0105      3.0636      3.1908      3.3928    
  3.6717      4.0313      4.4776      5.0169      5.6531      6.3824      7.1898      8.0454      8.9065      9.7214    
  10.438      11.012      11.414      11.632      11.667      11.532      11.241      10.806      10.242      9.5639    
  8.7958      7.9717      7.1325      6.3205      6.7345      5.8777      5.1272      4.4975      3.9893      3.5946    
  3.3026      3.1035      2.9909      2.9614      3.0135      3.1476      3.3656      3.6717      4.0733      4.5803    
  5.2019      5.9424      6.7950      7.7369      8.7274      9.7112      10.626      11.414      12.030      12.443    
  12.646      12.663      12.520      12.228      11.782      11.176      10.427      9.5645      8.6273      7.6663    
  8.1703      7.1187      6.1549      5.3151      4.6153      4.0541      3.6209      3.3023      3.0866      2.9660    
  2.9365      2.9968      3.1476      3.3928      3.7397      4.1996      4.7860      5.5101      6.3740      7.3640    
  8.4456      9.5636      10.649      11.632      12.443      13.016      13.340      13.460      13.435      13.304    
  13.060      12.663      12.066      11.263      10.306      9.2546      9.8294      8.6249      7.4577      6.3926    
  5.4708      4.7085      4.1024      3.6390      3.3020      3.0779      2.9576      2.9365      3.0135      3.1908    
  3.4746      3.8760      4.4108      5.0953      5.9402      6.9422      8.0760      9.2910      10.515      11.667    
  12.646      13.340      13.721      13.848      13.832      13.774      13.712      13.603      13.345      12.836    
  12.033      10.993      11.600      10.330      9.0119      7.7375      6.5809      5.5874      4.7731      4.1322    
  3.6482      3.3019      3.0779      2.9660      2.9614      3.0636      3.2768      3.6107      4.0810      4.7071    
  5.5070      6.4877      7.6358      8.9093      10.238      11.532      12.663      13.460      13.848      13.883    
  13.723      13.556      13.518      13.625      13.769      13.763      13.430      12.690      13.208      12.104    
  10.739      9.3164      7.9465      6.7115      5.6597      4.8061      4.1423      3.6482      3.3020      3.0866    
  2.9909      3.0105      3.1462      3.4051      3.8011      4.3544      5.0876      6.0174      7.1432      8.4360    
  9.8325      11.241      12.520      13.435      13.832      13.723      13.282      12.787      12.507      12.590    
  13.004      13.539      13.901      13.830      14.054      13.584      12.487      11.041      9.5262      8.0756    
  6.7783      5.6841      4.8061      4.1322      3.6390      3.3023      3.1035      3.0317      3.0829      3.2603    
  3.5746      4.0445      4.6945      5.5484      6.6182      7.8907      9.3160      10.806      12.228      13.304    
  13.774      13.556      12.787      11.793      10.977      10.678      11.031      11.909      12.973      13.802    
  13.552      14.146      13.831      12.742      11.226      9.6332      8.1193      6.7783      5.6597      4.7731    
  4.1024      3.6209      3.3026      3.1281      3.0869      3.1768      3.4040      3.7834      4.3386      5.0973    
  6.0820      7.2957      8.7073      10.242      11.782      13.060      13.712      13.518      12.507      10.977    
  9.4225      8.3727      8.2061      9.0001      10.496      12.198      11.385      13.260      14.164      13.967    
  12.869      11.289      9.6332      8.0756      6.7115      5.5874      4.7085      4.0541      3.5946      3.3028    
  3.1594      3.1552      3.2904      3.5749      4.0284      4.6789      5.5555      6.6760      8.0300      9.5639    
  11.176      12.663      13.603      13.625      12.590      10.678      8.3727      6.3383      5.2092      5.3618    
  6.7671      8.9974      7.6735      10.716      13.033      14.158      14.010      12.869      11.226      9.5262    
  7.9465      6.5809      5.4708      4.6153      3.9893      3.5610      3.3028      3.1964      3.2348      3.4212    
  3.7697      4.3050      5.0584      6.0580      7.3132      8.7959      10.427      12.066      13.345      13.769    
  13.004      11.031      8.2061      5.2092      2.8606      1.8573      2.5195      4.6647      3.0297      6.7655    
  10.340      12.949      14.158      13.967      12.742      11.041      9.3164      7.7375      6.3926      5.3151    
  4.4975      3.9107      3.5214      3.3025      3.2381      3.3236      3.5661      3.9842      4.6069      5.4672    
  6.5897      7.9717      9.5645      11.263      12.836      13.763      13.539      11.909      9.0001      5.3618    
  1.8573     -.57466     -1.2315     0.93705E-01 -1.5387      2.1356      6.4425      10.340      13.033      14.164    
  13.831      12.487      10.739      9.0119      7.4577      6.1549      5.1272      4.3601      3.8212      3.4770    
  3.3022      3.2835      3.4196      3.7217      4.2129      4.9256      5.8928      7.1325      8.6273      10.306    
  12.033      13.430      13.901      12.973      10.496      6.7671      2.5195     -1.2315     -3.4866     -3.6037    
 -4.8923     -2.1143      2.1356      6.7655      10.716      13.260      14.146      13.584      12.104      10.330    
  8.6249      7.1187      5.8777      4.9147      4.2083      3.7241      3.4295      3.3019      3.3313      3.5202    
  3.8838      4.4493      5.2512      6.3205      7.6663      9.2546      10.993      12.690      13.830      13.802    
  12.198      8.9974      4.6647     0.93675E-01 -3.6037     -5.4384     -4.8923     -4.0286     -1.0978      3.1039    
  7.5092      11.127      13.313      13.891      13.120      11.551      9.7802      8.1076      6.6500      5.4633    
  4.5522      3.8912      3.4445      3.1803      3.0778      3.1286      3.3372      3.7205      4.3074      5.1332    
  6.2284      7.5988      9.2048      10.947      12.609      13.650      13.479      11.742      8.4848      4.2294    
 -.10815     -3.4494     -4.0287     -4.8923     -3.4494     -.10812      4.2294      8.4848      11.742      13.479    
  13.650      12.609      10.947      9.2048      7.5988      6.2284      5.1333      4.3074      3.7205      3.3372    
  3.1286      3.0778      3.1803      3.4445      3.8912      4.5522      5.4632      6.6500      8.1076      9.7802    
  11.551      13.120      13.891      13.313      11.127      7.5092      3.1039     -1.0978     -1.0048     -3.3495    
 -3.6036     -1.7065      1.7983      5.9650      9.7722      12.431      13.572      13.276      11.977      10.271    
  8.5821      7.0649      5.7980      4.8046      4.0691      3.5585      3.2391      3.0861      3.0865      3.2399    
  3.5582      4.0657      4.7957      5.7830      7.0471      8.5721      10.288      12.059      13.514      14.047    
  13.176      10.743      7.0385      2.7878      3.3415     0.15814     -1.5205     -1.2315     0.92208      4.3115    
  8.0144      11.126      13.022      13.493      12.739      11.240      9.5443      7.9343      6.5253      5.3741    
  4.4881      3.8445      3.4096      3.1528      3.0537      3.1035      3.3056      3.6749      4.2381      5.0293    
  6.0804      7.4043      8.9746      10.710      12.458      13.801      14.166      13.150      10.694      7.1717    
  7.8923      4.6736      2.2027      1.1701      1.8573      4.0328      7.0419      10.046      12.301      13.363    
  13.179      12.038      10.433      8.7922      7.2848      5.9990      4.9704      4.1931      3.6395      3.2773    
  3.0800      3.0318      3.1281      3.3753      3.7907      4.4025      5.2440      6.3436      7.7071      9.2992    
  11.032      12.740      13.995      14.280      13.275      11.006      11.622      9.0721      6.5618      4.8055    
  4.3143      5.2092      7.1782      9.5979      11.759      13.100      13.359      12.612      11.207      9.5959    
  8.0413      6.6562      5.5032      4.5987      3.9270      3.4586      3.1642      3.0221      3.0209      3.1595    
  3.4467      3.9017      4.5527      5.4313      6.5615      7.9426      9.5326      11.240      12.897      14.098    
  14.393      13.539      13.879      12.418      10.500      8.6994      7.5747      7.4667      8.3726      9.9515    
  11.657      12.937      13.414      12.986      11.830      10.311      8.7604      7.3181      6.0692      5.0523    
  4.2683      3.6956      3.3055      3.0726      2.9801      3.0209      3.1965      3.5175      4.0038      4.6827    
  5.5832      6.7245      8.1004      9.6649      11.326      12.926      14.104      14.480      14.493      14.196    
  13.224      11.925      10.758      10.126      10.226      10.977      12.054      13.017      13.478      13.227    
  12.294      10.916      9.4122      7.9569      6.6471      5.5409      4.6571      3.9858      3.5030      3.1826    
  3.0039      2.9550      3.0319      3.2382      3.5855      4.0932      4.7871      5.6929      6.8252      8.1735    
  9.6896      11.284      12.819      13.993      13.742      14.376      14.382      13.868      13.111      12.449    
  12.149      12.301      12.787      13.331      13.613      13.398      12.619      11.394      9.9735      8.5465    
  7.2142      6.0481      5.0837      4.3248      3.7554      3.3516      3.0916      2.9595      2.9473      3.0537    
  3.2835      3.6483      4.1666      4.8617      5.7556      6.8590      8.1581      9.6048      11.115      12.570    
  12.181      13.333      14.078      14.343      14.209      13.875      13.571      13.454      13.545      13.723    
  13.779      13.512      12.819      11.734      10.425      9.0634      7.7478      6.5558      5.5359      4.7058    
  4.0596      3.5791      3.2429      3.0337      2.9402      2.9575      3.0861      3.3313      3.7041      4.2213    
  4.9033      5.7687      6.8243      8.0546      9.4129      10.822      10.415      11.662      12.762      13.571    
  14.022      14.164      14.124      14.040      13.990      13.960      13.848      13.521      12.882      11.925    
  10.749      9.4868      8.2261      7.0447      5.9993      5.1196      4.4112      3.8632      3.4578      3.1776    
  3.0097      2.9466      2.9858      3.1286      3.3805      3.7511      4.2552      4.9105      5.7318      6.7229    
  7.8673      9.1211      8.7408      9.9088      11.035      12.047      12.861      13.416      13.726      13.859    
  13.883      13.830      13.672      13.340      12.771      11.948      10.927      9.7964      8.6283      7.4954    
  6.4582      5.5556      4.8039      4.2013      3.7357      3.3917      3.1560      3.0198      2.9787      3.0316    
  3.1803      3.4295      3.7877      4.2674      4.8833      5.6469      6.5595      7.6041      7.2761      8.2875    
  9.3236      10.324      11.229      11.993      12.572      12.956      13.167      13.229      13.146      12.894    
  12.443      11.781      10.942      9.9734      8.9344      7.8890      6.8966      6.0020      5.2307      4.5904    
  4.0761      3.6768      3.3805      3.1782      3.0642      3.0363      3.0943      3.2399      3.4770      3.8128    
  4.2576      4.8231      5.5180      6.3412      6.0775      6.8973      7.7800      8.6831      9.5574      10.356    
  11.040      11.584      11.973      12.201      12.267      12.163      11.880      11.414      10.779      10.002    
  9.1266      8.2071      7.2982      6.4462      5.6837      5.0269      4.4792      4.0351      3.6860      3.4241    
  3.2438      3.1422      3.1182      3.1722      3.3055      3.5214      3.8255      4.2264      4.7329      5.3508    
  5.1523      5.7793      6.4833      7.2395      8.0137      8.7675      9.4630      10.068      10.560      10.921    
  11.140      11.207      11.115      10.857      10.438      9.8727      9.1906      8.4330      7.6463      6.8747    
  6.1538      5.5069      4.9451      4.4700      4.0778      3.7633      3.5224      3.3525      3.2527      3.2229    
  3.2633      3.3752      3.5611      3.8255      4.1751      4.6163      4.4780      4.9304      5.4587      6.0511    
  6.6878      7.3428      7.9862      8.5881      9.1218      9.5652      9.9011      10.116      10.197      10.137    
  9.9327      9.5879      9.1190      8.5529      7.9246      7.2719      6.6294      6.0240      5.4732      4.9855    
  4.5630      4.2046      3.9089      3.6752      3.5035      3.3943      3.3480      3.3652      3.4467      3.5946    
  3.8128      4.1059      4.0210      4.3230      4.6935      5.1281      5.6173      6.1465      6.6959      7.2431    
  7.7646      8.2380      8.6437      8.9648      9.1873      9.2994      9.2923      9.1625      8.9136      8.5584    
  8.1184      7.6210      7.0952      6.5677      6.0591      5.5835      5.1488      4.7588      4.4161      4.1230    
  3.8819      3.6951      3.5644      3.4907      3.4747      3.5175      3.6209      3.7877      3.7511      3.9236    
  4.1569      4.4501      4.7994      5.1976      5.6342      6.0951      6.5633      7.0205      7.4485      7.8306    
  8.1516      8.3983      8.5588      8.6235      8.5867      8.4485      8.2162      7.9043      7.5321      7.1212    
  6.6916      6.2599      5.8383      5.4355      5.0584      4.7130      4.4054      4.1412      3.9250      3.7598    
  3.6473      3.5888      3.5855      3.6390      3.6481      3.7041      3.8167      3.9854      4.2086      4.4835    
  4.8052      5.1665      5.5574      5.9653      6.3763      6.7765      7.1522      7.4907      7.7796      8.0066    
  8.1600      8.2301      8.2117      8.1054      7.9180      7.6614      7.3506      7.0007      6.6256      6.2371    
  5.8456      5.4614      5.0944      4.7545      4.4506      4.1896      3.9763      3.8138      3.7040      3.6484    
  3.7042      3.6481      3.6483      3.7039      3.8137      3.9763      4.1896      4.4506      4.7545      5.0944    
  5.4614      5.8457      6.2371      6.6256      7.0007      7.3506      7.6614      7.9180      8.1054      8.2117    
  8.2301      8.1600      8.0066      7.7796      7.4907      7.1522      6.7765      6.3763      5.9653      5.5574    
  5.1665      4.8052      4.4835      4.2086      3.9854      3.8167      3.9235      3.7511      3.6389      3.5854    
  3.5888      3.6473      3.7598      3.9250      4.1412      4.4054      4.7130      5.0584      5.4355      5.8383    
  6.2599      6.6916      7.1212      7.5321      7.9043      8.2162      8.4485      8.5867      8.6235      8.5588    
  8.3983      8.1516      7.8306      7.4485      7.0205      6.5633      6.0951      5.6343      5.1976      4.7994    
  4.4501      4.1569      4.3230      4.0210      3.7877      3.6209      3.5175      3.4747      3.4907      3.5643    
  3.6951      3.8818      4.1230      4.4161      4.7588      5.1488      5.5835      6.0591      6.5677      7.0952    
  7.6210      8.1184      8.5584      8.9135      9.1625      9.2923      9.2994      9.1873      8.9648      8.6437    
  8.2380      7.7646      7.2431      6.6959      6.1465      5.6174      5.1281      4.6935      4.9304      4.4779    
  4.1058      3.8128      3.5946      3.4466      3.3652      3.3480      3.3943      3.5034      3.6751      3.9089    
  4.2046      4.5630      4.9855      5.4732      6.0240      6.6294      7.2719      7.9246      8.5529      9.1190    
  9.5879      9.9327      10.137      10.197      10.116      9.9011      9.5652      9.1218      8.5881      7.9862    
  7.3428      6.6878      6.0511      5.4587      5.7793      5.1523      4.6163      4.1751      3.8255      3.5611    
  3.3752      3.2634      3.2229      3.2527      3.3525      3.5224      3.7634      4.0778      4.4700      4.9451    
  5.5069      6.1538      6.8747      7.6463      8.4330      9.1906      9.8727      10.438      10.857      11.115    
  11.207      11.140      10.921      10.560      10.068      9.4630      8.7675      8.0137      7.2394      6.4833    
  6.8973      6.0774      5.3508      4.7328      4.2263      3.8255      3.5214      3.3055      3.1722      3.1182    
  3.1422      3.2438      3.4242      3.6861      4.0351      4.4792      5.0269      5.6837      6.4462      7.2982    
  8.2071      9.1266      10.002      10.779      11.414      11.880      12.163      12.267      12.201      11.973    
  11.584      11.040      10.356      9.5573      8.6830      7.7800      8.2875      7.2761      6.3411      5.5179    
  4.8231      4.2575      3.8128      3.4770      3.2399      3.0943      3.0363      3.0642      3.1782      3.3806    
  3.6768      4.0762      4.5904      5.2307      6.0020      6.8966      7.8890      8.9344      9.9734      10.942    
  11.781      12.443      12.894      13.146      13.229      13.167      12.956      12.572      11.993      11.229    
  10.324      9.3235      9.9087      8.7407      7.6040      6.5594      5.6468      4.8832      4.2674      3.7877    
  3.4295      3.1803      3.0316      2.9787      3.0198      3.1560      3.3917      3.7357      4.2014      4.8039    
  5.5556      6.4582      7.4954      8.6283      9.7965      10.927      11.948      12.771      13.340      13.672    
  13.830      13.883      13.859      13.726      13.416      12.861      12.047      11.035      11.662      10.415    
  9.1210      7.8672      6.7229      5.7317      4.9105      4.2553      3.7511      3.3804      3.1286      2.9857    
  2.9466      3.0097      3.1777      3.4579      3.8632      4.4112      5.1196      5.9993      7.0447      8.2261    
  9.4868      10.749      11.925      12.882      13.521      13.848      13.960      13.990      14.039      14.124    
  14.164      14.022      13.571      12.762      13.333      12.181      10.822      9.4129      8.0546      6.8243    
  5.7687      4.9034      4.2213      3.7041      3.3313      3.0861      2.9575      2.9402      3.0337      3.2430    
  3.5791      4.0597      4.7058      5.5359      6.5558      7.7478      9.0634      10.425      11.734      12.819    
  13.512      13.778      13.723      13.545      13.454      13.571      13.875      14.209      14.342      14.078    
  14.376      13.742      12.570      11.115      9.6048      8.1581      6.8590      5.7556      4.8618      4.1667    
  3.6483      3.2835      3.0537      2.9473      2.9595      3.0916      3.3517      3.7554      4.3249      5.0837    
  6.0481      7.2142      8.5465      9.9735      11.394      12.619      13.398      13.613      13.331      12.787    
  12.301      12.149      12.449      13.111      13.868      14.382      14.196      14.493      13.993      12.819    
  11.284      9.6896      8.1735      6.8252      5.6929      4.7872      4.0933      3.5855      3.2382      3.0319    
  2.9550      3.0040      3.1826      3.5031      3.9859      4.6571      5.5409      6.6471      7.9570      9.4122    
  10.916      12.294      13.227      13.478      13.017      12.054      10.977      10.226      10.126      10.758    
  11.925      13.224      12.418      13.878      14.480      14.104      12.926      11.326      9.6649      8.1005    
  6.7245      5.5832      4.6827      4.0038      3.5175      3.1965      3.0209      2.9802      3.0726      3.3055    
  3.6957      4.2684      5.0523      6.0692      7.3181      8.7604      10.311      11.830      12.986      13.414    
  12.937      11.657      9.9516      8.3727      7.4667      7.5747      8.6993      10.500      9.0721      11.622    