unknown system                          
   1.00000000000000     
    -2.548696    2.548696    1.454388
     2.548696   -2.548696    1.454388
     2.548696    2.548696   -1.454388
   Si
     2
Direct
  0.000000  0.000000  0.000000
  0.250000  0.750000  0.500000
 
   36   36   36
 -.61254869461E+01 -.48923040769E+01 -.15386552979E+01 0.30296896815E+01 0.76734607591E+01
 0.11385175985E+02 0.13552025130E+02 0.14054188822E+02 0.13208379836E+02 0.11600369407E+02
 0.98294376740E+01 0.81703421067E+01 0.67345045905E+01 0.55725689993E+01 0.46859523363E+01
 0.40477518378E+01 0.36226956375E+01 0.33804515784E+01 0.33018386903E+01 0.33804555722E+01
 0.36227245870E+01 0.40477983101E+01 0.46859829856E+01 0.55725778354E+01 0.67345155626E+01
 0.81703580581E+01 0.98294361294E+01 0.11600351036E+02 0.13208371826E+02 0.14054196250E+02
 0.13552024096E+02 0.11385157467E+02 0.76734366290E+01 0.30296572890E+01 -.15387063913E+01
 -.48923505216E+01 -.48923505216E+01 -.54384226140E+01 -.36036563645E+01 0.93704862701E-01
 0.46646909737E+01 0.89974043624E+01 0.12197558425E+02 0.13802372219E+02 0.13830401320E+02
 0.12689964615E+02 0.10993229615E+02 0.92546103417E+01 0.76662664756E+01 0.63204885380E+01
 0.52512316999E+01 0.44493152425E+01 0.38838096986E+01 0.35201922725E+01 0.33313290431E+01
 0.33019586166E+01 0.34295302148E+01 0.37241588926E+01 0.42083907746E+01 0.49147311188E+01
 0.58777368696E+01 0.71187127118E+01 0.86248709282E+01 0.10330181308E+02 0.12103850100E+02
 0.13584363906E+02 0.14146341868E+02 0.13260180684E+02 0.10716187326E+02 0.67654339705E+01
 0.21356036193E+01 -.21143225728E+01 -.15387063913E+01 -.36036892215E+01 -.34865537365E+01
 -.12314759558E+01 0.25195207996E+01 0.67671303801E+01 0.10496449374E+02 0.12972975864E+02
 0.13901293781E+02 0.13430030211E+02 0.12032863361E+02 0.10306344414E+02 0.86273113762E+01
 0.71324853518E+01 0.58927607555E+01 0.49255921584E+01 0.42129112341E+01 0.37216947122E+01
 0.34196076998E+01 0.32834957181E+01 0.33022485712E+01 0.34770356197E+01 0.38212672320E+01
 0.43601429067E+01 0.51272013212E+01 0.61548360376E+01 0.74576801343E+01 0.90119222219E+01
 0.10738741084E+02 0.12486589437E+02 0.13830685621E+02 0.14163755803E+02 0.13033437190E+02
 0.10339663548E+02 0.64424984615E+01 0.21356036193E+01 0.30296572890E+01 0.93674944525E-01
 -.12314870257E+01 -.57466205602E+00 0.18572804354E+01 0.53618156634E+01 0.90001281195E+01
 0.11908747106E+02 0.13539296017E+02 0.13762593510E+02 0.12835547354E+02 0.11263312078E+02
 0.95645186106E+01 0.79717279667E+01 0.65896729351E+01 0.54671784714E+01 0.46068679171E+01
 0.39842062366E+01 0.35661119887E+01 0.33236677119E+01 0.32381674018E+01 0.33025753412E+01
 0.35214009965E+01 0.39107406044E+01 0.44975325591E+01 0.53151265827E+01 0.63925842683E+01
 0.77374962068E+01 0.93163206671E+01 0.11040859055E+02 0.12741860639E+02 0.13967086149E+02
 0.14157500276E+02 0.12948557107E+02 0.10339663548E+02 0.67654339705E+01 0.76734366290E+01
 0.46646729464E+01 0.25195169872E+01 0.18572913647E+01 0.28605993042E+01 0.52092122429E+01
 0.82060595672E+01 0.11030602554E+02 0.13003907077E+02 0.13768838665E+02 0.13345018358E+02
 0.12065801264E+02 0.10427210117E+02 0.87958454204E+01 0.73131445656E+01 0.60579607932E+01
 0.50583756921E+01 0.43050380662E+01 0.37697235553E+01 0.34211840165E+01 0.32348137656E+01
 0.31964591130E+01 0.33027923573E+01 0.35610822955E+01 0.39893456960E+01 0.46152376571E+01
 0.54707670500E+01 0.65808777149E+01 0.79464213923E+01 0.95261409182E+01 0.11226268439E+02
 0.12869001292E+02 0.14010383123E+02 0.14157500276E+02 0.13033437190E+02 0.10716187326E+02
 0.11385157467E+02 0.89973920460E+01 0.67671275559E+01 0.53618341291E+01 0.52092384589E+01
 0.63382714133E+01 0.83726943436E+01 0.10678214933E+02 0.12590314072E+02 0.13625043627E+02
 0.13602911777E+02 0.12662511912E+02 0.11175914546E+02 0.95638747174E+01 0.80300132605E+01
 0.66760066623E+01 0.55555006994E+01 0.46788898230E+01 0.40284042847E+01 0.35748799910E+01
 0.32904345942E+01 0.31552401063E+01 0.31594335571E+01 0.33028033479E+01 0.35946614437E+01
 0.40540853218E+01 0.47084119809E+01 0.55873571777E+01 0.67114031115E+01 0.80755213636E+01
 0.96331542199E+01 0.11288764215E+02 0.12869001292E+02 0.13967086149E+02 0.14163755803E+02
 0.13260180684E+02 0.13552024096E+02 0.12197561357E+02 0.10496449168E+02 0.90001374926E+01
 0.82060906651E+01 0.83727257768E+01 0.94224700897E+01 0.10977289664E+02 0.12506609011E+02
 0.13517698548E+02 0.13712079472E+02 0.13060067363E+02 0.11781538195E+02 0.10242103729E+02
 0.87073201040E+01 0.72957364454E+01 0.60819605468E+01 0.50972794872E+01 0.43385841964E+01
 0.37833899470E+01 0.34039698623E+01 0.31768314005E+01 0.30869275663E+01 0.31281266546E+01
 0.33026022386E+01 0.36209311852E+01 0.41023689070E+01 0.47730004851E+01 0.56595868929E+01
 0.67782169800E+01 0.81191918888E+01 0.96331542199E+01 0.11226268439E+02 0.12741860639E+02
 0.13830685621E+02 0.14146341868E+02 0.14054196250E+02 0.13802394610E+02 0.12972996240E+02
 0.11908757166E+02 0.11030619031E+02 0.10678247681E+02 0.10977317141E+02 0.11792725028E+02
 0.12787399526E+02 0.13556131178E+02 0.13774092107E+02 0.13303612068E+02 0.12227753903E+02
 0.10806434331E+02 0.93160311961E+01 0.78907003548E+01 0.66182266143E+01 0.55483564827E+01
 0.46944566023E+01 0.40444880756E+01 0.35746007634E+01 0.32602710104E+01 0.30828446204E+01
 0.30316472393E+01 0.31035321573E+01 0.33022793991E+01 0.36389602658E+01 0.41321889090E+01
 0.48060676026E+01 0.56840543496E+01 0.67782169800E+01 0.80755213636E+01 0.95261409182E+01
 0.11040859055E+02 0.12486589437E+02 0.13584363906E+02 0.13208371826E+02 0.13830417531E+02
 0.13901328981E+02 0.13539326345E+02 0.13003923857E+02 0.12590332375E+02 0.12506635132E+02
 0.12787417653E+02 0.13282393942E+02 0.13722752239E+02 0.13832294106E+02 0.13435111429E+02
 0.12519772181E+02 0.11240613856E+02 0.98325537189E+01 0.84359587604E+01 0.71431802430E+01
 0.60173636948E+01 0.50875577921E+01 0.43543465128E+01 0.38010527314E+01 0.34050973657E+01
 0.31462151952E+01 0.30104896032E+01 0.29909257514E+01 0.30865430985E+01 0.33019878626E+01
 0.36481274900E+01 0.41422737960E+01 0.48060676026E+01 0.56595868929E+01 0.67114031115E+01
 0.79464213923E+01 0.93163206671E+01 0.10738741084E+02 0.12103850100E+02 0.11600351036E+02
 0.12689955372E+02 0.13430046959E+02 0.13762629515E+02 0.13768870475E+02 0.13625062944E+02
 0.13517714944E+02 0.13556147172E+02 0.13722759994E+02 0.13883006052E+02 0.13848081897E+02
 0.13460079266E+02 0.12662900052E+02 0.11531746280E+02 0.10237849374E+02 0.89092795918E+01
 0.76357557683E+01 0.64877049895E+01 0.55069799669E+01 0.47071384380E+01 0.40809799357E+01
 0.36107039220E+01 0.32767787331E+01 0.30635558816E+01 0.29613363343E+01 0.29659681601E+01
 0.30778553848E+01 0.33018713537E+01 0.36481274900E+01 0.41321889090E+01 0.47730004851E+01
 0.55873571777E+01 0.65808777149E+01 0.77374962068E+01 0.90119222219E+01 0.10330181308E+02
 0.98294361294E+01 0.10993217360E+02 0.12032854008E+02 0.12835558704E+02 0.13345046163E+02
 0.13602938419E+02 0.13712097846E+02 0.13774105012E+02 0.13832300622E+02 0.13848081292E+02
 0.13720825037E+02 0.13340272677E+02 0.12645940294E+02 0.11666937976E+02 0.10515311749E+02
 0.92910531558E+01 0.80760276890E+01 0.69421993359E+01 0.59401896027E+01 0.50952711457E+01
 0.44107950085E+01 0.38760079694E+01 0.34745107338E+01 0.31907511278E+01 0.30134907404E+01
 0.29364775486E+01 0.29575577317E+01 0.30778553848E+01 0.33019878626E+01 0.36389602658E+01
 0.41023689070E+01 0.47084119809E+01 0.54707670500E+01 0.63925842683E+01 0.74576801343E+01
 0.86248709282E+01 0.81703580581E+01 0.92546218755E+01 0.10306340661E+02 0.11263304661E+02
 0.12065805805E+02 0.12662528107E+02 0.13060085672E+02 0.13303627344E+02 0.13435120698E+02
 0.13460078935E+02 0.13340266808E+02 0.13015506830E+02 0.12442642169E+02 0.11631748486E+02
 0.10649351189E+02 0.95636313769E+01 0.84455665782E+01 0.73640019341E+01 0.63739873741E+01
 0.55100807217E+01 0.47860333686E+01 0.41996101825E+01 0.37396783256E+01 0.33927914533E+01
 0.31476087523E+01 0.29967246493E+01 0.29364775486E+01 0.29659681601E+01 0.30865430985E+01
 0.33022793991E+01 0.36209311852E+01 0.40540853218E+01 0.46152376571E+01 0.53151265827E+01
 0.61548360376E+01 0.71187127118E+01 0.67345155626E+01 0.76662890386E+01 0.86273297809E+01
 0.95645228937E+01 0.10427207145E+02 0.11175914895E+02 0.11781544171E+02 0.12227763661E+02
 0.12519783247E+02 0.12662906036E+02 0.12645935936E+02 0.12442633928E+02 0.12030358083E+02
 0.11414362784E+02 0.10626334632E+02 0.97112447966E+01 0.87274247117E+01 0.77369317038E+01
 0.67950436845E+01 0.59424011773E+01 0.52018650580E+01 0.45802481056E+01 0.40733143521E+01
 0.36716685778E+01 0.33655598850E+01 0.31476087523E+01 0.30134907404E+01 0.29613363343E+01
 0.29909257514E+01 0.31035321573E+01 0.33026022386E+01 0.35946614437E+01 0.39893456960E+01
 0.44975325591E+01 0.51272013212E+01 0.58777368696E+01 0.55725778354E+01 0.63205000493E+01
 0.71325042657E+01 0.79717459389E+01 0.87958553967E+01 0.95638779371E+01 0.10242103562E+02
 0.10806433448E+02 0.11240616371E+02 0.11531752878E+02 0.11666941219E+02 0.11631742483E+02
 0.11414354409E+02 0.11012336171E+02 0.10438132716E+02 0.97214229804E+01 0.89064744182E+01
 0.80454361657E+01 0.71897702820E+01 0.63824483423E+01 0.56530738864E+01 0.50169416635E+01
 0.44775922654E+01 0.40313074880E+01 0.36716685778E+01 0.33927914533E+01 0.31907511278E+01
 0.30635558816E+01 0.30104896032E+01 0.30316472393E+01 0.31281266546E+01 0.33028033479E+01
 0.35610822955E+01 0.39107406044E+01 0.43601429067E+01 0.49147311188E+01 0.46859829856E+01
 0.52512435646E+01 0.58927668834E+01 0.65896820507E+01 0.73131568119E+01 0.80300256516E+01
 0.87073289424E+01 0.93160325254E+01 0.98325491313E+01 0.10237846754E+02 0.10515314545E+02
 0.10649352491E+02 0.10626328852E+02 0.10438125793E+02 0.10086788856E+02 0.95878923232E+01
 0.89707201434E+01 0.82748015544E+01 0.75438417479E+01 0.68189389004E+01 0.61330565068E+01
 0.55081465116E+01 0.49553445505E+01 0.44775922654E+01 0.40733143521E+01 0.37396783256E+01
 0.34745107338E+01 0.32767787331E+01 0.31462151952E+01 0.30828446204E+01 0.30869275663E+01
 0.31594335571E+01 0.33027923573E+01 0.35214009965E+01 0.38212672320E+01 0.42083907746E+01
 0.40477983101E+01 0.44493446294E+01 0.49256026674E+01 0.54671782973E+01 0.60579597582E+01
 0.66760114441E+01 0.72957482497E+01 0.78907122893E+01 0.84359616831E+01 0.89092736804E+01
 0.92910478263E+01 0.95636315063E+01 0.97112449857E+01 0.97214187227E+01 0.95878878946E+01
 0.93137943200E+01 0.89135486450E+01 0.84121779499E+01 0.78420598025E+01 0.72379865204E+01
 0.66320359494E+01 0.60496913790E+01 0.55081465116E+01 0.50169416635E+01 0.45802481056E+01
 0.41996101825E+01 0.38760079694E+01 0.36107039220E+01 0.34050973657E+01 0.32602710104E+01
 0.31768314005E+01 0.31552401063E+01 0.31964591130E+01 0.33025753412E+01 0.34770356197E+01
 0.37241588926E+01 0.36227245870E+01 0.38838380848E+01 0.42129313474E+01 0.46068755121E+01
 0.50583723940E+01 0.55554937854E+01 0.60819600250E+01 0.66182365369E+01 0.71431927066E+01
 0.76357595125E+01 0.80760220085E+01 0.84455603696E+01 0.87274230820E+01 0.89064741140E+01
 0.89707182422E+01 0.89135471791E+01 0.87360829837E+01 0.84484518136E+01 0.80691738197E+01
 0.76226298335E+01 0.71353201558E+01 0.66320359494E+01 0.61330565068E+01 0.56530738864E+01
 0.52018650580E+01 0.47860333686E+01 0.44107950085E+01 0.40809799357E+01 0.38010527314E+01
 0.35746007634E+01 0.34039698623E+01 0.32904345942E+01 0.32348137656E+01 0.32381674018E+01
 0.33022485712E+01 0.34295302148E+01 0.33804555722E+01 0.35201936135E+01 0.37216991607E+01
 0.39842140393E+01 0.43050440809E+01 0.46788888275E+01 0.50972739587E+01 0.55483557500E+01
 0.60173724444E+01 0.64877161540E+01 0.69422028420E+01 0.73639970251E+01 0.77369254797E+01
 0.80454333509E+01 0.82748013558E+01 0.84121787995E+01 0.84484531193E+01 0.83803358380E+01
 0.82117268798E+01 0.79536503295E+01 0.76226298335E+01 0.72379865204E+01 0.68189389004E+01
 0.63824483423E+01 0.59424011773E+01 0.55100807217E+01 0.50952711457E+01 0.47071384380E+01
 0.43543465128E+01 0.40444880756E+01 0.37833899470E+01 0.35748799910E+01 0.34211840165E+01
 0.33236677119E+01 0.32834957181E+01 0.33019586166E+01 0.33018386903E+01 0.33313126325E+01
 0.34195842897E+01 0.35660954977E+01 0.37697216697E+01 0.40284120885E+01 0.43385912924E+01
 0.46944597027E+01 0.50875620440E+01 0.55069885726E+01 0.59401981021E+01 0.63739896622E+01
 0.67950396350E+01 0.71897645297E+01 0.75438384190E+01 0.78420602521E+01 0.80691770292E+01
 0.82117299141E+01 0.82603658064E+01 0.82117268798E+01 0.80691738197E+01 0.78420598025E+01
 0.75438417479E+01 0.71897702820E+01 0.67950436845E+01 0.63739873741E+01 0.59401896027E+01
 0.55069799669E+01 0.50875577921E+01 0.46944566023E+01 0.43385841964E+01 0.40284042847E+01
 0.37697235553E+01 0.35661119887E+01 0.34196076998E+01 0.33313290431E+01 0.33804515784E+01
 0.33019433186E+01 0.32834650844E+01 0.33236302898E+01 0.34211572831E+01 0.35748756124E+01
 0.37834036379E+01 0.40445067133E+01 0.43543618678E+01 0.47071498125E+01 0.50952796494E+01
 0.55100859058E+01 0.59424022083E+01 0.63824455297E+01 0.68189341448E+01 0.72379833291E+01
 0.76226309560E+01 0.79536544893E+01 0.82117299141E+01 0.83803358380E+01 0.84484518136E+01
 0.84121779499E+01 0.82748015544E+01 0.80454361657E+01 0.77369317038E+01 0.73640019341E+01
 0.69421993359E+01 0.64877049895E+01 0.60173636948E+01 0.55483564827E+01 0.50972794872E+01
 0.46788898230E+01 0.43050380662E+01 0.39842062366E+01 0.37216947122E+01 0.35201922725E+01
 0.36226956375E+01 0.34295047310E+01 0.33022217439E+01 0.32381329464E+01 0.32347769604E+01
 0.32904113400E+01 0.34039710248E+01 0.35746224965E+01 0.38010823781E+01 0.40810064718E+01
 0.44108125593E+01 0.47860415003E+01 0.52018677106E+01 0.56530746243E+01 0.61330552116E+01
 0.66320321281E+01 0.71353171537E+01 0.76226309560E+01 0.80691770292E+01 0.84484531193E+01
 0.87360829837E+01 0.89135486450E+01 0.89707201434E+01 0.89064744182E+01 0.87274247117E+01
 0.84455665782E+01 0.80760276890E+01 0.76357557683E+01 0.71431802430E+01 0.66182266143E+01
 0.60819605468E+01 0.55555006994E+01 0.50583756921E+01 0.46068679171E+01 0.42129112341E+01
 0.38838096986E+01 0.40477518378E+01 0.37241092376E+01 0.34769955336E+01 0.33025440682E+01
 0.31964302593E+01 0.31552156641E+01 0.31768213273E+01 0.32602817221E+01 0.34051259796E+01
 0.36107411589E+01 0.38760424397E+01 0.41996321480E+01 0.45802562587E+01 0.50169433267E+01
 0.55081476509E+01 0.60496908248E+01 0.66320321281E+01 0.72379833291E+01 0.78420602521E+01
 0.84121787995E+01 0.89135471791E+01 0.93137943200E+01 0.95878923232E+01 0.97214229804E+01
 0.97112447966E+01 0.95636313769E+01 0.92910531558E+01 0.89092795918E+01 0.84359587604E+01
 0.78907003548E+01 0.72957364454E+01 0.66760066623E+01 0.60579607932E+01 0.54671784714E+01
 0.49255921584E+01 0.44493152425E+01 0.46859523363E+01 0.42083400284E+01 0.38212122324E+01
 0.35213577473E+01 0.33027639037E+01 0.31594158244E+01 0.30869203210E+01 0.30828506017E+01
 0.31462352889E+01 0.32768117366E+01 0.34745523322E+01 0.37397178965E+01 0.40733393016E+01
 0.44776008079E+01 0.49553460904E+01 0.55081476509E+01 0.61330552116E+01 0.68189341448E+01
 0.75438384190E+01 0.82748013558E+01 0.89707182422E+01 0.95878878946E+01 0.10086788856E+02
 0.10438132716E+02 0.10626334632E+02 0.10649351189E+02 0.10515311749E+02 0.10237849374E+02
 0.98325537189E+01 0.93160311961E+01 0.87073201040E+01 0.80300132605E+01 0.73131445656E+01
 0.65896729351E+01 0.58927607555E+01 0.52512316999E+01 0.55725689993E+01 0.49147099941E+01
 0.43601048400E+01 0.39106974455E+01 0.35610479032E+01 0.33027828665E+01 0.31281205616E+01
 0.30316558300E+01 0.30105098521E+01 0.30635837301E+01 0.31907870270E+01 0.33928355699E+01
 0.36717108869E+01 0.40313335968E+01 0.44776008079E+01 0.50169433267E+01 0.56530746243E+01
 0.63824455297E+01 0.71897645297E+01 0.80454333509E+01 0.89064741140E+01 0.97214187227E+01
 0.10438125793E+02 0.11012336171E+02 0.11414362784E+02 0.11631748486E+02 0.11666937976E+02
 0.11531746280E+02 0.11240613856E+02 0.10806434331E+02 0.10242103729E+02 0.95638747174E+01
 0.87958454204E+01 0.79717279667E+01 0.71324853518E+01 0.63204885380E+01 0.67345045905E+01
 0.58777373723E+01 0.51271990953E+01 0.44975195930E+01 0.39893269446E+01 0.35946442225E+01
 0.33025918119E+01 0.31035353473E+01 0.29909461040E+01 0.29613672340E+01 0.30135242267E+01
 0.31476464896E+01 0.33656049270E+01 0.36717108869E+01 0.40733393016E+01 0.45802562587E+01
 0.52018677106E+01 0.59424022083E+01 0.67950396350E+01 0.77369254797E+01 0.87274230820E+01
 0.97112449857E+01 0.10626328852E+02 0.11414354409E+02 0.12030358083E+02 0.12442642169E+02
 0.12645940294E+02 0.12662900052E+02 0.12519772181E+02 0.12227753903E+02 0.11781538195E+02
 0.11175914546E+02 0.10427210117E+02 0.95645186106E+01 0.86273113762E+01 0.76662664756E+01
 0.81703421067E+01 0.71187110344E+01 0.61548511870E+01 0.53151465828E+01 0.46152540190E+01
 0.40540960261E+01 0.36209342203E+01 0.33022790225E+01 0.30865529485E+01 0.29659959375E+01
 0.29365143486E+01 0.29967603215E+01 0.31476464896E+01 0.33928355699E+01 0.37397178965E+01
 0.41996321480E+01 0.47860415003E+01 0.55100859058E+01 0.63739896622E+01 0.73639970251E+01
 0.84455603696E+01 0.95636315063E+01 0.10649352491E+02 0.11631742483E+02 0.12442633928E+02
 0.13015506830E+02 0.13340272677E+02 0.13460079266E+02 0.13435111429E+02 0.13303612068E+02
 0.13060067363E+02 0.12662511912E+02 0.12065801264E+02 0.11263312078E+02 0.10306344414E+02
 0.92546103417E+01 0.98294376740E+01 0.86248715161E+01 0.74576956278E+01 0.63926159842E+01
 0.54708070298E+01 0.47084552385E+01 0.41024070775E+01 0.36389816254E+01 0.33019954967E+01
 0.30778690639E+01 0.29575881434E+01 0.29365143486E+01 0.30135242267E+01 0.31907870270E+01
 0.34745523322E+01 0.38760424397E+01 0.44108125593E+01 0.50952796494E+01 0.59401981021E+01
 0.69422028420E+01 0.80760220085E+01 0.92910478263E+01 0.10515314545E+02 0.11666941219E+02
 0.12645935936E+02 0.13340266808E+02 0.13720825037E+02 0.13848081897E+02 0.13832294106E+02
 0.13774092107E+02 0.13712079472E+02 0.13602911777E+02 0.13345018358E+02 0.12835547354E+02
 0.12032863361E+02 0.10993229615E+02 0.11600369407E+02 0.10330197929E+02 0.90119451858E+01
 0.77375331725E+01 0.65809250724E+01 0.55874126997E+01 0.47730642587E+01 0.41322468633E+01
 0.36481600620E+01 0.33018821611E+01 0.30778690639E+01 0.29659959375E+01 0.29613672340E+01
 0.30635837301E+01 0.32768117366E+01 0.36107411589E+01 0.40810064718E+01 0.47071498125E+01
 0.55069885726E+01 0.64877161540E+01 0.76357595125E+01 0.89092736804E+01 0.10237846754E+02
 0.11531752878E+02 0.12662906036E+02 0.13460078935E+02 0.13848081292E+02 0.13883006052E+02
 0.13722752239E+02 0.13556131178E+02 0.13517698548E+02 0.13625043627E+02 0.13768838665E+02
 0.13762593510E+02 0.13430030211E+02 0.12689964615E+02 0.13208379836E+02 0.12103870059E+02
 0.10738770788E+02 0.93163670440E+01 0.79464798760E+01 0.67114634732E+01 0.56596527583E+01
 0.48061426739E+01 0.41423390518E+01 0.36481600620E+01 0.33019954967E+01 0.30865529485E+01
 0.29909461040E+01 0.30105098521E+01 0.31462352889E+01 0.34051259796E+01 0.38010823781E+01
 0.43543618678E+01 0.50875620440E+01 0.60173724444E+01 0.71431927066E+01 0.84359616831E+01
 0.98325491313E+01 0.11240616371E+02 0.12519783247E+02 0.13435120698E+02 0.13832300622E+02
 0.13722759994E+02 0.13282393942E+02 0.12787399526E+02 0.12506609011E+02 0.12590314072E+02
 0.13003907077E+02 0.13539296017E+02 0.13901293781E+02 0.13830401320E+02 0.14054188822E+02
 0.13584370917E+02 0.12486607130E+02 0.11040898434E+02 0.95262072558E+01 0.80755964081E+01
 0.67782851938E+01 0.56841239696E+01 0.48061426739E+01 0.41322468633E+01 0.36389816254E+01
 0.33022790225E+01 0.31035353473E+01 0.30316558300E+01 0.30828506017E+01 0.32602817221E+01
 0.35746224965E+01 0.40445067133E+01 0.46944597027E+01 0.55483557500E+01 0.66182365369E+01
 0.78907122893E+01 0.93160325254E+01 0.10806433448E+02 0.12227763661E+02 0.13303627344E+02
 0.13774105012E+02 0.13556147172E+02 0.12787417653E+02 0.11792725028E+02 0.10977289664E+02
 0.10678214933E+02 0.11030602554E+02 0.11908747106E+02 0.12972975864E+02 0.13802372219E+02
 0.13552025130E+02 0.14146350325E+02 0.13830693237E+02 0.12741875115E+02 0.11226314072E+02
 0.96332323619E+01 0.81192732624E+01 0.67782851938E+01 0.56596527583E+01 0.47730642587E+01
 0.41024070775E+01 0.36209342203E+01 0.33025918119E+01 0.31281205616E+01 0.30869203210E+01
 0.31768213273E+01 0.34039710248E+01 0.37834036379E+01 0.43385912924E+01 0.50972739587E+01
 0.60819600250E+01 0.72957482497E+01 0.87073289424E+01 0.10242103562E+02 0.11781544171E+02
 0.13060085672E+02 0.13712097846E+02 0.13517714944E+02 0.12506635132E+02 0.10977317141E+02
 0.94224700897E+01 0.83726943436E+01 0.82060595672E+01 0.90001281195E+01 0.10496449374E+02
 0.12197558425E+02 0.11385175985E+02 0.13260209775E+02 0.14163782129E+02 0.13967095644E+02
 0.12869013850E+02 0.11288812114E+02 0.96332323619E+01 0.80755964081E+01 0.67114634732E+01
 0.55874126997E+01 0.47084552385E+01 0.40540960261E+01 0.35946442225E+01 0.33027828665E+01
 0.31594158244E+01 0.31552156641E+01 0.32904113400E+01 0.35748756124E+01 0.40284120885E+01
 0.46788888275E+01 0.55554937854E+01 0.66760114441E+01 0.80300256516E+01 0.95638779371E+01
 0.11175914895E+02 0.12662528107E+02 0.13602938419E+02 0.13625062944E+02 0.12590332375E+02
 0.10678247681E+02 0.83727257768E+01 0.63382714133E+01 0.52092122429E+01 0.53618156634E+01
 0.67671303801E+01 0.89974043624E+01 0.76734607591E+01 0.10716225896E+02 0.13033489524E+02
 0.14157538653E+02 0.14010393667E+02 0.12869013850E+02 0.11226314072E+02 0.95262072558E+01
 0.79464798760E+01 0.65809250724E+01 0.54708070298E+01 0.46152540190E+01 0.39893269446E+01
 0.35610479032E+01 0.33027639037E+01 0.31964302593E+01 0.32347769604E+01 0.34211572831E+01
 0.37697216697E+01 0.43050440809E+01 0.50583723940E+01 0.60579597582E+01 0.73131568119E+01
 0.87958553967E+01 0.10427207145E+02 0.12065805805E+02 0.13345046163E+02 0.13768870475E+02
 0.13003923857E+02 0.11030619031E+02 0.82060906651E+01 0.52092384589E+01 0.28605993042E+01
 0.18572804354E+01 0.25195207996E+01 0.46646909737E+01 0.30296896815E+01 0.67654670282E+01
 0.10339714419E+02 0.12948618521E+02 0.14157538653E+02 0.13967095644E+02 0.12741875115E+02
 0.11040898434E+02 0.93163670440E+01 0.77375331725E+01 0.63926159842E+01 0.53151465828E+01
 0.44975195930E+01 0.39106974455E+01 0.35213577473E+01 0.33025440682E+01 0.32381329464E+01
 0.33236302898E+01 0.35660954977E+01 0.39842140393E+01 0.46068755121E+01 0.54671782973E+01
 0.65896820507E+01 0.79717459389E+01 0.95645228937E+01 0.11263304661E+02 0.12835558704E+02
 0.13762629515E+02 0.13539326345E+02 0.11908757166E+02 0.90001374926E+01 0.53618341291E+01
 0.18572913647E+01 -.57466205602E+00 -.12314759558E+01 0.93704862701E-01 -.15386552979E+01
 0.21356448871E+01 0.64425349003E+01 0.10339714419E+02 0.13033489524E+02 0.14163782129E+02
 0.13830693237E+02 0.12486607130E+02 0.10738770788E+02 0.90119451858E+01 0.74576956278E+01
 0.61548511870E+01 0.51271990953E+01 0.43601048400E+01 0.38212122324E+01 0.34769955336E+01
 0.33022217439E+01 0.32834650844E+01 0.34195842897E+01 0.37216991607E+01 0.42129313474E+01
 0.49256026674E+01 0.58927668834E+01 0.71325042657E+01 0.86273297809E+01 0.10306340661E+02
 0.12032854008E+02 0.13430046959E+02 0.13901328981E+02 0.12972996240E+02 0.10496449168E+02
 0.67671275559E+01 0.25195169872E+01 -.12314870257E+01 -.34865537365E+01 -.36036563645E+01
 -.48923040769E+01 -.21142633202E+01 0.21356448871E+01 0.67654670282E+01 0.10716225896E+02
 0.13260209775E+02 0.14146350325E+02 0.13584370917E+02 0.12103870059E+02 0.10330197929E+02
 0.86248715161E+01 0.71187110344E+01 0.58777373723E+01 0.49147099941E+01 0.42083400284E+01
 0.37241092376E+01 0.34295047310E+01 0.33019433186E+01 0.33313126325E+01 0.35201936135E+01
 0.38838380848E+01 0.44493446294E+01 0.52512435646E+01 0.63205000493E+01 0.76662890386E+01
 0.92546218755E+01 0.10993217360E+02 0.12689955372E+02 0.13830417531E+02 0.13802394610E+02
 0.12197561357E+02 0.89973920460E+01 0.46646729464E+01 0.93674944525E-01 -.36036892215E+01
 -.54384226140E+01 -.48922627228E+01 -.40286438977E+01 -.10977770250E+01 0.31039137042E+01
 0.75091988834E+01 0.11127040577E+02 0.13312970695E+02 0.13890581395E+02 0.13120380725E+02
 0.11550806537E+02 0.97802237057E+01 0.81076125837E+01 0.66500068594E+01 0.54632613102E+01
 0.45522455277E+01 0.38912489630E+01 0.34445171150E+01 0.31803478086E+01 0.30778208133E+01
 0.31286326273E+01 0.33371682207E+01 0.37205036233E+01 0.43073808868E+01 0.51332423236E+01
 0.62283794867E+01 0.75988231005E+01 0.92048023265E+01 0.10947082640E+02 0.12609176145E+02
 0.13649581648E+02 0.13479345779E+02 0.11741751831E+02 0.84847899666E+01 0.42293679812E+01
 -.10814586151E+00 -.34494482916E+01 -.40286831651E+01 -.48922770132E+01 -.34494355058E+01
 -.10812052437E+00 0.42294024928E+01 0.84848403318E+01 0.11741812668E+02 0.13479403484E+02
 0.13649633014E+02 0.12609225739E+02 0.10947125092E+02 0.92048274347E+01 0.75988351235E+01
 0.62283903817E+01 0.51332523596E+01 0.43073830122E+01 0.37205014188E+01 0.33371695403E+01
 0.31286333474E+01 0.30778131064E+01 0.31803367812E+01 0.34445114146E+01 0.38912418793E+01
 0.45522252514E+01 0.54632312097E+01 0.66499773038E+01 0.81075814110E+01 0.97801829139E+01
 0.11550759404E+02 0.13120333535E+02 0.13890528069E+02 0.13312906758E+02 0.11126979015E+02
 0.75091538054E+01 0.31038771932E+01 -.10978196044E+01 -.10047728724E+01 -.33495149673E+01
 -.36036426675E+01 -.17064897759E+01 0.17983055868E+01 0.59649751434E+01 0.97721847036E+01
 0.12431123464E+02 0.13571820170E+02 0.13276067174E+02 0.11977419566E+02 0.10270765401E+02
 0.85821176733E+01 0.70648815948E+01 0.57980241333E+01 0.48046403693E+01 0.40691328208E+01
 0.35585122579E+01 0.32391465287E+01 0.30861034407E+01 0.30865002273E+01 0.32398954601E+01
 0.35582430722E+01 0.40656616018E+01 0.47957126562E+01 0.57829639842E+01 0.70471155973E+01
 0.85720852346E+01 0.10287945683E+02 0.12059473486E+02 0.13513532215E+02 0.14046749843E+02
 0.13175558056E+02 0.10743167299E+02 0.70384584244E+01 0.27878459919E+01 0.33415004391E+01
 0.15814311225E+00 -.15204852542E+01 -.12314759460E+01 0.92207660101E+00 0.43115298780E+01
 0.80143773836E+01 0.11125870773E+02 0.13021807480E+02 0.13493352232E+02 0.12738953862E+02
 0.11239916072E+02 0.95442530388E+01 0.79343448152E+01 0.65252936094E+01 0.53740720285E+01
 0.44881361033E+01 0.38445304949E+01 0.34095958819E+01 0.31528138243E+01 0.30536592073E+01
 0.31035008180E+01 0.33055590969E+01 0.36749234679E+01 0.42380920871E+01 0.50292568253E+01
 0.60803820934E+01 0.74043179226E+01 0.89745535123E+01 0.10710175138E+02 0.12458462105E+02
 0.13800928555E+02 0.14165990565E+02 0.13149622569E+02 0.10693857050E+02 0.71717226198E+01
 0.78923090866E+01 0.46736202814E+01 0.22027025604E+01 0.11700749835E+01 0.18572635193E+01
 0.40327514850E+01 0.70419351893E+01 0.10046194008E+02 0.12300606673E+02 0.13363051703E+02
 0.13178775862E+02 0.12037513616E+02 0.10432649024E+02 0.87922207788E+01 0.72847579354E+01
 0.59990191326E+01 0.49703666970E+01 0.41930520370E+01 0.36394701127E+01 0.32772512646E+01
 0.30799963872E+01 0.30318290265E+01 0.31281207096E+01 0.33752525629E+01 0.37907458090E+01
 0.44024805290E+01 0.52440097932E+01 0.63435869273E+01 0.77070708606E+01 0.92991557995E+01
 0.11031570353E+02 0.12739631913E+02 0.13994507543E+02 0.14279735530E+02 0.13275095163E+02
 0.11005700109E+02 0.11622400172E+02 0.90720980806E+01 0.65617595681E+01 0.48055495861E+01
 0.43143469292E+01 0.52091769007E+01 0.71781834432E+01 0.95978725215E+01 0.11759436579E+02
 0.13100443887E+02 0.13358726581E+02 0.12611747712E+02 0.11206509371E+02 0.95958629922E+01
 0.80412974123E+01 0.66561510080E+01 0.55032356843E+01 0.45986987176E+01 0.39269743075E+01
 0.34586197309E+01 0.31642113812E+01 0.30220807543E+01 0.30208747516E+01 0.31594581840E+01
 0.34466982363E+01 0.39017069003E+01 0.45526571337E+01 0.54312992199E+01 0.65614806538E+01
 0.79425646077E+01 0.95326208692E+01 0.11239721917E+02 0.12897417337E+02 0.14098128967E+02
 0.14392559764E+02 0.13539062212E+02 0.13878540434E+02 0.12417688460E+02 0.10499675492E+02
 0.86993730055E+01 0.75747032434E+01 0.74666687239E+01 0.83726474269E+01 0.99515309223E+01
 0.11657198942E+02 0.12937216860E+02 0.13413706539E+02 0.12985565930E+02 0.11829745255E+02
 0.10311367428E+02 0.87603607855E+01 0.73181336642E+01 0.60691728788E+01 0.50523000898E+01
 0.42683303468E+01 0.36956376355E+01 0.33054795832E+01 0.30725697025E+01 0.29801349932E+01
 0.30208913686E+01 0.31965036058E+01 0.35175452829E+01 0.40038007957E+01 0.46826638385E+01
 0.55831560026E+01 0.67244721824E+01 0.81004392889E+01 0.96648634617E+01 0.11325578726E+02
 0.12925948237E+02 0.14103696033E+02 0.14479717387E+02 0.14493461072E+02 0.14195727438E+02
 0.13223726166E+02 0.11925174317E+02 0.10757866112E+02 0.10125592868E+02 0.10226152127E+02
 0.10977245914E+02 0.12053685764E+02 0.13016889113E+02 0.13477623712E+02 0.13227132604E+02
 0.12294124027E+02 0.10916032074E+02 0.94122491013E+01 0.79569408098E+01 0.66470703202E+01
 0.55408502580E+01 0.46570817827E+01 0.39858473365E+01 0.35030234873E+01 0.31825525903E+01
 0.30039261276E+01 0.29550004554E+01 0.30318702161E+01 0.32382103848E+01 0.35854852669E+01
 0.40932329708E+01 0.47871395081E+01 0.56928907238E+01 0.68251710519E+01 0.81734654095E+01
 0.96895856187E+01 0.11284045260E+02 0.12818617574E+02 0.13992538675E+02 0.13741590292E+02
 0.14376324713E+02 0.14381682251E+02 0.13867815677E+02 0.13110799587E+02 0.12448602272E+02
 0.12148607316E+02 0.12301370669E+02 0.12787372256E+02 0.13330658992E+02 0.13613040021E+02
 0.13398397558E+02 0.12618756753E+02 0.11393889450E+02 0.99734856318E+01 0.85464582722E+01
 0.72141924319E+01 0.60481339301E+01 0.50837250050E+01 0.43248397799E+01 0.37553760077E+01
 0.33516457170E+01 0.30915697024E+01 0.29595020324E+01 0.29473281022E+01 0.30537051052E+01
 0.32835205637E+01 0.36483410449E+01 0.41666421619E+01 0.48617147458E+01 0.57556294271E+01
 0.68589576295E+01 0.81580646101E+01 0.96047585117E+01 0.11114564985E+02 0.12570257729E+02
 0.12181258888E+02 0.13332607764E+02 0.14077892219E+02 0.14342582254E+02 0.14208709495E+02
 0.13875439296E+02 0.13571199516E+02 0.13454279386E+02 0.13545486644E+02 0.13722744579E+02