    2    2   15    1
  0.1889498E+02  0.3886766E-09  0.3886766E-09  0.3886766E-09  0.5000000E-15
  1.000000000000000E-004
  CAR 
 unknown system                          
      8     56      8
 
  0.6250000E-01  0.6250000E-01  0.6250000E-01  0.1562500E-01
    1       -4.921702   1.000000
    2        2.776020   1.000000
    3        5.091262   1.000000
    4        6.198211   0.999171
    5       10.225460   0.000000
    6       10.681879   0.000000
    7       11.149862   0.000000
    8       13.132391   0.000000
 
  0.1875000E+00  0.6250000E-01  0.6250000E-01  0.3125000E-01
    1       -3.896496   1.000000
    2        2.473690   1.000000
    3        5.230698   1.000000
    4        7.057869   0.001678
    5        7.996668   0.000000
    6        8.501996   0.000000
    7       11.302779   0.000000
    8       11.764882   0.000000
 
  0.3125000E+00  0.6250000E-01  0.6250000E-01  0.3125000E-01
    1       -2.236751   1.000000
    2        2.368949   1.000000
    3        3.961738   1.000000
    4        5.453881   1.000000
    5        6.390108   0.963167
    6        9.699441   0.000000
    7       10.123315   0.000000
    8       11.148626   0.000000
 
  0.4375000E+00  0.6250000E-01  0.6250000E-01  0.1562500E-01
    1       -0.550500   1.000000
    2        0.874085   1.000000
    3        3.765586   1.000000
    4        4.639274   1.000000
    5        6.253836   0.997041
    6        8.875531   0.000000
    7       10.317573   0.000000
    8       11.467861   0.000000
 
 -0.6250000E-01  0.6250000E-01  0.6250000E-01  0.7812500E-02
    1       -5.266568   1.000000
    2        3.251506   1.000000
    3        4.448331   1.000000
    4        5.894302   1.000000
    5        9.591454   0.000000
    6       12.116639   0.000000
    7       13.440428   0.000000
    8       13.912701   0.000000
 
  0.1875000E+00  0.1875000E+00  0.6250000E-01  0.1562500E-01
    1       -2.396181   1.000000
    2        2.493801   1.000000
    3        4.458798   1.000000
    4        4.889583   1.000000
    5        7.518250   0.000000
    6        8.735370   0.000000
    7       10.669506   0.000000
    8       10.831846   0.000000
 
  0.3125000E+00  0.1875000E+00  0.6250000E-01  0.3125000E-01
    1       -0.511909   1.000000
    2        1.310061   1.000000
    3        2.676198   1.000000
    4        4.233067   1.000000
    5        7.566601   0.000000
    6        9.190161   0.000000
    7       10.392089   0.000000
    8       12.013153   0.000000
 
  0.4375000E+00  0.1875000E+00  0.6250000E-01  0.3125000E-01
    1       -1.435731   1.000000
    2        0.989767   1.000000
    3        3.254749   1.000000
    4        5.338178   1.000000
    5        7.038752   0.002572
    6        9.500448   0.000000
    7       11.261253   0.000000
    8       11.552131   0.000000
 
 -0.4375000E+00  0.1875000E+00  0.6250000E-01  0.3125000E-01
    1       -3.226587   1.000000
    2        0.668653   1.000000
    3        5.572216   1.000000
    4        6.705727   0.328853
    5        7.885823   0.000000
    6        9.166545   0.000000
    7       10.398924   0.000000
    8       12.258659   0.000000
 
 -0.3125000E+00  0.1875000E+00  0.6250000E-01  0.1562500E-01
    1       -4.413145   1.000000
    2        0.826629   1.000000
    3        5.538346   1.000000
    4        7.163236   0.000117
    5        9.529509   0.000000
    6       10.742721   0.000000
    7       11.939112   0.000000
    8       12.079398   0.000000
 
 -0.1875000E+00  0.1875000E+00  0.6250000E-01  0.1562500E-01
    1       -4.926457   1.000000
    2        1.546582   1.000000
    3        4.511978   1.000000
    4        7.096711   0.000669
    5       10.468085   0.000000
    6       11.212873   0.000000
    7       13.024517   0.000000
    8       13.211755   0.000000
 
 -0.6250000E-01  0.1875000E+00  0.6250000E-01  0.1562500E-01
    1       -4.752235   1.000000
    2        2.420961   1.000000
    3        4.015812   1.000000
    4        7.538224   0.000000
    5        9.888567   0.000000
    6       10.911010   0.000000
    7       11.047227   0.000000
    8       12.314947   0.000000
 
  0.3125000E+00  0.3125000E+00  0.6250000E-01  0.1562500E-01
    1       -0.432110   1.000000
    2       -0.244716   1.000000
    3        3.044548   1.000000
    4        5.253781   1.000000
    5        7.862889   0.000000
    6        8.405183   0.000000
    7       12.037834   0.000000
    8       12.580883   0.000000
 
  0.4375000E+00  0.3125000E+00  0.6250000E-01  0.3125000E-01
    1       -2.230830   1.000000
    2       -0.922841   1.000000
    3        5.774759   1.000000
    4        6.615296   0.577835
    5        8.018648   0.000000
    6        9.085268   0.000000
    7       10.150423   0.000000
    8       11.353443   0.000000
 
 -0.4375000E+00  0.3125000E+00  0.6250000E-01  0.1562500E-01
    1       -3.570580   1.000000
    2       -0.926239   1.000000
    3        6.267771   0.996020
    4        8.125115   0.000000
    5        8.382806   0.000000
    6       10.473817   0.000000
    7       10.672596   0.000000
    8       11.025882   0.000000
 
 -0.3125000E+00  0.3125000E+00  0.6250000E-01  0.1562500E-01
    1       -4.249187   1.000000
    2       -0.297338   1.000000
    3        5.114008   1.000000
    4        8.035725   0.000000
    5        8.774334   0.000000
    6       11.685858   0.000000
    7       12.933956   0.000000
    8       13.355242   0.000000
 
 -0.1875000E+00  0.3125000E+00  0.6250000E-01  0.3125000E-01
    1       -4.245459   1.000000
    2        0.898510   1.000000
    3        4.042871   1.000000
    4        8.399900   0.000000
    5        8.882672   0.000000
    6       10.243282   0.000000
    7       11.857653   0.000000
    8       12.903760   0.000000
 
 -0.6250000E-01  0.3125000E+00  0.6250000E-01  0.1562500E-01
    1       -3.562586   1.000000
    2        2.174758   1.000000
    3        3.974307   1.000000
    4        6.251763   0.997171
    5        8.672332   0.000000
    6       10.007982   0.000000
    7       10.492173   0.000000
    8       11.216031   0.000000
 
  0.4375000E+00  0.4375000E+00  0.6250000E-01  0.7812500E-02
    1       -2.402858   1.000000
    2       -2.402858   1.000000
    3        7.243187   0.000011
    4        7.243188   0.000011
    5        9.281212   0.000000
    6        9.281212   0.000000
    7       10.566581   0.000000
    8       10.566581   0.000000
 
 -0.4375000E+00  0.4375000E+00  0.6250000E-01  0.1562500E-01
    1       -3.241401   1.000000
    2       -1.915663   1.000000
    3        6.046270   0.999988
    4        7.277117   0.000004
    5        9.072736   0.000000
    6       10.304986   0.000000
    7       12.843698   0.000000
    8       12.971755   0.000000
 
 -0.3125000E+00  0.4375000E+00  0.6250000E-01  0.3125000E-01
    1       -3.406609   1.000000
    2       -0.788609   1.000000
    3        4.751534   1.000000
    4        7.123055   0.000344
    5        9.075032   0.000000
    6       10.238897   0.000000
    7       11.580062   0.000000
    8       12.764699   0.000000
 
 -0.1875000E+00  0.4375000E+00  0.6250000E-01  0.3125000E-01
    1       -2.899081   1.000000
    2        0.859159   1.000000
    3        4.016860   1.000000
    4        5.669959   1.000000
    5        7.799027   0.000000
    6        9.623427   0.000000
    7       11.412175   0.000000
    8       12.359452   0.000000
 
 -0.6250000E-01  0.4375000E+00  0.6250000E-01  0.1562500E-01
    1       -1.764285   1.000000
    2        1.886353   1.000000
    3        3.766038   1.000000
    4        4.398609   1.000000
    5        6.851105   0.070638
    6        9.433065   0.000000
    7        9.525899   0.000000
    8       12.034043   0.000000
 
 -0.4375000E+00 -0.4375000E+00  0.6250000E-01  0.1562500E-01
    1       -2.255885   1.000000
    2       -2.237116   1.000000
    3        5.743107   1.000000
    4        5.873678   1.000000
    5        9.027664   0.000000
    6       10.688836   0.000000
    7       11.548426   0.000000
    8       11.966487   0.000000
 
 -0.3125000E+00 -0.4375000E+00  0.6250000E-01  0.3125000E-01
    1       -1.917147   1.000000
    2       -0.636885   1.000000
    3        4.556074   1.000000
    4        5.476835   1.000000
    5        6.609871   0.592788
    6        9.300294   0.000000
    7       12.499509   0.000000
    8       13.371871   0.000000
 
 -0.1875000E+00 -0.4375000E+00  0.6250000E-01  0.3125000E-01
    1       -1.004448   1.000000
    2        1.105258   1.000000
    3        2.816646   1.000000
    4        4.792587   1.000000
    5        6.686092   0.380471
    6        8.172633   0.000000
    7       10.730720   0.000000
    8       13.322550   0.000000
 
 -0.6250000E-01 -0.4375000E+00  0.6250000E-01  0.1562500E-01
    1       -0.810706   1.000000
    2        1.160165   1.000000
    3        4.321224   1.000000
    4        5.067766   1.000000
    5        5.531812   1.000000
    6        8.543971   0.000000
    7        9.080660   0.000000
    8       12.516623   0.000000
 
 -0.3125000E+00 -0.3125000E+00  0.6250000E-01  0.1562500E-01
    1       -0.204998   1.000000
    2        0.262000   1.000000
    3        2.447450   1.000000
    4        5.522255   1.000000
    5        5.983248   0.999998
    6        7.767985   0.000000
    7       12.384599   0.000000
    8       12.737506   0.000000
 
 -0.1875000E+00 -0.3125000E+00  0.6250000E-01  0.3125000E-01
    1       -1.030471   1.000000
    2        1.951161   1.000000
    3        3.241895   1.000000
    4        5.361601   1.000000
    5        6.197905   0.999177
    6        7.703558   0.000000
    7        9.668047   0.000000
    8       11.581961   0.000000
 
 -0.6250000E-01 -0.3125000E+00  0.6250000E-01  0.1562500E-01
    1       -2.724483   1.000000
    2        3.504747   1.000000
    3        5.223978   1.000000
    4        5.334005   1.000000
    5        6.079127   0.999967
    6        8.694823   0.000000
    7        9.089331   0.000000
    8       11.150940   0.000000
 
 -0.1875000E+00 -0.1875000E+00  0.6250000E-01  0.1562500E-01
    1       -2.888045   1.000000
    2        4.129096   1.000000
    3        5.060173   1.000000
    4        5.715859   1.000000
    5        6.660883   0.449871
    6        7.438022   0.000000
    7        9.769984   0.000000
    8        9.903310   0.000000
 
 -0.6250000E-01 -0.1875000E+00  0.6250000E-01  0.1562500E-01
    1       -4.233084   1.000000
    2        4.146180   1.000000
    3        5.200852   1.000000
    4        6.611877   0.587273
    5        8.049042   0.000000
    6        8.518409   0.000000
    7       10.389837   0.000000
    8       11.489564   0.000000
 
 -0.6250000E-01 -0.6250000E-01  0.6250000E-01  0.3906250E-02
    1       -5.091701   1.000000
    2        4.511922   1.000000
    3        4.940920   1.000000
    4        4.940921   1.000000
    5        9.400184   0.000000
    6       11.141331   0.000000
    7       11.390078   0.000000
    8       13.341474   0.000000
 
  0.1875000E+00  0.1875000E+00  0.1875000E+00  0.1562500E-01
    1       -1.584982   1.000000
    2        0.912585   1.000000
    3        4.103617   1.000000
    4        4.300274   1.000000
    5        8.505370   0.000000
    6        9.820052   0.000000
    7       11.172795   0.000000
    8       11.494451   0.000000
 
  0.3125000E+00  0.1875000E+00  0.1875000E+00  0.1562500E-01
    1        0.059917   1.000000
    2        0.931393   1.000000
    3        2.405263   1.000000
    4        3.172227   1.000000
    5        9.107871   0.000000
    6       10.951961   0.000000
    7       10.983388   0.000000
    8       11.394482   0.000000
 
 -0.1875000E+00  0.1875000E+00  0.1875000E+00  0.7812500E-02
    1       -4.588603   1.000000
    2        1.265859   1.000000
    3        3.085641   1.000000
    4        8.640266   0.000000
    5        8.958427   0.000000
    6       12.214033   0.000000
    7       12.826745   0.000000
    8       12.910154   0.000000
 
  0.3125000E+00  0.3125000E+00  0.1875000E+00  0.7812500E-02
    1       -0.470881   1.000000
    2       -0.470881   1.000000
    3        4.041964   1.000000
    4        4.041965   1.000000
    5        9.688201   0.000000
    6        9.688203   0.000000
    7       10.931666   0.000000
    8       10.931668   0.000000
 
 -0.3125000E+00  0.3125000E+00  0.1875000E+00  0.1562500E-01
    1       -3.916697   1.000000
    2       -0.088621   1.000000
    3        3.182623   1.000000
    4        6.842699   0.079030
    5       10.226187   0.000000
    6       12.230124   0.000000
    7       12.635905   0.000000
    8       14.304134   0.000000
 
 -0.1875000E+00  0.3125000E+00  0.1875000E+00  0.1562500E-01
    1       -3.744722   1.000000
    2        0.747445   1.000000
    3        2.679882   1.000000
    4        6.883590   0.044494
    5        8.895400   0.000000
    6       11.214248   0.000000
    7       12.686824   0.000000
    8       13.650030   0.000000
 
 -0.4375000E+00  0.4375000E+00  0.1875000E+00  0.1562500E-01
    1       -2.920101   1.000000
    2       -1.620727   1.000000
    3        4.045446   1.000000
    4        5.290120   1.000000
    5       11.104198   0.000000
    6       11.714923   0.000000
    7       12.710905   0.000000
    8       13.349106   0.000000
 
 -0.3125000E+00  0.4375000E+00  0.1875000E+00  0.3125000E-01
    1       -2.919170   1.000000
    2       -0.428843   1.000000
    3        2.889757   1.000000
    4        5.260559   1.000000
    5        8.448173   0.000000
    6       12.296773   0.000000
    7       13.112683   0.000000
    8       14.632693   0.000000
 
 -0.1875000E+00  0.4375000E+00  0.1875000E+00  0.1562500E-01
    1       -2.251835   1.000000
    2        0.833927   1.000000
    3        2.867397   1.000000
    4        4.889040   1.000000
    5        6.295294   0.993036
    6       10.568906   0.000000
    7       12.432294   0.000000
    8       13.435155   0.000000
 
 -0.4375000E+00 -0.4375000E+00  0.1875000E+00  0.1562500E-01
    1       -1.810206   1.000000
    2       -1.769425   1.000000
    3        3.844630   1.000000
    4        3.932696   1.000000
    5        8.291793   0.000000
    6       12.463636   0.000000
    7       13.983452   0.000000
    8       14.043423   0.000000
 
 -0.3125000E+00 -0.4375000E+00  0.1875000E+00  0.3125000E-01
    1       -1.309934   1.000000
    2       -0.133436   1.000000
    3        3.140781   1.000000
    4        4.120504   1.000000
    5        5.296214   1.000000
    6       10.818474   0.000000
    7       13.672771   0.000000
    8       14.523380   0.000000
 
 -0.1875000E+00 -0.4375000E+00  0.1875000E+00  0.1562500E-01
    1       -0.378681   1.000000
    2        1.059473   1.000000
    3        2.855670   1.000000
    4        3.634978   1.000000
    5        5.559544   1.000000
    6        8.912046   0.000000
    7       10.779810   0.000000
    8       13.575904   0.000000
 
 -0.3125000E+00 -0.3125000E+00  0.1875000E+00  0.1562500E-01
    1        0.030841   1.000000
    2        0.999891   1.000000
    3        2.424878   1.000000
    4        4.179274   1.000000
    5        4.383739   1.000000
    6        9.213770   0.000000
    7       11.947796   0.000000
    8       12.338851   0.000000
 
 -0.1875000E+00 -0.3125000E+00  0.1875000E+00  0.1562500E-01
    1       -1.312216   1.000000
    2        2.815566   1.000000
    3        3.736407   1.000000
    4        4.835006   1.000000
    5        5.543928   1.000000
    6        7.816793   0.000000
    7        9.640180   0.000000
    8       10.668568   0.000000
 
 -0.1875000E+00 -0.1875000E+00  0.1875000E+00  0.3906250E-02
    1       -3.052772   1.000000
    2        5.477958   1.000000
    3        5.750206   1.000000
    4        5.750207   1.000000
    5        5.913610   1.000000
    6        6.691150   0.366926
    7        9.531724   0.000000
    8        9.531727   0.000000
 
 -0.3125000E+00  0.3125000E+00  0.3125000E+00  0.7812500E-02
    1       -3.258323   1.000000
    2       -0.087117   1.000000
    3        1.921743   1.000000
    4        4.998845   1.000000
    5       11.334926   0.000000
    6       11.775615   0.000000
    7       13.290041   0.000000
    8       15.716716   0.000000
 
 -0.4375000E+00  0.4375000E+00  0.3125000E+00  0.1562500E-01
    1       -2.294126   1.000000
    2       -1.096338   1.000000
    3        2.274181   1.000000
    4        3.441335   1.000000
    5       11.368665   0.000000
    6       11.463191   0.000000
    7       14.519656   0.000000
    8       15.495500   0.000000
 
 -0.3125000E+00  0.4375000E+00  0.3125000E+00  0.1562500E-01
    1       -2.127430   1.000000
    2       -0.270837   1.000000
    3        1.782110   1.000000
    4        3.585378   1.000000
    5        7.979719   0.000000
    6       13.438327   0.000000
    7       14.890968   0.000000
    8       15.452667   0.000000
 
 -0.4375000E+00 -0.4375000E+00  0.3125000E+00  0.1562500E-01
    1       -1.139451   1.000000
    2       -1.066964   1.000000
    3        2.256916   1.000000
    4        2.297577   1.000000
    5        7.821010   0.000000
    6       13.637848   0.000000
    7       15.753203   0.000000
    8       15.983370   0.000000
 
 -0.3125000E+00 -0.4375000E+00  0.3125000E+00  0.1562500E-01
    1       -0.500180   1.000000
    2        0.184973   1.000000
    3        2.273015   1.000000
    4        2.861388   1.000000
    5        4.745614   1.000000
    6       12.135798   0.000000
    7       13.854030   0.000000
    8       14.667260   0.000000
 
 -0.3125000E+00 -0.3125000E+00  0.3125000E+00  0.3906250E-02
    1        0.111835   1.000000
    2        1.548727   1.000000
    3        2.902058   1.000000
    4        3.358861   1.000000
    5        3.358861   1.000000
    6       10.351730   0.000000
    7       11.791356   0.000000
    8       11.791362   0.000000
 
 -0.4375000E+00  0.4375000E+00  0.4375000E+00  0.7812500E-02
    1       -1.435311   1.000000
    2       -0.770433   1.000000
    3        1.307664   1.000000
    4        1.962576   1.000000
    5       11.186305   0.000000
    6       11.208202   0.000000
    7       16.399143   0.000000
    8       16.895716   0.000000
 
 -0.4375000E+00 -0.4375000E+00  0.4375000E+00  0.3906250E-02
    1       -0.666827   1.000000
    2       -0.558730   1.000000
    3        1.474024   1.000000
    4        1.474025   1.000000
    5        7.662227   0.000000
    6       13.955630   0.000000
    7       16.412557   0.000000
    8       16.412569   0.000000
