       N       E                     dE             d eps       ncg     rms          rms(c)
DAV:   1    -0.107976146500E+02   -0.10798E+02   -0.24997E-05   936   0.391E-02    0.144E-03
DAV:   2    -0.107976148171E+02   -0.16709E-06   -0.98562E-07   888   0.818E-03
   1 F= -.10797615E+02 E0= -.10797588E+02  d E =-.107976E+02
