unknown system                          
   1.00000000000000     
    -2.453418    2.453418    1.400018
     2.453418   -2.453418    1.400018
     2.453418    2.453418   -1.400018
   Si
     2
Direct
  0.000000  0.000000  0.000000
  0.250000  0.750000  0.500000
 
   36   36   36
 -5.6317     -4.5939     -1.7497      2.1893      6.3079      9.7641      12.001      12.839      12.455      11.270    
  9.7873      8.3272      7.0090      5.9007      5.0277      4.3842      3.9493      3.6998      3.6187      3.6998    
  3.9493      4.3842      5.0277      5.9008      7.0090      8.3272      9.7873      11.270      12.455      12.839    
  12.001      9.7641      6.3078      2.1893     -1.7497     -4.5939     -4.5939     -5.0580     -3.5126     -.36203    
  3.6116      7.5057      10.559      12.329      12.748      12.071      10.756      9.2750      7.8604      6.6113    
  5.5820      4.7870      4.2147      3.8424      3.6484      3.6187      3.7510      4.0549      4.5498      5.2593    
  6.2017      7.3755      8.7452      10.231      11.686      12.720      12.837      11.669      9.1286      5.4978    
  1.4180     -2.2366     -1.7497     -3.5126     -3.4206     -1.5078      1.7213      5.4679      8.8955      11.362    
  12.554      12.515      11.562      10.163      8.7119      7.3624      6.1977      5.2574      4.5458      4.0468    
  3.7374      3.5981      3.6187      3.8003      4.1556      4.7056      5.4734      6.4732      7.6968      9.0987    
  10.590      11.995      12.885      12.795      11.425      8.7763      5.2116      1.4180      2.1893     -.36206    
 -1.5078     -.95441      1.1354      4.2030      7.4867      10.260      12.022      12.594      12.114      10.941    
  9.5181      8.1185      6.8519      5.7834      4.9381      4.3119      3.8856      3.6374      3.5506      3.6186    
  3.8461      4.2481      4.8461      5.6616      6.7048      7.9603      9.3751      10.855      12.197      12.972    
  12.760      11.336      8.7763      5.4978      6.3078      3.6116      1.7213      1.1354      1.9998      4.0589    
  6.7496      9.3926      11.399      12.420      12.400      11.549      10.241      8.8433      7.5168      6.3477    
  5.3828      4.6345      4.0924      3.7359      3.5451      3.5071      3.6186      3.8871      4.3291      4.9659    
  5.8167      6.8872      8.1559      9.5647      11.016      12.297      12.998      12.760      11.425      9.1286    
  9.7641      7.5057      5.4679      4.2031      4.0590      5.0588      6.8967      9.0498      10.953      12.169    
  12.489      11.964      10.851      9.5052      8.1632      6.9284      5.8667      5.0084      4.3554      3.8931    
  3.6014      3.4631      3.4688      3.6186      3.9219      4.3956      5.0603      5.9323      7.0130      8.2763    
  9.6611      11.070      12.297      12.972      12.795      11.669      12.001      10.559      8.8955      7.4868    
  6.7496      6.8968      7.8635      9.3358      10.864      12.014      12.494      12.222      11.327      10.082    
  8.7650      7.5024      6.3730      5.4236      4.6704      4.1077      3.7187      3.4852      3.3933      3.4370    
  3.6187      3.9491      4.4451      5.1255      6.0037      7.0772      8.3170      9.6611      11.016      12.197    
  12.885      12.837      12.839      12.329      11.362      10.260      9.3926      9.0498      9.3358      10.135    
  11.160      12.055      12.516      12.382      11.672      10.561      9.3017      8.0477      6.8833      5.8675    
  5.0302      4.3766      3.8963      3.5726      3.3898      3.3374      3.4123      3.6187      3.9678      4.4756    
  5.1589      6.0279      7.0772      8.2763      9.5647      10.855      11.995      12.720      12.455      12.748    
  12.555      12.022      11.399      10.953      10.864      11.160      11.709      12.273      12.594      12.490    
  11.907      10.933      9.7589      8.5457      7.3793      6.3254      5.4251      4.6948      4.1322      3.7248    
  3.4572      3.3169      3.2966      3.3955      3.6187      3.9774      4.4860      5.1589      6.0037      7.0130    
  8.1559      9.3751      10.590      11.686      11.270      12.071      12.515      12.594      12.420      12.169    
  12.014      12.055      12.273      12.544      12.691      12.552      12.044      11.193      10.125      8.9812    
  7.8443      6.7822      5.8437      5.0551      4.4228      3.9404      3.5950      3.3739      3.2677      3.2718    
  3.3869      3.6188      3.9774      4.4756      5.1255      5.9323      6.8872      7.9603      9.0987      10.231    
  9.7873      10.756      11.562      12.114      12.400      12.489      12.494      12.516      12.594      12.691    
  12.707      12.528      12.073      11.335      10.389      9.3406      8.2637      7.2241      6.2746      5.4494    
  4.7635      4.2175      3.8027      3.5081      3.3237      3.2429      3.2635      3.3869      3.6187      3.9678    
  4.4451      5.0603      5.8167      6.7048      7.6968      8.7452      8.3272      9.2750      10.163      10.941    
  11.549      11.964      12.222      12.382      12.490      12.552      12.528      12.351      11.963      11.344    
  10.537      9.6104      8.6238      7.6379      6.7066      5.8695      5.1494      4.5539      4.0802      3.7200    
  3.4646      3.3069      3.2429      3.2718      3.3955      3.6187      3.9491      4.3956      4.9659      5.6616    
  6.4732      7.3755      7.0090      7.8604      8.7119      9.5182      10.241      10.851      11.327      11.672    
  11.907      12.044      12.073      11.963      11.677      11.201      10.555      9.7762      8.9106      8.0109    
  7.1289      6.3075      5.5755      4.9478      4.4277      4.0114      3.6925      3.4646      3.3237      3.2677    
  3.2966      3.4123      3.6187      3.9219      4.3291      4.8461      5.4734      6.2017      5.9008      6.6113    
  7.3624      8.1185      8.8433      9.5052      10.082      10.561      10.933      11.193      11.335      11.344    
  11.201      10.895      10.430      9.8238      9.1092      8.3289      7.5298      6.7546      6.0368      5.3975    
  4.8467      4.3856      4.0114      3.7200      3.5081      3.3739      3.3169      3.3374      3.4370      3.6186    
  3.8871      4.2481      4.7056      5.2593      5.0277      5.5821      6.1977      6.8520      7.5168      8.1632    
  8.7650      9.3018      9.7589      10.125      10.389      10.537      10.555      10.430      10.157      9.7422    
  9.2050      8.5764      7.8947      7.1996      6.5261      5.9002      5.3380      4.8467      4.4277      4.0802    
  3.8027      3.5950      3.4572      3.3898      3.3933      3.4688      3.6186      3.8461      4.1556      4.5498    
  4.3842      4.7870      5.2574      5.7834      6.3477      6.9284      7.5024      8.0477      8.5457      8.9812    
  9.3406      9.6104      9.7762      9.8238      9.7422      9.5277      9.1870      8.7376      8.2068      7.6273    
  7.0320      6.4493      5.9002      5.3975      4.9478      4.5539      4.2175      3.9404      3.7248      3.5726    
  3.4852      3.4631      3.5071      3.6186      3.8003      4.0549      3.9493      4.2147      4.5458      4.9381    
  5.3828      5.8667      6.3730      6.8833      7.3793      7.8443      8.2637      8.6238      8.9106      9.1092    
  9.2050      9.1870      9.0502      8.7991      8.4476      8.0179      7.5370      7.0320      6.5261      6.0368    
  5.5755      5.1494      4.7635      4.4228      4.1322      3.8963      3.7187      3.6014      3.5451      3.5506    
  3.6187      3.7510      3.6998      3.8424      4.0468      4.3119      4.6345      5.0084      5.4236      5.8675    
  6.3254      6.7822      7.2241      7.6379      8.0109      8.3289      8.5764      8.7376      8.7991      8.7531    
  8.6001      8.3494      8.0179      7.6273      7.1996      6.7546      6.3075      5.8695      5.4494      5.0551    
  4.6948      4.3766      4.1077      3.8931      3.7359      3.6374      3.5981      3.6187      3.6187      3.6484    
  3.7374      3.8856      4.0924      4.3554      4.6704      5.0302      5.4251      5.8438      6.2746      6.7066    
  7.1289      7.5298      7.8947      8.2068      8.4476      8.6001      8.6524      8.6001      8.4476      8.2068    
  7.8947      7.5298      7.1289      6.7066      6.2746      5.8437      5.4251      5.0302      4.6704      4.3554    
  4.0924      3.8856      3.7374      3.6484      3.6998      3.6187      3.5981      3.6374      3.7359      3.8931    
  4.1077      4.3766      4.6948      5.0551      5.4494      5.8695      6.3075      6.7546      7.1996      7.6273    
  8.0179      8.3494      8.6001      8.7531      8.7991      8.7376      8.5764      8.3289      8.0109      7.6379    
  7.2241      6.7822      6.3254      5.8675      5.4236      5.0084      4.6345      4.3119      4.0468      3.8424    
  3.9493      3.7510      3.6186      3.5506      3.5451      3.6013      3.7187      3.8964      4.1322      4.4228    
  4.7636      5.1494      5.5755      6.0368      6.5261      7.0320      7.5370      8.0179      8.4476      8.7991    
  9.0502      9.1870      9.2050      9.1092      8.9106      8.6238      8.2637      7.8443      7.3793      6.8833    
  6.3730      5.8667      5.3828      4.9381      4.5458      4.2147      4.3842      4.0548      3.8002      3.6186    
  3.5071      3.4631      3.4852      3.5726      3.7248      3.9404      4.2175      4.5539      4.9478      5.3975    
  5.9002      6.4493      7.0320      7.6273      8.2068      8.7376      9.1870      9.5277      9.7422      9.8238    
  9.7762      9.6104      9.3406      8.9812      8.5457      8.0477      7.5024      6.9284      6.3477      5.7834    
  5.2574      4.7870      5.0277      4.5497      4.1555      3.8461      3.6186      3.4688      3.3933      3.3898    
  3.4572      3.5950      3.8028      4.0802      4.4277      4.8467      5.3380      5.9002      6.5261      7.1996    
  7.8947      8.5764      9.2050      9.7422      10.157      10.430      10.555      10.537      10.389      10.125    
  9.7589      9.3017      8.7650      8.1632      7.5168      6.8519      6.1977      5.5820      5.9007      5.2593    
  4.7056      4.2480      3.8871      3.6186      3.4369      3.3374      3.3169      3.3739      3.5081      3.7201    
  4.0115      4.3856      4.8467      5.3975      6.0368      6.7546      7.5298      8.3289      9.1092      9.8238    
  10.430      10.895      11.201      11.344      11.335      11.193      10.933      10.561      10.082      9.5052    
  8.8433      8.1185      7.3624      6.6113      7.0090      6.2017      5.4733      4.8461      4.3290      3.9218    
  3.6186      3.4123      3.2966      3.2677      3.3237      3.4646      3.6925      4.0115      4.4277      4.9478    
  5.5755      6.3075      7.1289      8.0109      8.9106      9.7762      10.555      11.201      11.677      11.963    
  12.073      12.044      11.907      11.672      11.327      10.851      10.241      9.5181      8.7119      7.8604    
  8.3272      7.3755      6.4732      5.6616      4.9659      4.3956      3.9491      3.6187      3.3954      3.2718    
  3.2429      3.3069      3.4646      3.7201      4.0802      4.5539      5.1494      5.8695      6.7066      7.6379    
  8.6238      9.6104      10.537      11.344      11.963      12.351      12.528      12.552      12.490      12.382    
  12.222      11.964      11.549      10.941      10.163      9.2750      9.7873      8.7452      7.6968      6.7048    
  5.8167      5.0603      4.4451      3.9678      3.6187      3.3869      3.2635      3.2429      3.3237      3.5081    
  3.8028      4.2175      4.7636      5.4494      6.2746      7.2241      8.2637      9.3406      10.389      11.335    
  12.073      12.528      12.707      12.691      12.594      12.516      12.494      12.489      12.400      12.114    
  11.562      10.756      11.270      10.231      9.0988      7.9603      6.8872      5.9324      5.1256      4.4756    
  3.9774      3.6187      3.3869      3.2718      3.2677      3.3739      3.5950      3.9404      4.4228      5.0551    
  5.8438      6.7822      7.8443      8.9812      10.125      11.193      12.044      12.552      12.691      12.544    
  12.273      12.055      12.014      12.169      12.420      12.594      12.515      12.071      12.455      11.686    
  10.590      9.3752      8.1560      7.0130      6.0037      5.1589      4.4860      3.9774      3.6187      3.3954    
  3.2966      3.3169      3.4572      3.7248      4.1322      4.6948      5.4251      6.3254      7.3793      8.5457    
  9.7589      10.933      11.907      12.490      12.594      12.273      11.709      11.160      10.864      10.953    
  11.399      12.022      12.554      12.748      12.839      12.720      11.995      10.855      9.5647      8.2764    
  7.0772      6.0279      5.1589      4.4756      3.9678      3.6187      3.4123      3.3374      3.3898      3.5726    
  3.8964      4.3766      5.0302      5.8675      6.8833      8.0477      9.3018      10.561      11.672      12.382    
  12.516      12.055      11.160      10.135      9.3358      9.0498      9.3926      10.260      11.362      12.329    
  12.001      12.837      12.885      12.197      11.016      9.6611      8.3170      7.0772      6.0037      5.1256    
  4.4451      3.9491      3.6186      3.4369      3.3933      3.4852      3.7187      4.1077      4.6704      5.4236    
  6.3730      7.5024      8.7650      10.082      11.327      12.222      12.494      12.014      10.864      9.3358    
  7.8635      6.8967      6.7496      7.4867      8.8955      10.559      9.7641      11.669      12.795      12.972    
  12.297      11.070      9.6611      8.2764      7.0130      5.9324      5.0603      4.3956      3.9218      3.6186    
  3.4688      3.4631      3.6013      3.8931      4.3554      5.0084      5.8667      6.9284      8.1632      9.5052    
  10.851      11.964      12.489      12.169      10.953      9.0498      6.8968      5.0588      4.0589      4.2030    
  5.4679      7.5057      6.3079      9.1286      11.425      12.760      12.998      12.297      11.016      9.5647    
  8.1560      6.8872      5.8167      4.9659      4.3290      3.8871      3.6186      3.5071      3.5451      3.7359    
  4.0924      4.6345      5.3828      6.3477      7.5168      8.8433      10.241      11.549      12.400      12.420    
  11.399      9.3926      6.7496      4.0590      1.9998      1.1354      1.7213      3.6116      2.1893      5.4979    
  8.7764      11.336      12.760      12.972      12.197      10.855      9.3752      7.9603      6.7048      5.6616    
  4.8461      4.2480      3.8461      3.6186      3.5506      3.6374      3.8856      4.3119      4.9381      5.7834    
  6.8520      8.1185      9.5182      10.941      12.114      12.594      12.022      10.260      7.4868      4.2031    
  1.1354     -.95441     -1.5078     -.36203     -1.7497      1.4180      5.2117      8.7764      11.425      12.795    
  12.885      11.995      10.590      9.0988      7.6968      6.4732      5.4733      4.7056      4.1555      3.8002    
  3.6186      3.5981      3.7374      4.0468      4.5458      5.2574      6.1977      7.3624      8.7119      10.163    
  11.562      12.515      12.555      11.362      8.8955      5.4679      1.7213     -1.5078     -3.4206     -3.5126    
 -4.5939     -2.2366      1.4180      5.4979      9.1286      11.669      12.837      12.720      11.686      10.231    
  8.7452      7.3755      6.2017      5.2593      4.5497      4.0548      3.7510      3.6187      3.6484      3.8424    
  4.2147      4.7870      5.5821      6.6113      7.8604      9.2750      10.756      12.071      12.748      12.329    
  10.559      7.5057      3.6116     -.36206     -3.5126     -5.0580     -4.5939     -3.8617     -1.3707      2.2534    
  6.1557      9.5133      11.750      12.644      12.327      11.185      9.7110      8.2439      6.9102      5.7818    
  4.8869      4.2216      3.7650      3.4929      3.3869      3.4390      3.6533      4.0454      4.6381      5.4542    
  6.5041      7.7700      9.1931      10.668      11.935      12.514      11.975      10.105      7.0249      3.2194    
 -.53928     -3.3807     -3.8617     -4.5939     -3.3807     -.53928      3.2194      7.0249      10.105      11.975    
  12.514      11.935      10.668      9.1932      7.7700      6.5041      5.4542      4.6381      4.0454      3.6533    
  3.4390      3.3869      3.4929      3.7650      4.2216      4.8869      5.7817      6.9102      8.2438      9.7110    
  11.185      12.327      12.644      11.750      9.5133      6.1557      2.2534     -1.3707     -1.2813     -3.2852    
 -3.5126     -1.9143      1.0853      4.7352      8.2006      10.802      12.169      12.288      11.441      10.081    
  8.6315      7.2707      6.0876      5.1266      4.3951      3.8776      3.5509      3.3941      3.3954      3.5545    
  3.8828      4.4010      5.1334      6.0978      7.2913      8.6754      10.168      11.616      12.627      12.725    
  11.584      9.1563      5.7478      1.9932      2.4845     -.28254     -1.7357     -1.5078     0.32272      3.2608    
  6.5647      9.4815      11.455      12.243      11.929      10.848      9.4473      8.0447      6.7635      5.6753    
  4.8098      4.1653      3.7230      3.4604      3.3595      3.4123      3.6221      4.0032      4.5777      5.3690    
  6.3909      7.6334      9.0494      10.549      11.955      12.851      12.803      11.548      9.1181      5.8791    
  6.5341      3.6536      1.4779     0.56296      1.1354      3.0143      5.6771      8.4377      10.661      11.930    
  12.129      11.425      10.179      8.7882      7.4528      6.2657      5.2804      4.5132      3.9551      3.5856    
  3.3840      3.3359      3.4370      3.6937      4.1225      4.7458      5.5852      6.6499      7.9235      9.3523    
  10.843      12.199      13.014      12.904      11.675      9.4188      10.010      7.6083      5.3231      3.7451    
  3.2903      4.0589      5.8024      8.0138      10.100      11.563      12.130      11.796      10.790      9.4697    
  8.1252      6.8754      5.7934      4.9149      4.2450      3.7697      3.4686      3.3236      3.3240      3.4689    
  3.7673      4.2368      4.8993      5.7736      6.8647      8.1505      9.5729      11.037      12.346      13.121    
  13.034      11.952      12.325      10.787      8.9289      7.2465      6.2060      6.0893      6.8967      8.3504    
  9.9957      11.356      12.076      12.015      11.259      10.068      8.7546      7.4803      6.3311      5.3602    
  4.5883      4.0114      3.6132      3.3744      3.2804      3.3240      3.5071      3.8406      4.3421      5.0322    
  5.9270      7.0267      8.3052      9.7026      11.126      12.391      13.162      13.168      13.263      12.707    
  11.607      10.290      9.1549      8.5454      8.6280      9.3357      10.396      11.434      12.095      12.163    
  11.604      10.570      9.3215      8.0580      6.8743      5.8357      4.9774      4.3077      3.8170      3.4882    
  3.3048      3.2554      3.3359      3.5506      3.9111      4.4346      5.1396      6.0388      7.1289      8.3811    
  9.7355      11.103      12.326      13.119      12.967      13.263      13.001      12.322      11.489      10.804    
  10.499      10.651      11.160      11.787      12.245      12.303      11.860      10.969      9.8124      8.5900    
  7.4039      6.3258      5.4021      4.6530      4.0780      3.6645      3.3967      3.2609      3.2489      3.3595    
  3.5982      3.9766      4.5109      5.2170      6.1044      7.1670      8.3744      9.6687      10.967      12.143    
  11.837      12.683      13.118      13.121      12.804      12.365      12.013      11.889      12.012      12.273    
  12.483      12.450      12.049      11.269      10.217      9.0606      7.9024      6.8141      5.8497      5.0394    
  4.3922      3.9020      3.5558      3.3396      3.2431      3.2611      3.3941      3.6484      4.0350      4.5681    
  5.2613      6.1209      7.1388      8.2846      9.5033      10.720      10.368      11.409      12.255      12.794    
  13.007      12.971      12.819      12.685      12.643      12.676      12.691      12.555      12.159      11.464    
  10.522      9.4555      8.3536      7.2852      6.3071      5.4574      4.7539      4.1980      3.7812      3.4913    
  3.3172      3.2516      3.2916      3.4390      3.6998      4.0842      4.6041      5.2706      6.0876      7.0452    
  8.1142      9.2442      8.9004      9.9229      10.874      11.689      12.285      12.639      12.794      12.830    
  12.819      12.790      12.717      12.528      12.148      11.536      10.714      9.7592      8.7421      7.7237    
  6.7609      5.8967      5.1564      4.5491      4.0720      3.7161      3.4714      3.3296      3.2861      3.3398    
  3.4929      3.7510      4.1226      4.6177      5.2448      6.0056      6.8897      7.8697      7.5606      8.4849    
  9.4017      10.259      11.011      11.614      12.041      12.305      12.444      12.489      12.444      12.282    
  11.963      11.457      10.772      9.9548      9.0513      8.1146      7.1981      6.3470      5.5928      4.9515    
  4.4270      4.0146      3.7067      3.4957      3.3764      3.3460      3.4046      3.5545      3.8003      4.1489    
  4.6083      5.1848      5.8785      6.6787      6.4207      7.1994      8.0144      8.8245      9.5873      10.266    
  10.835      11.276      11.585      11.769      11.833      11.771      11.566      11.201      10.681      10.025    
  9.2644      8.4418      7.6045      6.7974      6.0555      5.4014      4.8454      4.3883      4.0260      3.7529    
  3.5641      3.4569      3.4302      3.4846      3.6220      3.8461      4.1623      4.5765      5.0933      5.7114    
  5.5112      6.1264      6.8009      7.5079      8.2143      8.8862      9.4936      10.014      10.434      10.745    
  10.942      11.018      10.962      10.767      10.430      9.9558      9.3649      8.6881      7.9645      7.2349    
  6.5357      5.8940      5.3263      4.8395      4.4337      4.1064      3.8544      3.6759      3.5702      3.5373    
  3.5780      3.6937      3.8871      4.1623      4.5236      4.9739      4.8313      5.2859      5.8075      6.3812    
  6.9857      7.5952      8.1827      8.7239      9.1991      9.5942      9.8988      10.104      10.199      10.175    
  10.023      9.7422      9.3408      8.8374      8.2605      7.6437      7.0209      6.4216      5.8669      5.3694    
  4.9345      4.5634      4.2556      4.0110      3.8304      3.7148      3.6652      3.6823      3.7673      3.9218    
  4.1489      4.4515      4.3630      4.6710      5.0444      5.4767      5.9566      6.4677      6.9903      7.5031    
  7.9862      8.4225      8.7986      9.1032      9.3253      9.4538      9.4779      9.3896      9.1870      8.8766    
  8.4745      8.0043      7.4939      6.9711      6.4594      5.9760      5.5313      5.1307      4.7772      4.4733    
  4.2218      4.0261      3.8886      3.8113      3.7950      3.8405      3.9490      4.1226      4.0842      4.2612    
  4.4990      4.7956      5.1462      5.5424      5.9722      6.4205      6.8708      7.3069      7.7146      8.0817    
  8.3972      8.6496      8.8267      8.9163      8.9086      8.7991      8.5911      8.2961      7.9324      7.5224    
  7.0884      6.6498      6.2207      5.8110      5.4270      5.0742      4.7581      4.4850      4.2603      4.0885    
  3.9723      3.9128      3.9111      3.9678      3.9773      4.0350      4.1497      4.3213      4.5482      4.8271    
  5.1522      5.5146      5.9032      6.3050      6.7078      7.1001      7.4717      7.8123      8.1101      8.3512    
  8.5211      8.6069      8.6001      8.4995      8.3115      8.0492      7.7298      7.3713      6.9898      6.5979    
  6.2054      5.8205      5.4513      5.1071      4.7970      4.5293      4.3103      4.1439      4.0323      3.9766    
  4.0350      3.9773      3.9766      4.0323      4.1439      4.3102      4.5293      4.7970      5.1071      5.4513    
  5.8205      6.2054      6.5979      6.9898      7.3713      7.7298      8.0492      8.3115      8.4995      8.6001    
  8.6069      8.5211      8.3512      8.1101      7.8123      7.4717      7.1001      6.7078      6.3050      5.9032    
  5.5147      5.1522      4.8271      4.5482      4.3213      4.1497      4.2612      4.0842      3.9678      3.9110    
  3.9128      3.9723      4.0885      4.2603      4.4850      4.7581      5.0742      5.4270      5.8110      6.2207    
  6.6498      7.0884      7.5224      7.9324      8.2961      8.5911      8.7991      8.9086      8.9163      8.8267    
  8.6496      8.3972      8.0817      7.7146      7.3069      6.8708      6.4205      5.9722      5.5424      5.1462    
  4.7956      4.4990      4.6710      4.3630      4.1226      3.9490      3.8405      3.7950      3.8113      3.8886    
  4.0261      4.2218      4.4733      4.7772      5.1307      5.5313      5.9760      6.4594      6.9711      7.4939    
  8.0043      8.4745      8.8766      9.1870      9.3896      9.4779      9.4538      9.3253      9.1032      8.7986    
  8.4225      7.9862      7.5031      6.9903      6.4677      5.9566      5.4767      5.0444      5.2859      4.8313    
  4.4515      4.1489      3.9218      3.7673      3.6824      3.6652      3.7148      3.8304      4.0110      4.2556    
  4.5634      4.9345      5.3694      5.8669      6.4216      7.0209      7.6437      8.2605      8.8374      9.3408    
  9.7422      10.023      10.175      10.199      10.104      9.8988      9.5942      9.1991      8.7239      8.1827    
  7.5952      6.9857      6.3812      5.8075      6.1263      5.5112      4.9738      4.5236      4.1623      3.8871    
  3.6937      3.5780      3.5373      3.5702      3.6759      3.8544      4.1064      4.4337      4.8395      5.3263    
  5.8940      6.5357      7.2349      7.9645      8.6881      9.3649      9.9558      10.430      10.767      10.962    
  11.018      10.942      10.745      10.434      10.014      9.4936      8.8862      8.2143      7.5079      6.8009    
  7.1994      6.4207      5.7114      5.0932      4.5765      4.1623      3.8461      3.6221      3.4847      3.4302    
  3.4569      3.5641      3.7529      4.0261      4.3883      4.8454      5.4014      6.0555      6.7974      7.6045    
  8.4417      9.2644      10.025      10.681      11.201      11.566      11.771      11.833      11.769      11.585    
  11.276      10.835      10.266      9.5873      8.8245      8.0143      8.4849      7.5606      6.6787      5.8784    
  5.1848      4.6083      4.1489      3.8003      3.5545      3.4046      3.3460      3.3764      3.4957      3.7067    
  4.0146      4.4270      4.9516      5.5928      6.3470      7.1981      8.1146      9.0514      9.9548      10.772    
  11.457      11.963      12.282      12.444      12.489      12.444      12.305      12.041      11.614      11.011    
  10.259      9.4017      9.9228      8.9003      7.8697      6.8897      6.0056      5.2448      4.6177      4.1226    
  3.7510      3.4929      3.3398      3.2861      3.3296      3.4714      3.7161      4.0720      4.5492      5.1565    
  5.8967      6.7609      7.7237      8.7421      9.7592      10.714      11.536      12.148      12.528      12.717    
  12.790      12.819      12.829      12.794      12.639      12.285      11.689      10.874      11.409      10.368    
  9.2442      8.1142      7.0452      6.0875      5.2706      4.6041      4.0842      3.6998      3.4390      3.2916    
  3.2516      3.3172      3.4913      3.7812      4.1981      4.7539      5.4574      6.3071      7.2852      8.3536    
  9.4555      10.522      11.464      12.159      12.555      12.691      12.676      12.643      12.685      12.819    
  12.971      13.007      12.794      12.255      12.683      11.837      10.720      9.5033      8.2845      7.1388    
  6.1209      5.2613      4.5681      4.0349      3.6484      3.3941      3.2611      3.2431      3.3396      3.5558    
  3.9020      4.3922      5.0394      5.8497      6.8142      7.9024      9.0606      10.217      11.269      12.049    
  12.450      12.483      12.273      12.012      11.889      12.013      12.365      12.804      13.121      13.118    
  13.263      12.967      12.143      10.967      9.6687      8.3744      7.1670      6.1044      5.2170      4.5109    
  3.9766      3.5981      3.3595      3.2489      3.2608      3.3967      3.6646      4.0780      4.6530      5.4021    
  6.3258      7.4039      8.5900      9.8124      10.969      11.860      12.303      12.245      11.787      11.160    
  10.651      10.499      10.804      11.489      12.322      13.001      12.707      13.263      13.119      12.326    
  11.103      9.7355      8.3812      7.1290      6.0388      5.1396      4.4345      3.9111      3.5506      3.3359    
  3.2553      3.3048      3.4882      3.8170      4.3077      4.9774      5.8357      6.8743      8.0580      9.3215    
  10.570      11.604      12.162      12.095      11.434      10.397      9.3358      8.6281      8.5454      9.1549    
  10.290      11.607      10.787      12.325      13.168      13.162      12.391      11.126      9.7027      8.3053    
  7.0267      5.9270      5.0323      4.3421      3.8405      3.5071      3.3240      3.2804      3.3744      3.6132    
  4.0114      4.5883      5.3603      6.3311      7.4803      8.7546      10.068      11.259      12.015      12.076    
  11.356      9.9957      8.3504      6.8968      6.0893      6.2060      7.2465      8.9289      7.6083      10.010    