unknown system                          
   1.00000000000000     
    -2.453418    2.453418    1.400018
     2.453418   -2.453418    1.400018
     2.453418    2.453418   -1.400018
   Si
     2
Direct
  0.000000  0.000000  0.000000
  0.250000  0.750000  0.500000
 
   36   36   36
 -.56316545442E+01 -.45939162559E+01 -.17496714862E+01 0.21893330780E+01 0.63078655343E+01
 0.97640788769E+01 0.12000863989E+02 0.12839287997E+02 0.12455302459E+02 0.11269982307E+02
 0.97873463850E+01 0.83271780641E+01 0.70089782321E+01 0.59007398405E+01 0.50276679996E+01
 0.43841686534E+01 0.39493032880E+01 0.36998192772E+01 0.36187055594E+01 0.36998206772E+01
 0.39493187157E+01 0.43841961015E+01 0.50276901192E+01 0.59007521136E+01 0.70089905979E+01
 0.83271892803E+01 0.97873437144E+01 0.11269968200E+02 0.12455294025E+02 0.12839288566E+02
 0.12000859489E+02 0.97640628477E+01 0.63078433753E+01 0.21893036882E+01 -.17497112181E+01
 -.45939492762E+01 -.45939492762E+01 -.50579718046E+01 -.35126006704E+01 -.36203215030E+00
 0.36116078901E+01 0.75057052505E+01 0.10559136274E+02 0.12329011195E+02 0.12747539118E+02
 0.12071235948E+02 0.10755919688E+02 0.92750189271E+01 0.78603526557E+01 0.66113048440E+01
 0.55820445808E+01 0.47870222257E+01 0.42146552015E+01 0.38423884486E+01 0.36483692856E+01
 0.36186924751E+01 0.37509680458E+01 0.40548518807E+01 0.45497548867E+01 0.52593058047E+01
 0.62016637181E+01 0.73755484091E+01 0.87451692587E+01 0.10230695603E+02 0.11685657385E+02
 0.12720378807E+02 0.12836913856E+02 0.11668680633E+02 0.91286092766E+01 0.54978345596E+01
 0.14179734855E+01 -.22366380301E+01 -.17497112181E+01 -.35126246783E+01 -.34206184461E+01
 -.15078050388E+01 0.17212897272E+01 0.54678982879E+01 0.88954526040E+01 0.11361620168E+02
 0.12554484495E+02 0.12514638988E+02 0.11562332920E+02 0.10163447918E+02 0.87118652031E+01
 0.73623615823E+01 0.61977048753E+01 0.52573742129E+01 0.45457934437E+01 0.40467566200E+01
 0.37373824537E+01 0.35981344099E+01 0.36186590480E+01 0.38002545110E+01 0.41555708096E+01
 0.47056019741E+01 0.54733503632E+01 0.64732365799E+01 0.76967942455E+01 0.90987410298E+01
 0.10590233222E+02 0.11994632259E+02 0.12884967561E+02 0.12794865055E+02 0.11425174724E+02
 0.87763290118E+01 0.52116255814E+01 0.14179734855E+01 0.21893036882E+01 -.36205625266E+00
 -.15078147051E+01 -.95440506060E+00 0.11354127523E+01 0.42030420400E+01 0.74867416975E+01
 0.10259553989E+02 0.12021506335E+02 0.12594466745E+02 0.12114126310E+02 0.10941291754E+02
 0.95181461948E+01 0.81185129715E+01 0.68519424860E+01 0.57834183236E+01 0.49381046762E+01
 0.43119044468E+01 0.38856416687E+01 0.36373680017E+01 0.35505795705E+01 0.36186239059E+01
 0.38461386942E+01 0.42480648907E+01 0.48460801283E+01 0.56616327802E+01 0.67048075264E+01
 0.79602933127E+01 0.93751261290E+01 0.10854597360E+02 0.12196975180E+02 0.12971626230E+02
 0.12760252766E+02 0.11336092197E+02 0.87763290118E+01 0.54978345596E+01 0.63078433753E+01
 0.36115923907E+01 0.17212845664E+01 0.11354174814E+01 0.19998478815E+01 0.40589482205E+01
 0.67495775162E+01 0.93926125854E+01 0.11399297939E+02 0.12419721400E+02 0.12399680287E+02
 0.11548571966E+02 0.10240964466E+02 0.88432564321E+01 0.75168298306E+01 0.63476599379E+01
 0.53827769831E+01 0.46345435590E+01 0.40923839798E+01 0.37358856014E+01 0.35451275476E+01
 0.35070718024E+01 0.36186079027E+01 0.38871337423E+01 0.43290669870E+01 0.49658824913E+01
 0.58167242846E+01 0.68871586230E+01 0.81559413958E+01 0.95646928946E+01 0.11015834571E+02
 0.12296530859E+02 0.12998258354E+02 0.12760252766E+02 0.11425174724E+02 0.91286092766E+01
 0.97640628477E+01 0.75056957862E+01 0.54678966996E+01 0.42030528470E+01 0.40589630113E+01
 0.50587850629E+01 0.68967355932E+01 0.90498065579E+01 0.10953304022E+02 0.12168528582E+02
 0.12488868154E+02 0.11964316212E+02 0.10851444595E+02 0.95051798649E+01 0.81632118049E+01
 0.69284009225E+01 0.58666549576E+01 0.50083591701E+01 0.43554351146E+01 0.38931147177E+01
 0.36013589182E+01 0.34630911718E+01 0.34688436193E+01 0.36186217186E+01 0.39218550883E+01
 0.43955952929E+01 0.50603125385E+01 0.59323464653E+01 0.70129718610E+01 0.82763337054E+01
 0.96610592917E+01 0.11069952306E+02 0.12296530859E+02 0.12971626230E+02 0.12794865055E+02
 0.11668680633E+02 0.12000859489E+02 0.10559136770E+02 0.88954546211E+01 0.74867505825E+01
 0.67495975272E+01 0.68967541653E+01 0.78635380724E+01 0.93357651800E+01 0.10864241150E+02
 0.12014464499E+02 0.12494298243E+02 0.12222383269E+02 0.11326641758E+02 0.10082080710E+02
 0.87649726674E+01 0.75023842441E+01 0.63730253846E+01 0.54236226257E+01 0.46704106933E+01
 0.41076876751E+01 0.37187279713E+01 0.34851883865E+01 0.33933008105E+01 0.34369567434E+01
 0.36186602326E+01 0.39490806637E+01 0.44451040129E+01 0.51255443227E+01 0.60037203420E+01
 0.70771750603E+01 0.83169674307E+01 0.96610592917E+01 0.11015834571E+02 0.12196975180E+02
 0.12884967561E+02 0.12836913856E+02 0.12839288566E+02 0.12329022772E+02 0.11361633707E+02
 0.10259564535E+02 0.93926272005E+01 0.90498283466E+01 0.93357818503E+01 0.10135340694E+02
 0.11160296916E+02 0.12055034479E+02 0.12515980513E+02 0.12382069879E+02 0.11671590320E+02
 0.10560838534E+02 0.93017474303E+01 0.80477073916E+01 0.68833331774E+01 0.58675266983E+01
 0.50301906704E+01 0.43766134874E+01 0.38963459039E+01 0.35726411949E+01 0.33897803461E+01
 0.33373950635E+01 0.34122771549E+01 0.36187070687E+01 0.39678188925E+01 0.44756356558E+01
 0.51588651407E+01 0.60278519090E+01 0.70771750603E+01 0.82763337054E+01 0.95646928946E+01
 0.10854597360E+02 0.11994632259E+02 0.12720378807E+02 0.12455294025E+02 0.12747547376E+02
 0.12554505937E+02 0.12021527584E+02 0.11399313450E+02 0.10953319943E+02 0.10864259163E+02
 0.11160308284E+02 0.11709369527E+02 0.12272614228E+02 0.12594113527E+02 0.12490013095E+02
 0.11906726442E+02 0.10932526702E+02 0.97589014371E+01 0.85457352351E+01 0.73792704319E+01
 0.63253776867E+01 0.54250735776E+01 0.46947658008E+01 0.41322027843E+01 0.37247783666E+01
 0.34572084567E+01 0.33168873796E+01 0.32966135476E+01 0.33954600599E+01 0.36187439712E+01
 0.39773694520E+01 0.44859536489E+01 0.51588651407E+01 0.60037203420E+01 0.70129718610E+01
 0.81559413958E+01 0.93751261290E+01 0.10590233222E+02 0.11685657385E+02 0.11269968200E+02
 0.12071230316E+02 0.12514650667E+02 0.12594490939E+02 0.12419744647E+02 0.12168545518E+02
 0.12014478672E+02 0.12055046242E+02 0.12272619606E+02 0.12543742769E+02 0.12690707709E+02
 0.12552069635E+02 0.12044214466E+02 0.11192922018E+02 0.10125061222E+02 0.89811816294E+01
 0.78442712530E+01 0.67822269051E+01 0.58437437373E+01 0.50550694400E+01 0.44228148321E+01
 0.39403568125E+01 0.35950130463E+01 0.33739322522E+01 0.32676991099E+01 0.32718138134E+01
 0.33869424969E+01 0.36187581647E+01 0.39773694520E+01 0.44756356558E+01 0.51255443227E+01
 0.59323464653E+01 0.68871586230E+01 0.79602933127E+01 0.90987410298E+01 0.10230695603E+02
 0.97873437144E+01 0.10755912908E+02 0.11562330710E+02 0.12114137536E+02 0.12399701294E+02
 0.12488888725E+02 0.12494313811E+02 0.12515991572E+02 0.12594119281E+02 0.12690708315E+02
 0.12707097038E+02 0.12528126244E+02 0.12073403086E+02 0.11335209357E+02 0.10388848835E+02
 0.93405892209E+01 0.82637012279E+01 0.72240723871E+01 0.62746045772E+01 0.54493826871E+01
 0.47635463520E+01 0.42174525264E+01 0.38027342934E+01 0.35081267874E+01 0.33236824131E+01
 0.32429375173E+01 0.32634929318E+01 0.33869424969E+01 0.36187439712E+01 0.39678188925E+01
 0.44451040129E+01 0.50603125385E+01 0.58167242846E+01 0.67048075264E+01 0.76967942455E+01
 0.87451692587E+01 0.83271892803E+01 0.92750270069E+01 0.10163449053E+02 0.10941292825E+02
 0.11548580454E+02 0.11964330872E+02 0.12222398513E+02 0.12382082420E+02 0.12490020908E+02
 0.12552071043E+02 0.12528123962E+02 0.12351421586E+02 0.11962753930E+02 0.11344125993E+02
 0.10536907444E+02 0.96104167364E+01 0.86238461221E+01 0.76379420231E+01 0.67066090161E+01
 0.58695078722E+01 0.51493877661E+01 0.45538983156E+01 0.40801551454E+01 0.37200323591E+01
 0.34646013244E+01 0.33068903325E+01 0.32429375173E+01 0.32718138134E+01 0.33954600599E+01
 0.36187070687E+01 0.39490806637E+01 0.43955952929E+01 0.49658824913E+01 0.56616327802E+01
 0.64732365799E+01 0.73755484091E+01 0.70089905979E+01 0.78603696161E+01 0.87118792634E+01
 0.95181532822E+01 0.10240968379E+02 0.10851450202E+02 0.11326649772E+02 0.11671599535E+02
 0.11906735236E+02 0.12044219439E+02 0.12073402003E+02 0.11962750453E+02 0.11676960297E+02
 0.11200659858E+02 0.10554639545E+02 0.97762057810E+01 0.89106185640E+01 0.80109151703E+01
 0.71289497584E+01 0.63074702247E+01 0.55755011913E+01 0.49478194412E+01 0.44277280996E+01
 0.40114496372E+01 0.36924548757E+01 0.34646013244E+01 0.33236824131E+01 0.32676991099E+01
 0.32966135476E+01 0.34122771549E+01 0.36186602326E+01 0.39218550883E+01 0.43290669870E+01
 0.48460801283E+01 0.54733503632E+01 0.62016637181E+01 0.59007521136E+01 0.66113174536E+01
 0.73623771505E+01 0.81185273847E+01 0.88432665230E+01 0.95051860854E+01 0.10082084486E+02
 0.10560841264E+02 0.10932530550E+02 0.11192927119E+02 0.11335212072E+02 0.11344123849E+02
 0.11200656391E+02 0.10894519996E+02 0.10429688800E+02 0.98237516788E+01 0.91091514448E+01
 0.83289215287E+01 0.75297571786E+01 0.67545775923E+01 0.60367611818E+01 0.53975257881E+01
 0.48466618421E+01 0.43856278628E+01 0.40114496372E+01 0.37200323591E+01 0.35081267874E+01
 0.33739322522E+01 0.33168873796E+01 0.33373950635E+01 0.34369567434E+01 0.36186217186E+01
 0.38871337423E+01 0.42480648907E+01 0.47056019741E+01 0.52593058047E+01 0.50276901192E+01
 0.55820566239E+01 0.61977137094E+01 0.68519522449E+01 0.75168405545E+01 0.81632220125E+01
 0.87649802510E+01 0.93017503228E+01 0.97589007847E+01 0.10125061176E+02 0.10388850945E+02
 0.10536908493E+02 0.10554637304E+02 0.10429686111E+02 0.10156821625E+02 0.97421662386E+01
 0.92050181596E+01 0.85764121899E+01 0.78947281104E+01 0.71996191868E+01 0.65260534559E+01
 0.59001742982E+01 0.53379710875E+01 0.48466618421E+01 0.44277280996E+01 0.40801551454E+01
 0.38027342934E+01 0.35950130463E+01 0.34572084567E+01 0.33897803461E+01 0.33933008105E+01
 0.34688436193E+01 0.36186079027E+01 0.38461386942E+01 0.41555708096E+01 0.45497548867E+01
 0.43841961015E+01 0.47870418529E+01 0.52573845173E+01 0.57834227254E+01 0.63476629333E+01
 0.69284062348E+01 0.75023926635E+01 0.80477153035E+01 0.85457378985E+01 0.89811794365E+01
 0.93405869528E+01 0.96104166906E+01 0.97762056804E+01 0.98237500753E+01 0.97421649452E+01
 0.95277305866E+01 0.91869656694E+01 0.87375906226E+01 0.82068091499E+01 0.76272830288E+01
 0.70319579417E+01 0.64492781593E+01 0.59001742982E+01 0.53975257881E+01 0.49478194412E+01
 0.45538983156E+01 0.42174525264E+01 0.39403568125E+01 0.37247783666E+01 0.35726411949E+01
 0.34851883865E+01 0.34630911718E+01 0.35070718024E+01 0.36186239059E+01 0.38002545110E+01
 0.40548518807E+01 0.39493187157E+01 0.42146730614E+01 0.45458084250E+01 0.49381129683E+01
 0.53827781340E+01 0.58666528690E+01 0.63730263598E+01 0.68833397973E+01 0.73792782402E+01
 0.78442740492E+01 0.82636986930E+01 0.86238427587E+01 0.89106169807E+01 0.91091508276E+01
 0.92050180281E+01 0.91869663454E+01 0.90502252452E+01 0.87990778492E+01 0.84475767756E+01
 0.80179466410E+01 0.75370473794E+01 0.70319579417E+01 0.65260534559E+01 0.60367611818E+01
 0.55755011913E+01 0.51493877661E+01 0.47635463520E+01 0.44228148321E+01 0.41322027843E+01
 0.38963459039E+01 0.37187279713E+01 0.36013589182E+01 0.35451275476E+01 0.35505795705E+01
 0.36186590480E+01 0.37509680458E+01 0.36998206772E+01 0.38423921108E+01 0.40467637872E+01
 0.43119130595E+01 0.46345494149E+01 0.50083591738E+01 0.54236195244E+01 0.58675271651E+01
 0.63253842013E+01 0.67822344764E+01 0.72240749698E+01 0.76379393928E+01 0.80109112842E+01
 0.83289191913E+01 0.85764121050E+01 0.87375928121E+01 0.87990806696E+01 0.87531209063E+01
 0.86001088437E+01 0.83493928008E+01 0.80179466410E+01 0.76272830288E+01 0.71996191868E+01
 0.67545775923E+01 0.63074702247E+01 0.58695078722E+01 0.54493826871E+01 0.50550694400E+01
 0.46947658008E+01 0.43766134874E+01 0.41076876751E+01 0.38931147177E+01 0.37358856014E+01
 0.36373680017E+01 0.35981344099E+01 0.36186924751E+01 0.36187055594E+01 0.36483645840E+01
 0.37373758169E+01 0.38856375920E+01 0.40923851028E+01 0.43554387269E+01 0.46704127045E+01
 0.50301917130E+01 0.54250778237E+01 0.58437515562E+01 0.62746112415E+01 0.67066105826E+01
 0.71289470795E+01 0.75297535412E+01 0.78947262128E+01 0.82068106095E+01 0.84475813469E+01
 0.86001131358E+01 0.86524038918E+01 0.86001088437E+01 0.84475767756E+01 0.82068091499E+01
 0.78947281104E+01 0.75297571786E+01 0.71289497584E+01 0.67066090161E+01 0.62746045772E+01
 0.58437437373E+01 0.54250735776E+01 0.50301906704E+01 0.46704106933E+01 0.43554351146E+01
 0.40923839798E+01 0.38856416687E+01 0.37373824537E+01 0.36483692856E+01 0.36998192772E+01
 0.36186889776E+01 0.35981242987E+01 0.36373524216E+01 0.37358722881E+01 0.38931101101E+01
 0.41076912871E+01 0.43766207286E+01 0.46947743649E+01 0.50550791750E+01 0.54493915342E+01
 0.58695127997E+01 0.63074706958E+01 0.67545755589E+01 0.71996167961E+01 0.76272823669E+01
 0.80179495281E+01 0.83493984060E+01 0.86001131358E+01 0.87531209063E+01 0.87990778492E+01
 0.87375906226E+01 0.85764121899E+01 0.83289215287E+01 0.80109151703E+01 0.76379420231E+01
 0.72240723871E+01 0.67822269051E+01 0.63253776867E+01 0.58675266983E+01 0.54236226257E+01
 0.50083591701E+01 0.46345435590E+01 0.43119044468E+01 0.40467566200E+01 0.38423884486E+01
 0.39493032880E+01 0.37509574680E+01 0.36186488450E+01 0.35505633653E+01 0.35451061115E+01
 0.36013410688E+01 0.37187217639E+01 0.38963518427E+01 0.41322161258E+01 0.44228305753E+01
 0.47635603915E+01 0.51493966669E+01 0.55755045666E+01 0.60367614761E+01 0.65260527414E+01
 0.70319568619E+01 0.75370474043E+01 0.80179495281E+01 0.84475813469E+01 0.87990806696E+01
 0.90502252452E+01 0.91869656694E+01 0.92050181596E+01 0.91091514448E+01 0.89106185640E+01
 0.86238461221E+01 0.82637012279E+01 0.78442712530E+01 0.73792704319E+01 0.68833331774E+01
 0.63730253846E+01 0.58666549576E+01 0.53827769831E+01 0.49381046762E+01 0.45457934437E+01
 0.42146552015E+01 0.43841686534E+01 0.40548241895E+01 0.38002323470E+01 0.36186049836E+01
 0.35070505976E+01 0.34630683503E+01 0.34851714572E+01 0.35726365838E+01 0.37247867466E+01
 0.39403741985E+01 0.42174727568E+01 0.45539147375E+01 0.49478281802E+01 0.53975286086E+01
 0.59001750571E+01 0.64492781579E+01 0.70319568619E+01 0.76272823669E+01 0.82068106095E+01
 0.87375928121E+01 0.91869663454E+01 0.95277305866E+01 0.97421662386E+01 0.98237516788E+01
 0.97762057810E+01 0.96104167364E+01 0.93405892209E+01 0.89811816294E+01 0.85457352351E+01
 0.80477073916E+01 0.75023842441E+01 0.69284009225E+01 0.63476599379E+01 0.57834183236E+01
 0.52573742129E+01 0.47870222257E+01 0.50276679996E+01 0.45497219642E+01 0.41555347682E+01
 0.38461074006E+01 0.36185821437E+01 0.34688203004E+01 0.33932804660E+01 0.33897673145E+01
 0.34572062130E+01 0.35950224416E+01 0.38027531591E+01 0.40801774520E+01 0.44277457412E+01
 0.48466706509E+01 0.53379739073E+01 0.59001750571E+01 0.65260527414E+01 0.71996167961E+01
 0.78947262128E+01 0.85764121050E+01 0.92050180281E+01 0.97421649452E+01 0.10156821625E+02
 0.10429688800E+02 0.10554639545E+02 0.10536907444E+02 0.10388848835E+02 0.10125061222E+02
 0.97589014371E+01 0.93017474303E+01 0.87649726674E+01 0.81632118049E+01 0.75168298306E+01
 0.68519424860E+01 0.61977048753E+01 0.55820445808E+01 0.59007398405E+01 0.52592857268E+01
 0.47055709173E+01 0.42480286606E+01 0.38871001726E+01 0.36185933025E+01 0.34369332727E+01
 0.33373777819E+01 0.33168780398E+01 0.33739316814E+01 0.35081362490E+01 0.37200514645E+01
 0.40114727691E+01 0.43856459286E+01 0.48466706509E+01 0.53975286086E+01 0.60367614761E+01
 0.67545755589E+01 0.75297535412E+01 0.83289191913E+01 0.91091508276E+01 0.98237500753E+01
 0.10429686111E+02 0.10894519996E+02 0.11200659858E+02 0.11344125993E+02 0.11335209357E+02
 0.11192922018E+02 0.10932526702E+02 0.10560838534E+02 0.10082080710E+02 0.95051798649E+01
 0.88432564321E+01 0.81185129715E+01 0.73623615823E+01 0.66113048440E+01 0.70089782321E+01
 0.62016556333E+01 0.54733384096E+01 0.48460591012E+01 0.43290396153E+01 0.39218260013E+01
 0.36186322008E+01 0.34122535215E+01 0.32965979084E+01 0.32676919615E+01 0.33236827939E+01
 0.34646107357E+01 0.36924739933E+01 0.40114727691E+01 0.44277457412E+01 0.49478281802E+01
 0.55755045666E+01 0.63074706958E+01 0.71289470795E+01 0.80109112842E+01 0.89106169807E+01
 0.97762056804E+01 0.10554637304E+02 0.11200656391E+02 0.11676960297E+02 0.11962753930E+02
 0.12073403086E+02 0.12044214466E+02 0.11906726442E+02 0.11671590320E+02 0.11326641758E+02
 0.10851444595E+02 0.10240964466E+02 0.95181461948E+01 0.87118652031E+01 0.78603526557E+01
 0.83271780641E+01 0.73755429114E+01 0.64732376730E+01 0.56616329970E+01 0.49658763883E+01
 0.43955817421E+01 0.39490594287E+01 0.36186806568E+01 0.33954359362E+01 0.32717986798E+01
 0.32429313275E+01 0.33068910563E+01 0.34646107357E+01 0.37200514645E+01 0.40801774520E+01
 0.45539147375E+01 0.51493966669E+01 0.58695127997E+01 0.67066105826E+01 0.76379393928E+01
 0.86238427587E+01 0.96104166906E+01 0.10536908493E+02 0.11344123849E+02 0.11962750453E+02
 0.12351421586E+02 0.12528126244E+02 0.12552069635E+02 0.12490013095E+02 0.12382069879E+02
 0.12222383269E+02 0.11964316212E+02 0.11548571966E+02 0.10941291754E+02 0.10163447918E+02
 0.92750189271E+01 0.97873463850E+01 0.87451704604E+01 0.76968012800E+01 0.67048201782E+01
 0.58167370214E+01 0.50603213838E+01 0.44451042605E+01 0.39678054862E+01 0.36187192752E+01
 0.33869180707E+01 0.32634778955E+01 0.32429313275E+01 0.33236827939E+01 0.35081362490E+01
 0.38027531591E+01 0.42174727568E+01 0.47635603915E+01 0.54493915342E+01 0.62746112415E+01
 0.72240749698E+01 0.82636986930E+01 0.93405869528E+01 0.10388850945E+02 0.11335212072E+02
 0.12073402003E+02 0.12528123962E+02 0.12707097038E+02 0.12690707709E+02 0.12594113527E+02
 0.12515980513E+02 0.12494298243E+02 0.12488868154E+02 0.12399680287E+02 0.12114126310E+02
 0.11562332920E+02 0.10755919688E+02 0.11269982307E+02 0.10230710223E+02 0.90987577509E+01
 0.79603149399E+01 0.68871822191E+01 0.59323693058E+01 0.51255646435E+01 0.44756459732E+01
 0.39773609899E+01 0.36187342358E+01 0.33869180707E+01 0.32717986798E+01 0.32676919615E+01
 0.33739316814E+01 0.35950224416E+01 0.39403741985E+01 0.44228305753E+01 0.50550791750E+01
 0.58437515562E+01 0.67822344764E+01 0.78442740492E+01 0.89811794365E+01 0.10125061176E+02
 0.11192927119E+02 0.12044219439E+02 0.12552071043E+02 0.12690708315E+02 0.12543742769E+02
 0.12272614228E+02 0.12055034479E+02 0.12014464499E+02 0.12168528582E+02 0.12419721400E+02
 0.12594466745E+02 0.12514638988E+02 0.12071235948E+02 0.12455302459E+02 0.11685675598E+02
 0.10590257567E+02 0.93751576594E+01 0.81559763931E+01 0.70130040675E+01 0.60037497124E+01
 0.51588916810E+01 0.44859676858E+01 0.39773609899E+01 0.36187192752E+01 0.33954359362E+01
 0.32965979084E+01 0.33168780398E+01 0.34572062130E+01 0.37247867466E+01 0.41322161258E+01
 0.46947743649E+01 0.54250778237E+01 0.63253842013E+01 0.73792782402E+01 0.85457378985E+01
 0.97589007847E+01 0.10932530550E+02 0.11906735236E+02 0.12490020908E+02 0.12594119281E+02
 0.12272619606E+02 0.11709369527E+02 0.11160296916E+02 0.10864241150E+02 0.10953304022E+02
 0.11399297939E+02 0.12021506335E+02 0.12554484495E+02 0.12747539118E+02 0.12839287997E+02
 0.12720389240E+02 0.11994651096E+02 0.10854628204E+02 0.95647360432E+01 0.82763783237E+01
 0.70772121778E+01 0.60278835749E+01 0.51588916810E+01 0.44756459732E+01 0.39678054862E+01
 0.36186806568E+01 0.34122535215E+01 0.33373777819E+01 0.33897673145E+01 0.35726365838E+01
 0.38963518427E+01 0.43766207286E+01 0.50301917130E+01 0.58675271651E+01 0.68833397973E+01
 0.80477153035E+01 0.93017503228E+01 0.10560841264E+02 0.11671599535E+02 0.12382082420E+02
 0.12515991572E+02 0.12055046242E+02 0.11160308284E+02 0.10135340694E+02 0.93357651800E+01
 0.90498065579E+01 0.93926125854E+01 0.10259553989E+02 0.11361620168E+02 0.12329011195E+02
 0.12000863989E+02 0.12836924450E+02 0.12884979948E+02 0.12196993138E+02 0.11015869242E+02
 0.96611090179E+01 0.83170156234E+01 0.70772121778E+01 0.60037497124E+01 0.51255646435E+01
 0.44451042605E+01 0.39490594287E+01 0.36186322008E+01 0.34369332727E+01 0.33932804660E+01
 0.34851714572E+01 0.37187217639E+01 0.41076912871E+01 0.46704127045E+01 0.54236195244E+01
 0.63730263598E+01 0.75023926635E+01 0.87649802510E+01 0.10082084486E+02 0.11326649772E+02
 0.12222398513E+02 0.12494313811E+02 0.12014478672E+02 0.10864259163E+02 0.93357818503E+01
 0.78635380724E+01 0.68967355932E+01 0.67495775162E+01 0.74867416975E+01 0.88954526040E+01
 0.10559136274E+02 0.97640788769E+01 0.11668704100E+02 0.12794887571E+02 0.12971640686E+02
 0.12296548153E+02 0.11069988302E+02 0.96611090179E+01 0.82763783237E+01 0.70130040675E+01
 0.59323693058E+01 0.50603213838E+01 0.43955817421E+01 0.39218260013E+01 0.36185933025E+01
 0.34688203004E+01 0.34630683503E+01 0.36013410688E+01 0.38931101101E+01 0.43554387269E+01
 0.50083591738E+01 0.58666528690E+01 0.69284062348E+01 0.81632220125E+01 0.95051860854E+01
 0.10851450202E+02 0.11964330872E+02 0.12488888725E+02 0.12168545518E+02 0.10953319943E+02
 0.90498283466E+01 0.68967541653E+01 0.50587850629E+01 0.40589482205E+01 0.42030420400E+01
 0.54678982879E+01 0.75057052505E+01 0.63078655343E+01 0.91286414803E+01 0.11425214108E+02
 0.12760283286E+02 0.12998273799E+02 0.12296548153E+02 0.11015869242E+02 0.95647360432E+01
 0.81559763931E+01 0.68871822191E+01 0.58167370214E+01 0.49658763883E+01 0.43290396153E+01
 0.38871001726E+01 0.36185821437E+01 0.35070505976E+01 0.35451061115E+01 0.37358722881E+01
 0.40923851028E+01 0.46345494149E+01 0.53827781340E+01 0.63476629333E+01 0.75168405545E+01
 0.88432665230E+01 0.10240968379E+02 0.11548580454E+02 0.12399701294E+02 0.12419744647E+02
 0.11399313450E+02 0.93926272005E+01 0.67495975272E+01 0.40589630113E+01 0.19998478815E+01
 0.11354127523E+01 0.17212897272E+01 0.36116078901E+01 0.21893330780E+01 0.54978671740E+01
 0.87763715168E+01 0.11336137868E+02 0.12760283286E+02 0.12971640686E+02 0.12196993138E+02
 0.10854628204E+02 0.93751576594E+01 0.79603149399E+01 0.67048201782E+01 0.56616329970E+01
 0.48460591012E+01 0.42480286606E+01 0.38461074006E+01 0.36186049836E+01 0.35505633653E+01
 0.36373524216E+01 0.38856375920E+01 0.43119130595E+01 0.49381129683E+01 0.57834227254E+01
 0.68519522449E+01 0.81185273847E+01 0.95181532822E+01 0.10941292825E+02 0.12114137536E+02
 0.12594490939E+02 0.12021527584E+02 0.10259564535E+02 0.74867505825E+01 0.42030528470E+01
 0.11354174814E+01 -.95440506060E+00 -.15078050388E+01 -.36203215030E+00 -.17496714862E+01
 0.14180117560E+01 0.52116623253E+01 0.87763715168E+01 0.11425214108E+02 0.12794887571E+02
 0.12884979948E+02 0.11994651096E+02 0.10590257567E+02 0.90987577509E+01 0.76968012800E+01
 0.64732376730E+01 0.54733384096E+01 0.47055709173E+01 0.41555347682E+01 0.38002323470E+01
 0.36186488450E+01 0.35981242987E+01 0.37373758169E+01 0.40467637872E+01 0.45458084250E+01
 0.52573845173E+01 0.61977137094E+01 0.73623771505E+01 0.87118792634E+01 0.10163449053E+02
 0.11562330710E+02 0.12514650667E+02 0.12554505937E+02 0.11361633707E+02 0.88954546211E+01
 0.54678966996E+01 0.17212845664E+01 -.15078147051E+01 -.34206184461E+01 -.35126006704E+01
 -.45939162559E+01 -.22365922104E+01 0.14180117560E+01 0.54978671740E+01 0.91286414803E+01
 0.11668704100E+02 0.12836924450E+02 0.12720389240E+02 0.11685675598E+02 0.10230710223E+02
 0.87451704604E+01 0.73755429114E+01 0.62016556333E+01 0.52592857268E+01 0.45497219642E+01
 0.40548241895E+01 0.37509574680E+01 0.36186889776E+01 0.36483645840E+01 0.38423921108E+01
 0.42146730614E+01 0.47870418529E+01 0.55820566239E+01 0.66113174536E+01 0.78603696161E+01
 0.92750270069E+01 0.10755912908E+02 0.12071230316E+02 0.12747547376E+02 0.12329022772E+02
 0.10559136770E+02 0.75056957862E+01 0.36115923907E+01 -.36205625266E+00 -.35126246783E+01
 -.50579718046E+01 -.45939234953E+01 -.38616821291E+01 -.13707061025E+01 0.22533829817E+01
 0.61556830696E+01 0.95133234267E+01 0.11749774415E+02 0.12644110671E+02 0.12326834482E+02
 0.11185163250E+02 0.97110359036E+01 0.82438646918E+01 0.69101743520E+01 0.57817577338E+01
 0.48869238900E+01 0.42216136561E+01 0.37649768484E+01 0.34928977534E+01 0.33868979260E+01
 0.34389666709E+01 0.36532991833E+01 0.40453740229E+01 0.46381028771E+01 0.54542260758E+01
 0.65040599640E+01 0.77699849946E+01 0.91931398738E+01 0.10668222647E+02 0.11935014791E+02
 0.12514160152E+02 0.11974845109E+02 0.10105028122E+02 0.70249363235E+01 0.32194020705E+01
 -.53927621535E+00 -.33807012294E+01 -.38617082123E+01 -.45939404618E+01 -.33807061990E+01
 -.53927573617E+00 0.32194016244E+01 0.70249370934E+01 0.10105037390E+02 0.11974867814E+02
 0.12514194475E+02 0.11935053278E+02 0.10668257883E+02 0.91931666155E+01 0.77700012436E+01
 0.65040668831E+01 0.54542282295E+01 0.46381050844E+01 0.40453774095E+01 0.36533007905E+01
 0.34389643985E+01 0.33868928763E+01 0.34928920218E+01 0.37649709854E+01 0.42216072377E+01
 0.48869160173E+01 0.57817460881E+01 0.69101544774E+01 0.82438340777E+01 0.97109971762E+01
 0.11185121417E+02 0.12326793081E+02 0.12644072812E+02 0.11749745206E+02 0.95133057293E+01
 0.61556724112E+01 0.22533682570E+01 -.13707300784E+01 -.12813271269E+01 -.32852497671E+01
 -.35126326023E+01 -.19143231874E+01 0.10853154114E+01 0.47352060572E+01 0.82005615240E+01
 0.10801532998E+02 0.12168969750E+02 0.12288040363E+02 0.11441118590E+02 0.10081139142E+02
 0.86314550942E+01 0.72707087756E+01 0.60876195817E+01 0.51266459043E+01 0.43950863171E+01
 0.38776078322E+01 0.35508632912E+01 0.33941086779E+01 0.33954160444E+01 0.35544866585E+01
 0.38827691635E+01 0.44009815708E+01 0.51333941155E+01 0.60978032097E+01 0.72912861248E+01
 0.86754332859E+01 0.10168042703E+02 0.11616425519E+02 0.12626723253E+02 0.12725399096E+02
 0.11584203133E+02 0.91562853540E+01 0.57478376423E+01 0.19932427546E+01 0.24845263503E+01
 -.28253687039E+00 -.17356953523E+01 -.15078370272E+01 0.32271902612E+00 0.32608168408E+01
 0.65647147310E+01 0.94815151605E+01 0.11454851484E+02 0.12242684706E+02 0.11929304572E+02
 0.10848473521E+02 0.94473197520E+01 0.80447004135E+01 0.67635194604E+01 0.56752579511E+01
 0.48097685363E+01 0.41652744308E+01 0.37230258350E+01 0.34603554534E+01 0.33594685822E+01
 0.34122502790E+01 0.36220731211E+01 0.40032094420E+01 0.45777261814E+01 0.53690020069E+01
 0.63908838556E+01 0.76333777346E+01 0.90494073710E+01 0.10549493411E+02 0.11955242331E+02
 0.12851239860E+02 0.12802757222E+02 0.11548409901E+02 0.91180608924E+01 0.58790964736E+01
 0.65341309385E+01 0.36536234144E+01 0.14778793607E+01 0.56295730896E+00 0.11353830943E+01
 0.30143085844E+01 0.56770689927E+01 0.84376988664E+01 0.10660575913E+02 0.11929718534E+02
 0.12128569167E+02 0.11424624572E+02 0.10178647747E+02 0.87882066109E+01 0.74527578714E+01
 0.62657282852E+01 0.52804329812E+01 0.45131981235E+01 0.39550736491E+01 0.35856258261E+01
 0.33840094452E+01 0.33359015109E+01 0.34369554460E+01 0.36937269863E+01 0.41225279861E+01
 0.47458266100E+01 0.55851626523E+01 0.66499059716E+01 0.79235241351E+01 0.93523112308E+01
 0.10842704557E+02 0.12199146801E+02 0.13014346267E+02 0.12904496941E+02 0.11675303841E+02
 0.94187675996E+01 0.10010362668E+02 0.76082587562E+01 0.53230723105E+01 0.37451289331E+01
 0.32903368363E+01 0.40589189661E+01 0.58023694268E+01 0.80137538511E+01 0.10099857670E+02
 0.11563072879E+02 0.12129965194E+02 0.11796292941E+02 0.10789691419E+02 0.94696711838E+01
 0.81252117911E+01 0.68754079507E+01 0.57933578029E+01 0.49149115149E+01 0.42449833718E+01
 0.37697061881E+01 0.34686202300E+01 0.33235933537E+01 0.33239812390E+01 0.34688701923E+01
 0.37673148290E+01 0.42367958161E+01 0.48992559404E+01 0.57736415349E+01 0.68647369337E+01
 0.81505120750E+01 0.95729477204E+01 0.11037379605E+02 0.12345968197E+02 0.13120663557E+02
 0.13034075549E+02 0.11952492137E+02 0.12324833784E+02 0.10786991460E+02 0.89289288689E+01
 0.72464812444E+01 0.62059826671E+01 0.60892874654E+01 0.68967053812E+01 0.83503533085E+01
 0.99956834733E+01 0.11355647044E+02 0.12076016799E+02 0.12015089389E+02 0.11259026631E+02
 0.10068362219E+02 0.87546361212E+01 0.74802657932E+01 0.63310807562E+01 0.53602448404E+01
 0.45882681485E+01 0.40114022833E+01 0.36131559285E+01 0.33744486429E+01 0.32804220761E+01
 0.33239934678E+01 0.35071189528E+01 0.38405538750E+01 0.43420672414E+01 0.50322464230E+01
 0.59269569547E+01 0.70266817390E+01 0.83052499554E+01 0.97026243582E+01 0.11125976817E+02
 0.12390945068E+02 0.13162147842E+02 0.13168282681E+02 0.13262672217E+02 0.12706802678E+02
 0.11607116572E+02 0.10289726344E+02 0.91548728466E+01 0.85454230857E+01 0.86280344757E+01
 0.93357372910E+01 0.10396483736E+02 0.11433724985E+02 0.12095394171E+02 0.12162502071E+02
 0.11604407691E+02 0.10570277492E+02 0.93214830174E+01 0.80580319768E+01 0.68742883814E+01
 0.58357266547E+01 0.49774359034E+01 0.43076665231E+01 0.38169524780E+01 0.34882299458E+01
 0.33048335250E+01 0.32553727904E+01 0.33359338487E+01 0.35506327699E+01 0.39110967697E+01
 0.44345603162E+01 0.51395972713E+01 0.60387991430E+01 0.71289322244E+01 0.83811445002E+01
 0.97354516144E+01 0.11103306287E+02 0.12326280237E+02 0.13119416245E+02 0.12967289212E+02
 0.13262688036E+02 0.13001436521E+02 0.12322039321E+02 0.11488998974E+02 0.10803972728E+02
 0.10498747088E+02 0.10651365936E+02 0.11160277297E+02 0.11786608057E+02 0.12244758295E+02
 0.12303436882E+02 0.11860496026E+02 0.10969358347E+02 0.98123771607E+01 0.85899834894E+01
 0.74038980499E+01 0.63257615471E+01 0.54020798631E+01 0.46529882544E+01 0.40779507871E+01
 0.36645308619E+01 0.33967160420E+01 0.32608649494E+01 0.32489072290E+01 0.33595109306E+01
 0.35981808088E+01 0.39766291598E+01 0.45108555046E+01 0.52169882342E+01 0.61044183514E+01
 0.71669521163E+01 0.83744454662E+01 0.96687241257E+01 0.10967125332E+02 0.12143305909E+02
 0.11836605425E+02 0.12682992384E+02 0.13117607588E+02 0.13121333792E+02 0.12804376810E+02
 0.12364765963E+02 0.12012587172E+02 0.11888781761E+02 0.12011555762E+02 0.12272605724E+02