   2   2   0   0
  0.1685414E+02  0.3741466E-09  0.3741466E-09  0.3741466E-09  0.5000000E-15
  1.000000000000000E-004
  CAR 
 unknown system                          
     21.46932093     -6.87188652  301      7.89332935      1.00000000
     -6.872  0.0000E+00  0.0000E+00
     -6.777  0.0000E+00  0.0000E+00
     -6.683  0.0000E+00  0.0000E+00
     -6.588  0.0000E+00  0.0000E+00
     -6.494  0.0000E+00  0.0000E+00
     -6.400  0.0000E+00  0.0000E+00
     -6.305  0.0000E+00  0.0000E+00
     -6.211  0.0000E+00  0.0000E+00
     -6.116  0.0000E+00  0.0000E+00
     -6.022  0.2448E-17  0.2313E-18
     -5.927  0.4670E-15  0.4435E-16
     -5.833  0.5964E-13  0.5679E-14
     -5.738  0.4907E-11  0.4693E-12
     -5.644  0.2605E-09  0.2508E-10
     -5.549  0.8931E-08  0.8688E-09
     -5.455  0.1980E-06  0.1957E-07
     -5.360  0.2842E-05  0.2881E-06
     -5.266  0.2647E-04  0.2789E-05
     -5.171  0.1604E-03  0.1794E-04
     -5.077  0.6358E-03  0.7801E-04
     -4.982  0.1672E-02  0.2360E-03
     -4.888  0.3038E-02  0.5230E-03
     -4.794  0.4288E-02  0.9281E-03
     -4.699  0.5960E-02  0.1491E-02
     -4.605  0.9212E-02  0.2361E-02
     -4.510  0.1325E-01  0.3613E-02
     -4.416  0.1522E-01  0.5051E-02
     -4.321  0.1398E-01  0.6372E-02
     -4.227  0.1126E-01  0.7435E-02
     -4.132  0.9321E-02  0.8316E-02
     -4.038  0.9807E-02  0.9242E-02
     -3.943  0.1382E-01  0.1055E-01
     -3.849  0.2067E-01  0.1250E-01
     -3.754  0.2596E-01  0.1495E-01
     -3.660  0.2477E-01  0.1729E-01
     -3.565  0.1954E-01  0.1914E-01
     -3.471  0.1777E-01  0.2082E-01
     -3.376  0.2035E-01  0.2274E-01
     -3.282  0.2164E-01  0.2479E-01
     -3.188  0.1989E-01  0.2666E-01
     -3.093  0.1874E-01  0.2844E-01
     -2.999  0.2019E-01  0.3034E-01
     -2.904  0.2286E-01  0.3250E-01
     -2.810  0.2558E-01  0.3492E-01
     -2.715  0.2784E-01  0.3755E-01
     -2.621  0.2777E-01  0.4017E-01
     -2.526  0.2547E-01  0.4258E-01
     -2.432  0.2650E-01  0.4508E-01
     -2.337  0.3346E-01  0.4824E-01
     -2.243  0.3809E-01  0.5184E-01
     -2.148  0.3252E-01  0.5491E-01
     -2.054  0.2101E-01  0.5690E-01
     -1.959  0.1255E-01  0.5808E-01
     -1.865  0.1210E-01  0.5923E-01
     -1.770  0.2117E-01  0.6123E-01
     -1.676  0.3762E-01  0.6478E-01
     -1.582  0.5263E-01  0.6975E-01
     -1.487  0.5483E-01  0.7493E-01
     -1.393  0.4399E-01  0.7909E-01
     -1.298  0.3296E-01  0.8220E-01
     -1.204  0.3036E-01  0.8507E-01
     -1.109  0.3222E-01  0.8812E-01
     -1.015  0.3209E-01  0.9115E-01
     -0.920  0.2904E-01  0.9389E-01
     -0.826  0.2611E-01  0.9636E-01
     -0.731  0.2608E-01  0.9882E-01
     -0.637  0.2895E-01  0.1016E+00
     -0.542  0.3163E-01  0.1045E+00
     -0.448  0.3230E-01  0.1076E+00
     -0.353  0.3535E-01  0.1109E+00
     -0.259  0.4590E-01  0.1153E+00
     -0.164  0.5825E-01  0.1208E+00
     -0.070  0.6053E-01  0.1265E+00
      0.024  0.5182E-01  0.1314E+00
      0.119  0.4206E-01  0.1354E+00
      0.213  0.3838E-01  0.1390E+00
      0.308  0.4282E-01  0.1430E+00
      0.402  0.5420E-01  0.1482E+00
      0.497  0.6374E-01  0.1542E+00
      0.591  0.6193E-01  0.1600E+00
      0.686  0.5231E-01  0.1650E+00
      0.780  0.4432E-01  0.1692E+00
      0.875  0.3832E-01  0.1728E+00
      0.969  0.3103E-01  0.1757E+00
      1.064  0.2572E-01  0.1781E+00
      1.158  0.2509E-01  0.1805E+00
      1.253  0.2434E-01  0.1828E+00
      1.347  0.1941E-01  0.1846E+00
      1.442  0.1421E-01  0.1860E+00
      1.536  0.1497E-01  0.1874E+00
      1.630  0.2251E-01  0.1895E+00
      1.725  0.3438E-01  0.1928E+00
      1.819  0.5053E-01  0.1975E+00
      1.914  0.6843E-01  0.2040E+00
      2.008  0.7802E-01  0.2114E+00
      2.103  0.7301E-01  0.2183E+00
      2.197  0.5951E-01  0.2239E+00
      2.292  0.4585E-01  0.2282E+00
      2.386  0.3437E-01  0.2315E+00
      2.481  0.2563E-01  0.2339E+00
      2.575  0.2040E-01  0.2358E+00
      2.670  0.1783E-01  0.2375E+00
      2.764  0.1757E-01  0.2392E+00
      2.859  0.2210E-01  0.2413E+00
      2.953  0.3275E-01  0.2443E+00
      3.048  0.4458E-01  0.2486E+00
      3.142  0.4898E-01  0.2532E+00
      3.236  0.4290E-01  0.2572E+00
      3.331  0.3424E-01  0.2605E+00
      3.425  0.3554E-01  0.2638E+00
      3.520  0.5258E-01  0.2688E+00
      3.614  0.7699E-01  0.2761E+00
      3.709  0.9003E-01  0.2846E+00
      3.803  0.8313E-01  0.2924E+00
      3.898  0.6854E-01  0.2989E+00
      3.992  0.5970E-01  0.3045E+00
      4.087  0.5547E-01  0.3098E+00
      4.181  0.4936E-01  0.3144E+00
      4.276  0.4062E-01  0.3183E+00
      4.370  0.3277E-01  0.3214E+00
      4.465  0.2792E-01  0.3240E+00
      4.559  0.2580E-01  0.3265E+00
      4.654  0.2759E-01  0.3291E+00
      4.748  0.3798E-01  0.3327E+00
      4.842  0.5845E-01  0.3382E+00
      4.937  0.8008E-01  0.3457E+00
      5.031  0.9091E-01  0.3543E+00
      5.126  0.8806E-01  0.3626E+00
      5.220  0.7632E-01  0.3699E+00
      5.315  0.6184E-01  0.3757E+00
      5.409  0.5179E-01  0.3806E+00
      5.504  0.5121E-01  0.3854E+00
      5.598  0.5721E-01  0.3908E+00
      5.693  0.6248E-01  0.3967E+00
      5.787  0.6314E-01  0.4027E+00
      5.882  0.5834E-01  0.4082E+00
      5.976  0.5042E-01  0.4130E+00
      6.071  0.4739E-01  0.4175E+00
      6.165  0.5617E-01  0.4228E+00
      6.260  0.7458E-01  0.4298E+00
      6.354  0.9362E-01  0.4386E+00
      6.448  0.1040E+00  0.4485E+00
      6.543  0.1020E+00  0.4581E+00
      6.637  0.9204E-01  0.4668E+00
      6.732  0.8114E-01  0.4745E+00
      6.826  0.7091E-01  0.4812E+00
      6.921  0.6055E-01  0.4869E+00
      7.015  0.5077E-01  0.4917E+00
      7.110  0.4178E-01  0.4956E+00
      7.204  0.3470E-01  0.4989E+00
      7.299  0.3380E-01  0.5021E+00
      7.393  0.4006E-01  0.5059E+00
      7.488  0.4720E-01  0.5103E+00
      7.582  0.5070E-01  0.5151E+00
      7.677  0.5402E-01  0.5202E+00
      7.771  0.5934E-01  0.5258E+00
      7.866  0.6170E-01  0.5317E+00
      7.960  0.5698E-01  0.5371E+00
      8.054  0.4871E-01  0.5417E+00
      8.149  0.4432E-01  0.5458E+00
      8.243  0.4633E-01  0.5502E+00
      8.338  0.5018E-01  0.5550E+00
      8.432  0.5055E-01  0.5597E+00
      8.527  0.4602E-01  0.5641E+00
      8.621  0.3774E-01  0.5677E+00
      8.716  0.2857E-01  0.5704E+00
      8.810  0.2405E-01  0.5726E+00
      8.905  0.2864E-01  0.5753E+00
      8.999  0.4125E-01  0.5792E+00
      9.094  0.5657E-01  0.5846E+00
      9.188  0.6835E-01  0.5910E+00
      9.283  0.7111E-01  0.5977E+00
      9.377  0.6447E-01  0.6038E+00
      9.472  0.5783E-01  0.6093E+00
      9.566  0.6115E-01  0.6151E+00
      9.660  0.7153E-01  0.6218E+00
      9.755  0.7866E-01  0.6293E+00
      9.849  0.7724E-01  0.6366E+00
      9.944  0.6892E-01  0.6431E+00
     10.038  0.5868E-01  0.6486E+00
     10.133  0.5096E-01  0.6534E+00
     10.227  0.4728E-01  0.6579E+00
     10.322  0.4860E-01  0.6625E+00
     10.416  0.5695E-01  0.6679E+00
     10.511  0.7139E-01  0.6746E+00
     10.605  0.8645E-01  0.6828E+00
     10.700  0.9642E-01  0.6919E+00
     10.794  0.1006E+00  0.7014E+00
     10.889  0.1012E+00  0.7109E+00
     10.983  0.9501E-01  0.7199E+00
     11.078  0.7807E-01  0.7273E+00
     11.172  0.5626E-01  0.7326E+00
     11.266  0.4007E-01  0.7364E+00
     11.361  0.3228E-01  0.7394E+00
     11.455  0.2900E-01  0.7422E+00
     11.550  0.2861E-01  0.7449E+00
     11.644  0.3432E-01  0.7481E+00
     11.739  0.5030E-01  0.7529E+00
     11.833  0.7452E-01  0.7599E+00
     11.928  0.9699E-01  0.7691E+00
     12.022  0.1075E+00  0.7792E+00
     12.117  0.1023E+00  0.7889E+00
     12.211  0.8578E-01  0.7970E+00
     12.306  0.6841E-01  0.8035E+00
     12.400  0.6132E-01  0.8093E+00
     12.495  0.6791E-01  0.8157E+00
     12.589  0.8272E-01  0.8235E+00
     12.684  0.9733E-01  0.8327E+00
     12.778  0.1043E+00  0.8425E+00
     12.872  0.9883E-01  0.8519E+00
     12.967  0.8450E-01  0.8599E+00
     13.061  0.7448E-01  0.8669E+00
     13.156  0.7628E-01  0.8741E+00
     13.250  0.8380E-01  0.8820E+00
     13.345  0.8964E-01  0.8905E+00
     13.439  0.9105E-01  0.8991E+00
     13.534  0.8408E-01  0.9070E+00
     13.628  0.6860E-01  0.9135E+00
     13.723  0.5381E-01  0.9186E+00
     13.817  0.4851E-01  0.9232E+00
     13.912  0.5285E-01  0.9282E+00
     14.006  0.6027E-01  0.9339E+00
     14.101  0.6352E-01  0.9399E+00
     14.195  0.6193E-01  0.9457E+00
     14.290  0.6201E-01  0.9516E+00
     14.384  0.6744E-01  0.9580E+00
     14.478  0.7355E-01  0.9649E+00
     14.573  0.7315E-01  0.9718E+00
     14.667  0.6407E-01  0.9779E+00
     14.762  0.5204E-01  0.9828E+00
     14.856  0.4445E-01  0.9870E+00
     14.951  0.4188E-01  0.9909E+00
     15.045  0.4000E-01  0.9947E+00
     15.140  0.3830E-01  0.9983E+00
     15.234  0.4192E-01  0.1002E+01
     15.329  0.5288E-01  0.1007E+01
     15.423  0.6380E-01  0.1013E+01
     15.518  0.6483E-01  0.1019E+01
     15.612  0.5431E-01  0.1025E+01
     15.707  0.3929E-01  0.1028E+01
     15.801  0.2805E-01  0.1031E+01
     15.896  0.2304E-01  0.1033E+01
     15.990  0.2092E-01  0.1035E+01
     16.084  0.1828E-01  0.1037E+01
     16.179  0.1415E-01  0.1038E+01
     16.273  0.9122E-02  0.1039E+01
     16.368  0.5297E-02  0.1040E+01
     16.462  0.5947E-02  0.1040E+01
     16.557  0.1376E-01  0.1041E+01
     16.651  0.2649E-01  0.1044E+01
     16.746  0.3438E-01  0.1047E+01
     16.840  0.3003E-01  0.1050E+01
     16.935  0.1901E-01  0.1052E+01
     17.029  0.1097E-01  0.1053E+01
     17.124  0.7518E-02  0.1054E+01
     17.218  0.5927E-02  0.1054E+01
     17.313  0.5863E-02  0.1055E+01
     17.407  0.7498E-02  0.1055E+01
     17.502  0.8915E-02  0.1056E+01
     17.596  0.8679E-02  0.1057E+01
     17.690  0.7975E-02  0.1058E+01
     17.785  0.8023E-02  0.1059E+01
     17.879  0.8327E-02  0.1059E+01
     17.974  0.8321E-02  0.1060E+01
     18.068  0.7884E-02  0.1061E+01
     18.163  0.7243E-02  0.1062E+01
     18.257  0.6977E-02  0.1062E+01
     18.352  0.6534E-02  0.1063E+01
     18.446  0.4997E-02  0.1063E+01
     18.541  0.3317E-02  0.1064E+01
     18.635  0.3012E-02  0.1064E+01
     18.730  0.3891E-02  0.1064E+01
     18.824  0.4651E-02  0.1065E+01
     18.919  0.4440E-02  0.1065E+01
     19.013  0.3257E-02  0.1065E+01
     19.108  0.1785E-02  0.1066E+01
     19.202  0.9067E-03  0.1066E+01
     19.296  0.1057E-02  0.1066E+01
     19.391  0.1999E-02  0.1066E+01
     19.485  0.2821E-02  0.1066E+01
     19.580  0.2619E-02  0.1066E+01
     19.674  0.1583E-02  0.1067E+01
     19.769  0.6224E-03  0.1067E+01
     19.863  0.1590E-03  0.1067E+01
     19.958  0.2638E-04  0.1067E+01
     20.052  0.2838E-05  0.1067E+01
     20.147  0.1979E-06  0.1067E+01
     20.241  0.8929E-08  0.1067E+01
     20.336  0.2605E-09  0.1067E+01
     20.430  0.4907E-11  0.1067E+01
     20.525  0.5964E-13  0.1067E+01
     20.619  0.4676E-15  0.1067E+01
     20.714  0.2448E-17  0.1067E+01
     20.808  0.0000E+00  0.1067E+01
     20.902  0.0000E+00  0.1067E+01
     20.997  0.0000E+00  0.1067E+01
     21.091  0.0000E+00  0.1067E+01
     21.186  0.0000E+00  0.1067E+01
     21.280  0.0000E+00  0.1067E+01
     21.375  0.0000E+00  0.1067E+01
     21.469  0.0000E+00  0.1067E+01
