 running on    8 total cores
 distrk:  each k-point on    8 cores,    1 groups
 distr:  one band on    1 cores,    8 groups
 using from now: INCAR     
 vasp.5.4.4.18Apr17-6-g9f103f2a35 (build Dec 09 2018 21:25:21) complex          
  
 POSCAR found type information on POSCAR  Si
 POSCAR found :  1 types and       2 ions
 scaLAPACK will be used

 ----------------------------------------------------------------------------- 
|                                                                             |
|           W    W    AA    RRRRR   N    N  II  N    N   GGGG   !!!           |
|           W    W   A  A   R    R  NN   N  II  NN   N  G    G  !!!           |
|           W    W  A    A  R    R  N N  N  II  N N  N  G       !!!           |
|           W WW W  AAAAAA  RRRRR   N  N N  II  N  N N  G  GGG   !            |
|           WW  WW  A    A  R   R   N   NN  II  N   NN  G    G                |
|           W    W  A    A  R    R  N    N  II  N    N   GGGG   !!!           |
|                                                                             |
|      For optimal performance we recommend to set                            |
|        NCORE= 4 - approx SQRT( number of cores)                             |
|      NCORE specifies how many cores store one orbital (NPAR=cpu/NCORE).     |
|      This setting can  greatly improve the performance of VASP for DFT.     |
|      The default,   NCORE=1            might be grossly inefficient         |
|      on modern multi-core architectures or massively parallel machines.     |
|      Do your own testing !!!!                                               |
|      Unfortunately you need to use the default for GW and RPA calculations. |
|      (for HF NCORE is supported but not extensively tested yet)             |
|                                                                             |
 ----------------------------------------------------------------------------- 

 LDA part: xc-table for Pade appr. of Perdew
 POSCAR, INCAR and KPOINTS ok, starting setup
 FFT: planning ...
 WAVECAR not read
 entering main loop
       N       E                     dE             d eps       ncg     rms          rms(c)
DAV:   1     0.139994930272E+01    0.13999E+01   -0.27449E+03   920   0.576E+02
DAV:   2    -0.100791196616E+02   -0.11479E+02   -0.11071E+02  1304   0.644E+01
DAV:   3    -0.102099162191E+02   -0.13080E+00   -0.13065E+00  1152   0.864E+00
DAV:   4    -0.102103367752E+02   -0.42056E-03   -0.42054E-03  1392   0.508E-01
DAV:   5    -0.102103370683E+02   -0.29312E-06   -0.29248E-06  1160   0.102E-02    0.154E+00
DAV:   6    -0.102019966731E+02    0.83404E-02   -0.60292E-03  1216   0.479E-01    0.950E-01
DAV:   7    -0.101968986742E+02    0.50980E-02   -0.14682E-02  1128   0.774E-01    0.606E-02
DAV:   8    -0.101968420131E+02    0.56661E-04   -0.58927E-04   664   0.175E-01
   1 F= -.10196842E+02 E0= -.10188035E+02  d E =-.101968E+02
 curvature:   0.00 expect dE= 0.000E+00 dE for cont linesearch  0.000E+00
 trial: gam= 0.00000 g(F)=  0.168E-47 g(S)=  0.000E+00 ort = 0.000E+00 (trialstep = 0.100E+01)
 search vector abs. value=  0.100E-09
 reached required accuracy - stopping structural energy minimisation
 writing wavefunctions
