    2    2   15    1
  0.1529437E+02  0.3691622E-09  0.3691622E-09  0.3691622E-09  0.5000000E-15
  1.000000000000000E-004
  CAR 
 unknown system                          
      8     99      8
 
  0.5000000E-01  0.5000000E-01  0.5000000E-01  0.8000000E-02
    1       -4.273056   1.000000
    2        4.726409   1.000000
    3        6.598786   1.000000
    4        7.730555   1.000000
    5       11.466625   0.000000
    6       15.004703   0.000000
    7       16.050771   0.000000
    8       16.981347   0.000000
 
  0.1500000E+00  0.5000000E-01  0.5000000E-01  0.1600000E-01
    1       -3.428899   1.000000
    2        4.453808   1.000000
    3        6.853594   1.000000
    4        9.128974   0.328625
    5       12.578261   0.000000
    6       13.021700   0.000000
    7       13.395224   0.000000
    8       15.365802   0.000000
 
  0.2500000E+00  0.5000000E-01  0.5000000E-01  0.1600000E-01
    1       -2.031905   1.000000
    2        4.661316   1.000000
    3        7.167909   1.000000
    4        8.577382   0.999727
    5       10.683814   0.000000
    6       11.998170   0.000000
    7       13.667664   0.000000
    8       14.417916   0.000000
 
  0.3500000E+00  0.5000000E-01  0.5000000E-01  0.1600000E-01
    1       -0.100399   1.000000
    2        5.113790   1.000000
    3        5.601510   1.000000
    4        7.591766   1.000000
    5        8.880743   0.905163
    6       11.775438   0.000000
    7       13.729799   0.000000
    8       14.161141   0.000000
 
  0.4500000E+00  0.5000000E-01  0.5000000E-01  0.8000000E-02
    1        2.088458   1.000000
    2        2.641499   1.000000
    3        6.511712   1.000000
    4        6.661819   1.000000
    5        8.800968   0.969647
    6       10.756989   0.000000
    7       13.550329   0.000000
    8       14.492949   0.000000
 
 -0.5000000E-01  0.5000000E-01  0.5000000E-01  0.4000000E-02
    1       -4.555385   1.000000
    2        5.166178   1.000000
    3        6.052123   1.000000
    4        7.414059   1.000000
    5       10.874071   0.000000
    6       15.453690   0.000000
    7       17.414748   0.000000
    8       17.984444   0.000000
 
  0.1500000E+00  0.1500000E+00  0.5000000E-01  0.8000000E-02
    1       -2.149024   1.000000
    2        4.623197   1.000000
    3        8.154607   1.000000
    4        9.056014   0.528776
    5       10.125494   0.000000
    6       10.980891   0.000000
    7       14.486621   0.000000
    8       14.501508   0.000000
 
  0.2500000E+00  0.1500000E+00  0.5000000E-01  0.1600000E-01
    1       -0.330474   1.000000
    2        5.219404   1.000000
    3        6.197160   1.000000
    4        7.124762   1.000000
    5        9.773651   0.000000
    6       12.365678   0.000000
    7       12.804165   0.000000
    8       13.667858   0.000000
 
  0.3500000E+00  0.1500000E+00  0.5000000E-01  0.1600000E-01
    1        1.958130   1.000000
    2        3.213833   1.000000
    3        5.337529   1.000000
    4        6.369027   1.000000
    5        9.862516   0.000000
    6       11.729585   0.000000
    7       12.804603   0.000000
    8       15.268546   0.000000
 
  0.4500000E+00  0.1500000E+00  0.5000000E-01  0.1600000E-01
    1        0.589110   1.000000
    2        3.898780   1.000000
    3        4.951921   1.000000
    4        7.636584   1.000000
    5        9.187531   0.195508
    6       12.159470   0.000000
    7       13.423190   0.000000
    8       15.172797   0.000000
 
 -0.4500000E+00  0.1500000E+00  0.5000000E-01  0.1600000E-01
    1       -1.446664   1.000000
    2        3.092893   1.000000
    3        7.562014   1.000000
    4        8.190440   1.000000
    5       10.326386   0.000000
    6       12.534871   0.000000
    7       12.814315   0.000000
    8       15.288670   0.000000
 
 -0.3500000E+00  0.1500000E+00  0.5000000E-01  0.1600000E-01
    1       -2.956134   1.000000
    2        2.765393   1.000000
    3        7.265710   1.000000
    4        9.801854   0.000000
    5       11.977960   0.000000
    6       12.471617   0.000000
    7       14.020173   0.000000
    8       15.493051   0.000000
 
 -0.2500000E+00  0.1500000E+00  0.5000000E-01  0.8000000E-02
    1       -3.916568   1.000000
    2        2.954918   1.000000
    3        6.927427   1.000000
    4        8.544495   0.999888
    5       13.189019   0.000000
    6       13.468091   0.000000
    7       14.941139   0.000000
    8       16.466772   0.000000
 
 -0.1500000E+00  0.1500000E+00  0.5000000E-01  0.8000000E-02
    1       -4.317319   1.000000
    2        3.618794   1.000000
    3        6.084467   1.000000
    4        8.459647   0.999991
    5       12.186782   0.000000
    6       13.677739   0.000000
    7       16.234042   0.000000
    8       19.089904   0.000000
 
 -0.5000000E-01  0.1500000E+00  0.5000000E-01  0.8000000E-02
    1       -4.154210   1.000000
    2        4.404601   1.000000
    3        5.685049   1.000000
    4        8.851557   0.935483
    5       11.993362   0.000000
    6       13.799067   0.000000
    7       15.893048   0.000000
    8       17.513088   0.000000
 
  0.2500000E+00  0.2500000E+00  0.5000000E-01  0.8000000E-02
    1        1.864557   1.000000
    2        4.135056   1.000000
    3        4.218229   1.000000
    4        6.291212   1.000000
    5       10.508166   0.000000
    6       11.654093   0.000000
    7       13.495186   0.000000
    8       14.165437   0.000000
 
  0.3500000E+00  0.2500000E+00  0.5000000E-01  0.1600000E-01
    1        1.498460   1.000000
    2        2.615038   1.000000
    3        4.708171   1.000000
    4        7.611412   1.000000
    5        9.779601   0.000000
    6       11.150997   0.000000
    7       14.814435   0.000000
    8       15.733904   0.000000
 
  0.4500000E+00  0.2500000E+00  0.5000000E-01  0.1600000E-01
    1       -0.632405   1.000000
    2        1.653755   1.000000
    3        7.730637   1.000000
    4        8.345738   1.000000
    5        9.921163   0.000000
    6       11.644671   0.000000
    7       13.404435   0.000000
    8       15.392634   0.000000
 
 -0.4500000E+00  0.2500000E+00  0.5000000E-01  0.1600000E-01
    1       -2.250135   1.000000
    2        1.209379   1.000000
    3        7.900287   1.000000
    4       10.308365   0.000000
    5       11.040073   0.000000
    6       12.077456   0.000000
    7       13.433384   0.000000
    8       14.445783   0.000000
 
 -0.3500000E+00  0.2500000E+00  0.5000000E-01  0.8000000E-02
    1       -3.324434   1.000000
    2        1.299537   1.000000
    3        7.474378   1.000000
    4        9.274098   0.070795
    5       11.780813   0.000000
    6       13.606375   0.000000
    7       15.381072   0.000000
    8       16.061075   0.000000
 
 -0.2500000E+00  0.2500000E+00  0.5000000E-01  0.8000000E-02
    1       -3.842374   1.000000
    2        1.913089   1.000000
    3        6.509608   1.000000
    4        9.220750   0.137269
    5       11.984834   0.000000
    6       14.369112   0.000000
    7       14.740927   0.000000
    8       19.067497   0.000000
 
 -0.1500000E+00  0.2500000E+00  0.5000000E-01  0.1600000E-01
    1       -3.798315   1.000000
    2        2.993303   1.000000
    3        5.657090   1.000000
    4        9.898170   0.000000
    5       12.112428   0.000000
    6       13.586443   0.000000
    7       15.285580   0.000000
    8       16.940079   0.000000
 
 -0.5000000E-01  0.2500000E+00  0.5000000E-01  0.8000000E-02
    1       -3.192667   1.000000
    2        4.172392   1.000000
    3        5.633740   1.000000
    4       10.297282   0.000000
    5       12.318636   0.000000
    6       12.566261   0.000000
    7       13.747278   0.000000
    8       15.052479   0.000000
 
  0.3500000E+00  0.3500000E+00  0.5000000E-01  0.8000000E-02
    1        0.400688   1.000000
    2        0.408742   1.000000
    3        7.670948   1.000000
    4        8.735949   0.990239
    5        9.617062   0.000049
    6       11.223785   0.000000
    7       14.019184   0.000000
    8       14.790985   0.000000
 
  0.4500000E+00  0.3500000E+00  0.5000000E-01  0.1600000E-01
    1       -1.315228   1.000000
    2       -0.158209   1.000000
    3        8.731407   0.991046
    4        9.718916   0.000002
    5       10.910926   0.000000
    6       12.112595   0.000000
    7       13.158670   0.000000
    8       13.485662   0.000000
 
 -0.4500000E+00  0.3500000E+00  0.5000000E-01  0.8000000E-02
    1       -2.499897   1.000000
    2       -0.177023   1.000000
    3        8.237744   1.000000
    4       10.109941   0.000000
    5       10.411746   0.000000
    6       12.306177   0.000000
    7       15.791080   0.000000
    8       15.810746   0.000000
 
 -0.3500000E+00  0.3500000E+00  0.5000000E-01  0.8000000E-02
    1       -3.133074   1.000000
    2        0.345488   1.000000
    3        7.171314   1.000000
    4       10.006809   0.000000
    5       10.470859   0.000000
    6       13.323769   0.000000
    7       16.871147   0.000000
    8       18.841372   0.000000
 
 -0.2500000E+00  0.3500000E+00  0.5000000E-01  0.1600000E-01
    1       -3.207257   1.000000
    2        1.390695   1.000000
    3        6.158097   1.000000
    4       10.509028   0.000000
    5       10.715202   0.000000
    6       14.400528   0.000000
    7       15.711064   0.000000
    8       16.191696   0.000000
 
 -0.1500000E+00  0.3500000E+00  0.5000000E-01  0.1600000E-01
    1       -2.721540   1.000000
    2        2.892179   1.000000
    3        5.632801   1.000000
    4       10.465881   0.000000
    5       11.069166   0.000000
    6       12.684574   0.000000
    7       14.575422   0.000000
    8       15.784572   0.000000
 
 -0.5000000E-01  0.3500000E+00  0.5000000E-01  0.8000000E-02
    1       -1.681288   1.000000
    2        4.464671   1.000000
    3        6.003327   1.000000
    4        7.937616   1.000000
    5       10.895925   0.000000
    6       12.946261   0.000000
    7       13.685056   0.000000
    8       13.819653   0.000000
 
  0.4500000E+00  0.4500000E+00  0.5000000E-01  0.4000000E-02
    1       -1.448077   1.000000
    2       -1.448077   1.000000
    3        9.214046   0.147950
    4        9.214047   0.147950
    5       11.134138   0.000000
    6       11.134139   0.000000
    7       15.732880   0.000000
    8       15.732881   0.000000
 
 -0.4500000E+00  0.4500000E+00  0.5000000E-01  0.8000000E-02
    1       -2.193543   1.000000
    2       -1.030405   1.000000
    3        8.056050   1.000000
    4        9.158053   0.258062
    5       10.940173   0.000000
    6       12.047688   0.000000
    7       18.556709   0.000000
    8       18.668297   0.000000
 
 -0.3500000E+00  0.4500000E+00  0.5000000E-01  0.1600000E-01
    1       -2.384515   1.000000
    2       -0.070949   1.000000
    3        6.921689   1.000000
    4        9.119423   0.353393
    5       11.522371   0.000000
    6       13.509514   0.000000
    7       15.334204   0.000000
    8       16.754997   0.000000
 
 -0.2500000E+00  0.4500000E+00  0.5000000E-01  0.1600000E-01
    1       -2.018423   1.000000
    2        1.405568   1.000000
    3        6.216851   1.000000
    4        9.399006   0.009308
    5       10.549022   0.000000
    6       13.281238   0.000000
    7       14.330931   0.000000
    8       16.319200   0.000000
 
 -0.1500000E+00  0.4500000E+00  0.5000000E-01  0.1600000E-01
    1       -1.099549   1.000000
    2        3.319241   1.000000
    3        6.061328   1.000000
    4        7.441923   1.000000
    5       10.024427   0.000000
    6       12.418635   0.000000
    7       14.358233   0.000000
    8       15.170883   0.000000
 
 -0.5000000E-01  0.4500000E+00  0.5000000E-01  0.8000000E-02
    1        0.357559   1.000000
    2        4.560837   1.000000
    3        5.434141   1.000000
    4        6.785050   1.000000
    5        9.255559   0.090318
    6       11.740727   0.000000
    7       12.401862   0.000000
    8       15.595467   0.000000
 
 -0.4500000E+00 -0.4500000E+00  0.5000000E-01  0.8000000E-02
    1       -1.336631   1.000000
    2       -1.335066   1.000000
    3        7.903850   1.000000
    4        7.922732   1.000000
    5       12.291564   0.000000
    6       12.673464   0.000000
    7       15.157061   0.000000
    8       16.731139   0.000000
 
 -0.3500000E+00 -0.4500000E+00  0.5000000E-01  0.1600000E-01
    1       -1.088449   1.000000
    2        0.059260   1.000000
    3        7.072588   1.000000
    4        8.148052   1.000000
    5       10.389378   0.000000
    6       14.020807   0.000000
    7       14.189308   0.000000
    8       15.327102   0.000000
 
 -0.2500000E+00 -0.4500000E+00  0.5000000E-01  0.1600000E-01
    1       -0.291469   1.000000
    2        1.958179   1.000000
    3        6.665000   1.000000
    4        7.181658   1.000000
    5        8.842793   0.942934
    6       12.064703   0.000000
    7       15.333264   0.000000
    8       16.449046   0.000000
 
 -0.1500000E+00 -0.4500000E+00  0.5000000E-01  0.1600000E-01
    1        1.037894   1.000000
    2        3.984000   1.000000
    3        4.553107   1.000000
    4        6.940028   1.000000
    5        9.133148   0.318026
    6       11.174674   0.000000
    7       12.842751   0.000000
    8       16.686513   0.000000
 
 -0.5000000E-01 -0.4500000E+00  0.5000000E-01  0.8000000E-02
    1        1.730611   1.000000
    2        2.994446   1.000000
    3        6.587961   1.000000
    4        7.697114   1.000000
    5        7.890657   1.000000
    6       10.528206   0.000000
    7       12.458903   0.000000
    8       15.530115   0.000000
 
 -0.3500000E+00 -0.3500000E+00  0.5000000E-01  0.8000000E-02
    1        0.725926   1.000000
    2        0.742582   1.000000
    3        6.911723   1.000000
    4        7.601304   1.000000
    5        7.885971   1.000000
    6       11.947563   0.000000
    7       15.923631   0.000000
    8       16.937652   0.000000
 
 -0.2500000E+00 -0.3500000E+00  0.5000000E-01  0.1600000E-01
    1        1.927534   1.000000
    2        2.994505   1.000000
    3        4.095137   1.000000
    4        7.585560   1.000000
    5        8.548006   0.999876
    6       10.554135   0.000000
    7       14.411490   0.000000
    8       16.215128   0.000000
 
 -0.1500000E+00 -0.3500000E+00  0.5000000E-01  0.1600000E-01
    1        1.415646   1.000000
    2        3.740042   1.000000
    3        5.784055   1.000000
    4        7.494253   1.000000
    5        8.679406   0.996883
    6       10.945737   0.000000
    7       11.690493   0.000000
    8       15.078673   0.000000
 
 -0.5000000E-01 -0.3500000E+00  0.5000000E-01  0.8000000E-02
    1       -0.563035   1.000000
    2        5.883727   1.000000
    3        6.649942   1.000000
    4        7.716530   1.000000
    5        8.653345   0.998247
    6       11.171745   0.000000
    7       12.800391   0.000000
    8       14.026574   0.000000
 
 -0.2500000E+00 -0.2500000E+00  0.5000000E-01  0.8000000E-02
    1        1.306609   1.000000
    2        4.671712   1.000000
    3        4.723365   1.000000
    4        7.502137   1.000000
    5        9.140170   0.300530
    6       10.421099   0.000000
    7       12.797439   0.000000
    8       13.663289   0.000000
 
 -0.1500000E+00 -0.2500000E+00  0.5000000E-01  0.1600000E-01
    1       -0.795161   1.000000
    2        6.649458   1.000000
    3        6.914767   1.000000
    4        7.597467   1.000000
    5        9.115328   0.364213
    6       11.566994   0.000000
    7       11.624223   0.000000
    8       12.743959   0.000000
 
 -0.5000000E-01 -0.2500000E+00  0.5000000E-01  0.8000000E-02
    1       -2.384378   1.000000
    2        6.025259   1.000000
    3        7.197989   1.000000
    4        8.988530   0.708625
    5       10.651897   0.000000
    6       11.490864   0.000000
    7       12.960415   0.000000
    8       14.275084   0.000000
 
 -0.1500000E+00 -0.1500000E+00  0.5000000E-01  0.8000000E-02
    1       -2.502085   1.000000
    2        6.329648   1.000000
    3        7.966314   1.000000
    4        8.856952   0.930533
    5       10.463512   0.000000
    6       11.038122   0.000000
    7       13.024379   0.000000
    8       13.741366   0.000000
 
 -0.5000000E-01 -0.1500000E+00  0.5000000E-01  0.8000000E-02
    1       -3.665907   1.000000
    2        5.978111   1.000000
    3        6.816944   1.000000
    4        8.146243   1.000000
    5       11.745565   0.000000
    6       13.333453   0.000000
    7       13.698803   0.000000
    8       16.053432   0.000000
 
 -0.5000000E-01 -0.5000000E-01  0.5000000E-01  0.2000000E-02
    1       -4.392072   1.000000
    2        6.392524   1.000000
    3        6.489195   1.000000
    4        6.489195   1.000000
    5       10.738328   0.000000
    6       16.250404   0.000000
    7       16.476320   0.000000
    8       17.315407   0.000000
 
  0.1500000E+00  0.1500000E+00  0.1500000E+00  0.8000000E-02
    1       -1.562705   1.000000
    2        3.002994   1.000000
    3        8.340869   1.000000
    4        8.856345   0.931104
    5       10.062140   0.000000
    6       11.322066   0.000000
    7       13.978262   0.000000
    8       14.712806   0.000000
 
  0.2500000E+00  0.1500000E+00  0.1500000E+00  0.1600000E-01
    1        0.362787   1.000000
    2        3.736566   1.000000
    3        5.772335   1.000000
    4        6.771403   1.000000
    5       10.513183   0.000000
    6       13.191675   0.000000
    7       13.636919   0.000000
    8       14.475358   0.000000
 
  0.3500000E+00  0.1500000E+00  0.1500000E+00  0.8000000E-02
    1        2.548270   1.000000
    2        3.067352   1.000000
    3        4.896249   1.000000
    4        5.216348   1.000000
    5       11.142782   0.000000
    6       12.868856   0.000000
    7       14.061164   0.000000
    8       14.315923   0.000000
 
 -0.1500000E+00  0.1500000E+00  0.1500000E+00  0.4000000E-02
    1       -4.080000   1.000000
    2        3.330621   1.000000
    3        4.828898   1.000000
    4       10.021483   0.000000
    5       11.950530   0.000000
    6       13.008799   0.000000
    7       17.804126   0.000000
    8       17.889800   0.000000
 
  0.2500000E+00  0.2500000E+00  0.1500000E+00  0.8000000E-02
    1        2.617820   1.000000
    2        3.765787   1.000000
    3        3.940642   1.000000
    4        5.003575   1.000000
    5       11.905848   0.000000
    6       13.281360   0.000000
    7       14.372543   0.000000
    8       14.416787   0.000000
 
  0.3500000E+00  0.2500000E+00  0.1500000E+00  0.1600000E-01
    1        1.279224   1.000000
    2        2.409694   1.000000
    3        5.558930   1.000000
    4        6.584146   1.000000
    5       11.374703   0.000000
    6       12.642829   0.000000
    7       13.943234   0.000000
    8       15.007796   0.000000
 
  0.4500000E+00  0.2500000E+00  0.1500000E+00  0.8000000E-02
    1       -0.746600   1.000000
    2        1.548930   1.000000
    3        8.416418   0.999998
    4        8.617023   0.999254
    5       10.473695   0.000000
    6       11.831231   0.000000
    7       12.751221   0.000000
    8       13.981633   0.000000
 
 -0.2500000E+00  0.2500000E+00  0.1500000E+00  0.8000000E-02
    1       -3.606731   1.000000
    2        2.039209   1.000000
    3        4.823826   1.000000
    4       10.252500   0.000000
    5       11.146276   0.000000
    6       14.830956   0.000000
    7       16.540991   0.000000
    8       18.458805   0.000000
 
 -0.1500000E+00  0.2500000E+00  0.1500000E+00  0.8000000E-02
    1       -3.444240   1.000000
    2        2.788783   1.000000
    3        4.399339   1.000000
    4       10.382238   0.000000
    5       11.505366   0.000000
    6       14.621620   0.000000
    7       14.885099   0.000000
    8       18.101824   0.000000
 
  0.3500000E+00  0.3500000E+00  0.1500000E+00  0.4000000E-02
    1        0.293693   1.000000
    2        0.293693   1.000000
    3        8.472395   0.999987
    4        8.472395   0.999987
    5       11.269491   0.000000
    6       11.269494   0.000000
    7       13.050187   0.000000
    8       13.050192   0.000000
 
 -0.3500000E+00  0.3500000E+00  0.1500000E+00  0.8000000E-02
    1       -2.900334   1.000000
    2        0.542202   1.000000
    3        5.416368   1.000000
    4        8.725007   0.992084
    5       12.038112   0.000000
    6       15.248634   0.000000
    7       17.139127   0.000000
    8       18.295222   0.000000
 
 -0.2500000E+00  0.3500000E+00  0.1500000E+00  0.1600000E-01
    1       -2.856675   1.000000
    2        1.619594   1.000000
    3        4.462162   1.000000
    4        8.774462   0.980447
    5       12.483068   0.000000
    6       14.559657   0.000000
    7       16.580366   0.000000
    8       17.602255   0.000000
 
 -0.1500000E+00  0.3500000E+00  0.1500000E+00  0.8000000E-02
    1       -2.254034   1.000000
    2        2.788715   1.000000
    3        4.452782   1.000000
    4        9.238649   0.111377
    5       10.401912   0.000000
    6       14.135121   0.000000
    7       15.623730   0.000000
    8       16.229320   0.000000
 
 -0.4500000E+00  0.4500000E+00  0.1500000E+00  0.8000000E-02
    1       -1.965827   1.000000
    2       -0.812113   1.000000
    3        6.290338   1.000000
    4        7.398829   1.000000
    5       12.979165   0.000000
    6       14.048763   0.000000
    7       18.019626   0.000000
    8       18.111282   0.000000
 
 -0.3500000E+00  0.4500000E+00  0.1500000E+00  0.1600000E-01
    1       -2.040037   1.000000
    2        0.237094   1.000000
    3        5.153227   1.000000
    4        7.348148   1.000000
    5       12.973206   0.000000
    6       14.631966   0.000000
    7       16.579866   0.000000
    8       17.886880   0.000000
 
 -0.2500000E+00  0.4500000E+00  0.1500000E+00  0.1600000E-01
    1       -1.557591   1.000000
    2        1.743304   1.000000
    3        4.603586   1.000000
    4        7.770646   1.000000
    5       10.030501   0.000000
    6       15.219639   0.000000
    7       15.721331   0.000000
    8       17.636786   0.000000
 
 -0.1500000E+00  0.4500000E+00  0.1500000E+00  0.8000000E-02
    1       -0.524812   1.000000
    2        3.320771   1.000000
    3        5.003767   1.000000
    4        6.905871   1.000000
    5        8.688400   0.996226
    6       13.177757   0.000000
    7       14.734683   0.000000
    8       16.551218   0.000000
 
 -0.4500000E+00 -0.4500000E+00  0.1500000E+00  0.8000000E-02
    1       -1.004255   1.000000
    2       -1.001093   1.000000
    3        6.131474   1.000000
    4        6.135861   1.000000
    5       13.097248   0.000000
    6       14.930467   0.000000
    7       15.957079   0.000000
    8       17.916879   0.000000
 
 -0.3500000E+00 -0.4500000E+00  0.1500000E+00  0.1600000E-01
    1       -0.640039   1.000000
    2        0.480574   1.000000
    3        5.393459   1.000000
    4        6.471291   1.000000
    5        9.836560   0.000000
    6       15.458397   0.000000
    7       16.303002   0.000000
    8       17.545610   0.000000
 
 -0.2500000E+00 -0.4500000E+00  0.1500000E+00  0.1600000E-01
    1        0.270021   1.000000
    2        2.403871   1.000000
    3        5.241294   1.000000
    4        6.562577   1.000000
    5        7.372759   1.000000
    6       13.350565   0.000000
    7       15.839645   0.000000
    8       17.583449   0.000000
 
 -0.1500000E+00 -0.4500000E+00  0.1500000E+00  0.8000000E-02
    1        1.697721   1.000000
    2        3.668434   1.000000
    3        4.569851   1.000000
    4        6.031339   1.000000
    5        8.447428   0.999994
    6       11.515127   0.000000
    7       12.838277   0.000000
    8       17.058142   0.000000
 
 -0.3500000E+00 -0.3500000E+00  0.1500000E+00  0.8000000E-02
    1        1.253484   1.000000
    2        1.280393   1.000000
    3        6.012323   1.000000
    4        6.124656   1.000000
    5        6.654119   1.000000
    6       13.323136   0.000000
    7       17.207222   0.000000
    8       17.249145   0.000000
 
 -0.2500000E+00 -0.3500000E+00  0.1500000E+00  0.1600000E-01
    1        2.523842   1.000000
    2        3.336160   1.000000
    3        3.919014   1.000000
    4        6.388303   1.000000
    5        7.340847   1.000000
    6       11.648242   0.000000
    7       14.024617   0.000000
    8       15.891714   0.000000
 
 -0.1500000E+00 -0.3500000E+00  0.1500000E+00  0.8000000E-02
    1        1.080276   1.000000
    2        4.479360   1.000000
    3        6.028067   1.000000
    4        7.404852   1.000000
    5        8.406104   0.999998
    6       10.657285   0.000000
    7       11.479783   0.000000
    8       14.167449   0.000000
 
 -0.2500000E+00 -0.2500000E+00  0.1500000E+00  0.8000000E-02
    1        0.967567   1.000000
    2        5.334328   1.000000
    3        5.388779   1.000000
    4        7.673949   1.000000
    5        7.928852   1.000000
    6       10.592937   0.000000
    7       12.383476   0.000000
    8       13.029644   0.000000
 
 -0.1500000E+00 -0.2500000E+00  0.1500000E+00  0.8000000E-02
    1       -1.028200   1.000000
    2        7.463919   1.000000
    3        7.758943   1.000000
    4        8.359978   1.000000
    5        8.460051   0.999991
    6       10.548310   0.000000
    7       11.391850   0.000000
    8       11.968866   0.000000
 
 -0.1500000E+00 -0.1500000E+00  0.1500000E+00  0.2000000E-02
    1       -2.619978   1.000000
    2        7.892634   1.000000
    3        7.892635   1.000000
    4        7.899370   1.000000
    5       10.679416   0.000000
    6       11.149662   0.000000
    7       12.517623   0.000000
    8       13.350561   0.000000
 
  0.2500000E+00  0.2500000E+00  0.2500000E+00  0.2000000E-02
    1        3.399585   1.000000
    2        3.399586   1.000000
    3        4.060296   1.000000
    4        4.060296   1.000000
    5       13.208103   0.000000
    6       13.208105   0.000000
    7       15.023082   0.000000
    8       15.023087   0.000000
 
 -0.2500000E+00  0.2500000E+00  0.2500000E+00  0.4000000E-02
    1       -3.137129   1.000000
    2        1.930938   1.000000
    3        3.627745   1.000000
    4        8.538218   0.999906
    5       12.888948   0.000000
    6       16.016061   0.000000
    7       17.246592   0.000000
    8       18.275368   0.000000
 
 -0.3500000E+00  0.3500000E+00  0.2500000E+00  0.8000000E-02
    1       -2.437445   1.000000
    2        0.879920   1.000000
    3        3.776957   1.000000
    4        6.998405   1.000000
    5       14.088729   0.000000
    6       16.663364   0.000000
    7       17.701752   0.000000
    8       18.416094   0.000000
 
 -0.2500000E+00  0.3500000E+00  0.2500000E+00  0.8000000E-02
    1       -2.275973   1.000000
    2        1.617977   1.000000
    3        3.359641   1.000000
    4        7.145571   1.000000
    5       13.062283   0.000000
    6       15.450695   0.000000
    7       17.820494   0.000000
    8       18.941400   0.000000
 
 -0.4500000E+00  0.4500000E+00  0.2500000E+00  0.8000000E-02
    1       -1.515511   1.000000
    2       -0.389366   1.000000
    3        4.574636   1.000000
    4        5.668674   1.000000
    5       15.030234   0.000000
    6       15.894159   0.000000
    7       17.840805   0.000000
    8       18.056120   0.000000
 
 -0.3500000E+00  0.4500000E+00  0.2500000E+00  0.1600000E-01
    1       -1.472518   1.000000
    2        0.687489   1.000000
    3        3.606692   1.000000
    4        5.713006   1.000000
    5       12.977347   0.000000
    6       16.533214   0.000000
    7       18.680531   0.000000
    8       19.100230   0.000000
 
 -0.2500000E+00  0.4500000E+00  0.2500000E+00  0.8000000E-02
    1       -0.874385   1.000000
    2        1.853960   1.000000
    3        3.608560   1.000000
    4        6.263240   1.000000
    5        9.638656   0.000026
    6       16.453243   0.000000
    7       17.467940   0.000000
    8       17.979368   0.000000
 
 -0.4500000E+00 -0.4500000E+00  0.2500000E+00  0.8000000E-02
    1       -0.466492   1.000000
    2       -0.461599   1.000000
    3        4.510805   1.000000
    4        4.511802   1.000000
    5       12.918484   0.000000
    6       17.231881   0.000000
    7       18.044787   0.000000
    8       19.143185   0.000000
 
 -0.3500000E+00 -0.4500000E+00  0.2500000E+00  0.1600000E-01
    1        0.013780   1.000000
    2        1.044957   1.000000
    3        3.958844   1.000000
    4        4.966099   1.000000
    5        9.435734   0.004490
    6       16.863130   0.000000
    7       18.351812   0.000000
    8       19.060517   0.000000
 
 -0.2500000E+00 -0.4500000E+00  0.2500000E+00  0.8000000E-02
    1        1.034900   1.000000
    2        2.625380   1.000000
    3        4.373573   1.000000
    4        5.853988   1.000000
    5        6.381520   1.000000
    6       14.533224   0.000000
    7       16.013194   0.000000
    8       18.129285   0.000000
 
 -0.3500000E+00 -0.3500000E+00  0.2500000E+00  0.8000000E-02
    1        1.920359   1.000000
    2        1.962123   1.000000
    3        4.805789   1.000000
    4        4.828691   1.000000
    5        6.217127   1.000000
    6       14.851301   0.000000
    7       16.916538   0.000000
    8       17.345945   0.000000
 
 -0.2500000E+00 -0.3500000E+00  0.2500000E+00  0.8000000E-02
    1        2.977505   1.000000
    2        3.576113   1.000000
    3        4.147338   1.000000
    4        5.630544   1.000000
    5        6.194271   1.000000
    6       12.935570   0.000000
    7       14.027269   0.000000
    8       15.059029   0.000000
 
 -0.2500000E+00 -0.2500000E+00  0.2500000E+00  0.2000000E-02
    1        0.854004   1.000000
    2        5.774997   1.000000
    3        5.867478   1.000000
    4        7.263770   1.000000
    5        7.263770   1.000000
    6       11.589366   0.000000
    7       12.247154   0.000000
    8       12.247158   0.000000
 