   2   2   0   0
  0.2001288E+02  0.3839590E-09  0.3839590E-09  0.3839590E-09  0.5000000E-15
  1.000000000000000E-004
  CAR 
 unknown system                          
     17.67318202     -8.10905798  301      6.11971982      1.00000000
     -8.109  0.0000E+00  0.0000E+00
     -8.023  0.0000E+00  0.0000E+00
     -7.937  0.0000E+00  0.0000E+00
     -7.851  0.0000E+00  0.0000E+00
     -7.765  0.0000E+00  0.0000E+00
     -7.679  0.0000E+00  0.0000E+00
     -7.593  0.0000E+00  0.0000E+00
     -7.507  0.0000E+00  0.0000E+00
     -7.422  0.0000E+00  0.0000E+00
     -7.336  0.0000E+00  0.0000E+00
     -7.250  0.6978E-18  0.5997E-19
     -7.164  0.8712E-16  0.7547E-17
     -7.078  0.7491E-14  0.6513E-15
     -6.992  0.4517E-12  0.3947E-13
     -6.906  0.1913E-10  0.1684E-11
     -6.820  0.5711E-09  0.5077E-10
     -6.734  0.1206E-07  0.1087E-08
     -6.648  0.1810E-06  0.1664E-07
     -6.562  0.1941E-05  0.1834E-06
     -6.476  0.1498E-04  0.1471E-05
     -6.390  0.8399E-04  0.8689E-05
     -6.304  0.3464E-03  0.3846E-04
     -6.218  0.1070E-02  0.1304E-03
     -6.132  0.2536E-02  0.3484E-03
     -6.046  0.4767E-02  0.7581E-03
     -5.961  0.7411E-02  0.1395E-02
     -5.875  0.1000E-01  0.2254E-02
     -5.789  0.1228E-01  0.3310E-02
     -5.703  0.1422E-01  0.4532E-02
     -5.617  0.1592E-01  0.5900E-02
     -5.531  0.1749E-01  0.7403E-02
     -5.445  0.1898E-01  0.9034E-02
     -5.359  0.2030E-01  0.1078E-01
     -5.273  0.2157E-01  0.1263E-01
     -5.187  0.2299E-01  0.1461E-01
     -5.101  0.2434E-01  0.1670E-01
     -5.015  0.2539E-01  0.1888E-01
     -4.929  0.2647E-01  0.2116E-01
     -4.843  0.2794E-01  0.2356E-01
     -4.757  0.2949E-01  0.2609E-01
     -4.671  0.3065E-01  0.2873E-01
     -4.585  0.3152E-01  0.3144E-01
     -4.500  0.3269E-01  0.3425E-01
     -4.414  0.3460E-01  0.3722E-01
     -4.328  0.3676E-01  0.4038E-01
     -4.242  0.3824E-01  0.4367E-01
     -4.156  0.3927E-01  0.4704E-01
     -4.070  0.4115E-01  0.5058E-01
     -3.984  0.4452E-01  0.5440E-01
     -3.898  0.4866E-01  0.5858E-01
     -3.812  0.5238E-01  0.6309E-01
     -3.726  0.5454E-01  0.6777E-01
     -3.640  0.5464E-01  0.7247E-01
     -3.554  0.5369E-01  0.7708E-01
     -3.468  0.5308E-01  0.8165E-01
     -3.382  0.5257E-01  0.8616E-01
     -3.296  0.5132E-01  0.9057E-01
     -3.210  0.4915E-01  0.9480E-01
     -3.124  0.4586E-01  0.9874E-01
     -3.039  0.4191E-01  0.1023E+00
     -2.953  0.3951E-01  0.1057E+00
     -2.867  0.4001E-01  0.1092E+00
     -2.781  0.4113E-01  0.1127E+00
     -2.695  0.3925E-01  0.1161E+00
     -2.609  0.3384E-01  0.1190E+00
     -2.523  0.2789E-01  0.1214E+00
     -2.437  0.2478E-01  0.1235E+00
     -2.351  0.2517E-01  0.1257E+00
     -2.265  0.2625E-01  0.1279E+00
     -2.179  0.2439E-01  0.1300E+00
     -2.093  0.1872E-01  0.1316E+00
     -2.007  0.1162E-01  0.1326E+00
     -1.921  0.6341E-02  0.1332E+00
     -1.835  0.5060E-02  0.1336E+00
     -1.749  0.8520E-02  0.1344E+00
     -1.663  0.1535E-01  0.1357E+00
     -1.578  0.2167E-01  0.1375E+00
     -1.492  0.2389E-01  0.1396E+00
     -1.406  0.2270E-01  0.1415E+00
     -1.320  0.2295E-01  0.1435E+00
     -1.234  0.2986E-01  0.1461E+00
     -1.148  0.4534E-01  0.1500E+00
     -1.062  0.6511E-01  0.1556E+00
     -0.976  0.7976E-01  0.1624E+00
     -0.890  0.8234E-01  0.1695E+00
     -0.804  0.7488E-01  0.1759E+00
     -0.718  0.6468E-01  0.1815E+00
     -0.632  0.5660E-01  0.1864E+00
     -0.546  0.5154E-01  0.1908E+00
     -0.460  0.4907E-01  0.1950E+00
     -0.374  0.4719E-01  0.1991E+00
     -0.288  0.4314E-01  0.2028E+00
     -0.203  0.3765E-01  0.2060E+00
     -0.117  0.3414E-01  0.2089E+00
     -0.031  0.3277E-01  0.2118E+00
      0.055  0.3078E-01  0.2144E+00
      0.141  0.2836E-01  0.2168E+00
      0.227  0.2830E-01  0.2193E+00
      0.313  0.2992E-01  0.2218E+00
      0.399  0.2908E-01  0.2243E+00
      0.485  0.2479E-01  0.2265E+00
      0.571  0.2103E-01  0.2283E+00
      0.657  0.2079E-01  0.2301E+00
      0.743  0.2212E-01  0.2320E+00
      0.829  0.2146E-01  0.2338E+00
      0.915  0.1881E-01  0.2354E+00
      1.001  0.1737E-01  0.2369E+00
      1.087  0.1854E-01  0.2385E+00
      1.173  0.2001E-01  0.2402E+00
      1.258  0.1974E-01  0.2419E+00
      1.344  0.1987E-01  0.2436E+00
      1.430  0.2474E-01  0.2458E+00
      1.516  0.3597E-01  0.2489E+00
      1.602  0.5076E-01  0.2532E+00
      1.688  0.6383E-01  0.2587E+00
      1.774  0.7081E-01  0.2648E+00
      1.860  0.7187E-01  0.2710E+00
      1.946  0.7115E-01  0.2771E+00
      2.032  0.7151E-01  0.2832E+00
      2.118  0.7177E-01  0.2894E+00
      2.204  0.7000E-01  0.2954E+00
      2.290  0.6735E-01  0.3012E+00
      2.376  0.6697E-01  0.3069E+00
      2.462  0.7004E-01  0.3130E+00
      2.548  0.7424E-01  0.3193E+00
      2.634  0.7680E-01  0.3259E+00
      2.719  0.7795E-01  0.3326E+00
      2.805  0.7993E-01  0.3395E+00
      2.891  0.8407E-01  0.3467E+00
      2.977  0.9015E-01  0.3545E+00
      3.063  0.9631E-01  0.3628E+00
      3.149  0.9976E-01  0.3713E+00
      3.235  0.9910E-01  0.3799E+00
      3.321  0.9595E-01  0.3881E+00
      3.407  0.9346E-01  0.3961E+00
      3.493  0.9326E-01  0.4042E+00
      3.579  0.9382E-01  0.4122E+00
      3.665  0.9245E-01  0.4202E+00
      3.751  0.8909E-01  0.4278E+00
      3.837  0.8637E-01  0.4352E+00
      3.923  0.8558E-01  0.4426E+00
      4.009  0.8514E-01  0.4499E+00
      4.095  0.8373E-01  0.4571E+00
      4.180  0.8198E-01  0.4642E+00
      4.266  0.8061E-01  0.4711E+00
      4.352  0.7914E-01  0.4779E+00
      4.438  0.7670E-01  0.4845E+00
      4.524  0.7313E-01  0.4908E+00
      4.610  0.6909E-01  0.4967E+00
      4.696  0.6434E-01  0.5022E+00
      4.782  0.5748E-01  0.5072E+00
      4.868  0.4889E-01  0.5114E+00
      4.954  0.4133E-01  0.5149E+00
      5.040  0.3644E-01  0.5180E+00
      5.126  0.3315E-01  0.5209E+00
      5.212  0.2966E-01  0.5234E+00
      5.298  0.2561E-01  0.5256E+00
      5.384  0.2175E-01  0.5275E+00
      5.470  0.1858E-01  0.5291E+00
      5.556  0.1577E-01  0.5305E+00
      5.641  0.1273E-01  0.5316E+00
      5.727  0.9332E-02  0.5324E+00
      5.813  0.5976E-02  0.5329E+00
      5.899  0.3232E-02  0.5332E+00
      5.985  0.1422E-02  0.5333E+00
      6.071  0.5044E-03  0.5333E+00
      6.157  0.2343E-03  0.5333E+00
      6.243  0.4960E-03  0.5334E+00
      6.329  0.1490E-02  0.5335E+00
      6.415  0.3510E-02  0.5338E+00
      6.501  0.6584E-02  0.5344E+00
      6.587  0.1058E-01  0.5353E+00
      6.673  0.1538E-01  0.5366E+00
      6.759  0.2033E-01  0.5384E+00
      6.845  0.2427E-01  0.5404E+00
      6.931  0.2676E-01  0.5427E+00
      7.017  0.2881E-01  0.5452E+00
      7.102  0.3211E-01  0.5480E+00
      7.188  0.3709E-01  0.5512E+00
      7.274  0.4187E-01  0.5548E+00
      7.360  0.4491E-01  0.5586E+00
      7.446  0.4757E-01  0.5627E+00
      7.532  0.5171E-01  0.5672E+00
      7.618  0.5717E-01  0.5721E+00
      7.704  0.6344E-01  0.5775E+00
      7.790  0.7075E-01  0.5836E+00
      7.876  0.7900E-01  0.5904E+00
      7.962  0.8770E-01  0.5979E+00
      8.048  0.9569E-01  0.6062E+00
      8.134  0.1002E+00  0.6148E+00
      8.220  0.9977E-01  0.6233E+00
      8.306  0.9723E-01  0.6317E+00
      8.392  0.9515E-01  0.6399E+00
      8.478  0.9233E-01  0.6478E+00
      8.563  0.8722E-01  0.6553E+00
      8.649  0.8135E-01  0.6623E+00
      8.735  0.7737E-01  0.6689E+00
      8.821  0.7673E-01  0.6755E+00
      8.907  0.8066E-01  0.6825E+00
      8.993  0.9067E-01  0.6903E+00
      9.079  0.1056E+00  0.6993E+00
      9.165  0.1198E+00  0.7096E+00
      9.251  0.1276E+00  0.7206E+00
      9.337  0.1274E+00  0.7315E+00
      9.423  0.1213E+00  0.7420E+00
      9.509  0.1129E+00  0.7517E+00
      9.595  0.1055E+00  0.7607E+00
      9.681  0.1008E+00  0.7694E+00
      9.767  0.9737E-01  0.7778E+00
      9.853  0.9344E-01  0.7858E+00
      9.939  0.8922E-01  0.7935E+00
     10.024  0.8612E-01  0.8009E+00
     10.110  0.8452E-01  0.8081E+00
     10.196  0.8365E-01  0.8153E+00
     10.282  0.8297E-01  0.8224E+00
     10.368  0.8295E-01  0.8296E+00
     10.454  0.8366E-01  0.8368E+00
     10.540  0.8383E-01  0.8440E+00
     10.626  0.8300E-01  0.8511E+00
     10.712  0.8249E-01  0.8582E+00
     10.798  0.8296E-01  0.8653E+00
     10.884  0.8310E-01  0.8725E+00
     10.970  0.8224E-01  0.8795E+00
     11.056  0.8175E-01  0.8866E+00
     11.142  0.8151E-01  0.8936E+00
     11.228  0.7876E-01  0.9003E+00
     11.314  0.7345E-01  0.9066E+00
     11.400  0.6992E-01  0.9126E+00
     11.485  0.7078E-01  0.9187E+00
     11.571  0.7328E-01  0.9250E+00
     11.657  0.7433E-01  0.9314E+00
     11.743  0.7442E-01  0.9378E+00
     11.829  0.7409E-01  0.9442E+00
     11.915  0.7192E-01  0.9504E+00
     12.001  0.6770E-01  0.9562E+00
     12.087  0.6293E-01  0.9616E+00
     12.173  0.5870E-01  0.9666E+00
     12.259  0.5630E-01  0.9715E+00
     12.345  0.5766E-01  0.9764E+00
     12.431  0.6236E-01  0.9818E+00
     12.517  0.6646E-01  0.9875E+00
     12.603  0.6638E-01  0.9932E+00
     12.689  0.6198E-01  0.9985E+00
     12.775  0.5476E-01  0.1003E+01
     12.860  0.4638E-01  0.1007E+01
     12.946  0.3977E-01  0.1011E+01
     13.032  0.3824E-01  0.1014E+01
     13.118  0.4172E-01  0.1018E+01
     13.204  0.4654E-01  0.1022E+01
     13.290  0.4922E-01  0.1026E+01
     13.376  0.4837E-01  0.1030E+01
     13.462  0.4411E-01  0.1034E+01
     13.548  0.3796E-01  0.1037E+01
     13.634  0.3231E-01  0.1040E+01
     13.720  0.2866E-01  0.1042E+01
     13.806  0.2658E-01  0.1044E+01
     13.892  0.2526E-01  0.1047E+01
     13.978  0.2537E-01  0.1049E+01
     14.064  0.2740E-01  0.1051E+01
     14.150  0.2847E-01  0.1054E+01
     14.236  0.2477E-01  0.1056E+01
     14.321  0.1709E-01  0.1057E+01
     14.407  0.1001E-01  0.1058E+01
     14.493  0.6684E-02  0.1059E+01
     14.579  0.6632E-02  0.1059E+01
     14.665  0.7887E-02  0.1060E+01
     14.751  0.9547E-02  0.1061E+01
     14.837  0.1154E-01  0.1062E+01
     14.923  0.1263E-01  0.1063E+01
     15.009  0.1109E-01  0.1064E+01
     15.095  0.7321E-02  0.1064E+01
     15.181  0.3702E-02  0.1065E+01
     15.267  0.1936E-02  0.1065E+01
     15.353  0.2016E-02  0.1065E+01
     15.439  0.3002E-02  0.1065E+01
     15.525  0.3890E-02  0.1066E+01
     15.611  0.4092E-02  0.1066E+01
     15.697  0.3514E-02  0.1066E+01
     15.782  0.2415E-02  0.1066E+01
     15.868  0.1276E-02  0.1067E+01
     15.954  0.4992E-03  0.1067E+01
     16.040  0.1413E-03  0.1067E+01
     16.126  0.2854E-04  0.1067E+01
     16.212  0.4082E-05  0.1067E+01
     16.298  0.4117E-06  0.1067E+01
     16.384  0.2918E-07  0.1067E+01
     16.470  0.1450E-08  0.1067E+01
     16.556  0.5047E-10  0.1067E+01
     16.642  0.1227E-11  0.1067E+01
     16.728  0.2083E-13  0.1067E+01
     16.814  0.2458E-15  0.1067E+01
     16.900  0.2392E-17  0.1067E+01
     16.986  0.0000E+00  0.1067E+01
     17.072  0.0000E+00  0.1067E+01
     17.158  0.0000E+00  0.1067E+01
     17.243  0.0000E+00  0.1067E+01
     17.329  0.0000E+00  0.1067E+01
     17.415  0.0000E+00  0.1067E+01
     17.501  0.0000E+00  0.1067E+01
     17.587  0.0000E+00  0.1067E+01
     17.673  0.0000E+00  0.1067E+01
