unknown system                          
   1.00000000000000     
    -2.429598    2.429598    1.338146
     2.429598   -2.429598    1.338146
     2.429598    2.429598   -1.338146
   Si
     2
Direct
  0.750000  0.250000  0.500000
  0.500000  0.500000  0.000000
 
   36   36   36
  9.7203      9.6506      9.4481      9.1299      8.7212      8.2495      7.7405      7.2156      6.6909      6.1792    
  5.6916      5.2388      4.8315      4.4788      4.1871      3.9602      3.7991      3.7031      3.6713      3.7031    
  3.7991      3.9602      4.1871      4.4788      4.8315      5.2388      5.6916      6.1792      6.6909      7.2156    
  7.7405      8.2495      8.7212      9.1299      9.4481      9.6507      9.6507      9.8051      9.8183      9.6933    
  9.4446      9.0943      8.6676      8.1883      7.6764      7.1480      6.6168      6.0964      5.6007      5.1437    
  4.7377      4.3918      4.1112      3.8979      3.7516      3.6711      3.6556      3.7049      3.8198      4.0009    
  4.2478      4.5580      4.9271      5.3489      5.8162      6.3214      6.8555      7.4071      7.9594      8.4892    
  8.9679      9.3646      9.4481      9.8183      10.054      10.142      10.084      9.8923      9.5871      9.1924    
  8.7306      8.2205      7.6778      7.1169      6.5533      6.0041      5.4870      5.0180      4.6092      4.2681    
  3.9981      3.7995      3.6707      3.6105      3.6181      3.6937      3.8376      4.0497      4.3287      4.6719    
  5.0760      5.5370      6.0502      6.6089      7.2019      7.8110      8.4105      8.9679      9.1299      9.6933    
  10.142      10.449      10.600      10.593      10.443      10.169      9.7950      9.3416      8.8259      8.2620    
  7.6642      7.0495      6.4381      5.8519      5.3113      4.8325      4.4260      4.0966      3.8453      3.6703    
  3.5695      3.5413      3.5851      3.7007      3.8882      4.1473      4.4774      4.8778      5.3477      5.8848    
  6.4837      7.1326      7.8110      8.4892      8.7212      9.4446      10.084      10.600      10.961      11.155    
  11.182      11.057      10.802      10.441      9.9913      9.4673      8.8797      8.2413      7.5700      6.8895    
  6.2269      5.6082      5.0544      4.5795      4.1902      3.8877      3.6700      3.5338      3.4764      3.4961    
  3.5925      3.7657      4.0165      4.3465      4.7578      5.2522      5.8293      6.4837      7.2019      7.9594    
  8.2495      9.0943      9.8923      10.593      11.155      11.547      11.754      11.781      11.658      11.415    
  11.074      10.643      10.118      9.5088      8.8290      8.0979      7.3436      6.5995      5.8984      5.2671    
  4.7233      4.2757      3.9255      3.6700      3.5044      3.4248      3.4285      3.5144      3.6834      3.9376    
  4.2807      4.7176      5.2522      5.8848      6.6089      7.4071      7.7405      8.6676      9.5871      10.443    
  11.182      11.754      12.116      12.268      12.247      12.106      11.886      11.598      11.225      10.740    
  10.127      9.4075      8.6153      7.7844      6.9562      6.1713      5.4628      4.8524      4.3502      3.9576    
  3.6703      3.4821      3.3875      3.3830      3.4673      3.6421      3.9112      4.2807      4.7578      5.3477    
  6.0502      6.8555      7.2156      8.1883      9.1924      10.169      11.057      11.781      12.268      12.501    
  12.523      12.416      12.260      12.096      11.917      11.667      11.277      10.703      9.9576      9.1043    
  8.1962      7.2839      6.4166      5.6341      4.9619      4.4113      3.9829      3.6708      3.4671      3.3650    
  3.3601      3.4516      3.6421      3.9376      4.3465      4.8778      5.5370      6.3214      6.6909      7.6764    
  8.7306      9.7950      10.802      11.658      12.247      12.523      12.524      12.354      12.146      12.003    
  11.960      11.968      11.919      11.689      11.202      10.459      9.5482      8.5641      7.5702      6.6250    
  5.7747      5.0479      4.4567      4.0003      3.6712      3.4596      3.3575      3.3601      3.4673      3.6834    
  4.0165      4.4774      5.0760      5.8162      6.1792      7.1480      8.2205      9.3416      10.441      11.415    
  12.106      12.417      12.354      12.032      11.632      11.339      11.271      11.438      11.729      11.964    
  11.960      11.603      10.891      9.9320      8.8747      7.8044      6.7885      5.8791      5.1072      4.4846    
  4.0092      3.6713      3.4596      3.3650      3.3830      3.5144      3.7657      4.1473      4.6719      5.3489    
  5.6916      6.6168      7.6778      8.8259      9.9913      11.074      11.886      12.260      12.146      11.632    
  10.927      10.295      9.9698      10.070      10.552      11.225      11.823      12.097      11.901      11.238    
  10.243      9.1172      7.9779      6.9011      5.9434      5.1374      4.4941      4.0092      3.6712      3.4671    
  3.3875      3.4285      3.5925      3.8882      4.3287      4.9271      5.2388      6.0964      7.1169      8.2620    
  9.4673      10.643      11.598      12.096      12.003      11.339      10.295      9.1876      8.3655      8.0981    
  8.4782      9.3858      10.529      11.546      12.127      12.105      11.495      10.472      9.2835      8.0846    
  6.9584      5.9651      5.1374      4.4846      4.0003      3.6708      3.4821      3.4248      3.4961      3.7007    
  4.0497      4.5580      4.8315      5.6007      6.5533      7.6642      8.8797      10.118      11.225      11.917    
  11.960      11.271      9.9698      8.3655      6.8878      5.9616      5.8689      6.6481      8.0770      9.7485    
  11.208      12.092      12.230      11.664      10.611      9.3679      8.1205      6.9584      5.9434      5.1072    
  4.4567      3.9829      3.6703      3.5044      3.4764      3.5851      3.8376      4.2478      4.4788      5.1437    
  6.0041      7.0495      8.2413      9.5088      10.740      11.667      11.969      11.438      10.070      8.0981    
  5.9616      4.1988      3.2906      3.5014      4.7846      6.7959      9.0098      10.889      12.038      12.296    
  11.747      10.657      9.3679      8.0846      6.9011      5.8791      5.0479      4.4113      3.9576      3.6700    
  3.5338      3.5413      3.6937      4.0009      4.1871      4.7377      5.4870      6.4381      7.5700      8.8290    
  10.127      11.277      11.919      11.729      10.552      8.4782      5.8689      3.2906      1.3746     0.62711    
  1.2605      3.1168      5.7202      8.4354      10.663      12.000      12.316      11.747      10.611      9.2835    
  7.9779      6.7885      5.7747      4.9619      4.3502      3.9255      3.6700      3.5695      3.6181      3.8198    
  3.9602      4.3918      5.0180      5.8519      6.8895      8.0979      9.4075      10.703      11.689      11.964    
  11.225      9.3858      6.6481      3.5014     0.62712     -1.2800     -1.7256     -.58273      1.8617      5.0044    
  8.1216      10.582      12.000      12.296      11.664      10.472      9.1172      7.8044      6.6250      5.6341    
  4.8524      4.2757      3.8877      3.6703      3.6105      3.7049      3.7991      4.1112      4.6092      5.3113    
  6.2269      7.3436      8.6153      9.9576      11.202      11.960      11.823      10.529      8.0770      4.7846    
  1.2605     -1.7256     -3.4539     -3.4819     -1.7946      1.1881      4.7535      8.1216      10.663      12.038    
  12.230      11.495      10.243      8.8747      7.5702      6.4166      5.4628      4.7233      4.1902      3.8453    
  3.6707      3.6556      3.7031      3.8979      4.2681      4.8325      5.6082      6.5995      7.7844      9.1043    
  10.459      11.603      12.097      11.546      9.7485      6.7959      3.1168     -.58275     -3.4819     -4.8795    
 -4.4204     -2.2171      1.1881      5.0044      8.4354      10.889      12.092      12.105      11.238      9.9320    
  8.5641      7.2839      6.1713      5.2671      4.5795      4.0966      3.7995      3.6711      3.6713      3.7516    
  3.9982      4.4260      5.0545      5.8984      6.9562      8.1963      9.5482      10.891      11.901      12.127    
  11.208      9.0098      5.7202      1.8617     -1.7946     -4.4204     -5.3759     -4.4204     -1.7946      1.8617    
  5.7202      9.0098      11.208      12.127      11.901      10.891      9.5482      8.1962      6.9562      5.8984    
  5.0544      4.4260      3.9981      3.7516      3.7031      3.6711      3.7995      4.0967      4.5795      5.2671    
  6.1713      7.2839      8.5641      9.9319      11.237      12.105      12.092      10.889      8.4354      5.0044    
  1.1881     -2.2171     -4.4204     -4.8795     -3.4819     -.58273      3.1168      6.7959      9.7485      11.546    
  12.097      11.603      10.459      9.1043      7.7844      6.5995      5.6082      4.8325      4.2681      3.8979    
  3.7991      3.6556      3.6707      3.8453      4.1902      4.7233      5.4628      6.4166      7.5702      8.8747    
  10.243      11.495      12.230      12.038      10.663      8.1216      4.7534      1.1881     -1.7946     -3.4819    
 -3.4539     -1.7256      1.2605      4.7846      8.0770      10.529      11.823      11.960      11.202      9.9576    
  8.6153      7.3436      6.2269      5.3113      4.6092      4.1112      3.9602      3.7049      3.6105      3.6703    
  3.8877      4.2757      4.8524      5.6341      6.6250      7.8044      9.1172      10.472      11.664      12.296    
  12.000      10.582      8.1216      5.0044      1.8617     -.58275     -1.7256     -1.2800     0.62711      3.5014    
  6.6481      9.3858      11.225      11.964      11.689      10.703      9.4075      8.0979      6.8895      5.8519    
  5.0180      4.3918      4.1871      3.8198      3.6181      3.5695      3.6700      3.9256      4.3503      4.9619    
  5.7747      6.7885      7.9779      9.2834      10.611      11.747      12.316      12.000      10.663      8.4354    
  5.7202      3.1168      1.2605     0.62712      1.3746      3.2906      5.8689      8.4782      10.552      11.729    
  11.919      11.277      10.127      8.8290      7.5700      6.4381      5.4870      4.7377      4.4788      4.0009    
  3.6937      3.5413      3.5338      3.6700      3.9577      4.4113      5.0479      5.8791      6.9011      8.0845    
  9.3679      10.657      11.747      12.296      12.038      10.889      9.0098      6.7959      4.7846      3.5014    
  3.2906      4.1988      5.9616      8.0981      10.070      11.438      11.968      11.667      10.740      9.5088    
  8.2413      7.0495      6.0041      5.1437      4.8315      4.2478      3.8376      3.5851      3.4764      3.5045    
  3.6703      3.9829      4.4567      5.1072      5.9433      6.9584      8.1205      9.3679      10.611      11.664    
  12.230      12.092      11.208      9.7485      8.0770      6.6481      5.8689      5.9616      6.8878      8.3655    
  9.9698      11.271      11.960      11.917      11.225      10.118      8.8797      7.6642      6.5533      5.6007    
  5.2388      4.5580      4.0497      3.7007      3.4962      3.4248      3.4821      3.6708      4.0003      4.4846    
  5.1374      5.9650      6.9584      8.0845      9.2834      10.472      11.495      12.105      12.127      11.546    
  10.529      9.3858      8.4782      8.0981      8.3655      9.1876      10.295      11.339      12.003      12.096    
  11.598      10.643      9.4673      8.2620      7.1169      6.0964      5.6916      4.9271      4.3286      3.8882    
  3.5925      3.4285      3.3876      3.4672      3.6712      4.0092      4.4941      5.1374      5.9433      6.9011    
  7.9779      9.1172      10.243      11.237      11.901      12.097      11.823      11.225      10.552      10.070    
  9.9698      10.295      10.927      11.632      12.146      12.260      11.886      11.074      9.9913      8.8259    
  7.6778      6.6168      6.1792      5.3489      4.6719      4.1473      3.7657      3.5144      3.3830      3.3650    
  3.4597      3.6714      4.0092      4.4846      5.1072      5.8791      6.7885      7.8044      8.8747      9.9319    
  10.891      11.603      11.960      11.964      11.729      11.438      11.271      11.339      11.632      12.032    
  12.354      12.416      12.106      11.415      10.441      9.3416      8.2205      7.1480      6.6909      5.8162    
  5.0759      4.4774      4.0165      3.6834      3.4673      3.3602      3.3575      3.4597      3.6712      4.0003    
  4.4567      5.0479      5.7747      6.6250      7.5702      8.5641      9.5482      10.459      11.202      11.689    
  11.919      11.969      11.960      12.003      12.146      12.354      12.524      12.523      12.247      11.658    
  10.802      9.7950      8.7306      7.6764      7.2156      6.3213      5.5370      4.8778      4.3465      3.9375    
  3.6421      3.4516      3.3602      3.3650      3.4672      3.6708      3.9829      4.4113      4.9619      5.6341    
  6.4166      7.2839      8.1963      9.1043      9.9576      10.703      11.277      11.667      11.917      12.096    
  12.260      12.417      12.523      12.501      12.268      11.781      11.057      10.169      9.1924      8.1883    
  7.7405      6.8555      6.0502      5.3477      4.7578      4.2807      3.9111      3.6421      3.4673      3.3830    
  3.3876      3.4821      3.6703      3.9577      4.3503      4.8524      5.4628      6.1713      6.9562      7.7844    
  8.6153      9.4075      10.127      10.740      11.225      11.598      11.886      12.106      12.247      12.268    
  12.116      11.754      11.182      10.443      9.5871      8.6676      8.2495      7.4071      6.6089      5.8848    
  5.2522      4.7176      4.2807      3.9375      3.6834      3.5144      3.4285      3.4248      3.5045      3.6700    
  3.9256      4.2757      4.7233      5.2671      5.8984      6.5995      7.3436      8.0979      8.8290      9.5088    
  10.118      10.643      11.074      11.415      11.658      11.781      11.754      11.547      11.155      10.593    
  9.8923      9.0943      8.7212      7.9594      7.2019      6.4837      5.8293      5.2522      4.7578      4.3465    
  4.0165      3.7657      3.5925      3.4962      3.4764      3.5338      3.6700      3.8877      4.1902      4.5795    
  5.0545      5.6082      6.2269      6.8895      7.5700      8.2413      8.8797      9.4673      9.9913      10.441    
  10.802      11.057      11.182      11.155      10.961      10.600      10.084      9.4446      9.1299      8.4892    
  7.8110      7.1326      6.4837      5.8848      5.3477      4.8778      4.4774      4.1473      3.8882      3.7007    
  3.5851      3.5413      3.5695      3.6703      3.8453      4.0967      4.4260      4.8325      5.3113      5.8519    
  6.4381      7.0495      7.6642      8.2620      8.8259      9.3416      9.7950      10.169      10.443      10.593    
  10.600      10.449      10.142      9.6933      9.4481      8.9679      8.4105      7.8110      7.2019      6.6089    
  6.0502      5.5370      5.0759      4.6719      4.3286      4.0497      3.8376      3.6937      3.6181      3.6105    
  3.6707      3.7995      3.9982      4.2681      4.6092      5.0180      5.4870      6.0041      6.5533      7.1169    
  7.6778      8.2205      8.7306      9.1924      9.5871      9.8923      10.084      10.142      10.054      9.8183    
  9.6506      9.3646      8.9679      8.4892      7.9594      7.4071      6.8555      6.3213      5.8162      5.3489    
  4.9271      4.5580      4.2478      4.0009      3.8198      3.7049      3.6556      3.6711      3.7516      3.8979    
  4.1112      4.3918      4.7377      5.1437      5.6007      6.0964      6.6168      7.1480      7.6764      8.1883    
  8.6676      9.0943      9.4446      9.6933      9.8183      9.8051      9.6507      9.5407      9.3109      8.9789    
  8.5689      8.1076      7.6196      7.1248      6.6376      6.1689      5.7272      5.3212      4.9594      4.6494    
  4.3972      4.2064      4.0783      4.0127      4.0092      4.0675      4.1882      4.3719      4.6186      4.9259    
  5.2888      5.6987      6.1447      6.6146      7.0967      7.5795      8.0516      8.4988      8.9028      9.2418    
  9.4923      9.6332      9.5407      9.6507      9.6332      9.4923      9.2418      8.9028      8.4988      8.0516    
  7.5795      7.0967      6.6146      6.1447      5.6987      5.2888      4.9259      4.6186      4.3719      4.1882    
  4.0675      4.0092      4.0127      4.0783      4.2064      4.3972      4.6494      4.9593      5.3212      5.7272    
  6.1689      6.6376      7.1248      7.6196      8.1076      8.5689      8.9789      9.3109      9.2948      9.6166    
  9.8183      9.8888      9.8287      9.6494      9.3693      9.0096      8.5901      8.1276      7.6359      7.1276    
  6.6165      6.1178      5.6476      5.2205      4.8481      4.5376      4.2926      4.1137      4.0003      3.9514    
  3.9667      4.0463      4.1904      4.3982      4.6674      4.9944      5.3743      5.8020      6.2723      6.7784    
  7.3104      7.8528      8.3834      8.8742      8.9322      9.4435      9.8553      10.142      10.291      10.299    
  10.178      9.9435      9.6155      9.2122      8.7487      8.2377      7.6927      7.1294      6.5669      6.0255    
  5.5242      5.0783      4.6977      4.3878      4.1498      3.9829      3.8856      3.8568      3.8962      4.0034    
  4.1781      4.4191      4.7247      5.0931      5.5224      6.0098      6.5505      7.1342      7.7439      8.3539    
  8.4799      9.1476      9.7466      10.240      10.600      10.811      10.872      10.793      10.592      10.285    
  9.8900      9.4183      8.8811      8.2916      7.6676      7.0321      6.4103      5.8267      5.3010      4.8466    
  4.4704      4.1745      3.9576      3.8176      3.7521      3.7599      3.8404      3.9932      4.2185      4.5167    
  4.8886      5.3351      5.8558      6.4464      7.0957      7.7835      7.9680      8.7531      9.5063      10.182    
  10.741      11.155      11.409      11.502      11.449      11.269      10.980      10.592      10.109      9.5426    
  8.9039      8.2130      7.4974      6.7885      6.1171      5.5080      4.9785      4.5374      4.1870      3.9256    
  3.7494      3.6552      3.6405      3.7042      3.8464      4.0684      4.3729      4.7633      5.2428      5.8125    
  6.4675      7.1942      7.4245      8.2871      9.1566      9.9833      10.718      11.319      11.754      12.006    
  12.090      12.038      11.880      11.625      11.267      10.791      10.198      9.5077      8.7461      7.9458    
  7.1458      6.3839      5.6911      5.0883      4.5862      4.1870      3.8877      3.6832      3.5686      3.5403    
  3.5970      3.7394      3.9704      4.2947      4.7183      5.2462      5.8795      6.6116      6.8727      7.7757    
  8.7234      9.6648      10.544      11.307      11.894      12.268      12.446      12.477      12.417      12.299    
  12.119      11.839      11.413      10.820      10.081      9.2470      8.3602      7.4681      6.6166      5.8430    
  5.1719      4.6151      4.1745      3.8453      3.6206      3.4940      3.4611      3.5204      3.6736      3.9253    
  4.2827      4.7536      5.3441      6.0540      6.3304      7.2408      8.2313      9.2522      10.243      11.140    
  11.850      12.309      12.523      12.559      12.510      12.455      12.423      12.379      12.242      11.923    
  11.372      10.603      9.6970      8.7244      7.7425      6.8057      5.9575      5.2258      4.6231      4.1498    
  3.7995      3.5633      3.4331      3.4042      3.4753      3.6495      3.9335      4.3365      4.8681      5.5338    
  5.8107      6.7002      7.7016      8.7692      9.8420      10.847      11.665      12.189      12.395      12.354    
  12.197      12.066      12.058      12.182      12.355      12.437      12.287      11.821      11.051      10.079    
  9.0243      7.9581      6.9437      6.0303      5.2482      4.6097      4.1137      3.7516      3.5125      3.3873    
  3.3707      3.4626      3.6676      3.9948      4.4554      5.0595      5.3244      6.1682      7.1516      8.2361    
  9.3623      10.455      11.380      11.976      12.169      12.004      11.632      11.261      11.080      11.190    
  11.561      12.043      12.420      12.494      12.152      11.405      10.380      9.2489      8.1068      7.0255    
  6.0586      5.2381      4.5755      4.0675      3.7031      3.4698      3.3575      3.3614      3.4826      3.7280    
  4.1088      4.6377      4.8809      5.6576      6.5967      7.6695      8.8223      9.9809      11.018      11.721    
  11.944      11.672      11.039      10.295      9.7266      9.5613      9.8840      10.603      11.481      12.220    
  12.559      12.364      11.655      10.590      9.3904      8.1835      7.0481      6.0416      5.1962      4.5219    
  4.0127      3.6556      3.4363      3.3448      3.3769      3.5357      3.8303      4.2742      4.4890      5.1808    
  6.0517      7.0845      8.2360      9.4361      10.578      11.432      11.768      11.479      10.635      9.4789    
  8.3656      7.6574      7.6025      8.2457      9.4092      10.754      11.892      12.514      12.470      11.801    
  10.703      9.4449      8.1861      7.0114      5.9803      5.1244      4.4509      3.9514      3.6105      3.4133    
  3.3498      3.4174      3.6214      3.9735      4.1557      4.7496      5.5316      6.4971      7.6170      8.8316    
  10.052      11.081      11.623      11.460      10.554      9.0767      7.3920      5.9616      5.2087      5.3770    
  6.4437      8.1249      9.9712      11.514      12.402      12.489      11.846      10.717      9.4118      8.1155    
  6.9174      5.8775      5.0254      4.3652      3.8856      3.5695      3.4016      3.3728      3.4825      3.7387    
  3.8858      4.3737      5.0511      5.9250      6.9819      8.1780      9.4366      10.623      11.432      11.547    
  10.792      9.2117      7.0985      4.9389      3.2906      2.6139      3.1182      4.6877      6.9193      9.2568    
  11.163      12.268      12.442      11.800      10.635      9.2939      7.9752      6.7701      5.7374      4.9032    
  4.2679      3.8176      3.5338      3.4016      3.4134      3.5712      3.6817      4.0598      4.6229      5.3862    
  6.3508      7.4919      8.7502      10.030      11.104      11.600      11.211      9.8183      7.5707      4.8832    
  2.3583     0.62715     0.15562      1.0884      3.1973      5.9586      8.7230      10.908      12.145      12.344    
  11.669      10.461      9.0964      7.7709      6.5755      5.5655      4.7623      4.1624      3.7495      3.5045    
  3.4133      3.4708      3.5434      3.8114      4.2564      4.8972      5.7461      6.7967      8.0117      9.3162    
  10.579      11.470      11.591      10.665      8.6530      5.8106      2.6721     -.64043E-01 -1.7255     -1.8760    
 -.46209      2.1672      5.3781      8.4525      10.792      12.055      12.202      11.457      10.203      8.8269    
  7.5106      6.3410      5.3681      4.6076      4.0521      3.6832      3.4821      3.4363      3.4698      3.6293    
  3.9568      4.4705      5.1889      6.1201      7.2488      8.5249      9.8591      11.057      11.716      11.440    
  10.003      7.4510      4.1481     0.73066     -2.0378     -3.4819     -3.2288     -1.3345      1.7351      5.2589    
  8.4833      10.825      11.994      12.014      11.166      9.8678      8.4952      7.2038      6.0753      5.1523    
  4.4445      3.9405      3.6207      3.4671      3.4596      3.5125      3.7260      4.1140      4.6960      5.4891    
  6.4961      7.6924      9.0155      10.359      11.454      11.862      11.213      9.3416      6.3846      2.8022    
 -.69428     -3.3147     -4.4204     -3.7299     -1.4150      1.9580      5.6139      8.8010      10.983      11.941    
  11.769      10.799      9.4678      8.1126      6.8616      5.7879      4.9257      4.2782      3.8307      3.5633    
  3.5125      3.4596      3.5633      3.8307      4.2782      4.9257      5.7879      6.8616      8.1126      9.4678    
  10.799      11.769      11.941      10.983      8.8010      5.6139      1.9580     -1.4150     -3.7299     -4.4204    
 -3.3147     -.69429      2.8022      6.3846      9.3416      11.213      11.862      11.454      10.359      9.0155    
  7.6924      6.4961      5.4891      4.6960      4.1140      3.7260      3.6293      3.4698      3.4671      3.6206    
  3.9405      4.4445      5.1523      6.0753      7.2038      8.4951      9.8677      11.166      12.014      11.994    
  10.825      8.4833      5.2589      1.7351     -1.3345     -3.2288     -3.4819     -2.0378     0.73064      4.1481    
  7.4510      10.003      11.440      11.716      11.057      9.8591      8.5250      7.2488      6.1201      5.1889    
  4.4705      3.9568      3.8114      3.5434      3.4363      3.4821      3.6832      4.0522      4.6076      5.3680    
  6.3410      7.5106      8.8269      10.203      11.457      12.202      12.055      10.792      8.4525      5.3780    
  2.1672     -.46213     -1.8760     -1.7256     -.64095E-01  2.6721      5.8106      8.6530      10.665      11.591    
  11.470      10.579      9.3162      8.0117      6.7967      5.7461      4.8972      4.2564      4.0597      3.6817    
  3.4708      3.4133      3.5045      3.7495      4.1624      4.7623      5.5655      6.5755      7.7709      9.0964    
  10.461      11.669      12.344      12.145      10.908      8.7229      5.9586      3.1973      1.0883     0.15556    
 0.62708      2.3582      4.8831      7.5707      9.8183      11.211      11.600      11.104      10.030      8.7502    
  7.4919      6.3508      5.3862      4.6229      4.3737      3.8858      3.5712      3.4134      3.4016      3.5338    
  3.8176      4.2679      4.9032      5.7374      6.7701      7.9751      9.2939      10.635      11.800      12.442    
  12.268      11.163      9.2568      6.9193      4.6877      3.1182      2.6139      3.2906      4.9389      7.0984    
  9.2117      10.792      11.547      11.432      10.623      9.4366      8.1780      6.9819      5.9250      5.0510    
  4.7496      4.1556      3.7387      3.4825      3.3728      3.4016      3.5695      3.8856      4.3652      5.0254    
  5.8775      6.9174      8.1155      9.4118      10.717      11.846      12.489      12.402      11.514      9.9712    
  8.1248      6.4437      5.3769      5.2086      5.9615      7.3919      9.0767      10.554      11.460      11.623    
  11.081      10.052      8.8316      7.6170      6.4971      5.5315      5.1808      4.4890      3.9735      3.6214    
  3.4174      3.3498      3.4134      3.6106      3.9514      4.4509      5.1244      5.9803      7.0114      8.1861    
  9.4448      10.703      11.801      12.470      12.514      11.892      10.754      9.4092      8.2457      7.6025    
  7.6573      8.3655      9.4788      10.635      11.479      11.768      11.432      10.578      9.4362      8.2360    
  7.0845      6.0517      5.6576      4.8809      4.2742      3.8303      3.5357      3.3770      3.3448      3.4364    
  3.6556      4.0128      4.5219      5.1962      6.0416      7.0481      8.1835      9.3904      10.590      11.655    
  12.364      12.559      12.220      11.481      10.603      9.8840      9.5612      9.7266      10.295      11.039    
  11.672      11.944      11.721      11.018      9.9809      8.8223      7.6695      6.5967      6.1681      5.3244    
  4.6377      4.1087      3.7280      3.4826      3.3614      3.3575      3.4698      3.7032      4.0675      4.5755    
  5.2381      6.0586      7.0255      8.1068      9.2489      10.380      11.405      12.152      12.494      12.420    
  12.043      11.561      11.190      11.080      11.261      11.632      12.004      12.169      11.976      11.380    
  10.455      9.3623      8.2361      7.1516      6.7002      5.8107      5.0595      4.4554      3.9948      3.6676    
  3.4626      3.3707      3.3873      3.5125      3.7516      4.1137      4.6097      5.2482      6.0303      6.9437    
  7.9581      9.0244      10.079      11.051      11.821      12.287      12.437      12.355      12.182      12.058    
  12.066      12.197      12.354      12.395      12.189      11.665      10.847      9.8420      8.7692      7.7016    
  7.2408      6.3304      5.5337      4.8680      4.3365      3.9335      3.6495      3.4753      3.4042      3.4332    
  3.5633      3.7995      4.1498      4.6231      5.2258      5.9575      6.8057      7.7425      8.7245      9.6971    
  10.603      11.372      11.923      12.242      12.379      12.423      12.455      12.510      12.559      12.523    
  12.309      11.850      11.140      10.243      9.2522      8.2313      7.7757      6.8727      6.0539      5.3440    
  4.7536      4.2827      3.9253      3.6736      3.5204      3.4611      3.4940      3.6206      3.8453      4.1745    
  4.6151      5.1719      5.8430      6.6166      7.4681      8.3603      9.2471      10.081      10.820      11.413    
  11.839      12.119      12.299      12.417      12.477      12.446      12.268      11.894      11.307      10.544    
  9.6648      8.7234      8.2871      7.4245      6.6116      5.8795      5.2462      4.7183      4.2947      3.9704    
  3.7394      3.5970      3.5403      3.5686      3.6832      3.8877      4.1870      4.5862      5.0883      5.6911    
  6.3839      7.1458      7.9459      8.7461      9.5077      10.198      10.791      11.267      11.625      11.880    
  12.038      12.090      12.006      11.754      11.319      10.718      9.9833      9.1566      8.7531      7.9680    