unknown system                          
   1.00000000000000     
    -2.429598    2.429598    1.338146
     2.429598   -2.429598    1.338146
     2.429598    2.429598   -1.338146
   Si
     2
Direct
  0.750000  0.250000  0.500000
  0.500000  0.500000  0.000000
 
   36   36   36
 0.97202653446E+01 0.96506472375E+01 0.94480642326E+01 0.91299465103E+01 0.87212197566E+01
 0.82494792881E+01 0.77405224583E+01 0.72155904799E+01 0.66909275193E+01 0.61792077213E+01
 0.56915584595E+01 0.52388357152E+01 0.48315435759E+01 0.44787821020E+01 0.41871390341E+01
 0.39602356638E+01 0.37990997859E+01 0.37031319002E+01 0.36712994942E+01 0.37031311440E+01
 0.37990998841E+01 0.39602386005E+01 0.41871445141E+01 0.44787866380E+01 0.48315447354E+01
 0.52388364947E+01 0.56915635515E+01 0.61792163813E+01 0.66909342581E+01 0.72155920681E+01
 0.77405204811E+01 0.82494765967E+01 0.87212181758E+01 0.91299477280E+01 0.94480686811E+01
 0.96506516726E+01 0.96506516726E+01 0.98051212793E+01 0.98183143709E+01 0.96933061149E+01
 0.94445664003E+01 0.90942891702E+01 0.86676156533E+01 0.81883381595E+01 0.76764432895E+01
 0.71480069089E+01 0.66168269767E+01 0.60963757479E+01 0.56006935223E+01 0.51437320644E+01
 0.47377413018E+01 0.43917914164E+01 0.41111895434E+01 0.38978959953E+01 0.37516136569E+01
 0.36711410925E+01 0.36555676908E+01 0.37048792417E+01 0.38197829826E+01 0.40009022011E+01
 0.42477597791E+01 0.45579953215E+01 0.49271214632E+01 0.53489227203E+01 0.58162248039E+01
 0.63213528490E+01 0.68555373902E+01 0.74071242745E+01 0.79593699402E+01 0.84891770713E+01
 0.89679113224E+01 0.93645801315E+01 0.94480686811E+01 0.98183174968E+01 0.10053987163E+02
 0.10142388668E+02 0.10084258482E+02 0.98922634722E+01 0.95870828953E+01 0.91924086850E+01
 0.87306138418E+01 0.82205331183E+01 0.76777953521E+01 0.71168832630E+01 0.65532652143E+01
 0.60040916843E+01 0.54870223411E+01 0.50179815517E+01 0.46091562808E+01 0.42681141901E+01
 0.39981499317E+01 0.37994700154E+01 0.36707362874E+01 0.36105093490E+01 0.36181135687E+01
 0.36936948938E+01 0.38376293363E+01 0.40497228926E+01 0.43286510253E+01 0.46718705272E+01
 0.50759559370E+01 0.55369692068E+01 0.60502244375E+01 0.66089339585E+01 0.72018728058E+01
 0.78110150289E+01 0.84104957431E+01 0.89679113224E+01 0.91299477280E+01 0.96933084050E+01
 0.10142389929E+02 0.10449382188E+02 0.10599720725E+02 0.10593393929E+02 0.10442999679E+02
 0.10169181427E+02 0.97950403543E+01 0.93415868901E+01 0.88258534384E+01 0.82620014935E+01
 0.76642425307E+01 0.70495027639E+01 0.64380765705E+01 0.58518705789E+01 0.53113060395E+01
 0.48325214962E+01 0.44259786343E+01 0.40966383498E+01 0.38452692766E+01 0.36702763984E+01
 0.35694771590E+01 0.35412874230E+01 0.35850543729E+01 0.37007156989E+01 0.38882491938E+01
 0.41473435798E+01 0.44774251212E+01 0.48778372521E+01 0.53476907624E+01 0.58848402083E+01
 0.64837407939E+01 0.71326121835E+01 0.78110150289E+01 0.84891770713E+01 0.87212181758E+01
 0.94445662077E+01 0.10084258805E+02 0.10599720420E+02 0.10961367600E+02 0.11154822909E+02
 0.11181730096E+02 0.11056658732E+02 0.10801990933E+02 0.10440763946E+02 0.99912733589E+01
 0.94672682456E+01 0.88797321852E+01 0.82413347230E+01 0.75700008227E+01 0.68895148163E+01
 0.62269260544E+01 0.56082303789E+01 0.50544422308E+01 0.45794856835E+01 0.41901659204E+01
 0.38877008982E+01 0.36699799461E+01 0.35337884190E+01 0.34763810858E+01 0.34961355319E+01
 0.35924938549E+01 0.37656694746E+01 0.40165088482E+01 0.43465329823E+01 0.47578155002E+01
 0.52521735336E+01 0.58292785996E+01 0.64837407939E+01 0.72018728058E+01 0.79593699402E+01
 0.82494765967E+01 0.90942874171E+01 0.98922630571E+01 0.10593393311E+02 0.11154821722E+02
 0.11547161977E+02 0.11753797715E+02 0.11781272911E+02 0.11657655771E+02 0.11414955745E+02
 0.11074480814E+02 0.10642520955E+02 0.10118299509E+02 0.95088282187E+01 0.88289910959E+01
 0.80978722601E+01 0.73435662084E+01 0.65994943828E+01 0.58984276576E+01 0.52671111404E+01
 0.47233142964E+01 0.42756603486E+01 0.39255420539E+01 0.36699870049E+01 0.35044482893E+01
 0.34248250491E+01 0.34284705169E+01 0.35144284106E+01 0.36833680495E+01 0.39375512478E+01
 0.42807455161E+01 0.47176281830E+01 0.52521735336E+01 0.58848402083E+01 0.66089339585E+01
 0.74071242745E+01 0.77405204811E+01 0.86676132986E+01 0.95870824018E+01 0.10443000267E+02
 0.11181729488E+02 0.11753796276E+02 0.12116110304E+02 0.12268093930E+02 0.12247354357E+02
 0.12106265308E+02 0.11885701856E+02 0.11597685928E+02 0.11225230976E+02 0.10739672822E+02
 0.10126935075E+02 0.94074799007E+01 0.86152568463E+01 0.77844269432E+01 0.69562176217E+01
 0.61713004974E+01 0.54627701045E+01 0.48523523822E+01 0.43502461125E+01 0.39576282589E+01
 0.36702945574E+01 0.34821125629E+01 0.33875357972E+01 0.33829803530E+01 0.34673372738E+01
 0.36420694873E+01 0.39111641163E+01 0.42807455161E+01 0.47578155002E+01 0.53476907624E+01
 0.60502244375E+01 0.68555373902E+01 0.72155920681E+01 0.81883367306E+01 0.91924076347E+01
 0.10169183005E+02 0.11056660838E+02 0.11781272898E+02 0.12268092879E+02 0.12500732225E+02
 0.12523403716E+02 0.12416499791E+02 0.12259572170E+02 0.12096368140E+02 0.11917142874E+02
 0.11666919354E+02 0.11276604579E+02 0.10702776769E+02 0.99575865409E+01 0.91043081224E+01
 0.81962483443E+01 0.72838715886E+01 0.64165956365E+01 0.56341159320E+01 0.49619128202E+01
 0.44113268558E+01 0.39828679413E+01 0.36707603689E+01 0.34671269263E+01 0.33650169765E+01
 0.33601411166E+01 0.34516040243E+01 0.36420694873E+01 0.39375512478E+01 0.43465329823E+01
 0.48778372521E+01 0.55369692068E+01 0.63213528490E+01 0.66909342581E+01 0.76764456284E+01
 0.87306130700E+01 0.97950410120E+01 0.10801994697E+02 0.11657659401E+02 0.12247355490E+02
 0.12523403923E+02 0.12523703566E+02 0.12353988414E+02 0.12145530987E+02 0.12002581225E+02
 0.11959818100E+02 0.11968493031E+02 0.11918736152E+02 0.11689070234E+02 0.11201601864E+02
 0.10459261953E+02 0.95481948712E+01 0.85640830347E+01 0.75701575158E+01 0.66249819925E+01
 0.57746680089E+01 0.50479369700E+01 0.44566917999E+01 0.40003064874E+01 0.36711690862E+01
 0.34596207830E+01 0.33574914314E+01 0.33601411166E+01 0.34673372738E+01 0.36833680495E+01
 0.40165088482E+01 0.44774251212E+01 0.50759559370E+01 0.58162248039E+01 0.61792163813E+01
 0.71480136560E+01 0.82205354618E+01 0.93415868695E+01 0.10440766753E+02 0.11414961730E+02
 0.12106270512E+02 0.12416502979E+02 0.12353991004E+02 0.12032186546E+02 0.11632106649E+02
 0.11338568878E+02 0.11271267586E+02 0.11437693613E+02 0.11729294374E+02 0.11964370093E+02
 0.11959969306E+02 0.11602669508E+02 0.10890534326E+02 0.99319645335E+01 0.88747127871E+01
 0.78043771843E+01 0.67885335660E+01 0.58790762507E+01 0.51071839094E+01 0.44846351383E+01
 0.40092223489E+01 0.36713303896E+01 0.34596207830E+01 0.33650169765E+01 0.33829803530E+01
 0.35144284106E+01 0.37656694746E+01 0.41473435798E+01 0.46718705272E+01 0.53489227203E+01
 0.56915635515E+01 0.66168337451E+01 0.76778014589E+01 0.88258555788E+01 0.99912749556E+01
 0.11074486658E+02 0.11885710207E+02 0.12259579197E+02 0.12145537397E+02 0.11632112691E+02
 0.10927013549E+02 0.10295019222E+02 0.99698319901E+01 0.10069773127E+02 0.10551752245E+02
 0.11225405120E+02 0.11823114255E+02 0.12096536193E+02 0.11900921313E+02 0.11237509107E+02
 0.10243129749E+02 0.91172492447E+01 0.79779222379E+01 0.69010776821E+01 0.59433587762E+01
 0.51373897997E+01 0.44940737105E+01 0.40092223489E+01 0.36711690862E+01 0.34671269263E+01
 0.33875357972E+01 0.34284705169E+01 0.35924938549E+01 0.38882491938E+01 0.43286510253E+01
 0.49271214632E+01 0.52388364947E+01 0.60963776325E+01 0.71168893350E+01 0.82620071425E+01
 0.94672709201E+01 0.10642525750E+02 0.11597695782E+02 0.12096378791E+02 0.12002590259E+02
 0.11338579321E+02 0.10295029112E+02 0.91875516626E+01 0.83655287213E+01 0.80980945320E+01
 0.84781946714E+01 0.93858371605E+01 0.10529089736E+02 0.11546319492E+02 0.12126901521E+02
 0.12104601963E+02 0.11494977091E+02 0.10471607878E+02 0.92834718887E+01 0.80845533582E+01
 0.69584114010E+01 0.59650624850E+01 0.51373897997E+01 0.44846351383E+01 0.40003064874E+01
 0.36707603689E+01 0.34821125629E+01 0.34248250491E+01 0.34961355319E+01 0.37007156989E+01
 0.40497228926E+01 0.45579953215E+01 0.48315447354E+01 0.56006916678E+01 0.65532675160E+01
 0.76642495794E+01 0.88797377393E+01 0.10118303801E+02 0.11225240389E+02 0.11917156959E+02
 0.11959830375E+02 0.11271278344E+02 0.99698461221E+01 0.83655414872E+01 0.68877672064E+01
 0.59615544504E+01 0.58688564979E+01 0.66480923957E+01 0.80769655758E+01 0.97484895809E+01
 0.11207633855E+02 0.12092488406E+02 0.12230222863E+02 0.11663664767E+02 0.10610772734E+02
 0.93679333520E+01 0.81205142131E+01 0.69584114010E+01 0.59433587762E+01 0.51071839094E+01
 0.44566917999E+01 0.39828679413E+01 0.36702945574E+01 0.35044482893E+01 0.34763810858E+01
 0.35850543729E+01 0.38376293363E+01 0.42477597791E+01 0.44787866380E+01 0.51437327321E+01
 0.60040914534E+01 0.70495086441E+01 0.82413432749E+01 0.95088335255E+01 0.10739679430E+02
 0.11666933699E+02 0.11968510174E+02 0.11437706094E+02 0.10069784510E+02 0.80981102547E+01
 0.59615674000E+01 0.41988159625E+01 0.32906104086E+01 0.35013766543E+01 0.47845921958E+01
 0.67959281385E+01 0.90098197517E+01 0.10888710320E+02 0.12037834500E+02 0.12296145993E+02
 0.11746754096E+02 0.10657459687E+02 0.93679333520E+01 0.80845533582E+01 0.69010776821E+01
 0.58790762507E+01 0.50479369700E+01 0.44113268558E+01 0.39576282589E+01 0.36699870049E+01
 0.35337884190E+01 0.35412874230E+01 0.36936948938E+01 0.40009022011E+01 0.41871445141E+01
 0.47377482464E+01 0.54870245632E+01 0.64380808511E+01 0.75700111108E+01 0.88289998857E+01
 0.10126939252E+02 0.11276613309E+02 0.11918754000E+02 0.11729311988E+02 0.10551762942E+02
 0.84782046287E+01 0.58688698550E+01 0.32906194833E+01 0.13746114547E+01 0.62711451409E+00
 0.12605137095E+01 0.31168376632E+01 0.57202459090E+01 0.84353815249E+01 0.10663144599E+02
 0.12000022646E+02 0.12316383889E+02 0.11746754096E+02 0.10610772734E+02 0.92834718887E+01
 0.79779222379E+01 0.67885335660E+01 0.57746680089E+01 0.49619128202E+01 0.43502461125E+01
 0.39255420539E+01 0.36699799461E+01 0.35694771590E+01 0.36181135687E+01 0.38197829826E+01
 0.39602386005E+01 0.43918022843E+01 0.50179897596E+01 0.58518752458E+01 0.68895244769E+01
 0.80978852964E+01 0.94074863555E+01 0.10702778489E+02 0.11689079724E+02 0.11964388216E+02
 0.11225419699E+02 0.93858438148E+01 0.66480980000E+01 0.35013824802E+01 0.62711539208E+00
 -.12799777176E+01 -.17255591048E+01 -.58272715471E+00 0.18617445486E+01 0.50044409933E+01
 0.81216267144E+01 0.10581892417E+02 0.12000022646E+02 0.12296145993E+02 0.11663664767E+02
 0.10471607878E+02 0.91172492447E+01 0.78043771843E+01 0.66249819925E+01 0.56341159320E+01
 0.48523523822E+01 0.42756603486E+01 0.38877008982E+01 0.36702763984E+01 0.36105093490E+01
 0.37048792417E+01 0.37990998841E+01 0.41111989919E+01 0.46091696306E+01 0.53113142278E+01
 0.62269336074E+01 0.73435798859E+01 0.86152689233E+01 0.99575876764E+01 0.11201599963E+02
 0.11959977281E+02 0.11823128301E+02 0.10529097467E+02 0.80769658203E+01 0.47845900347E+01
 0.12605072321E+01 -.17255693409E+01 -.34539454157E+01 -.34818579373E+01 -.17945747851E+01
 0.11880975264E+01 0.47534599479E+01 0.81216267144E+01 0.10663144599E+02 0.12037834500E+02
 0.12230222863E+02 0.11494977091E+02 0.10243129749E+02 0.88747127871E+01 0.75701575158E+01
 0.64165956365E+01 0.54627701045E+01 0.47233142964E+01 0.41901659204E+01 0.38452692766E+01
 0.36707362874E+01 0.36555676908E+01 0.37031311440E+01 0.38979001233E+01 0.42681281946E+01
 0.48325358208E+01 0.56082388186E+01 0.65995043136E+01 0.77844408193E+01 0.91043143188E+01
 0.10459255707E+02 0.11602663671E+02 0.12096540178E+02 0.11546324912E+02 0.97484869349E+01
 0.67959196779E+01 0.31168249925E+01 -.58274802806E+00 -.34818790480E+01 -.48794975120E+01
 -.44203628414E+01 -.22171049822E+01 0.11880975264E+01 0.50044409933E+01 0.84353815249E+01
 0.10888710320E+02 0.12092488406E+02 0.12104601963E+02 0.11237509107E+02 0.99319645335E+01
 0.85640830347E+01 0.72838715886E+01 0.61713004974E+01 0.52671111404E+01 0.45794856835E+01
 0.40966383498E+01 0.37994700154E+01 0.36711410925E+01 0.36712994942E+01 0.37516124606E+01
 0.39981588452E+01 0.44259973078E+01 0.50544575617E+01 0.58984361767E+01 0.69562270159E+01
 0.81962565876E+01 0.95481910971E+01 0.10890520899E+02 0.11900912421E+02 0.12126899302E+02
 0.11207626916E+02 0.90098043421E+01 0.57202275490E+01 0.18617211754E+01 -.17946075033E+01
 -.44203907320E+01 -.53759305642E+01 -.44203628414E+01 -.17945747851E+01 0.18617445486E+01
 0.57202459090E+01 0.90098197517E+01 0.11207633855E+02 0.12126901521E+02 0.11900921313E+02
 0.10890534326E+02 0.95481948712E+01 0.81962483443E+01 0.69562176217E+01 0.58984276576E+01
 0.50544422308E+01 0.44259786343E+01 0.39981499317E+01 0.37516136569E+01 0.37031319002E+01
 0.36711388450E+01 0.37994723003E+01 0.40966553378E+01 0.45795091544E+01 0.52671260049E+01
 0.61713064057E+01 0.72838751080E+01 0.85640801109E+01 0.99319495216E+01 0.11237491086E+02
 0.12104591374E+02 0.12092478414E+02 0.10888689510E+02 0.84353537386E+01 0.50044143316E+01
 0.11880672391E+01 -.22171423183E+01 -.44203907320E+01 -.48794975120E+01 -.34818579373E+01
 -.58272715471E+00 0.31168376632E+01 0.67959281385E+01 0.97484895809E+01 0.11546319492E+02
 0.12096536193E+02 0.11602669508E+02 0.10459261953E+02 0.91043081224E+01 0.77844269432E+01
 0.65994943828E+01 0.56082303789E+01 0.48325214962E+01 0.42681141901E+01 0.38978959953E+01
 0.37990997859E+01 0.36555695228E+01 0.36707378047E+01 0.38452815151E+01 0.41901922309E+01
 0.47233393977E+01 0.54627806141E+01 0.64165946595E+01 0.75701503501E+01 0.88746960812E+01
 0.10243105345E+02 0.11494957672E+02 0.12230211431E+02 0.12037816729E+02 0.10663112420E+02
 0.81215910697E+01 0.47534299975E+01 0.11880672391E+01 -.17946075033E+01 -.34818790480E+01
 -.34539454157E+01 -.17255591048E+01 0.12605137095E+01 0.47845921958E+01 0.80769655758E+01
 0.10529089736E+02 0.11823114255E+02 0.11959969306E+02 0.11201601864E+02 0.99575865409E+01
 0.86152568463E+01 0.73435662084E+01 0.62269260544E+01 0.53113060395E+01 0.46091562808E+01
 0.41111895434E+01 0.39602356638E+01 0.37048856293E+01 0.36105176299E+01 0.36702880783E+01
 0.38877246878E+01 0.42756913777E+01 0.48523726815E+01 0.56341175600E+01 0.66249712725E+01
 0.78043576156E+01 0.91172198653E+01 0.10471577323E+02 0.11663645882E+02 0.12296133955E+02
 0.11999999825E+02 0.10581855784E+02 0.81215910697E+01 0.50044143316E+01 0.18617211754E+01
 -.58274802806E+00 -.17255693409E+01 -.12799777176E+01 0.62711451409E+00 0.35013766543E+01
 0.66480923957E+01 0.93858371605E+01 0.11225405120E+02 0.11964370093E+02 0.11689070234E+02
 0.10702776769E+02 0.94074799007E+01 0.80978722601E+01 0.68895148163E+01 0.58518705789E+01
 0.50179815517E+01 0.43917914164E+01 0.41871390341E+01 0.38197887641E+01 0.36181285325E+01
 0.35694943653E+01 0.36700022403E+01 0.39255727791E+01 0.43502739615E+01 0.49619224840E+01
 0.57746588327E+01 0.67885131715E+01 0.79778919178E+01 0.92834333220E+01 0.10610739002E+02
 0.11746735947E+02 0.12316371571E+02 0.11999999825E+02 0.10663112420E+02 0.84353537386E+01
 0.57202275490E+01 0.31168249925E+01 0.12605072321E+01 0.62711539208E+00 0.13746114547E+01
 0.32906104086E+01 0.58688564979E+01 0.84781946714E+01 0.10551752245E+02 0.11729294374E+02
 0.11918736152E+02 0.11276604579E+02 0.10126935075E+02 0.88289910959E+01 0.75700008227E+01
 0.64380765705E+01 0.54870223411E+01 0.47377413018E+01 0.44787821020E+01 0.40009030918E+01
 0.36937085343E+01 0.35413089802E+01 0.35338124985E+01 0.36700159034E+01 0.39576591596E+01
 0.44113457443E+01 0.50479344886E+01 0.58790578444E+01 0.69010500959E+01 0.80845159853E+01
 0.93678900412E+01 0.10657425005E+02 0.11746735947E+02 0.12296133955E+02 0.12037816729E+02
 0.10888689510E+02 0.90098043421E+01 0.67959196779E+01 0.47845900347E+01 0.35013824802E+01
 0.32906194833E+01 0.41988159625E+01 0.59615544504E+01 0.80980945320E+01 0.10069773127E+02
 0.11437693613E+02 0.11968493031E+02 0.11666919354E+02 0.10739672822E+02 0.95088282187E+01
 0.82413347230E+01 0.70495027639E+01 0.60040916843E+01 0.51437320644E+01 0.48315435759E+01
 0.42477566746E+01 0.38376344826E+01 0.35850716245E+01 0.34764048363E+01 0.35044755916E+01
 0.36703256716E+01 0.39828947688E+01 0.44567006658E+01 0.51071718968E+01 0.59433346736E+01
 0.69583801358E+01 0.81204743989E+01 0.93678900412E+01 0.10610739002E+02 0.11663645882E+02
 0.12230211431E+02 0.12092478414E+02 0.11207626916E+02 0.97484869349E+01 0.80769658203E+01
 0.66480980000E+01 0.58688698550E+01 0.59615674000E+01 0.68877672064E+01 0.83655287213E+01
 0.99698319901E+01 0.11271267586E+02 0.11959818100E+02 0.11917142874E+02 0.11225230976E+02
 0.10118299509E+02 0.88797321852E+01 0.76642425307E+01 0.65532652143E+01 0.56006935223E+01
 0.52388357152E+01 0.45579905622E+01 0.40497188108E+01 0.37007214272E+01 0.34961519872E+01
 0.34248480635E+01 0.34821410400E+01 0.36707915383E+01 0.40003286237E+01 0.44846367565E+01
 0.51373728005E+01 0.59650365227E+01 0.69583801358E+01 0.80845159853E+01 0.92834333220E+01
 0.10471577323E+02 0.11494957672E+02 0.12104591374E+02 0.12126899302E+02 0.11546324912E+02
 0.10529097467E+02 0.93858438148E+01 0.84782046287E+01 0.80981102547E+01 0.83655414872E+01
 0.91875516626E+01 0.10295019222E+02 0.11338568878E+02 0.12002581225E+02 0.12096368140E+02
 0.11597685928E+02 0.10642520955E+02 0.94672682456E+01 0.82620014935E+01 0.71168832630E+01
 0.60963757479E+01 0.56915584595E+01 0.49271145503E+01 0.43286407821E+01 0.38882427297E+01
 0.35924979805E+01 0.34284846664E+01 0.33875577712E+01 0.34671561613E+01 0.36711999120E+01
 0.40092416330E+01 0.44940727475E+01 0.51373728005E+01 0.59433346736E+01 0.69010500959E+01
 0.79778919178E+01 0.91172198653E+01 0.10243105345E+02 0.11237491086E+02 0.11900912421E+02
 0.12096540178E+02 0.11823128301E+02 0.11225419699E+02 0.10551762942E+02 0.10069784510E+02
 0.99698461221E+01 0.10295029112E+02 0.10927013549E+02 0.11632106649E+02 0.12145530987E+02
 0.12259572170E+02 0.11885701856E+02 0.11074480814E+02 0.99912733589E+01 0.88258534384E+01
 0.76777953521E+01 0.66168269767E+01 0.61792077213E+01 0.53489126036E+01 0.46718567326E+01
 0.41473285225E+01 0.37656610568E+01 0.35144310484E+01 0.33829929982E+01 0.33650386691E+01
 0.34596506044E+01 0.36713610745E+01 0.40092416330E+01 0.44846367565E+01 0.51071718968E+01
 0.58790578444E+01 0.67885131715E+01 0.78043576156E+01 0.88746960812E+01 0.99319495216E+01
 0.10890520899E+02 0.11602663671E+02 0.11959977281E+02 0.11964388216E+02 0.11729311988E+02
 0.11437706094E+02 0.11271278344E+02 0.11338579321E+02 0.11632112691E+02 0.12032186546E+02
 0.12353988414E+02 0.12416499791E+02 0.12106265308E+02 0.11414955745E+02 0.10440763946E+02
 0.93415868901E+01 0.82205331183E+01 0.71480069089E+01 0.66909275193E+01 0.58162146089E+01
 0.50759415181E+01 0.44774063780E+01 0.40164912251E+01 0.36833589525E+01 0.34673393933E+01
 0.33601532981E+01 0.33575131660E+01 0.34596506044E+01 0.36711999120E+01 0.40003286237E+01
 0.44567006658E+01 0.50479344886E+01 0.57746588327E+01 0.66249712725E+01 0.75701503501E+01
 0.85640801109E+01 0.95481910971E+01 0.10459255707E+02 0.11201599963E+02 0.11689079724E+02
 0.11918754000E+02 0.11968510174E+02 0.11959830375E+02 0.12002590259E+02 0.12145537397E+02
 0.12353991004E+02 0.12523703566E+02 0.12523403716E+02 0.12247354357E+02 0.11657655771E+02
 0.10801990933E+02 0.97950403543E+01 0.87306138418E+01 0.76764432895E+01 0.72155904799E+01
 0.63213471289E+01 0.55369586510E+01 0.48778204146E+01 0.43465118513E+01 0.39375329076E+01
 0.36420604535E+01 0.34516061056E+01 0.33601532981E+01 0.33650386691E+01 0.34671561613E+01
 0.36707915383E+01 0.39828947688E+01 0.44113457443E+01 0.49619224840E+01 0.56341175600E+01
 0.64165946595E+01 0.72838751080E+01 0.81962565876E+01 0.91043143188E+01 0.99575876764E+01
 0.10702778489E+02 0.11276613309E+02 0.11666933699E+02 0.11917156959E+02 0.12096378791E+02
 0.12259579197E+02 0.12416502979E+02 0.12523403923E+02 0.12500732225E+02 0.12268093930E+02
 0.11781272911E+02 0.11056658732E+02 0.10169181427E+02 0.91924086850E+01 0.81883381595E+01
 0.77405224583E+01 0.68555368323E+01 0.60502201446E+01 0.53476806138E+01 0.47577977679E+01
 0.42807236436E+01 0.39111457207E+01 0.36420604535E+01 0.34673393933E+01 0.33829929982E+01
 0.33875577712E+01 0.34821410400E+01 0.36703256716E+01 0.39576591596E+01 0.43502739615E+01
 0.48523726815E+01 0.54627806141E+01 0.61713064057E+01 0.69562270159E+01 0.77844408193E+01
 0.86152689233E+01 0.94074863555E+01 0.10126939252E+02 0.10739679430E+02 0.11225240389E+02
 0.11597695782E+02 0.11885710207E+02 0.12106270512E+02 0.12247355490E+02 0.12268092879E+02
 0.12116110304E+02 0.11753797715E+02 0.11181730096E+02 0.10442999679E+02 0.95870828953E+01
 0.86676156533E+01 0.82494792881E+01 0.74071260996E+01 0.66089339151E+01 0.58848368871E+01
 0.52521637672E+01 0.47176102706E+01 0.42807236436E+01 0.39375329076E+01 0.36833589525E+01
 0.35144310484E+01 0.34284846664E+01 0.34248480635E+01 0.35044755916E+01 0.36700159034E+01
 0.39255727791E+01 0.42756913777E+01 0.47233393977E+01 0.52671260049E+01 0.58984361767E+01
 0.65995043136E+01 0.73435798859E+01 0.80978852964E+01 0.88289998857E+01 0.95088335255E+01
 0.10118303801E+02 0.10642525750E+02 0.11074486658E+02 0.11414961730E+02 0.11657659401E+02
 0.11781272898E+02 0.11753796276E+02 0.11547161977E+02 0.11154822909E+02 0.10593393929E+02
 0.98922634722E+01 0.90942891702E+01 0.87212197566E+01 0.79593718211E+01 0.72018738426E+01
 0.64837407565E+01 0.58292755729E+01 0.52521637672E+01 0.47577977679E+01 0.43465118513E+01
 0.40164912251E+01 0.37656610568E+01 0.35924979805E+01 0.34961519872E+01 0.34764048363E+01
 0.35338124985E+01 0.36700022403E+01 0.38877246878E+01 0.41901922309E+01 0.45795091544E+01
 0.50544575617E+01 0.56082388186E+01 0.62269336074E+01 0.68895244769E+01 0.75700111108E+01
 0.82413432749E+01 0.88797377393E+01 0.94672709201E+01 0.99912749556E+01 0.10440766753E+02
 0.10801994697E+02 0.11056660838E+02 0.11181729488E+02 0.11154821722E+02 0.10961367600E+02
 0.10599720725E+02 0.10084258482E+02 0.94445664003E+01 0.91299465103E+01 0.84891775441E+01
 0.78110158783E+01 0.71326127501E+01 0.64837407565E+01 0.58848368871E+01 0.53476806138E+01
 0.48778204146E+01 0.44774063780E+01 0.41473285225E+01 0.38882427297E+01 0.37007214272E+01
 0.35850716245E+01 0.35413089802E+01 0.35694943653E+01 0.36702880783E+01 0.38452815151E+01
 0.40966553378E+01 0.44259973078E+01 0.48325358208E+01 0.53113142278E+01 0.58518752458E+01
 0.64380808511E+01 0.70495086441E+01 0.76642495794E+01 0.82620071425E+01 0.88258555788E+01
 0.93415868695E+01 0.97950410120E+01 0.10169183005E+02 0.10443000267E+02 0.10593393311E+02
 0.10599720420E+02 0.10449382188E+02 0.10142388668E+02 0.96933061149E+01 0.94480642326E+01
 0.89679087345E+01 0.84104955892E+01 0.78110158783E+01 0.72018738426E+01 0.66089339151E+01
 0.60502201446E+01 0.55369586510E+01 0.50759415181E+01 0.46718567326E+01 0.43286407821E+01
 0.40497188108E+01 0.38376344826E+01 0.36937085343E+01 0.36181285325E+01 0.36105176299E+01
 0.36707378047E+01 0.37994723003E+01 0.39981588452E+01 0.42681281946E+01 0.46091696306E+01
 0.50179897596E+01 0.54870245632E+01 0.60040914534E+01 0.65532675160E+01 0.71168893350E+01
 0.76778014589E+01 0.82205354618E+01 0.87306130700E+01 0.91924076347E+01 0.95870824018E+01
 0.98922630571E+01 0.10084258805E+02 0.10142389929E+02 0.10053987163E+02 0.98183143709E+01
 0.96506472375E+01 0.93645747247E+01 0.89679087345E+01 0.84891775441E+01 0.79593718211E+01
 0.74071260996E+01 0.68555368323E+01 0.63213471289E+01 0.58162146089E+01 0.53489126036E+01
 0.49271145503E+01 0.45579905622E+01 0.42477566746E+01 0.40009030918E+01 0.38197887641E+01
 0.37048856293E+01 0.36555695228E+01 0.36711388450E+01 0.37516124606E+01 0.38979001233E+01
 0.41111989919E+01 0.43918022843E+01 0.47377482464E+01 0.51437327321E+01 0.56006916678E+01
 0.60963776325E+01 0.66168337451E+01 0.71480136560E+01 0.76764456284E+01 0.81883367306E+01
 0.86676132986E+01 0.90942874171E+01 0.94445662077E+01 0.96933084050E+01 0.98183174968E+01
 0.98051212793E+01 0.96506519993E+01 0.95407249982E+01 0.93109329047E+01 0.89788738392E+01
 0.85688907984E+01 0.81075925107E+01 0.76195921552E+01 0.71247558001E+01 0.66376472017E+01
 0.61688798073E+01 0.57272356558E+01 0.53212237313E+01 0.49593587507E+01 0.46493804400E+01
 0.43972170880E+01 0.42064143450E+01 0.40782997575E+01 0.40127463143E+01 0.40091974526E+01
 0.40675060316E+01 0.41881848790E+01 0.43719288628E+01 0.46185763892E+01 0.49259155538E+01
 0.52887593594E+01 0.56986819041E+01 0.61446866928E+01 0.66146342301E+01 0.70966547539E+01
 0.75795344697E+01 0.80516117158E+01 0.84987631416E+01 0.89028370822E+01 0.92418280505E+01
 0.94922620387E+01 0.96332126445E+01 0.95407284746E+01 0.96506515012E+01 0.96332086396E+01
 0.94922582772E+01 0.92418270259E+01 0.89028379968E+01 0.84987639520E+01 0.80516116394E+01
 0.75795341206E+01 0.70966556766E+01 0.66146393590E+01 0.61446991671E+01 0.56987007803E+01
 0.52887770204E+01 0.49259224069E+01 0.46185709040E+01 0.43719204307E+01 0.41881836893E+01
 0.40675121282E+01 0.40092031889E+01 0.40127480626E+01 0.40783014241E+01 0.42064188527E+01
 0.43972194281E+01 0.46493737442E+01 0.49593443171E+01 0.53212098478E+01 0.57272280169E+01
 0.61688775201E+01 0.66376469589E+01 0.71247559472E+01 0.76195920532E+01 0.81075914270E+01
 0.85688895329E+01 0.89788748477E+01 0.93109367748E+01 0.92947847482E+01 0.96166381648E+01
 0.98183172394E+01 0.98887721307E+01 0.98287258533E+01 0.96494430380E+01 0.93693389436E+01
 0.90095577888E+01 0.85900634524E+01 0.81275827682E+01 0.76358735058E+01 0.71276239618E+01
 0.66164804488E+01 0.61177835140E+01 0.56475647834E+01 0.52205049983E+01 0.48480597152E+01
 0.45375826034E+01 0.42925745109E+01 0.41137243216E+01 0.40002925401E+01 0.39513839075E+01
 0.39666607458E+01 0.40463098275E+01 0.41904248922E+01 0.43982108560E+01 0.46674326664E+01
 0.49943669668E+01 0.53742755676E+01 0.58020418483E+01 0.62722898156E+01 0.67783911000E+01
 0.73104042128E+01 0.78528214780E+01 0.83834252541E+01 0.88742496221E+01 0.89321546838E+01
 0.94435382743E+01 0.98553385290E+01 0.10142390374E+02 0.10290841006E+02 0.10299430124E+02
 0.10177961100E+02 0.99434820707E+01 0.96155344328E+01 0.92122435162E+01 0.87486684433E+01
 0.82377276118E+01 0.76926899368E+01 0.71294280731E+01 0.65668922509E+01 0.60254706575E+01
 0.55241955375E+01 0.50782507945E+01 0.46977305642E+01 0.43877870972E+01 0.41497752193E+01
 0.39828596658E+01 0.38855759412E+01 0.38568421688E+01 0.38961990745E+01 0.40034485830E+01
 0.41781077113E+01 0.44190801565E+01 0.47247154080E+01 0.50931355668E+01 0.55223905045E+01
 0.60098468317E+01 0.65504608662E+01 0.71342368704E+01 0.77438786307E+01 0.83539114031E+01
 0.84799095826E+01 0.91476439281E+01 0.97465933172E+01 0.10239915786E+02 0.10599723590E+02
 0.10810924035E+02 0.10872140183E+02 0.10793456173E+02 0.10591744499E+02 0.10285317456E+02
 0.98900245239E+01 0.94182908332E+01 0.88811306060E+01 0.82916279439E+01 0.76676445537E+01
 0.70320552953E+01 0.64103279307E+01 0.58267405039E+01 0.53010206280E+01 0.48465589126E+01
 0.44703853960E+01 0.41744627455E+01 0.39576298824E+01 0.38175501318E+01 0.37520960372E+01
 0.37599161202E+01 0.38403638091E+01 0.39932088828E+01 0.42185015203E+01 0.45166642820E+01
 0.48885685247E+01 0.53351088156E+01 0.58558076872E+01 0.64463609953E+01 0.70956685086E+01
 0.77834779381E+01 0.79679658940E+01 0.87530813023E+01 0.95062527949E+01 0.10182362757E+02
 0.10741449988E+02 0.11154829181E+02 0.11408579620E+02 0.11502164725E+02 0.11448814389E+02
 0.11269268839E+02 0.10980495552E+02 0.10591651883E+02 0.10109273886E+02 0.95426096320E+01
 0.89039120857E+01 0.82130207527E+01 0.74973792592E+01 0.67885383693E+01 0.61170571016E+01
 0.55079993577E+01 0.49784559762E+01 0.45373507313E+01 0.41870019591E+01 0.39255568601E+01
 0.37494488214E+01 0.36552297259E+01 0.36405073346E+01 0.37041776724E+01 0.38463666386E+01
 0.40684130925E+01 0.43728810891E+01 0.47632567215E+01 0.52428329134E+01 0.58124796750E+01
 0.64674804857E+01 0.71942176210E+01 0.74244557426E+01 0.82870872376E+01 0.91566371195E+01
 0.99833211854E+01 0.10717792548E+02 0.11318979859E+02 0.11753806544E+02 0.12005616780E+02
 0.12089650205E+02 0.12038090409E+02 0.11879624947E+02 0.11625216259E+02 0.11267061239E+02
 0.10791286012E+02 0.10197727907E+02 0.95077289683E+01 0.87460743625E+01 0.79458244904E+01
 0.71458121494E+01 0.63838939498E+01 0.56910848642E+01 0.50883252277E+01 0.45862124215E+01
 0.41870061771E+01 0.38877249517E+01 0.36832320722E+01 0.35685743161E+01 0.35403102137E+01
 0.35970248704E+01 0.37394401556E+01 0.39704132761E+01 0.42947351066E+01 0.47182987478E+01
 0.52461738410E+01 0.58794855399E+01 0.66115709598E+01 0.68726912466E+01 0.77756552098E+01
 0.87234231859E+01 0.96648350859E+01 0.10543944978E+02 0.11307280230E+02 0.11893769095E+02
 0.12268102578E+02 0.12445860687E+02 0.12477025066E+02 0.12417215214E+02 0.12299425578E+02
 0.12118938554E+02 0.11838752898E+02 0.11413404445E+02 0.10820008984E+02 0.10081164980E+02
 0.92470331046E+01 0.83602243796E+01 0.74680818432E+01 0.66165700960E+01 0.58429557953E+01
 0.51718712968E+01 0.46151485399E+01 0.41744706727E+01 0.38452927826E+01 0.36206480051E+01
 0.34940283870E+01 0.34610890391E+01 0.35203910700E+01 0.36735896388E+01 0.39253307215E+01
 0.42826811416E+01 0.47535991394E+01 0.53440543780E+01 0.60539560298E+01 0.63303735496E+01
 0.72408323601E+01 0.82313244762E+01 0.92521651633E+01 0.10243441494E+02 0.11140099839E+02
 0.11850169605E+02 0.12309233121E+02 0.12523410097E+02 0.12559055022E+02 0.12510046195E+02
 0.12455215969E+02 0.12422990612E+02 0.12378781156E+02 0.12241583512E+02 0.11923029079E+02
 0.11371704406E+02 0.10603248454E+02 0.96970491411E+01 0.87244193009E+01 0.77424601110E+01
 0.68056877673E+01 0.59575260689E+01 0.52258348630E+01 0.46230684211E+01 0.41497785147E+01
 0.37994855465E+01 0.35632616934E+01 0.34331497227E+01 0.34041935028E+01 0.34753233380E+01
 0.36495219613E+01 0.39334849968E+01 0.43365079534E+01 0.48680532983E+01 0.55337605071E+01
 0.58107231458E+01 0.67002109476E+01 0.77015617815E+01 0.87692169578E+01 0.98419714777E+01
 0.10847243668E+02 0.11665346530E+02 0.12188576598E+02 0.12395110248E+02 0.12353993853E+02