   2   2   0   0
  0.1579801E+02  0.3687347E-09  0.3687347E-09  0.3687347E-09  0.5000000E-15
  1.000000000000000E-004
  CAR 
 unknown system                          
     22.69154805     -6.63162297  301      8.68443420      1.00000000
     -6.632  0.0000E+00  0.0000E+00
     -6.534  0.0000E+00  0.0000E+00
     -6.436  0.0000E+00  0.0000E+00
     -6.338  0.0000E+00  0.0000E+00
     -6.241  0.0000E+00  0.0000E+00
     -6.143  0.0000E+00  0.0000E+00
     -6.045  0.0000E+00  0.0000E+00
     -5.947  0.0000E+00  0.0000E+00
     -5.850  0.0000E+00  0.0000E+00
     -5.752  0.1242E-16  0.1214E-17
     -5.654  0.2550E-14  0.2504E-15
     -5.556  0.3265E-12  0.3216E-13
     -5.459  0.2614E-10  0.2587E-11
     -5.361  0.1310E-08  0.1306E-09
     -5.263  0.4114E-07  0.4152E-08
     -5.165  0.8110E-06  0.8342E-07
     -5.068  0.1005E-04  0.1066E-05
     -4.970  0.7848E-04  0.8737E-05
     -4.872  0.3874E-03  0.4661E-04
     -4.774  0.1219E-02  0.1658E-03
     -4.677  0.2507E-02  0.4108E-03
     -4.579  0.3664E-02  0.7690E-03
     -4.481  0.4810E-02  0.1239E-02
     -4.384  0.7344E-02  0.1957E-02
     -4.286  0.1146E-01  0.3077E-02
     -4.188  0.1450E-01  0.4494E-02
     -4.090  0.1433E-01  0.5895E-02
     -3.993  0.1204E-01  0.7072E-02
     -3.895  0.9672E-02  0.8017E-02
     -3.797  0.8739E-02  0.8871E-02
     -3.699  0.1080E-01  0.9927E-02
     -3.602  0.1636E-01  0.1153E-01
     -3.504  0.2276E-01  0.1375E-01
     -3.406  0.2476E-01  0.1617E-01
     -3.308  0.2066E-01  0.1819E-01
     -3.211  0.1612E-01  0.1977E-01
     -3.113  0.1670E-01  0.2140E-01
     -3.015  0.2032E-01  0.2338E-01
     -2.917  0.2150E-01  0.2549E-01
     -2.820  0.1968E-01  0.2741E-01
     -2.722  0.1918E-01  0.2928E-01
     -2.624  0.2183E-01  0.3142E-01
     -2.526  0.2486E-01  0.3385E-01
     -2.429  0.2595E-01  0.3639E-01
     -2.331  0.2538E-01  0.3887E-01
     -2.233  0.2383E-01  0.4119E-01
     -2.135  0.2315E-01  0.4346E-01
     -2.038  0.2643E-01  0.4604E-01
     -1.940  0.3131E-01  0.4910E-01
     -1.842  0.3087E-01  0.5212E-01
     -1.744  0.2428E-01  0.5449E-01
     -1.647  0.1748E-01  0.5620E-01
     -1.549  0.1493E-01  0.5766E-01
     -1.451  0.1753E-01  0.5937E-01
     -1.353  0.2574E-01  0.6189E-01
     -1.256  0.3843E-01  0.6565E-01
     -1.158  0.4906E-01  0.7044E-01
     -1.060  0.5034E-01  0.7536E-01
     -0.962  0.4356E-01  0.7962E-01
     -0.865  0.3669E-01  0.8321E-01
     -0.767  0.3355E-01  0.8648E-01
     -0.669  0.3081E-01  0.8950E-01
     -0.572  0.2589E-01  0.9203E-01
     -0.474  0.2084E-01  0.9406E-01
     -0.376  0.1827E-01  0.9585E-01
     -0.278  0.1966E-01  0.9777E-01
     -0.181  0.2512E-01  0.1002E+00
     -0.083  0.3187E-01  0.1033E+00
      0.015  0.3623E-01  0.1069E+00
      0.113  0.3873E-01  0.1107E+00
      0.210  0.4249E-01  0.1148E+00
      0.308  0.4737E-01  0.1194E+00
      0.406  0.4985E-01  0.1243E+00
      0.504  0.4788E-01  0.1290E+00
      0.601  0.4395E-01  0.1333E+00
      0.699  0.4112E-01  0.1373E+00
      0.797  0.4095E-01  0.1413E+00
      0.895  0.4337E-01  0.1456E+00
      0.992  0.4514E-01  0.1500E+00
      1.090  0.4693E-01  0.1546E+00
      1.188  0.5341E-01  0.1598E+00
      1.286  0.5900E-01  0.1655E+00
      1.383  0.5201E-01  0.1706E+00
      1.481  0.3480E-01  0.1740E+00
      1.579  0.2075E-01  0.1761E+00
      1.677  0.1567E-01  0.1776E+00
      1.774  0.1552E-01  0.1791E+00
      1.872  0.1630E-01  0.1807E+00
      1.970  0.1974E-01  0.1826E+00
      2.068  0.2897E-01  0.1855E+00
      2.165  0.4140E-01  0.1895E+00
      2.263  0.5087E-01  0.1945E+00
      2.361  0.5380E-01  0.1997E+00
      2.459  0.5099E-01  0.2047E+00
      2.556  0.4710E-01  0.2093E+00
      2.654  0.4595E-01  0.2138E+00
      2.752  0.4674E-01  0.2184E+00
      2.850  0.4785E-01  0.2231E+00
      2.947  0.4920E-01  0.2279E+00
      3.045  0.4747E-01  0.2325E+00
      3.143  0.3796E-01  0.2362E+00
      3.241  0.2540E-01  0.2387E+00
      3.338  0.2056E-01  0.2407E+00
      3.436  0.2576E-01  0.2432E+00
      3.534  0.3324E-01  0.2465E+00
      3.631  0.3622E-01  0.2500E+00
      3.729  0.3478E-01  0.2534E+00
      3.827  0.3281E-01  0.2566E+00
      3.925  0.3504E-01  0.2601E+00
      4.022  0.4576E-01  0.2645E+00
      4.120  0.6386E-01  0.2708E+00
      4.218  0.7855E-01  0.2784E+00
      4.316  0.8002E-01  0.2863E+00
      4.413  0.7263E-01  0.2934E+00
      4.511  0.6472E-01  0.2997E+00
      4.609  0.5611E-01  0.3052E+00
      4.707  0.4643E-01  0.3097E+00
      4.804  0.4061E-01  0.3137E+00
      4.902  0.4122E-01  0.3177E+00
      5.000  0.4333E-01  0.3219E+00
      5.098  0.4057E-01  0.3259E+00
      5.195  0.3536E-01  0.3294E+00
      5.293  0.3658E-01  0.3329E+00
      5.391  0.4682E-01  0.3375E+00
      5.489  0.5879E-01  0.3433E+00
      5.586  0.6417E-01  0.3495E+00
      5.684  0.6386E-01  0.3558E+00
      5.782  0.6583E-01  0.3622E+00
      5.880  0.6959E-01  0.3690E+00
      5.977  0.6673E-01  0.3755E+00
      6.075  0.5724E-01  0.3811E+00
      6.173  0.4881E-01  0.3859E+00
      6.271  0.4679E-01  0.3905E+00
      6.368  0.5192E-01  0.3956E+00
      6.466  0.5961E-01  0.4014E+00
      6.564  0.6267E-01  0.4075E+00
      6.662  0.5943E-01  0.4133E+00
      6.759  0.5577E-01  0.4188E+00
      6.857  0.5912E-01  0.4245E+00
      6.955  0.6968E-01  0.4314E+00
      7.053  0.8043E-01  0.4392E+00
      7.150  0.8778E-01  0.4478E+00
      7.248  0.9129E-01  0.4567E+00
      7.346  0.8785E-01  0.4653E+00
      7.443  0.7794E-01  0.4729E+00
      7.541  0.6627E-01  0.4794E+00
      7.639  0.5527E-01  0.4848E+00
      7.737  0.4704E-01  0.4894E+00
      7.834  0.4297E-01  0.4936E+00
      7.932  0.4099E-01  0.4976E+00
      8.030  0.3991E-01  0.5015E+00
      8.128  0.4082E-01  0.5055E+00
      8.225  0.4313E-01  0.5097E+00
      8.323  0.4397E-01  0.5140E+00
      8.421  0.4379E-01  0.5183E+00
      8.519  0.4835E-01  0.5230E+00
      8.616  0.5910E-01  0.5288E+00
      8.714  0.6706E-01  0.5353E+00
      8.812  0.6336E-01  0.5415E+00
      8.910  0.5361E-01  0.5468E+00
      9.007  0.5277E-01  0.5519E+00
      9.105  0.6162E-01  0.5580E+00
      9.203  0.6173E-01  0.5640E+00
      9.301  0.4425E-01  0.5683E+00
      9.398  0.2374E-01  0.5706E+00
      9.496  0.1543E-01  0.5721E+00
      9.594  0.1999E-01  0.5741E+00
      9.692  0.2960E-01  0.5770E+00
      9.789  0.3700E-01  0.5806E+00
      9.887  0.4085E-01  0.5846E+00
      9.985  0.4438E-01  0.5889E+00
     10.083  0.4808E-01  0.5936E+00
     10.180  0.4844E-01  0.5984E+00
     10.278  0.4623E-01  0.6029E+00
     10.376  0.4769E-01  0.6076E+00
     10.474  0.5626E-01  0.6131E+00
     10.571  0.6831E-01  0.6197E+00
     10.669  0.7565E-01  0.6271E+00
     10.767  0.7544E-01  0.6345E+00
     10.865  0.7370E-01  0.6417E+00
     10.962  0.7262E-01  0.6488E+00
     11.060  0.6729E-01  0.6554E+00
     11.158  0.5834E-01  0.6611E+00
     11.256  0.5614E-01  0.6666E+00
     11.353  0.6851E-01  0.6733E+00
     11.451  0.8913E-01  0.6820E+00
     11.549  0.1050E+00  0.6922E+00
     11.646  0.1092E+00  0.7029E+00
     11.744  0.1011E+00  0.7128E+00
     11.842  0.8270E-01  0.7209E+00
     11.940  0.6054E-01  0.7268E+00
     12.037  0.4360E-01  0.7311E+00
     12.135  0.3469E-01  0.7345E+00
     12.233  0.2966E-01  0.7373E+00
     12.331  0.2944E-01  0.7402E+00
     12.428  0.4115E-01  0.7442E+00
     12.526  0.6206E-01  0.7503E+00
     12.624  0.7726E-01  0.7579E+00
     12.722  0.7778E-01  0.7655E+00
     12.819  0.7104E-01  0.7724E+00
     12.917  0.6858E-01  0.7791E+00
     13.015  0.7026E-01  0.7860E+00
     13.113  0.6785E-01  0.7926E+00
     13.210  0.5868E-01  0.7984E+00
     13.308  0.4866E-01  0.8031E+00
     13.406  0.4586E-01  0.8076E+00
     13.504  0.5705E-01  0.8132E+00
     13.601  0.8246E-01  0.8212E+00
     13.699  0.1070E+00  0.8317E+00
     13.797  0.1134E+00  0.8428E+00
     13.895  0.1051E+00  0.8530E+00
     13.992  0.9480E-01  0.8623E+00
     14.090  0.8458E-01  0.8706E+00
     14.188  0.7150E-01  0.8776E+00
     14.286  0.5861E-01  0.8833E+00
     14.383  0.5267E-01  0.8884E+00
     14.481  0.5675E-01  0.8940E+00
     14.579  0.6648E-01  0.9005E+00
     14.677  0.7423E-01  0.9077E+00
     14.774  0.7519E-01  0.9151E+00
     14.872  0.6914E-01  0.9218E+00
     14.970  0.6087E-01  0.9278E+00
     15.068  0.5670E-01  0.9333E+00
     15.165  0.5781E-01  0.9390E+00
     15.263  0.6141E-01  0.9450E+00
     15.361  0.6353E-01  0.9512E+00
     15.458  0.6054E-01  0.9571E+00
     15.556  0.5429E-01  0.9624E+00
     15.654  0.4795E-01  0.9671E+00
     15.752  0.4058E-01  0.9711E+00
     15.849  0.3349E-01  0.9743E+00
     15.947  0.3062E-01  0.9773E+00
     16.045  0.3214E-01  0.9805E+00
     16.143  0.3492E-01  0.9839E+00
     16.240  0.3857E-01  0.9877E+00
     16.338  0.4652E-01  0.9922E+00
     16.436  0.5771E-01  0.9979E+00
     16.534  0.6550E-01  0.1004E+01
     16.631  0.6710E-01  0.1011E+01
     16.729  0.6308E-01  0.1017E+01
     16.827  0.5330E-01  0.1022E+01
     16.925  0.4013E-01  0.1026E+01
     17.022  0.2732E-01  0.1029E+01
     17.120  0.1771E-01  0.1031E+01
     17.218  0.1311E-01  0.1032E+01
     17.316  0.1262E-01  0.1033E+01
     17.413  0.1401E-01  0.1034E+01
     17.511  0.1690E-01  0.1036E+01
     17.609  0.2279E-01  0.1038E+01
     17.707  0.3160E-01  0.1041E+01
     17.804  0.3825E-01  0.1045E+01
     17.902  0.3690E-01  0.1049E+01
     18.000  0.2831E-01  0.1051E+01
     18.098  0.1818E-01  0.1053E+01
     18.195  0.1044E-01  0.1054E+01
     18.293  0.5538E-02  0.1055E+01
     18.391  0.2724E-02  0.1055E+01
     18.489  0.1639E-02  0.1055E+01
     18.586  0.2587E-02  0.1055E+01
     18.684  0.5715E-02  0.1056E+01
     18.782  0.9765E-02  0.1057E+01
     18.880  0.1249E-01  0.1058E+01
     18.977  0.1258E-01  0.1059E+01
     19.075  0.1018E-01  0.1060E+01
     19.173  0.6364E-02  0.1061E+01
     19.271  0.3008E-02  0.1061E+01
     19.368  0.1670E-02  0.1062E+01
     19.466  0.2633E-02  0.1062E+01
     19.564  0.4803E-02  0.1062E+01
     19.661  0.6038E-02  0.1063E+01
     19.759  0.5396E-02  0.1063E+01
     19.857  0.4285E-02  0.1064E+01
     19.955  0.3768E-02  0.1064E+01
     20.052  0.3472E-02  0.1065E+01
     20.150  0.3314E-02  0.1065E+01
     20.248  0.3259E-02  0.1065E+01
     20.346  0.2716E-02  0.1065E+01
     20.443  0.1852E-02  0.1066E+01
     20.541  0.1670E-02  0.1066E+01
     20.639  0.2383E-02  0.1066E+01
     20.737  0.2900E-02  0.1066E+01
     20.834  0.2332E-02  0.1067E+01
     20.932  0.1191E-02  0.1067E+01
     21.030  0.3844E-03  0.1067E+01
     21.128  0.7827E-04  0.1067E+01
     21.225  0.1004E-04  0.1067E+01
     21.323  0.8107E-06  0.1067E+01
     21.421  0.4113E-07  0.1067E+01
     21.519  0.1310E-08  0.1067E+01
     21.616  0.2614E-10  0.1067E+01
     21.714  0.3265E-12  0.1067E+01
     21.812  0.2551E-14  0.1067E+01
     21.910  0.1183E-16  0.1067E+01
     22.007  0.0000E+00  0.1067E+01
     22.105  0.0000E+00  0.1067E+01
     22.203  0.0000E+00  0.1067E+01
     22.301  0.0000E+00  0.1067E+01
     22.398  0.0000E+00  0.1067E+01
     22.496  0.0000E+00  0.1067E+01
     22.594  0.0000E+00  0.1067E+01
     22.692  0.0000E+00  0.1067E+01
