       N       E                     dE             d eps       ncg     rms          rms(c)
DAV:   1     0.102939921971E+01    0.10294E+01   -0.27568E+03   896   0.602E+02
DAV:   2    -0.101306946377E+02   -0.11160E+02   -0.10828E+02  1352   0.628E+01
DAV:   3    -0.102680077724E+02   -0.13731E+00   -0.13364E+00  1240   0.834E+00
DAV:   4    -0.102683964827E+02   -0.38871E-03   -0.38851E-03  1320   0.408E-01
DAV:   5    -0.102683969168E+02   -0.43407E-06   -0.43415E-06  1272   0.109E-02    0.154E+00
DAV:   6    -0.102620710773E+02    0.63258E-02   -0.36220E-03  1120   0.402E-01    0.956E-01
DAV:   7    -0.102576189983E+02    0.44521E-02   -0.94756E-03  1120   0.676E-01    0.503E-02
DAV:   8    -0.102575678915E+02    0.51107E-04   -0.37824E-04   680   0.141E-01
   1 F= -.10257568E+02 E0= -.10247380E+02  d E =-.102576E+02
