    2    2   15    1
  0.2001288E+02  0.3839590E-09  0.3839590E-09  0.3839590E-09  0.5000000E-15
  1.000000000000000E-004
  CAR 
 unknown system                          
      8     60      8
 
  0.6250000E-01  0.6250000E-01  0.6250000E-01  0.3906250E-02
    1       -6.080731   1.000000
    2        5.300253   1.000000
    3        5.745800   0.996970
    4        5.745800   0.996970
    5        8.462973   0.000000
    6        8.523472   0.000000
    7        8.523472   0.000000
    8        9.584067   0.000000
 
  0.1875000E+00  0.6250000E-01  0.6250000E-01  0.1171875E-01
    1       -5.809326   1.000000
    2        3.792191   1.000000
    3        4.926691   1.000000
    4        5.629168   0.999821
    5        8.546724   0.000000
    6        8.770318   0.000000
    7        9.077276   0.000000
    8       11.008382   0.000000
 
  0.3125000E+00  0.6250000E-01  0.6250000E-01  0.1171875E-01
    1       -5.153937   1.000000
    2        1.543883   1.000000
    3        4.437420   1.000000
    4        5.162497   1.000000
    5        8.108465   0.000000
    6        9.258872   0.000000
    7        9.549214   0.000000
    8       12.480607   0.000000
 
  0.4375000E+00  0.6250000E-01  0.6250000E-01  0.1171875E-01
    1       -4.237071   1.000000
    2       -0.366845   1.000000
    3        4.221933   1.000000
    4        4.751042   1.000000
    5        7.794012   0.000000
    6        9.305894   0.000000
    7        9.319127   0.000000
    8       13.678107   0.000000
 
 -0.4375000E+00  0.6250000E-01  0.6250000E-01  0.1171875E-01
    1       -3.778366   1.000000
    2       -1.080066   1.000000
    3        4.274533   1.000000
    4        4.529331   1.000000
    5        7.712675   0.000000
    6        9.105925   0.000000
    7        9.380826   0.000000
    8       13.728244   0.000000
 
 -0.3125000E+00  0.6250000E-01  0.6250000E-01  0.1171875E-01
    1       -4.551711   1.000000
    2        0.199073   1.000000
    3        4.548010   1.000000
    4        4.564916   1.000000
    5        7.876673   0.000000
    6        9.122533   0.000000
    7        9.650669   0.000000
    8       12.792611   0.000000
 
 -0.1875000E+00  0.6250000E-01  0.6250000E-01  0.1171875E-01
    1       -5.411008   1.000000
    2        2.281613   1.000000
    3        4.825200   1.000000
    4        5.033300   1.000000
    5        8.222332   0.000000
    6        9.011359   0.000000
    7        9.727185   0.000000
    8       11.619110   0.000000
 
 -0.6250000E-01  0.6250000E-01  0.6250000E-01  0.1171875E-01
    1       -5.944353   1.000000
    2        4.551373   1.000000
    3        5.311383   1.000000
    4        5.479413   0.999998
    5        8.234703   0.000000
    6        8.852634   0.000000
    7        9.113615   0.000000
    8       10.292698   0.000000
 
  0.1875000E+00  0.1875000E+00  0.6250000E-01  0.1171875E-01
    1       -5.672807   1.000000
    2        3.661016   1.000000
    3        4.745957   1.000000
    4        4.838229   1.000000
    5        7.805383   0.000000
    6        9.632685   0.000000
    7        9.985013   0.000000
    8       10.528981   0.000000
 
  0.3125000E+00  0.1875000E+00  0.6250000E-01  0.2343750E-01
    1       -5.141677   1.000000
    2        2.147929   1.000000
    3        3.764012   1.000000
    4        4.575500   1.000000
    5        7.976642   0.000000
    6        9.751353   0.000000
    7       10.275305   0.000000
    8       10.787834   0.000000
 
  0.4375000E+00  0.1875000E+00  0.6250000E-01  0.2343750E-01
    1       -4.284417   1.000000
    2        0.262109   1.000000
    3        3.271686   1.000000
    4        4.156459   1.000000
    5        8.178347   0.000000
    6        9.635250   0.000000
    7       10.817592   0.000000
    8       11.051571   0.000000
 
 -0.4375000E+00  0.1875000E+00  0.6250000E-01  0.2343750E-01
    1       -3.506921   1.000000
    2       -0.969277   1.000000
    3        2.982025   1.000000
    4        4.061018   1.000000
    5        8.259420   0.000000
    6        9.303118   0.000000
    7       10.649073   0.000000
    8       13.116151   0.000000
 
 -0.3125000E+00  0.1875000E+00  0.6250000E-01  0.2343750E-01
    1       -3.975123   1.000000
    2       -0.265858   1.000000
    3        2.903489   1.000000
    4        4.351478   1.000000
    5        8.562316   0.000000
    6        9.198174   0.000000
    7       10.598671   0.000000
    8       12.350531   0.000000
 
 -0.1875000E+00  0.1875000E+00  0.6250000E-01  0.2343750E-01
    1       -4.890215   1.000000
    2        1.488959   1.000000
    3        3.199924   1.000000
    4        4.868406   1.000000
    5        8.870556   0.000000
    6        9.169716   0.000000
    7       10.479941   0.000000
    8       10.930059   0.000000
 
 -0.6250000E-01  0.1875000E+00  0.6250000E-01  0.2343750E-01
    1       -5.540766   1.000000
    2        2.973661   1.000000
    3        4.341855   1.000000
    4        5.247478   1.000000
    5        8.384884   0.000000
    6        9.107270   0.000000
    7        9.792312   0.000000
    8       11.041364   0.000000
 
  0.3125000E+00  0.3125000E+00  0.6250000E-01  0.1171875E-01
    1       -4.736336   1.000000
    2        1.653630   1.000000
    3        3.620543   1.000000
    4        3.744005   1.000000
    5        6.979394   0.000000
    6        8.642250   0.000000
    7       11.879753   0.000000
    8       12.013478   0.000000
 
  0.4375000E+00  0.3125000E+00  0.6250000E-01  0.2343750E-01
    1       -3.974547   1.000000
    2        0.403383   1.000000
    3        2.820078   1.000000
    4        3.390998   1.000000
    5        7.294749   0.000000
    6        8.478797   0.000000
    7       11.837310   0.000000
    8       13.020212   0.000000
 
 -0.4375000E+00  0.3125000E+00  0.6250000E-01  0.2343750E-01
    1       -3.060880   1.000000
    2       -0.814046   1.000000
    3        1.966943   1.000000
    4        3.359619   1.000000
    5        7.528471   0.000000
    6       10.160323   0.000000
    7       11.406185   0.000000
    8       12.933610   0.000000
 
 -0.3125000E+00  0.3125000E+00  0.6250000E-01  0.2343750E-01
    1       -3.131932   1.000000
    2       -0.719811   1.000000
    3        1.605876   1.000000
    4        3.709922   1.000000
    5        7.941225   0.000000
    6       10.918342   0.000000
    7       12.255398   0.000000
    8       12.501814   0.000000
 
 -0.1875000E+00  0.3125000E+00  0.6250000E-01  0.2343750E-01
    1       -4.043315   1.000000
    2        0.238653   1.000000
    3        2.223367   1.000000
    4        4.305842   1.000000
    5        8.598050   0.000000
    6        9.803650   0.000000
    7       11.267985   0.000000
    8       11.513598   0.000000
 
 -0.6250000E-01  0.3125000E+00  0.6250000E-01  0.2343750E-01
    1       -4.775063   1.000000
    2        0.866301   1.000000
    3        3.889104   1.000000
    4        4.768583   1.000000
    5        8.351329   0.000000
    6        9.165558   0.000000
    7       10.025319   0.000000
    8       11.714855   0.000000
 
  0.4375000E+00  0.4375000E+00  0.6250000E-01  0.1171875E-01
    1       -3.313322   1.000000
    2       -0.467124   1.000000
    3        2.921301   1.000000
    4        3.144373   1.000000
    5        6.572596   0.000962
    6        7.280262   0.000000
    7       14.201657   0.000000
    8       14.208530   0.000000
 
 -0.4375000E+00  0.4375000E+00  0.6250000E-01  0.2343750E-01
    1       -2.390180   1.000000
    2       -1.467764   1.000000
    3        2.350453   1.000000
    4        2.894562   1.000000
    5        7.006004   0.000000
    6        7.745488   0.000000
    7       13.939712   0.000000
    8       14.998617   0.000000
 
 -0.3125000E+00  0.4375000E+00  0.6250000E-01  0.2343750E-01
    1       -2.482690   1.000000
    2       -1.303976   1.000000
    3        1.605343   1.000000
    4        3.214317   1.000000
    5        7.377535   0.000000
    6       10.006445   0.000000
    7       12.392484   0.000000
    8       13.564237   0.000000
 
 -0.1875000E+00  0.4375000E+00  0.6250000E-01  0.2343750E-01
    1       -3.248182   1.000000
    2       -0.913120   1.000000
    3        2.182729   1.000000
    4        3.825192   1.000000
    5        8.067375   0.000000
    6       10.061444   0.000000
    7       11.625074   0.000000
    8       12.867435   0.000000
 
 -0.6250000E-01  0.4375000E+00  0.6250000E-01  0.2343750E-01
    1       -3.866562   1.000000
    2       -0.774623   1.000000
    3        3.717542   1.000000
    4        4.426379   1.000000
    5        8.159134   0.000000
    6        9.037352   0.000000
    7        9.835920   0.000000
    8       13.429727   0.000000
 
 -0.4375000E+00 -0.4375000E+00  0.6250000E-01  0.1171875E-01
    1       -2.443712   1.000000
    2       -1.486639   1.000000
    3        2.781718   1.000000
    4        3.021900   1.000000
    5        6.562692   0.001216
    6        6.926996   0.000000
    7       15.297644   0.000000
    8       15.383049   0.000000
 
 -0.3125000E+00 -0.4375000E+00  0.6250000E-01  0.2343750E-01
    1       -3.225682   1.000000
    2       -0.531133   1.000000
    3        2.511339   1.000000
    4        3.055900   1.000000
    5        7.098594   0.000000
    6        7.995501   0.000000
    7       12.857969   0.000000
    8       14.202010   0.000000
 
 -0.1875000E+00 -0.4375000E+00  0.6250000E-01  0.2343750E-01
    1       -3.700468   1.000000
    2       -0.285617   1.000000
    3        2.584496   1.000000
    4        3.664502   1.000000
    5        7.814113   0.000000
    6       10.343291   0.000000
    7       10.626157   0.000000
    8       11.840455   0.000000
 
 -0.3125000E+00 -0.3125000E+00  0.6250000E-01  0.1171875E-01
    1       -4.081609   1.000000
    2        0.590226   1.000000
    3        3.200786   1.000000
    4        3.386881   1.000000
    5        6.709758   0.000023
    6        7.861692   0.000000
    7       13.026863   0.000000
    8       13.091224   0.000000
 
 -0.1875000E+00 -0.3125000E+00  0.6250000E-01  0.2343750E-01
    1       -4.617050   1.000000
    2        1.298628   1.000000
    3        3.247929   1.000000
    4        3.910540   1.000000
    5        7.594184   0.000000
    6        9.170472   0.000000
    7       10.883003   0.000000
    8       11.872710   0.000000
 
 -0.1875000E+00 -0.1875000E+00  0.6250000E-01  0.1171875E-01
    1       -5.268785   1.000000
    2        2.687653   1.000000
    3        4.176198   1.000000
    4        4.204790   1.000000
    5        7.359311   0.000000
    6        9.543283   0.000000
    7       10.806525   0.000000
    8       10.971633   0.000000
 
  0.1875000E+00  0.1875000E+00  0.1875000E+00  0.3906250E-02
    1       -5.675943   1.000000
    2        3.057568   1.000000
    3        5.299547   1.000000
    4        5.299547   1.000000
    5        8.105838   0.000000
    6        9.147429   0.000000
    7        9.147429   0.000000
    8       11.666405   0.000000
 
  0.3125000E+00  0.1875000E+00  0.1875000E+00  0.1171875E-01
    1       -5.278535   1.000000
    2        2.220341   1.000000
    3        3.760880   1.000000
    4        5.322426   1.000000
    5        8.760697   0.000000
    6        9.269208   0.000000
    7        9.570064   0.000000
    8       11.632522   0.000000
 
  0.4375000E+00  0.1875000E+00  0.1875000E+00  0.1171875E-01
    1       -4.520492   1.000000
    2        0.842502   1.000000
    3        2.663415   1.000000
    4        4.809602   1.000000
    5        8.571900   0.000000
    6       10.031894   0.000000
    7       10.248556   0.000000
    8       11.917668   0.000000
 
 -0.4375000E+00  0.1875000E+00  0.1875000E+00  0.1171875E-01
    1       -3.609138   1.000000
    2       -0.674299   1.000000
    3        2.518141   1.000000
    4        4.269222   1.000000
    5        8.045932   0.000000
    6       10.235308   0.000000
    7       10.410047   0.000000
    8       13.777032   0.000000
 
 -0.3125000E+00  0.1875000E+00  0.1875000E+00  0.1171875E-01
    1       -3.593673   1.000000
    2       -0.702574   1.000000
    3        2.825271   1.000000
    4        3.945081   1.000000
    5        7.753953   0.000000
    6       10.315902   0.000000
    7       10.757736   0.000000
    8       11.774423   0.000000
 
 -0.1875000E+00  0.1875000E+00  0.1875000E+00  0.1171875E-01
    1       -4.503897   1.000000
    2        0.838518   1.000000
    3        3.444937   1.000000
    4        3.918789   1.000000
    5        7.683254   0.000000
    6        9.905574   0.000000
    7       10.593308   0.000000
    8       11.150208   0.000000
 
  0.3125000E+00  0.3125000E+00  0.1875000E+00  0.1171875E-01
    1       -5.018169   1.000000
    2        1.544298   1.000000
    3        4.288846   1.000000
    4        4.343100   1.000000
    5        8.098608   0.000000
    6        9.533021   0.000000
    7       10.402703   0.000000
    8       10.738484   0.000000
 
  0.4375000E+00  0.3125000E+00  0.1875000E+00  0.2343750E-01
    1       -4.382788   1.000000
    2        0.781462   1.000000
    3        2.720939   1.000000
    4        4.146113   1.000000
    5        8.584879   0.000000
    6        9.668846   0.000000
    7       10.112517   0.000000
    8       11.686334   0.000000
 
 -0.4375000E+00  0.3125000E+00  0.1875000E+00  0.2343750E-01
    1       -3.476855   1.000000
    2       -0.328638   1.000000
    3        1.915989   1.000000
    4        3.564678   1.000000
    5        9.039758   0.000000
    6        9.533302   0.000000
    7       10.831399   0.000000
    8       12.789944   0.000000
 
 -0.3125000E+00  0.3125000E+00  0.1875000E+00  0.2343750E-01
    1       -2.978842   1.000000
    2       -0.955937   1.000000
    3        1.924388   1.000000
    4        3.244684   1.000000
    5        8.557305   0.000000
    6        9.866844   0.000000
    7       11.619362   0.000000
    8       12.962474   0.000000
 
 -0.1875000E+00  0.3125000E+00  0.1875000E+00  0.2343750E-01
    1       -3.767531   1.000000
    2        0.070986   1.000000
    3        2.349844   1.000000
    4        3.428142   1.000000
    5        8.287935   0.000000
    6        9.498190   0.000000
    7       10.433203   0.000000
    8       12.929211   0.000000
 
  0.4375000E+00  0.4375000E+00  0.1875000E+00  0.1171875E-01
    1       -3.878858   1.000000
    2        0.124260   1.000000
    3        2.693227   1.000000
    4        3.583816   1.000000
    5        7.288674   0.000000
    6        9.337921   0.000000
    7       11.707028   0.000000
    8       11.979351   0.000000
 
 -0.4375000E+00  0.4375000E+00  0.1875000E+00  0.2343750E-01
    1       -3.062733   1.000000
    2       -0.673535   1.000000
    3        2.098923   1.000000
    4        2.879940   1.000000
    5        8.075534   0.000000
    6        9.093388   0.000000
    7       11.326554   0.000000
    8       14.183308   0.000000
 
 -0.3125000E+00  0.4375000E+00  0.1875000E+00  0.2343750E-01
    1       -2.239906   1.000000
    2       -1.435714   1.000000
    3        1.770104   1.000000
    4        2.367070   1.000000
    5        9.206151   0.000000
    6       10.130218   0.000000
    7       10.883901   0.000000
    8       11.883235   0.000000
 
 -0.1875000E+00  0.4375000E+00  0.1875000E+00  0.2343750E-01
    1       -2.852146   1.000000
    2       -0.885402   1.000000
    3        1.766214   1.000000
    4        2.852258   1.000000
    5        9.301525   0.000000
    6        9.743590   0.000000
    7       10.543766   0.000000
    8       13.051074   0.000000
 
 -0.4375000E+00 -0.4375000E+00  0.1875000E+00  0.1171875E-01
    1       -2.408094   1.000000
    2       -1.418636   1.000000
    3        1.877733   1.000000
    4        3.237276   1.000000
    5        6.843421   0.000000
    6        8.775619   0.000000
    7       13.841580   0.000000
    8       14.086763   0.000000
 
 -0.3125000E+00 -0.4375000E+00  0.1875000E+00  0.2343750E-01
    1       -2.306514   1.000000
    2       -1.445844   1.000000
    3        1.973321   1.000000
    4        2.589553   1.000000
    5        7.965984   0.000000
    6        8.891900   0.000000
    7       12.335479   0.000000
    8       13.461175   0.000000
 
 -0.3125000E+00 -0.3125000E+00  0.1875000E+00  0.1171875E-01
    1       -3.162036   1.000000
    2       -0.638215   1.000000
    3        2.152117   1.000000
    4        3.353940   1.000000
    5        6.996694   0.000000
    6        8.960546   0.000000
    7       12.881576   0.000000
    8       12.895626   0.000000
 
  0.3125000E+00  0.3125000E+00  0.3125000E+00  0.3906250E-02
    1       -4.908640   1.000000
    2        0.829577   1.000000
    3        4.882645   1.000000
    4        4.882645   1.000000
    5        7.657266   0.000000
    6        9.364153   0.000000
    7        9.364153   0.000000
    8       13.587295   0.000000
 
  0.4375000E+00  0.3125000E+00  0.3125000E+00  0.1171875E-01
    1       -4.421480   1.000000
    2        0.250605   1.000000
    3        3.398673   1.000000
    4        4.795403   1.000000
    5        8.359394   0.000000
    6        9.594468   0.000000
    7        9.635965   0.000000
    8       12.928357   0.000000
 
 -0.4375000E+00  0.3125000E+00  0.3125000E+00  0.1171875E-01
    1       -3.616309   1.000000
    2       -0.268575   1.000000
    3        1.835080   1.000000
    4        4.203569   1.000000
    5        7.959727   0.000000
    6       11.065417   0.000000
    7       11.252720   0.000000
    8       12.703205   0.000000
 
 -0.3125000E+00  0.3125000E+00  0.3125000E+00  0.1171875E-01
    1       -2.779730   1.000000
    2       -1.054024   1.000000
    3        1.485388   1.000000
    4        3.647539   1.000000
    5        7.321927   0.000000
    6       11.250135   0.000000
    7       12.354166   0.000000
    8       12.680553   0.000000
 
  0.4375000E+00  0.4375000E+00  0.3125000E+00  0.1171875E-01
    1       -4.101209   1.000000
    2       -0.316688   1.000000
    3        3.746761   1.000000
    4        4.220660   1.000000
    5        8.036540   0.000000
    6        9.397315   0.000000
    7       10.121325   0.000000
    8       12.190879   0.000000
 
 -0.4375000E+00  0.4375000E+00  0.3125000E+00  0.2343750E-01
    1       -3.470650   1.000000
    2       -0.669566   1.000000
    3        2.410333   1.000000
    4        3.732805   1.000000
    5        8.798890   0.000000
    6        9.136056   0.000000
    7       11.746207   0.000000
    8       11.917991   0.000000
 
 -0.3125000E+00  0.4375000E+00  0.3125000E+00  0.2343750E-01
    1       -2.640173   1.000000
    2       -1.115845   1.000000
    3        1.578577   1.000000
    4        3.004908   1.000000
    5        8.424878   0.000000
    6       10.693145   0.000000
    7       11.517369   0.000000
    8       12.064146   0.000000
 
 -0.4375000E+00 -0.4375000E+00  0.3125000E+00  0.1171875E-01
    1       -3.105142   1.000000
    2       -0.947930   1.000000
    3        2.004470   1.000000
    4        3.748857   1.000000
    5        7.474895   0.000000
    6       11.209824   0.000000
    7       11.535996   0.000000
    8       11.708168   0.000000
 
  0.4375000E+00  0.4375000E+00  0.4375000E+00  0.3906250E-02
    1       -4.001324   1.000000
    2       -0.840470   1.000000
    3        4.660697   1.000000
    4        4.660697   1.000000
    5        7.405427   0.000000
    6        9.209312   0.000000
    7        9.209312   0.000000
    8       13.605895   0.000000
 
 -0.4375000E+00  0.4375000E+00  0.4375000E+00  0.1171875E-01
    1       -3.643481   1.000000
    2       -1.015383   1.000000
    3        3.423771   1.000000
    4        4.386669   1.000000
    5        8.083057   0.000000
    6        9.371039   0.000000
    7        9.798552   0.000000
    8       14.048148   0.000000
