unknown system                          
   1.00000000000000     
     0.000000    2.752193    2.752193
     2.752193   -0.000000    2.752193
     2.752193    2.752193    0.000000
   Si
     2
Direct
  0.500000  0.500000  0.500000
  0.750000  0.750000  0.750000
 
   28   28   28
 0.81032     0.83823     0.92389      1.0738      1.2994      1.6168      2.0423      2.5861      3.2442      3.9914    
  4.7777      5.5299      6.1602      6.5819      6.7305      6.5819      6.1601      5.5298      4.7776      3.9914    
  3.2443      2.5862      2.0423      1.6169      1.2995      1.0738     0.92386     0.83820     0.83823     0.88556    
 0.98310      1.1373      1.3583      1.6589      2.0495      2.5330      3.0977      3.7134      4.3304      4.8839    
  5.3045      5.5322      5.5322      5.3044      4.8839      4.3304      3.7135      3.0978      2.5331      2.0496    
  1.6589      1.3584      1.1373     0.98307     0.88554     0.83822     0.92389     0.98310      1.0856      1.2375    
  1.4475      1.7245      2.0737      2.4916      2.9618      3.4524      3.9178      4.3048      4.5621      4.6525    
  4.5621      4.3048      3.9178      3.4524      2.9619      2.4917      2.0738      1.7246      1.4475      1.2375    
  1.0855     0.98308     0.92389     0.90451      1.0738      1.1373      1.2375      1.3803      1.5724      1.8188    
  2.1203      2.4691      2.8465      3.2221      3.5572      3.8106      3.9473      3.9473      3.8106      3.5572    
  3.2222      2.8466      2.4692      2.1204      1.8188      1.5723      1.3803      1.2375      1.1373      1.0738    
  1.0430      1.0430      1.2994      1.3583      1.4475      1.5724      1.7375      1.9450      2.1922      2.4691    
  2.7573      3.0301      3.2567      3.4072      3.4600      3.4072      3.2567      3.0301      2.7573      2.4692    
  2.1922      1.9449      1.7374      1.5723      1.4475      1.3584      1.2995      1.2662      1.2554      1.2661    
  1.6168      1.6589      1.7245      1.8188      1.9450      2.1031      2.2887      2.4916      2.6953      2.8783    
  3.0174      3.0928      3.0928      3.0174      2.8783      2.6953      2.4916      2.2887      2.1031      1.9449    
  1.8188      1.7245      1.6589      1.6168      1.5928      1.5821      1.5821      1.5928      2.0423      2.0495    
  2.0737      2.1203      2.1922      2.2887      2.4053      2.5330      2.6583      2.7650      2.8372      2.8627    
  2.8372      2.7650      2.6583      2.5330      2.4053      2.2887      2.1922      2.1204      2.0737      2.0495    
  2.0423      2.0449      2.0502      2.0526      2.0502      2.0449      2.5861      2.5330      2.4916      2.4691    
  2.4691      2.4916      2.5330      2.5861      2.6410      2.6864      2.7122      2.7122      2.6864      2.6410    
  2.5861      2.5330      2.4917      2.4692      2.4692      2.4917      2.5330      2.5861      2.6410      2.6864    
  2.7122      2.7122      2.6864      2.6410      3.2442      3.0977      2.9618      2.8465      2.7573      2.6953    
  2.6583      2.6410      2.6366      2.6378      2.6389      2.6378      2.6366      2.6411      2.6584      2.6954    
  2.7574      2.8466      2.9618      3.0977      3.2442      3.3867      3.5075      3.5889      3.6177      3.5889    
  3.5075      3.3867      3.9914      3.7134      3.4524      3.2221      3.0301      2.8783      2.7650      2.6864    
  2.6378      2.6148      2.6148      2.6378      2.6865      2.7651      2.8784      3.0302      3.2222      3.4524    
  3.7134      3.9913      4.2653      4.5086      4.6922      4.7914      4.7914      4.6923      4.5086      4.2654    
  4.7777      4.3304      3.9178      3.5572      3.2567      3.0174      2.8372      2.7122      2.6389      2.6148    
  2.6390      2.7123      2.8373      3.0176      3.2568      3.5573      3.9177      4.3302      4.7775      5.2315    
  5.6539      6.0007      6.2295      6.3096      6.2295      6.0007      5.6540      5.2316      5.5299      4.8839    
  4.3048      3.8106      3.4072      3.0928      2.8627      2.7122      2.6378      2.6378      2.7123      2.8628    
  3.0929      3.4073      3.8107      4.3047      4.8837      5.5297      6.2087      6.8704      7.4520      7.8876    
  8.1214      8.1214      7.8876      7.4520      6.8705      6.2089      6.1602      5.3045      4.5621      3.9473    
  3.4600      3.0928      2.8372      2.6864      2.6366      2.6865      2.8373      3.0929      3.4601      3.9474    
  4.5620      5.3042      6.1599      7.0940      8.0467      8.9363      9.6682      10.152      10.321      10.152    
  9.6680      8.9362      8.0468      7.0942      6.5819      5.5322      4.6525      3.9473      3.4072      3.0174    
  2.7650      2.6410      2.6411      2.7651      3.0176      3.4073      3.9474      4.6524      5.5319      6.5816    
  7.7723      9.0428      10.297      11.413      12.256      12.711      12.711      12.255      11.412      10.297    
  9.0428      7.7726      6.7305      5.5322      4.5621      3.8106      3.2567      2.8783      2.6583      2.5861    
  2.6584      2.8784      3.2568      3.8107      4.5620      5.5319      6.7302      8.1419      9.7149      11.352    
  12.909      14.213      15.085      15.391      15.085      14.213      12.909      11.352      9.7149      8.1421    
  6.5819      5.3044      4.3048      3.5572      3.0301      2.6953      2.5330      2.5330      2.6954      3.0302    
  3.5573      4.3047      5.3042      6.5816      8.1419      9.9528      11.931      13.930      15.747      17.132    
  17.877      17.877      17.132      15.747      13.930      11.930      9.9528      8.1420      6.1601      4.8839    
  3.9178      3.2222      2.7573      2.4916      2.4053      2.4917      2.7574      3.2222      3.9177      4.8837    
  6.1599      7.7723      9.7149      11.931      14.293      16.593      18.517      19.787      20.230      19.788    
  18.518      16.593      14.293      11.930      9.7149      7.7725      5.5298      4.3304      3.4524      2.8466    
  2.4692      2.2887      2.2887      2.4692      2.8466      3.4524      4.3302      5.5297      7.0940      9.0428    
  11.352      13.930      16.593      19.007      20.824      21.796      21.796      20.824      19.007      16.593    
  13.930      11.352      9.0427      7.0940      4.7776      3.7135      2.9619      2.4692      2.1922      2.1031    
  2.1922      2.4692      2.9618      3.7134      4.7775      6.2087      8.0467      10.297      12.909      15.747    
  18.517      20.824      22.345      22.875      22.345      20.824      18.518      15.747      12.909      10.297    
  8.0466      6.2087      3.9914      3.0978      2.4917      2.1204      1.9449      1.9449      2.1204      2.4917    
  3.0977      3.9913      5.2315      6.8704      8.9363      11.413      14.213      17.132      19.787      21.796    
  22.875      22.875      21.796      19.788      17.132      14.212      11.412      8.9361      6.8703      5.2315    
  3.2443      2.5331      2.0738      1.8188      1.7374      1.8188      2.0737      2.5330      3.2442      4.2653    
  5.6539      7.4520      9.6682      12.256      15.085      17.877      20.230      21.796      22.345      21.796    
  20.230      17.877      15.084      12.255      9.6679      7.4519      5.6539      4.2653      2.5862      2.0496    
  1.7246      1.5723      1.5723      1.7245      2.0495      2.5861      3.3867      4.5086      6.0007      7.8876    
  10.152      12.711      15.391      17.877      19.788      20.824      20.824      19.788      17.877      15.391    
  12.711      10.151      7.8875      6.0006      4.5085      3.3867      2.0423      1.6589      1.4475      1.3803    
  1.4475      1.6589      2.0423      2.6410      3.5075      4.6922      6.2295      8.1214      10.321      12.711    
  15.085      17.132      18.518      19.007      18.518      17.132      15.084      12.711      10.321      8.1213    
  6.2294      4.6922      3.5075      2.6411      1.6169      1.3584      1.2375      1.2375      1.3584      1.6168    
  2.0449      2.6864      3.5889      4.7914      6.3096      8.1214      10.152      12.255      14.213      15.747    
  16.593      16.593      15.747      14.212      12.255      10.151      8.1213      6.3095      4.7913      3.5889    
  2.6865      2.0450      1.2995      1.1373      1.0855      1.1373      1.2995      1.5928      2.0502      2.7122    
  3.6177      4.7914      6.2295      7.8876      9.6680      11.412      12.909      13.930      14.293      13.930    
  12.909      11.412      9.6679      7.8875      6.2294      4.7913      3.6177      2.7122      2.0503      1.5928    
  1.0738     0.98307     0.98308      1.0738      1.2662      1.5821      2.0526      2.7122      3.5889      4.6923    
  6.0007      7.4520      8.9362      10.297      11.352      11.930      11.930      11.352      10.297      8.9361    
  7.4519      6.0006      4.6922      3.5889      2.7122      2.0527      1.5822      1.2662     0.92386     0.88554    
 0.92389      1.0430      1.2554      1.5821      2.0502      2.6864      3.5075      4.5086      5.6540      6.8705    
  8.0468      9.0428      9.7149      9.9528      9.7149      9.0427      8.0466      6.8703      5.6539      4.5085    
  3.5075      2.6865      2.0503      1.5822      1.2554      1.0430     0.83820     0.83822     0.90451      1.0430    
  1.2661      1.5928      2.0449      2.6410      3.3867      4.2654      5.2316      6.2089      7.0942      7.7726    
  8.1421      8.1420      7.7725      7.0940      6.2087      5.2315      4.2653      3.3867      2.6411      2.0450    
  1.5928      1.2662      1.0430     0.90446     0.83823     0.88556     0.98310      1.1373      1.3583      1.6589    
  2.0495      2.5330      3.0977      3.7134      4.3304      4.8839      5.3045      5.5322      5.5322      5.3044    
  4.8839      4.3304      3.7135      3.0978      2.5331      2.0496      1.6589      1.3584      1.1373     0.98307    
 0.88554     0.83822     0.88556     0.94330      1.0429      1.1903      1.3937      1.6619      2.0002      2.4053    
  2.8613      3.3369      3.7879      4.1627      4.4118      4.4992      4.4118      4.1627      3.7879      3.3369    
  2.8613      2.4054      2.0003      1.6620      1.3937      1.1903      1.0429     0.94330     0.88556     0.86662    
 0.98310      1.0429      1.1368      1.2700      1.4491      1.6792      1.9615      2.2887      2.6430      2.9954    
  3.3094      3.5464      3.6742      3.6742      3.5464      3.3094      2.9954      2.6430      2.2888      1.9616    
  1.6793      1.4490      1.2700      1.1368      1.0429     0.98311     0.95394     0.95393      1.1373      1.1903    
  1.2700      1.3815      1.5294      1.7164      1.9404      2.1922      2.4544      2.7023      2.9077      3.0438    
  3.0915      3.0438      2.9077      2.7023      2.4544      2.1923      1.9405      1.7164      1.5293      1.3814    
  1.2700      1.1903      1.1373      1.1071      1.0972      1.1070      1.3583      1.3937      1.4491      1.5294    
  1.6383      1.7766      1.9404      2.1203      2.3011      2.4630      2.5858      2.6520      2.6520      2.5858    
  2.4630      2.3011      2.1204      1.9404      1.7766      1.6383      1.5293      1.4490      1.3937      1.3584    
  1.3381      1.3290      1.3290      1.3381      1.6589      1.6619      1.6792      1.7164      1.7766      1.8597    
  1.9615      2.0737      2.1838      2.2773      2.3402      2.3624      2.3402      2.2773      2.1838      2.0737    
  1.9615      1.8597      1.7766      1.7164      1.6792      1.6619      1.6589      1.6635      1.6693      1.6718    
  1.6693      1.6634      2.0495      2.0002      1.9615      1.9404      1.9404      1.9615      2.0002      2.0495    
  2.1000      2.1414      2.1647      2.1647      2.1414      2.1000      2.0495      2.0002      1.9615      1.9404    
  1.9404      1.9615      2.0002      2.0495      2.1000      2.1414      2.1647      2.1647      2.1414      2.1000    
  2.5330      2.4053      2.2887      2.1922      2.1203      2.0737      2.0495      2.0423      2.0449      2.0502    
  2.0526      2.0502      2.0449      2.0423      2.0495      2.0737      2.1204      2.1922      2.2887      2.4053    
  2.5330      2.6583      2.7650      2.8372      2.8627      2.8372      2.7650      2.6583      3.0977      2.8613    
  2.6430      2.4544      2.3011      2.1838      2.1000      2.0449      2.0127      1.9982      1.9982      2.0127    
  2.0450      2.1001      2.1839      2.3011      2.4544      2.6429      2.8612      3.0977      3.3341      3.5463    
  3.7077      3.7953      3.7953      3.7078      3.5463      3.3341      3.7134      3.3369      2.9954      2.7023    
  2.4630      2.2773      2.1414      2.0502      1.9982      1.9814      1.9982      2.0503      2.1415      2.2774    
  2.4631      2.7023      2.9953      3.3368      3.7133      4.1017      4.4683      4.7728      4.9756      5.0469    
  4.9756      4.7729      4.4683      4.1017      4.3304      3.7879      3.3094      2.9077      2.5858      2.3402    
  2.1647      2.0526      1.9982      1.9982      2.0527      2.1649      2.3403      2.5858      2.9076      3.3092    
  3.7877      4.3302      4.9098      5.4838      5.9957      6.3837      6.5936      6.5936      6.3837      5.9957    
  5.4838      4.9099      4.8839      4.1627      3.5464      3.0438      2.6520      2.3624      2.1647      2.0502    
  2.0127      2.0503      2.1649      2.3625      2.6521      3.0437      3.5462      4.1624      4.8837      5.6835    
  6.5126      7.2989      7.9547      8.3923      8.5462      8.3922      7.9546      7.2989      6.5126      5.6836    
  5.3045      4.4118      3.6742      3.0915      2.6520      2.3402      2.1414      2.0449      2.0450      2.1415    
  2.3403      2.6521      3.0914      3.6740      4.4115      5.3042      6.3320      7.4458      8.5626      9.5694    
  10.339      10.757      10.757      10.339      9.5693      8.5625      7.4457      6.3321      5.5322      4.4992    
  3.6742      3.0438      2.5858      2.2773      2.1000      2.0423      2.1001      2.2774      2.5858      3.0437    
  3.6740      4.4989      5.5319      6.7661      8.1616      9.6350      11.056      12.258      13.068      13.355    
  13.068      12.258      11.056      9.6348      8.1615      6.7662      5.5322      4.4118      3.5464      2.9077    
  2.4630      2.1838      2.0495      2.0495      2.1839      2.4631      2.9076      3.5462      4.4115      5.5319    
  6.9191      8.5518      10.360      12.211      13.911      15.231      15.956      15.956      15.231      13.911    
  12.210      10.359      8.5516      6.9192      5.3044      4.1627      3.3094      2.7023      2.3011      2.0737    
  2.0002      2.0737      2.3011      2.7023      3.3092      4.1624      5.3042      6.7661      8.5518      10.616    
  12.845      15.042      16.934      18.228      18.690      18.229      16.934      15.042      12.845      10.616    
  8.5516      6.7662      4.8839      3.7879      2.9954      2.4544      2.1204      1.9615      1.9615      2.1204    
  2.4544      2.9953      3.7877      4.8837      6.3320      8.1616      10.360      12.845      15.445      17.879    
  19.797      20.858      20.858      19.798      17.880      15.445      12.845      10.359      8.1615      6.3321    
  4.3304      3.3369      2.6430      2.1923      1.9404      1.8597      1.9404      2.1922      2.6429      3.3368    
  4.3302      5.6835      7.4458      9.6350      12.211      15.042      17.879      20.358      22.059      22.665    
  22.060      20.358      17.879      15.042      12.210      9.6347      7.4456      5.6835      3.7135      2.8613    
  2.2888      1.9405      1.7766      1.7766      1.9404      2.2887      2.8612      3.7133      4.9098      6.5126    
  8.5626      11.056      13.911      16.934      19.797      22.059      23.310      23.310      22.060      19.797    
  16.934      13.911      11.056      8.5624      6.5125      4.9099      3.0978      2.4054      1.9616      1.7164    
  1.6383      1.7164      1.9615      2.4053      3.0977      4.1017      5.4838      7.2989      9.5694      12.258    
  15.231      18.228      20.858      22.665      23.310      22.665      20.858      18.228      15.231      12.257    
  9.5692      7.2988      5.4838      4.1017      2.5331      2.0003      1.6793      1.5293      1.5293      1.6792    
  2.0002      2.5330      3.3341      4.4683      5.9957      7.9547      10.339      13.068      15.956      18.690    
  20.858      22.060      22.060      20.858      18.690      15.956      13.068      10.339      7.9546      5.9957    
  4.4683      3.3342      2.0496      1.6620      1.4490      1.3814      1.4490      1.6619      2.0495      2.6583    
  3.5463      4.7728      6.3837      8.3923      10.757      13.355      15.956      18.229      19.798      20.358    
  19.797      18.228      15.956      13.355      10.757      8.3922      6.3837      4.7728      3.5463      2.6584    
  1.6589      1.3937      1.2700      1.2700      1.3937      1.6589      2.1000      2.7650      3.7077      4.9756    
  6.5936      8.5462      10.757      13.068      15.231      16.934      17.880      17.879      16.934      15.231    
  13.068      10.757      8.5462      6.5936      4.9756      3.7078      2.7651      2.1001      1.3584      1.1903    
  1.1368      1.1903      1.3584      1.6635      2.1414      2.8372      3.7953      5.0469      6.5936      8.3922    
  10.339      12.258      13.911      15.042      15.445      15.042      13.911      12.257      10.339      8.3922    
  6.5936      5.0468      3.7954      2.8373      2.1415      1.6635      1.1373      1.0429      1.0429      1.1373    
  1.3381      1.6693      2.1647      2.8627      3.7953      4.9756      6.3837      7.9546      9.5693      11.056    
  12.210      12.845      12.845      12.210      11.056      9.5692      7.9546      6.3837      4.9756      3.7954    
  2.8628      2.1649      1.6694      1.3381     0.98307     0.94330     0.98311      1.1071      1.3290      1.6718    
  2.1647      2.8372      3.7078      4.7729      5.9957      7.2989      8.5625      9.6348      10.359      10.616    
  10.359      9.6347      8.5624      7.2988      5.9957      4.7728      3.7078      2.8373      2.1649      1.6719    
  1.3290      1.1070     0.88554     0.88556     0.95394      1.0972      1.3290      1.6693      2.1414      2.7650    
  3.5463      4.4683      5.4838      6.5126      7.4457      8.1615      8.5516      8.5516      8.1615      7.4456    
  6.5125      5.4838      4.4683      3.5463      2.7651      2.1415      1.6694      1.3290      1.0972     0.95389    
 0.83822     0.86662     0.95393      1.1070      1.3381      1.6634      2.1000      2.6583      3.3341      4.1017    
  4.9099      5.6836      6.3321      6.7662      6.9192      6.7662      6.3321      5.6835      4.9099      4.1017    
  3.3342      2.6584      2.1001      1.6635      1.3381      1.1070     0.95389     0.86658     0.92390     0.98310    
  1.0856      1.2375      1.4476      1.7245      2.0737      2.4916      2.9618      3.4524      3.9178      4.3048    
  4.5621      4.6525      4.5621      4.3048      3.9178      3.4524      2.9619      2.4917      2.0738      1.7246    
  1.4475      1.2375      1.0855     0.98308     0.92390     0.90451     0.98310      1.0429      1.1368      1.2700    
  1.4491      1.6792      1.9615      2.2887      2.6430      2.9954      3.3094      3.5464      3.6742      3.6742    
  3.5464      3.3094      2.9954      2.6430      2.2888      1.9616      1.6793      1.4490      1.2700      1.1368    
  1.0429     0.98311     0.95395     0.95394      1.0856      1.1368      1.2136      1.3207      1.4631      1.6433    
  1.8597      2.1031      2.3566      2.5963      2.7946      2.9259      2.9718      2.9258      2.7945      2.5963    
  2.3567      2.1032      1.8597      1.6433      1.4630      1.3207      1.2136      1.1368      1.0856      1.0562    
  1.0466      1.0562      1.2375      1.2700      1.3207      1.3945      1.4951      1.6236      1.7766      1.9450    
  2.1141      2.2654      2.3797      2.4413      2.4412      2.3796      2.2653      2.1141      1.9450      1.7766    
  1.6236      1.4950      1.3944      1.3207      1.2700      1.2375      1.2186      1.2100      1.2100      1.2186    
  1.4476      1.4491      1.4631      1.4951      1.5485      1.6236      1.7164      1.8188      1.9191      2.0039    
  2.0606      2.0806      2.0606      2.0039      1.9191      1.8188      1.7164      1.6236      1.5485      1.4950    
  1.4630      1.4491      1.4476      1.4523      1.4577      1.4599      1.4577      1.4523      1.7245      1.6792    
  1.6433      1.6236      1.6236      1.6433      1.6792      1.7245      1.7704      1.8074      1.8282      1.8282    
  1.8075      1.7704      1.7246      1.6793      1.6433      1.6235      1.6235      1.6433      1.6792      1.7245    
  1.7704      1.8075      1.8282      1.8282      1.8074      1.7704      2.0737      1.9615      1.8597      1.7766    
  1.7164      1.6792      1.6619      1.6589      1.6634      1.6693      1.6718      1.6693      1.6635      1.6589    
  1.6619      1.6792      1.7164      1.7766      1.8597      1.9615      2.0737      2.1838      2.2773      2.3402    
  2.3624      2.3402      2.2773      2.1838      2.4916      2.2887      2.1031      1.9450      1.8188      1.7245    
  1.6589      1.6168      1.5928      1.5821      1.5821      1.5928      1.6168      1.6589      1.7245      1.8188    
  1.9449      2.1031      2.2887      2.4916      2.6953      2.8783      3.0174      3.0928      3.0928      3.0174    
  2.8783      2.6953      2.9618      2.6430      2.3566      2.1141      1.9191      1.7704      1.6634      1.5928    
  1.5530      1.5402      1.5530      1.5928      1.6635      1.7704      1.9191      2.1140      2.3565      2.6429    
  2.9618      3.2927      3.6062      3.8672      4.0409      4.1020      4.0409      3.8672      3.6062      3.2927    
  3.4524      2.9954      2.5963      2.2654      2.0039      1.8074      1.6693      1.5821      1.5402      1.5402    
  1.5822      1.6693      1.8075      2.0038      2.2652      2.5961      2.9953      3.4523      3.9442      4.4339    
  4.8721      5.2048      5.3849      5.3850      5.2048      4.8721      4.4339      3.9442      3.9178      3.3094    
  2.7946      2.3797      2.0606      1.8282      1.6718      1.5821      1.5530      1.5822      1.6718      1.8282    
  2.0605      2.3795      2.7943      3.3092      3.9177      4.5976      5.3066      5.9817      6.5463      6.9237    
  7.0566      6.9237      6.5463      5.9817      5.3065      4.5976      4.3048      3.5464      2.9259      2.4413    
  2.0806      1.8282      1.6693      1.5928      1.5928      1.6693      1.8282      2.0805      2.4411      2.9256    
  3.5462      4.3047      5.1845      6.1434      7.1089      7.9818      8.6500      9.0137      9.0137      8.6500    
  7.9818      7.1089      6.1433      5.1845      4.5621      3.6742      2.9718      2.4412      2.0606      1.8075    
  1.6635      1.6168      1.6635      1.8075      2.0605      2.4411      2.9716      3.6740      4.5620      5.6309    
  6.8460      8.1340      9.3790      10.433      11.145      11.397      11.145      10.433      9.3790      8.1339    
  6.8459      5.6308      4.6525      3.6742      2.9258      2.3796      2.0039      1.7704      1.6589      1.6589    
  1.7704      2.0038      2.3795      2.9256      3.6740      4.6524      5.8727      7.3169      8.9218      10.568    
  12.082      13.257      13.902      13.902      13.257      12.082      10.568      8.9217      7.3167      5.8726    
  4.5621      3.5464      2.7945      2.2653      1.9191      1.7246      1.6619      1.7245      1.9191      2.2652    
  2.7943      3.5462      4.5620      5.8727      7.4829      9.3518      11.374      13.367      15.084      16.256    
  16.674      16.256      15.084      13.367      11.374      9.3516      7.4827      5.8726      4.3048      3.3094    
  2.5963      2.1141      1.8188      1.6793      1.6792      1.8188      2.1140      2.5961      3.3092      4.3047    
  5.6309      7.3169      9.3518      11.659      14.074      16.335      18.115      19.102      19.102      18.115    
  16.335      14.074      11.659      9.3516      7.3167      5.6308      3.9178      2.9954      2.3567      1.9450    
  1.7164      1.6433      1.7164      1.9449      2.3565      2.9953      3.9177      5.1845      6.8460      8.9218    
  11.374      14.074      16.782      19.148      20.781      21.366      20.781      19.148      16.782      14.074    
  11.374      8.9217      6.8459      5.1845      3.4524      2.6430      2.1032      1.7766      1.6236      1.6235    
  1.7766      2.1031      2.6429      3.4523      4.5976      6.1434      8.1340      10.568      13.367      16.335    
  19.148      21.383      22.629      22.629      21.383      19.148      16.335      13.367      10.568      8.1339    
  6.1433      4.5976      2.9619      2.2888      1.8597      1.6236      1.5485      1.6235      1.8597      2.2887    
  2.9618      3.9442      5.3066      7.1089      9.3790      12.082      15.084      18.115      20.781      22.629    
  23.293      22.629      20.781      18.115      15.084      12.082      9.3790      7.1088      5.3065      3.9443    
  2.4917      1.9616      1.6433      1.4950      1.4950      1.6433      1.9615      2.4916      3.2927      4.4339    
  5.9817      7.9818      10.433      13.257      16.256      19.102      21.366      22.629      22.629      21.366    
  19.102      16.256      13.257      10.434      7.9818      5.9817      4.4339      3.2928      2.0738      1.6793    
  1.4630      1.3944      1.4630      1.6792      2.0737      2.6953      3.6062      4.8721      6.5463      8.6500    
  11.145      13.902      16.674      19.102      20.781      21.383      20.781      19.102      16.674      13.902    
  11.145      8.6500      6.5463      4.8721      3.6063      2.6954      1.7246      1.4490      1.3207      1.3207    
  1.4491      1.7245      2.1838      2.8783      3.8672      5.2048      6.9237      9.0137      11.397      13.902    
  16.256      18.115      19.148      19.148      18.115      16.256      13.902      11.397      9.0138      6.9238    
  5.2049      3.8673      2.8784      2.1839      1.4475      1.2700      1.2136      1.2700      1.4476      1.7704    
  2.2773      3.0174      4.0409      5.3849      7.0566      9.0137      11.145      13.257      15.084      16.335    
  16.782      16.335      15.084      13.257      11.145      9.0138      7.0567      5.3850      4.0411      3.0176    
  2.2774      1.7704      1.2375      1.1368      1.1368      1.2375      1.4523      1.8075      2.3402      3.0928    
  4.1020      5.3850      6.9237      8.6500      10.433      12.082      13.367      14.074      14.074      13.367    
  12.082      10.434      8.6500      6.9238      5.3850      4.1021      3.0930      2.3403      1.8075      1.4523    
  1.0855      1.0429      1.0856      1.2186      1.4577      1.8282      2.3624      3.0928      4.0409      5.2048    
  6.5463      7.9818      9.3790      10.568      11.374      11.659      11.374      10.568      9.3790      7.9818    
  6.5463      5.2049      4.0411      3.0930      2.3626      1.8282      1.4577      1.2186     0.98308     0.98311    
  1.0562      1.2100      1.4599      1.8282      2.3402      3.0174      3.8672      4.8721      5.9817      7.1089    
  8.1339      8.9217      9.3516      9.3516      8.9217      8.1339      7.1088      5.9817      4.8721      3.8673    
  3.0176      2.3403      1.8282      1.4599      1.2100      1.0562     0.92390     0.95395      1.0466      1.2100    
  1.4577      1.8074      2.2773      2.8783      3.6062      4.4339      5.3065      6.1433      6.8459      7.3167    
  7.4827      7.3167      6.8459      6.1433      5.3065      4.4339      3.6063      2.8784      2.2774      1.8075    
  1.4577      1.2100      1.0466     0.95390     0.90451     0.95394      1.0562      1.2186      1.4523      1.7704    
  2.1838      2.6953      3.2927      3.9442      4.5976      5.1845      5.6308      5.8726      5.8726      5.6308    
  5.1845      4.5976      3.9443      3.2928      2.6954      2.1839      1.7704      1.4523      1.2186      1.0562    
 0.95390     0.90450      1.0738      1.1373      1.2375      1.3803      1.5724      1.8188      2.1203      2.4691    
  2.8465      3.2221      3.5572      3.8106      3.9473      3.9473      3.8106      3.5572      3.2222      2.8466    
  2.4692      2.1204      1.8188      1.5723      1.3802      1.2375      1.1373      1.0738      1.0430      1.0430    
  1.1373      1.1903      1.2700      1.3815      1.5294      1.7164      1.9404      2.1922      2.4544      2.7023    
  2.9077      3.0438      3.0915      3.0438      2.9077      2.7023      2.4544      2.1923      1.9405      1.7164    
  1.5293      1.3814      1.2700      1.1903      1.1373      1.1071      1.0972      1.1070      1.2375      1.2700    
  1.3207      1.3945      1.4951      1.6236      1.7766      1.9450      2.1141      2.2654      2.3797      2.4413    
  2.4412      2.3796      2.2653      2.1141      1.9450      1.7766      1.6236      1.4950      1.3944      1.3207    
  1.2700      1.2375      1.2186      1.2100      1.2100      1.2186      1.3803      1.3815      1.3945      1.4248    
  1.4760      1.5485      1.6383      1.7375      1.8344      1.9161      1.9708      1.9900      1.9708      1.9161    