 running on    8 total cores
 distrk:  each k-point on    8 cores,    1 groups
 distr:  one band on    1 cores,    8 groups
 using from now: INCAR     
 vasp.5.4.4.18Apr17-6-g9f103f2a35 (build Dec 09 2018 21:25:21) complex          
  
 POSCAR found type information on POSCAR  Si
 POSCAR found :  1 types and       2 ions
 scaLAPACK will be used

 ----------------------------------------------------------------------------- 
|                                                                             |
|           W    W    AA    RRRRR   N    N  II  N    N   GGGG   !!!           |
|           W    W   A  A   R    R  NN   N  II  NN   N  G    G  !!!           |
|           W    W  A    A  R    R  N N  N  II  N N  N  G       !!!           |
|           W WW W  AAAAAA  RRRRR   N  N N  II  N  N N  G  GGG   !            |
|           WW  WW  A    A  R   R   N   NN  II  N   NN  G    G                |
|           W    W  A    A  R    R  N    N  II  N    N   GGGG   !!!           |
|                                                                             |
|      For optimal performance we recommend to set                            |
|        NCORE= 4 - approx SQRT( number of cores)                             |
|      NCORE specifies how many cores store one orbital (NPAR=cpu/NCORE).     |
|      This setting can  greatly improve the performance of VASP for DFT.     |
|      The default,   NCORE=1            might be grossly inefficient         |
|      on modern multi-core architectures or massively parallel machines.     |
|      Do your own testing !!!!                                               |
|      Unfortunately you need to use the default for GW and RPA calculations. |
|      (for HF NCORE is supported but not extensively tested yet)             |
|                                                                             |
 ----------------------------------------------------------------------------- 

 LDA part: xc-table for Pade appr. of Perdew
 POSCAR, INCAR and KPOINTS ok, starting setup
 FFT: planning ...
 WAVECAR not read
 entering main loop
       N       E                     dE             d eps       ncg     rms          rms(c)
DAV:   1    -0.223493946755E+01   -0.22349E+01   -0.18291E+03    32   0.359E+02
DAV:   2    -0.107556663296E+02   -0.85207E+01   -0.85207E+01    48   0.538E+01
DAV:   3    -0.108318974818E+02   -0.76231E-01   -0.76231E-01    32   0.672E+00
DAV:   4    -0.108322321526E+02   -0.33467E-03   -0.33467E-03    56   0.500E-01
DAV:   5    -0.108322322247E+02   -0.72029E-07   -0.72022E-07    32   0.730E-03    0.311E+00
DAV:   6    -0.106950840723E+02    0.13715E+00   -0.87486E-02    40   0.155E+00    0.184E+00
DAV:   7    -0.106330638829E+02    0.62020E-01   -0.16368E-01    40   0.226E+00    0.162E-01
DAV:   8    -0.106348868159E+02   -0.18229E-02   -0.43591E-03    32   0.485E-01    0.258E-02
DAV:   9    -0.106350082998E+02   -0.12148E-03   -0.11211E-04    32   0.820E-02
   1 F= -.10635008E+02 E0= -.10635008E+02  d E =-.106350E+02
 curvature:   0.00 expect dE= 0.000E+00 dE for cont linesearch  0.000E+00
 trial: gam= 0.00000 g(F)=  0.606E-44 g(S)=  0.233E-01 ort = 0.000E+00 (trialstep = 0.100E+01)
 search vector abs. value=  0.233E-01
 bond charge predicted
       N       E                     dE             d eps       ncg     rms          rms(c)
DAV:   1    -0.106474045719E+02   -0.12518E-01   -0.35030E-01    40   0.328E+00    0.376E-01
DAV:   2    -0.106415546020E+02    0.58500E-02   -0.45539E-03    32   0.431E-01    0.216E-01
DAV:   3    -0.106383833127E+02    0.31713E-02   -0.60867E-03    40   0.395E-01    0.261E-02
DAV:   4    -0.106383725106E+02    0.10802E-04   -0.54139E-05    16   0.632E-02
   2 F= -.10638373E+02 E0= -.10638373E+02  d E =-.336421E-02
 trial-energy change:   -0.003364  1 .order   -0.003901   -0.023340    0.015538
 step:   0.6003(harm=  0.6003)  dis= 0.00000  next Energy=   -10.642014 (dE=-0.701E-02)
 bond charge predicted
       N       E                     dE             d eps       ncg     rms          rms(c)
DAV:   1    -0.106430728403E+02   -0.46895E-02   -0.57323E-02    40   0.134E+00    0.153E-01
DAV:   2    -0.106420907845E+02    0.98206E-03   -0.72574E-04    32   0.171E-01    0.879E-02
DAV:   3    -0.106416219046E+02    0.46888E-03   -0.99323E-04    32   0.160E-01    0.105E-02
DAV:   4    -0.106416258616E+02   -0.39570E-05   -0.94166E-06    16   0.264E-02
   3 F= -.10641626E+02 E0= -.10641626E+02  d E =-.661756E-02
 curvature:  -0.30 expect dE=-0.630E-05 dE for cont linesearch -0.630E-05
 trial: gam= 0.00000 g(F)=  0.166E-43 g(S)=  0.210E-04 ort =-0.700E-03 (trialstep = 0.920E+00)
 search vector abs. value=  0.210E-04
 reached required accuracy - stopping structural energy minimisation
 writing wavefunctions
