   2   2   0   0
  0.1529437E+02  0.3691622E-09  0.3691622E-09  0.3691622E-09  0.5000000E-15
  1.000000000000000E-004
  CAR 
 unknown system                          
     23.71425423     -6.50822654  301      9.05446663      1.00000000
     -6.508  0.0000E+00  0.0000E+00
     -6.407  0.0000E+00  0.0000E+00
     -6.307  0.0000E+00  0.0000E+00
     -6.206  0.0000E+00  0.0000E+00
     -6.105  0.0000E+00  0.0000E+00
     -6.005  0.0000E+00  0.0000E+00
     -5.904  0.0000E+00  0.0000E+00
     -5.803  0.0000E+00  0.0000E+00
     -5.702  0.0000E+00  0.0000E+00
     -5.602  0.5510E-16  0.5551E-17
     -5.501  0.1153E-13  0.1167E-14
     -5.400  0.1466E-11  0.1489E-12
     -5.299  0.1133E-09  0.1156E-10
     -5.199  0.5327E-08  0.5482E-09
     -5.098  0.1526E-06  0.1592E-07
     -4.997  0.2669E-05  0.2848E-06
     -4.896  0.2856E-04  0.3162E-05
     -4.796  0.1876E-03  0.2206E-04
     -4.695  0.7608E-03  0.9871E-04
     -4.594  0.1936E-02  0.2937E-03
     -4.493  0.3249E-02  0.6211E-03
     -4.393  0.4247E-02  0.1049E-02
     -4.292  0.5987E-02  0.1652E-02
     -4.191  0.9709E-02  0.2630E-02
     -4.090  0.1365E-01  0.4005E-02
     -3.990  0.1458E-01  0.5474E-02
     -3.889  0.1250E-01  0.6733E-02
     -3.788  0.9784E-02  0.7719E-02
     -3.687  0.8240E-02  0.8549E-02
     -3.587  0.9266E-02  0.9483E-02
     -3.486  0.1393E-01  0.1089E-01
     -3.385  0.2114E-01  0.1302E-01
     -3.284  0.2551E-01  0.1559E-01
     -3.184  0.2226E-01  0.1783E-01
     -3.083  0.1631E-01  0.1947E-01
     -2.982  0.1599E-01  0.2108E-01
     -2.882  0.1986E-01  0.2308E-01
     -2.781  0.2081E-01  0.2518E-01
     -2.680  0.1836E-01  0.2703E-01
     -2.579  0.1743E-01  0.2878E-01
     -2.479  0.1956E-01  0.3076E-01
     -2.378  0.2237E-01  0.3301E-01
     -2.277  0.2459E-01  0.3549E-01
     -2.176  0.2617E-01  0.3812E-01
     -2.076  0.2524E-01  0.4066E-01
     -1.975  0.2222E-01  0.4290E-01
     -1.874  0.2388E-01  0.4531E-01
     -1.773  0.3190E-01  0.4852E-01
     -1.673  0.3576E-01  0.5212E-01
     -1.572  0.2882E-01  0.5503E-01
     -1.471  0.1802E-01  0.5684E-01
     -1.370  0.1133E-01  0.5799E-01
     -1.270  0.1141E-01  0.5913E-01
     -1.169  0.1991E-01  0.6114E-01
     -1.068  0.3598E-01  0.6477E-01
     -0.967  0.5100E-01  0.6990E-01
     -0.867  0.5282E-01  0.7522E-01
     -0.766  0.4147E-01  0.7940E-01
     -0.665  0.3067E-01  0.8249E-01
     -0.564  0.2842E-01  0.8535E-01
     -0.464  0.2974E-01  0.8835E-01
     -0.363  0.2882E-01  0.9126E-01
     -0.262  0.2538E-01  0.9381E-01
     -0.162  0.2183E-01  0.9601E-01
     -0.061  0.2119E-01  0.9815E-01
      0.040  0.2457E-01  0.1006E+00
      0.141  0.2850E-01  0.1035E+00
      0.241  0.2951E-01  0.1065E+00
      0.342  0.3118E-01  0.1096E+00
      0.443  0.3943E-01  0.1136E+00
      0.544  0.5206E-01  0.1188E+00
      0.644  0.5871E-01  0.1247E+00
      0.745  0.5256E-01  0.1300E+00
      0.846  0.3974E-01  0.1340E+00
      0.947  0.3162E-01  0.1372E+00
      1.047  0.3165E-01  0.1404E+00
      1.148  0.3861E-01  0.1443E+00
      1.249  0.5033E-01  0.1494E+00
      1.350  0.5869E-01  0.1553E+00
      1.450  0.5705E-01  0.1610E+00
      1.551  0.4934E-01  0.1660E+00
      1.652  0.4144E-01  0.1702E+00
      1.753  0.3300E-01  0.1735E+00
      1.853  0.2385E-01  0.1759E+00
      1.954  0.1737E-01  0.1776E+00
      2.055  0.1577E-01  0.1792E+00
      2.156  0.1865E-01  0.1811E+00
      2.256  0.2406E-01  0.1835E+00
      2.357  0.2945E-01  0.1865E+00
      2.458  0.3284E-01  0.1898E+00
      2.559  0.3493E-01  0.1933E+00
      2.659  0.4094E-01  0.1975E+00
      2.760  0.5286E-01  0.2028E+00
      2.861  0.6279E-01  0.2091E+00
      2.961  0.6409E-01  0.2156E+00
      3.062  0.5898E-01  0.2215E+00
      3.163  0.5121E-01  0.2267E+00
      3.264  0.4225E-01  0.2309E+00
      3.364  0.3337E-01  0.2343E+00
      3.465  0.2625E-01  0.2369E+00
      3.566  0.2305E-01  0.2393E+00
      3.667  0.2656E-01  0.2419E+00
      3.767  0.3633E-01  0.2456E+00
      3.868  0.4409E-01  0.2500E+00
      3.969  0.4213E-01  0.2543E+00
      4.070  0.3404E-01  0.2577E+00
      4.170  0.2853E-01  0.2606E+00
      4.271  0.3092E-01  0.2637E+00
      4.372  0.4206E-01  0.2679E+00
      4.473  0.5858E-01  0.2738E+00
      4.573  0.7256E-01  0.2811E+00
      4.674  0.7716E-01  0.2889E+00
      4.775  0.7520E-01  0.2965E+00
      4.876  0.7125E-01  0.3037E+00
      4.976  0.6226E-01  0.3099E+00
      5.077  0.4818E-01  0.3148E+00
      5.178  0.3736E-01  0.3186E+00
      5.279  0.3297E-01  0.3219E+00
      5.379  0.2926E-01  0.3248E+00
      5.480  0.2553E-01  0.3274E+00
      5.581  0.2834E-01  0.3302E+00
      5.682  0.3995E-01  0.3343E+00
      5.782  0.5518E-01  0.3398E+00
      5.883  0.6870E-01  0.3468E+00
      5.984  0.7877E-01  0.3547E+00
      6.084  0.8294E-01  0.3630E+00
      6.185  0.7695E-01  0.3708E+00
      6.286  0.6040E-01  0.3769E+00
      6.387  0.4190E-01  0.3811E+00
      6.487  0.3423E-01  0.3846E+00
      6.588  0.4258E-01  0.3888E+00
      6.689  0.5999E-01  0.3949E+00
      6.790  0.7122E-01  0.4021E+00
      6.890  0.6547E-01  0.4087E+00
      6.991  0.5204E-01  0.4139E+00
      7.092  0.4919E-01  0.4189E+00
      7.193  0.5869E-01  0.4248E+00
      7.293  0.7182E-01  0.4320E+00
      7.394  0.8565E-01  0.4406E+00
      7.495  0.9606E-01  0.4503E+00
      7.596  0.9501E-01  0.4599E+00
      7.696  0.8148E-01  0.4681E+00
      7.797  0.6477E-01  0.4746E+00
      7.898  0.5527E-01  0.4802E+00
      7.999  0.5267E-01  0.4855E+00
      8.099  0.4969E-01  0.4905E+00
      8.200  0.4414E-01  0.4949E+00
      8.301  0.3775E-01  0.4987E+00
      8.402  0.3243E-01  0.5020E+00
      8.502  0.3262E-01  0.5053E+00
      8.603  0.3893E-01  0.5092E+00
      8.704  0.4423E-01  0.5137E+00
      8.804  0.4699E-01  0.5184E+00
      8.905  0.5427E-01  0.5239E+00
      9.006  0.6322E-01  0.5302E+00
      9.107  0.6135E-01  0.5364E+00
      9.207  0.4916E-01  0.5414E+00
      9.308  0.4043E-01  0.5455E+00
      9.409  0.4255E-01  0.5497E+00
      9.510  0.4983E-01  0.5548E+00
      9.610  0.5151E-01  0.5599E+00
      9.711  0.4360E-01  0.5643E+00
      9.812  0.3205E-01  0.5676E+00
      9.913  0.2369E-01  0.5700E+00
     10.013  0.2146E-01  0.5721E+00
     10.114  0.2687E-01  0.5748E+00
     10.215  0.3825E-01  0.5787E+00
     10.316  0.5089E-01  0.5838E+00
     10.416  0.6105E-01  0.5900E+00
     10.517  0.6472E-01  0.5965E+00
     10.618  0.5891E-01  0.6024E+00
     10.719  0.4827E-01  0.6073E+00
     10.819  0.4289E-01  0.6116E+00
     10.920  0.5098E-01  0.6167E+00
     11.021  0.7158E-01  0.6239E+00
     11.122  0.8845E-01  0.6329E+00
     11.222  0.8397E-01  0.6413E+00
     11.323  0.6440E-01  0.6478E+00
     11.424  0.5061E-01  0.6529E+00
     11.525  0.4989E-01  0.6579E+00
     11.625  0.5677E-01  0.6636E+00
     11.726  0.6500E-01  0.6702E+00
     11.827  0.7155E-01  0.6774E+00
     11.927  0.7954E-01  0.6854E+00
     12.028  0.9062E-01  0.6945E+00
     12.129  0.9823E-01  0.7044E+00
     12.230  0.9646E-01  0.7142E+00
     12.330  0.8645E-01  0.7229E+00
     12.431  0.7088E-01  0.7300E+00
     12.532  0.5027E-01  0.7351E+00
     12.633  0.2930E-01  0.7380E+00
     12.733  0.1725E-01  0.7398E+00
     12.834  0.1696E-01  0.7415E+00
     12.935  0.2481E-01  0.7440E+00
     13.036  0.4063E-01  0.7481E+00
     13.136  0.6441E-01  0.7545E+00
     13.237  0.8710E-01  0.7633E+00
     13.338  0.9638E-01  0.7730E+00
     13.439  0.8873E-01  0.7820E+00
     13.539  0.7046E-01  0.7891E+00
     13.640  0.5352E-01  0.7945E+00
     13.741  0.4933E-01  0.7994E+00
     13.842  0.5812E-01  0.8053E+00
     13.942  0.7144E-01  0.8125E+00
     14.043  0.8491E-01  0.8210E+00
     14.144  0.9597E-01  0.8307E+00
     14.245  0.9664E-01  0.8404E+00
     14.345  0.8437E-01  0.8489E+00
     14.446  0.7174E-01  0.8562E+00
     14.547  0.7291E-01  0.8635E+00
     14.648  0.8370E-01  0.8719E+00
     14.748  0.8765E-01  0.8808E+00
     14.849  0.8012E-01  0.8888E+00
     14.950  0.7224E-01  0.8961E+00
     15.050  0.7094E-01  0.9033E+00
     15.151  0.7063E-01  0.9104E+00
     15.252  0.6533E-01  0.9170E+00
     15.353  0.5557E-01  0.9226E+00
     15.453  0.4464E-01  0.9271E+00
     15.554  0.3784E-01  0.9309E+00
     15.655  0.3950E-01  0.9349E+00
     15.756  0.4630E-01  0.9395E+00
     15.856  0.5130E-01  0.9447E+00
     15.957  0.5498E-01  0.9502E+00
     16.058  0.6336E-01  0.9566E+00
     16.159  0.7130E-01  0.9638E+00
     16.259  0.6722E-01  0.9706E+00
     16.360  0.5465E-01  0.9761E+00
     16.461  0.4473E-01  0.9806E+00
     16.562  0.4132E-01  0.9847E+00
     16.662  0.4306E-01  0.9891E+00
     16.763  0.4437E-01  0.9935E+00
     16.864  0.4022E-01  0.9976E+00
     16.965  0.3660E-01  0.1001E+01
     17.065  0.4318E-01  0.1006E+01
     17.166  0.5558E-01  0.1011E+01
     17.267  0.6084E-01  0.1017E+01
     17.368  0.5501E-01  0.1023E+01
     17.468  0.4135E-01  0.1027E+01
     17.569  0.2496E-01  0.1030E+01
     17.670  0.1392E-01  0.1031E+01
     17.770  0.1265E-01  0.1032E+01
     17.871  0.1691E-01  0.1034E+01
     17.972  0.1897E-01  0.1036E+01
     18.073  0.1558E-01  0.1037E+01
     18.173  0.1015E-01  0.1038E+01
     18.274  0.7418E-02  0.1039E+01
     18.375  0.1055E-01  0.1040E+01
     18.476  0.2114E-01  0.1042E+01
     18.576  0.3396E-01  0.1046E+01
     18.677  0.3781E-01  0.1050E+01
     18.778  0.2937E-01  0.1053E+01
     18.879  0.1656E-01  0.1054E+01
     18.979  0.6996E-02  0.1055E+01
     19.080  0.2738E-02  0.1055E+01
     19.181  0.2722E-02  0.1056E+01
     19.282  0.4741E-02  0.1056E+01
     19.382  0.6047E-02  0.1057E+01
     19.483  0.5800E-02  0.1057E+01
     19.584  0.6455E-02  0.1058E+01
     19.685  0.9336E-02  0.1059E+01
     19.785  0.1154E-01  0.1060E+01
     19.886  0.1071E-01  0.1061E+01
     19.987  0.8725E-02  0.1062E+01
     20.088  0.7262E-02  0.1063E+01
     20.188  0.5262E-02  0.1063E+01
     20.289  0.2669E-02  0.1063E+01
     20.390  0.8866E-03  0.1064E+01
     20.491  0.3466E-03  0.1064E+01
     20.591  0.7479E-03  0.1064E+01
     20.692  0.1911E-02  0.1064E+01
     20.793  0.3316E-02  0.1064E+01
     20.893  0.4164E-02  0.1065E+01
     20.994  0.4168E-02  0.1065E+01
     21.095  0.3328E-02  0.1065E+01
     21.196  0.1924E-02  0.1066E+01
     21.296  0.7497E-03  0.1066E+01
     21.397  0.2902E-03  0.1066E+01
     21.498  0.5495E-03  0.1066E+01
     21.599  0.1490E-02  0.1066E+01
     21.699  0.2599E-02  0.1066E+01
     21.800  0.2792E-02  0.1066E+01
     21.901  0.1844E-02  0.1067E+01
     22.002  0.7484E-03  0.1067E+01
     22.102  0.1865E-03  0.1067E+01
     22.203  0.2850E-04  0.1067E+01
     22.304  0.2667E-05  0.1067E+01
     22.405  0.1526E-06  0.1067E+01
     22.505  0.5326E-08  0.1067E+01
     22.606  0.1133E-09  0.1067E+01
     22.707  0.1466E-11  0.1067E+01
     22.808  0.1153E-13  0.1067E+01
     22.908  0.5510E-16  0.1067E+01
     23.009  0.0000E+00  0.1067E+01
     23.110  0.0000E+00  0.1067E+01
     23.211  0.0000E+00  0.1067E+01
     23.311  0.0000E+00  0.1067E+01
     23.412  0.0000E+00  0.1067E+01
     23.513  0.0000E+00  0.1067E+01
     23.614  0.0000E+00  0.1067E+01
     23.714  0.0000E+00  0.1067E+01
