    2    2   15    1
  0.1529437E+02  0.3691622E-09  0.3691622E-09  0.3691622E-09  0.5000000E-15
  1.000000000000000E-004
  CAR 
 unknown system                          
      8     56      8
 
  0.6250000E-01  0.6250000E-01  0.6250000E-01  0.1562500E-01
    1       -4.100709   1.000000
    2        4.930562   1.000000
    3        7.147599   1.000000
    4        8.942874   0.784968
    5       12.280896   0.000000
    6       14.022808   0.000000
    7       14.517538   0.000000
    8       16.763077   0.000000
 
  0.1875000E+00  0.6250000E-01  0.6250000E-01  0.3125000E-01
    1       -2.885500   1.000000
    2        4.618286   1.000000
    3        7.394199   1.000000
    4        9.448194   0.002684
    5       11.164140   0.000000
    6       11.437034   0.000000
    7       14.057445   0.000000
    8       15.038414   0.000000
 
  0.3125000E+00  0.6250000E-01  0.6250000E-01  0.3125000E-01
    1       -0.890536   1.000000
    2        4.770969   1.000000
    3        5.766592   1.000000
    4        7.579532   1.000000
    5        8.993157   0.667682
    6       12.022100   0.000000
    7       13.834972   0.000000
    8       14.244658   0.000000
 
  0.4375000E+00  0.6250000E-01  0.6250000E-01  0.1562500E-01
    1        1.428019   1.000000
    2        2.377399   1.000000
    3        6.049256   1.000000
    4        6.540595   1.000000
    5        8.877568   0.894507
    6       10.892374   0.000000
    7       13.693935   0.000000
    8       14.577945   0.000000
 
 -0.6250000E-01  0.6250000E-01  0.6250000E-01  0.7812500E-02
    1       -4.508227   1.000000
    2        5.626732   1.000000
    3        6.311275   1.000000
    4        8.633963   0.998527
    5       11.378167   0.000000
    6       15.415101   0.000000
    7       17.932794   0.000000
    8       18.149360   0.000000
 
  0.1875000E+00  0.1875000E+00  0.6250000E-01  0.1562500E-01
    1       -1.081174   1.000000
    2        4.798997   1.000000
    3        6.627408   1.000000
    4        6.859952   1.000000
    5       10.030130   0.000000
    6       12.251007   0.000000
    7       13.213478   0.000000
    8       13.487529   0.000000
 
  0.3125000E+00  0.1875000E+00  0.6250000E-01  0.3125000E-01
    1        1.370823   1.000000
    2        3.138495   1.000000
    3        4.543804   1.000000
    4        6.100830   1.000000
    5       10.252451   0.000000
    6       12.002003   0.000000
    7       13.111053   0.000000
    8       15.279129   0.000000
 
  0.4375000E+00  0.1875000E+00  0.6250000E-01  0.3125000E-01
    1        0.061391   1.000000
    2        3.006840   1.000000
    3        5.038527   1.000000
    4        7.524911   1.000000
    5        9.521815   0.000475
    6       12.274605   0.000000
    7       14.157533   0.000000
    8       15.219751   0.000000
 
 -0.4375000E+00  0.1875000E+00  0.6250000E-01  0.3125000E-01
    1       -2.106113   1.000000
    2        2.458293   1.000000
    3        7.901698   1.000000
    4        9.018033   0.601651
    5       10.627047   0.000000
    6       12.140126   0.000000
    7       13.274371   0.000000
    8       15.691071   0.000000
 
 -0.3125000E+00  0.1875000E+00  0.6250000E-01  0.1562500E-01
    1       -3.511038   1.000000
    2        2.606780   1.000000
    3        7.665620   1.000000
    4        9.831269   0.000000
    5       12.510312   0.000000
    6       13.876337   0.000000
    7       14.708794   0.000000
    8       15.566717   0.000000
 
 -0.1875000E+00  0.1875000E+00  0.6250000E-01  0.1562500E-01
    1       -4.113936   1.000000
    2        3.484419   1.000000
    3        6.462782   1.000000
    4        9.843812   0.000000
    5       13.403550   0.000000
    6       13.484229   0.000000
    7       16.581595   0.000000
    8       17.333580   0.000000
 
 -0.6250000E-01  0.1875000E+00  0.6250000E-01  0.1562500E-01
    1       -3.904069   1.000000
    2        4.703183   1.000000
    3        5.730754   1.000000
    4       10.431568   0.000000
    5       13.025693   0.000000
    6       13.124568   0.000000
    7       14.091051   0.000000
    8       16.155660   0.000000
 
  0.3125000E+00  0.3125000E+00  0.6250000E-01  0.1562500E-01
    1        1.337138   1.000000
    2        1.411905   1.000000
    3        4.831289   1.000000
    4        7.447297   1.000000
    5       10.314741   0.000000
    6       11.145598   0.000000
    7       15.371072   0.000000
    8       16.141881   0.000000
 
  0.4375000E+00  0.3125000E+00  0.6250000E-01  0.3125000E-01
    1       -0.945635   1.000000
    2        0.583884   1.000000
    3        8.245288   1.000000
    4        8.968877   0.727480
    5       10.438522   0.000000
    6       11.842877   0.000000
    7       13.197254   0.000000
    8       14.625055   0.000000
 
 -0.4375000E+00  0.3125000E+00  0.6250000E-01  0.1562500E-01
    1       -2.533284   1.000000
    2        0.547068   1.000000
    3        8.516348   0.999929
    4       10.756709   0.000000
    5       11.143036   0.000000
    6       13.236902   0.000000
    7       14.094266   0.000000
    8       14.154632   0.000000
 
 -0.3125000E+00  0.3125000E+00  0.6250000E-01  0.1562500E-01
    1       -3.328415   1.000000
    2        1.284009   1.000000
    3        7.174159   1.000000
    4       10.765960   0.000000
    5       11.406430   0.000000
    6       14.905858   0.000000
    7       16.366216   0.000000
    8       17.075564   0.000000
 
 -0.1875000E+00  0.3125000E+00  0.6250000E-01  0.3125000E-01
    1       -3.315628   1.000000
    2        2.752926   1.000000
    3        5.908711   1.000000
    4       11.141049   0.000000
    5       11.718654   0.000000
    6       13.264072   0.000000
    7       15.148981   0.000000
    8       16.098295   0.000000
 
 -0.6250000E-01  0.3125000E+00  0.6250000E-01  0.1562500E-01
    1       -2.495937   1.000000
    2        4.506813   1.000000
    3        5.673419   1.000000
    4        8.588346   0.999510
    5       11.529703   0.000000
    6       13.387891   0.000000
    7       13.859607   0.000000
    8       13.937294   0.000000
 
  0.4375000E+00  0.4375000E+00  0.6250000E-01  0.7812500E-02
    1       -1.175606   1.000000
    2       -1.175606   1.000000
    3        9.668868   0.000007
    4        9.668871   0.000007
    5       12.068991   0.000000
    6       12.068996   0.000000
    7       13.752784   0.000000
    8       13.752788   0.000000
 
 -0.4375000E+00  0.4375000E+00  0.6250000E-01  0.1562500E-01
    1       -2.157947   1.000000
    2       -0.613574   1.000000
    3        8.249316   1.000000
    4        9.668755   0.000007
    5       11.892421   0.000000
    6       13.289407   0.000000
    7       16.689095   0.000000
    8       16.816956   0.000000
 
 -0.3125000E+00  0.4375000E+00  0.6250000E-01  0.3125000E-01
    1       -2.340161   1.000000
    2        0.726094   1.000000
    3        6.783223   1.000000
    4        9.581442   0.000097
    5       11.699446   0.000000
    6       13.458327   0.000000
    7       15.069461   0.000000
    8       16.112269   0.000000
 
 -0.1875000E+00  0.4375000E+00  0.6250000E-01  0.3125000E-01
    1       -1.720599   1.000000
    2        2.774494   1.000000
    3        5.939105   1.000000
    4        7.918045   1.000000
    5       10.179016   0.000000
    6       12.841274   0.000000
    7       14.716453   0.000000
    8       15.771355   0.000000
 
 -0.6250000E-01  0.4375000E+00  0.6250000E-01  0.1562500E-01
    1       -0.321854   1.000000
    2        4.234349   1.000000
    3        5.586002   1.000000
    4        6.227369   1.000000
    5        9.548453   0.000239
    6       11.770451   0.000000
    7       12.457191   0.000000
    8       15.864916   0.000000
 
 -0.4375000E+00 -0.4375000E+00  0.6250000E-01  0.1562500E-01
    1       -0.990494   1.000000
    2       -0.983407   1.000000
    3        8.015186   1.000000
    4        8.038640   1.000000
    5       11.651451   0.000000
    6       14.115832   0.000000
    7       14.942029   0.000000
    8       15.073036   0.000000
 
 -0.3125000E+00 -0.4375000E+00  0.6250000E-01  0.3125000E-01
    1       -0.567527   1.000000
    2        0.946943   1.000000
    3        6.810813   1.000000
    4        7.610651   1.000000
    5        8.675687   0.996301
    6       12.428958   0.000000
    7       15.874296   0.000000
    8       17.166028   0.000000
 
 -0.1875000E+00 -0.4375000E+00  0.6250000E-01  0.3125000E-01
    1        0.612432   1.000000
    2        3.295399   1.000000
    3        4.367663   1.000000
    4        6.757091   1.000000
    5        9.058066   0.489848
    6       11.022109   0.000000
    7       13.463786   0.000000
    8       17.240954   0.000000
 
 -0.6250000E-01 -0.4375000E+00  0.6250000E-01  0.1562500E-01
    1        1.005252   1.000000
    2        2.802820   1.000000
    3        6.647873   1.000000
    4        7.150274   1.000000
    5        8.041251   1.000000
    6       10.463961   0.000000
    7       12.138495   0.000000
    8       16.048863   0.000000
 
 -0.3125000E+00 -0.3125000E+00  0.6250000E-01  0.1562500E-01
    1        1.781745   1.000000
    2        1.984508   1.000000
    3        4.002546   1.000000
    4        7.654238   1.000000
    5        8.115659   1.000000
    6       10.596638   0.000000
    7       15.387395   0.000000
    8       16.243725   0.000000
 
 -0.1875000E+00 -0.3125000E+00  0.6250000E-01  0.3125000E-01
    1        0.678541   1.000000
    2        3.847640   1.000000
    3        5.261148   1.000000
    4        7.492406   1.000000
    5        8.634479   0.998510
    6       10.488321   0.000000
    7       12.107196   0.000000
    8       14.721327   0.000000
 
 -0.6250000E-01 -0.3125000E+00  0.6250000E-01  0.1562500E-01
    1       -1.466539   1.000000
    2        6.056129   1.000000
    3        7.292084   1.000000
    4        7.474166   1.000000
    5        8.816069   0.954076
    6       11.135669   0.000000
    7       12.233487   0.000000
    8       13.893826   0.000000
 
 -0.1875000E+00 -0.1875000E+00  0.6250000E-01  0.1562500E-01
    1       -1.659122   1.000000
    2        6.792932   1.000000
    3        7.355238   1.000000
    4        7.771769   1.000000
    5        9.176283   0.194517
    6       11.044129   0.000000
    7       11.986998   0.000000
    8       12.189047   0.000000
 
 -0.6250000E-01 -0.1875000E+00  0.6250000E-01  0.1562500E-01
    1       -3.276639   1.000000
    2        6.683538   1.000000
    3        7.270640   1.000000
    4        9.365677   0.013883
    5       11.214274   0.000000
    6       11.636496   0.000000
    7       12.422796   0.000000
    8       14.060214   0.000000
 
 -0.6250000E-01 -0.6250000E-01  0.6250000E-01  0.3906250E-02
    1       -4.297790   1.000000
    2        6.973810   1.000000
    3        6.973814   1.000000
    4        7.669720   1.000000
    5       11.087791   0.000000
    6       14.749920   0.000000
    7       14.913146   0.000000
    8       16.873805   0.000000
 
  0.1875000E+00  0.1875000E+00  0.1875000E+00  0.1562500E-01
    1       -0.124546   1.000000
    2        2.860651   1.000000
    3        6.171648   1.000000
    4        6.273402   1.000000
    5       11.066863   0.000000
    6       13.084170   0.000000
    7       14.260614   0.000000
    8       14.675849   0.000000
 
  0.3125000E+00  0.1875000E+00  0.1875000E+00  0.1562500E-01
    1        2.161067   1.000000
    2        2.936792   1.000000
    3        4.011044   1.000000
    4        4.702876   1.000000
    5       11.974312   0.000000
    6       13.887772   0.000000
    7       14.310483   0.000000
    8       14.540937   0.000000
 
 -0.1875000E+00  0.1875000E+00  0.1875000E+00  0.7812500E-02
    1       -3.721335   1.000000
    2        3.374309   1.000000
    3        4.585553   1.000000
    4       11.277412   0.000000
    5       12.039603   0.000000
    6       14.562615   0.000000
    7       16.374767   0.000000
    8       16.881992   0.000000
 
  0.3125000E+00  0.3125000E+00  0.1875000E+00  0.7812500E-02
    1        1.197978   1.000000
    2        1.197978   1.000000
    3        6.046169   1.000000
    4        6.046172   1.000000
    5       12.369091   0.000000
    6       12.369093   0.000000
    7       14.323442   0.000000
    8       14.323450   0.000000
 
 -0.3125000E+00  0.3125000E+00  0.1875000E+00  0.1562500E-01
    1       -2.939442   1.000000
    2        1.607377   1.000000
    3        4.878710   1.000000
    4        9.195361   0.159559
    5       13.301558   0.000000
    6       15.620916   0.000000
    7       16.310292   0.000000
    8       17.438836   0.000000
 
 -0.1875000E+00  0.3125000E+00  0.1875000E+00  0.1562500E-01
    1       -2.731084   1.000000
    2        2.803157   1.000000
    3        4.098983   1.000000
    4        9.320275   0.030085
    5       11.522079   0.000000
    6       14.852064   0.000000
    7       16.543002   0.000000
    8       16.676659   0.000000
 
 -0.4375000E+00  0.4375000E+00  0.1875000E+00  0.1562500E-01
    1       -1.775593   1.000000
    2       -0.245460   1.000000
    3        5.943421   1.000000
    4        7.397986   1.000000
    5       14.203829   0.000000
    6       14.949782   0.000000
    7       16.445870   0.000000
    8       17.116412   0.000000
 
 -0.3125000E+00  0.4375000E+00  0.1875000E+00  0.3125000E-01
    1       -1.763783   1.000000
    2        1.234407   1.000000
    3        4.542824   1.000000
    4        7.402047   1.000000
    5       11.063089   0.000000
    6       16.144244   0.000000
    7       16.743952   0.000000
    8       18.622896   0.000000
 
 -0.1875000E+00  0.4375000E+00  0.1875000E+00  0.1562500E-01
    1       -0.954356   1.000000
    2        2.988504   1.000000
    3        4.332292   1.000000
    4        7.115905   1.000000
    5        8.342022   1.000000
    6       14.175353   0.000000
    7       15.380434   0.000000
    8       17.427911   0.000000
 
 -0.4375000E+00 -0.4375000E+00  0.1875000E+00  0.1562500E-01
    1       -0.435108   1.000000
    2       -0.420133   1.000000
    3        5.766987   1.000000
    4        5.796361   1.000000
    5       10.898417   0.000000
    6       16.405944   0.000000
    7       17.393640   0.000000
    8       17.912296   0.000000
 
 -0.3125000E+00 -0.4375000E+00  0.1875000E+00  0.3125000E-01
    1        0.178832   1.000000
    2        1.636258   1.000000
    3        4.908843   1.000000
    4        6.187606   1.000000
    5        7.167479   1.000000
    6       14.292510   0.000000
    7       17.107039   0.000000
    8       18.544564   0.000000
 
 -0.1875000E+00 -0.4375000E+00  0.1875000E+00  0.1562500E-01
    1        1.489731   1.000000
    2        3.166264   1.000000
    3        4.496181   1.000000
    4        5.275877   1.000000
    5        7.653397   1.000000
    6       12.223422   0.000000
    7       13.326956   0.000000
    8       17.355961   0.000000
 
 -0.3125000E+00 -0.3125000E+00  0.1875000E+00  0.1562500E-01
    1        2.302495   1.000000
    2        2.885984   1.000000
    3        3.795523   1.000000
    4        6.070422   1.000000
    5        6.206020   1.000000
    6       12.419701   0.000000
    7       14.822398   0.000000
    8       15.830072   0.000000
 
 -0.1875000E+00 -0.3125000E+00  0.1875000E+00  0.1562500E-01
    1        0.316872   1.000000
    2        4.903702   1.000000
    3        5.958015   1.000000
    4        6.801169   1.000000
    5        7.732134   1.000000
    6       11.061280   0.000000
    7       11.902770   0.000000
    8       13.650741   0.000000
 
 -0.1875000E+00 -0.1875000E+00  0.1875000E+00  0.3906250E-02
    1       -1.852699   1.000000
    2        8.066304   1.000000
    3        8.066307   1.000000
    4        8.274710   1.000000
    5        8.486054   0.999971
    6       10.224129   0.000000
    7       11.667008   0.000000
    8       11.667010   0.000000
 
 -0.3125000E+00  0.3125000E+00  0.3125000E+00  0.7812500E-02
    1       -2.165864   1.000000
    2        1.830972   1.000000
    3        3.198668   1.000000
    4        7.065025   1.000000
    5       14.529532   0.000000
    6       15.103873   0.000000
    7       17.353504   0.000000
    8       18.772007   0.000000
 
 -0.4375000E+00  0.4375000E+00  0.3125000E+00  0.1562500E-01
    1       -1.020361   1.000000
    2        0.454501   1.000000
    3        3.811455   1.000000
    4        5.243528   1.000000
    5       14.602256   0.000000
    6       14.731940   0.000000
    7       18.574765   0.000000
    8       19.693564   0.000000
 
 -0.3125000E+00  0.4375000E+00  0.3125000E+00  0.1562500E-01
    1       -0.815362   1.000000
    2        1.640861   1.000000
    3        3.038296   1.000000
    4        5.430039   1.000000
    5       10.560821   0.000000
    6       17.791353   0.000000
    7       18.766254   0.000000
    8       19.325549   0.000000
 
 -0.4375000E+00 -0.4375000E+00  0.3125000E+00  0.1562500E-01
    1        0.450472   1.000000
    2        0.476596   1.000000
    3        3.814646   1.000000
    4        3.834074   1.000000
    5       10.387975   0.000000
    6       17.954218   0.000000
    7       19.783143   0.000000
    8       20.057583   0.000000
 
 -0.3125000E+00 -0.4375000E+00  0.3125000E+00  0.1562500E-01
    1        1.249427   1.000000
    2        2.219884   1.000000
    3        3.627813   1.000000
    4        4.558656   1.000000
    5        6.650921   1.000000
    6       16.118552   0.000000
    7       17.163041   0.000000
    8       18.593698   0.000000
 
 -0.3125000E+00 -0.3125000E+00  0.3125000E+00  0.3906250E-02
    1        2.460586   1.000000
    2        3.708139   1.000000
    3        4.365587   1.000000
    4        4.940162   1.000000
    5        4.940163   1.000000
    6       14.440645   0.000000
    7       14.630585   0.000000
    8       14.630587   0.000000
 
 -0.4375000E+00  0.4375000E+00  0.4375000E+00  0.7812500E-02
    1        0.066811   1.000000
    2        1.049406   1.000000
    3        2.479159   1.000000
    4        3.447604   1.000000
    5       14.413410   0.000000
    6       14.442540   0.000000
    7       21.005474   0.000000
    8       21.714254   0.000000
 
 -0.4375000E+00 -0.4375000E+00  0.4375000E+00  0.3906250E-02
    1        1.227389   1.000000
    2        1.272710   1.000000
    3        2.677621   1.000000
    4        2.677622   1.000000
    5       10.213814   0.000000
    6       18.323144   0.000000
    7       20.782435   0.000000
    8       20.782439   0.000000
