unknown system                          
   1.00000000000000     
     0.000000    2.751380    2.751380
     2.751380   -0.000000    2.751380
     2.751380    2.751380    0.000000
   Si
     2
Direct
  0.500000  0.500000  0.500000
  0.750000  0.750000  0.750000
 
   32   32   32
 0.65624845275E+00 0.67652850335E+00 0.73914775264E+00 0.84910186310E+00 0.10138521946E+01
 0.12425141792E+01 0.15450728230E+01 0.19311058166E+01 0.24071767626E+01 0.29726070320E+01
 0.36145799777E+01 0.43044874782E+01 0.49972957723E+01 0.56348117600E+01 0.61529386927E+01
 0.64923368070E+01 0.66105951244E+01 0.64922846685E+01 0.61528797335E+01 0.56347853015E+01
 0.49972975228E+01 0.43044868363E+01 0.36145611767E+01 0.29725824874E+01 0.24071661870E+01
 0.19311136998E+01 0.15450875051E+01 0.12425225537E+01 0.10138518742E+01 0.84910005243E+00
 0.73915034954E+00 0.67653286249E+00 0.67652850335E+00 0.71113784023E+00 0.78346725981E+00
 0.89906802943E+00 0.10649429607E+01 0.12885944344E+01 0.15771010703E+01 0.19357584965E+01
 0.23657621861E+01 0.28609756386E+01 0.34046675155E+01 0.39675849178E+01 0.45085842846E+01
 0.49785149869E+01 0.53273630662E+01 0.55136414104E+01 0.55136499146E+01 0.53273620085E+01
 0.49784651264E+01 0.45084967798E+01 0.39675171135E+01 0.34046580918E+01 0.28610067675E+01
 0.23657913035E+01 0.19357681140E+01 0.15771046420E+01 0.12886061151E+01 0.10649597763E+01
 0.89908046490E+00 0.78347303298E+00 0.71114027913E+00 0.67652935254E+00 0.73914775264E+00
 0.78346725981E+00 0.86173322273E+00 0.97940970826E+00 0.11424165201E+01 0.13562412815E+01
 0.16250959306E+01 0.19506532713E+01 0.23300982428E+01 0.27537842003E+01 0.32032586170E+01
 0.36505889030E+01 0.40598421249E+01 0.43912561469E+01 0.46078850263E+01 0.46833010198E+01
 0.46078863659E+01 0.43912659012E+01 0.40598587617E+01 0.36505968175E+01 0.32032475814E+01
 0.27537691730E+01 0.23301049687E+01 0.19506824127E+01 0.16251183006E+01 0.13562367211E+01
 0.11424005971E+01 0.97940797393E+00 0.86174465223E+00 0.78347311181E+00 0.73914473498E+00
 0.72484949768E+00 0.84910186310E+00 0.89906802943E+00 0.97940970826E+00 0.10949113222E+01
 0.12500627636E+01 0.14484159397E+01 0.16918698271E+01 0.19794868383E+01 0.23058459845E+01
 0.26594033106E+01 0.30215186718E+01 0.33667662250E+01 0.36650429034E+01 0.38857137703E+01
 0.40033148374E+01 0.40032978911E+01 0.38856839922E+01 0.36650413096E+01 0.33668079739E+01
 0.30215718291E+01 0.26594213508E+01 0.23058197399E+01 0.19794510222E+01 0.16918570559E+01
 0.14484220695E+01 0.12500651989E+01 0.10949035566E+01 0.97940270414E+00 0.89906870230E+00
 0.84910605445E+00 0.82535112389E+00 0.82534913183E+00 0.10138521946E+01 0.10649429607E+01
 0.11424165201E+01 0.12500627636E+01 0.13910382488E+01 0.15674827014E+01 0.17797881964E+01
 0.20253604952E+01 0.22972316114E+01 0.25831023506E+01 0.28652613923E+01 0.31216506095E+01
 0.33282768360E+01 0.34629614643E+01 0.35098057060E+01 0.34629837661E+01 0.33282793720E+01
 0.31216107116E+01 0.28652085731E+01 0.25830773688E+01 0.22972342840E+01 0.20253579157E+01
 0.17797635360E+01 0.15674542944E+01 0.13910309817E+01 0.12500779237E+01 0.11424359028E+01
 0.10649519903E+01 0.10138509072E+01 0.98525087791E+00 0.97610847081E+00 0.98525453947E+00
 0.12425141792E+01 0.12885944344E+01 0.13562412815E+01 0.14484159397E+01 0.15674827014E+01
 0.17148780963E+01 0.18901726339E+01 0.20897563676E+01 0.23058453778E+01 0.25263187089E+01
 0.27354168172E+01 0.29151829448E+01 0.30477151754E+01 0.31182206473E+01 0.31182330416E+01
 0.30477420383E+01 0.29151957995E+01 0.27353872245E+01 0.25262506961E+01 0.23057820863E+01
 0.20897383488E+01 0.18901940296E+01 0.17148989989E+01 0.15674806136E+01 0.14484066598E+01
 0.13562474457E+01 0.12886126079E+01 0.12425242896E+01 0.12146085971E+01 0.12016651589E+01
 0.12016697612E+01 0.12146126518E+01 0.15450728230E+01 0.15771010703E+01 0.16250959306E+01
 0.16918698271E+01 0.17797881964E+01 0.18901726339E+01 0.20221229992E+01 0.21713981850E+01
 0.23300977290E+01 0.24872764592E+01 0.26300680620E+01 0.27450349766E+01 0.28199294615E+01
 0.28459599767E+01 0.28199130284E+01 0.27450260862E+01 0.26300821363E+01 0.24873024731E+01
 0.23301143390E+01 0.21713953323E+01 0.20221068742E+01 0.18901598571E+01 0.17797932725E+01
 0.16918881779E+01 0.16251045435E+01 0.15770875833E+01 0.15450551286E+01 0.15258495012E+01
 0.15161460077E+01 0.15132534170E+01 0.15161336684E+01 0.15258486434E+01 0.19311058166E+01
 0.19357584965E+01 0.19506532713E+01 0.19794868383E+01 0.20253604952E+01 0.20897563676E+01
 0.21713981850E+01 0.22657931628E+01 0.23657614921E+01 0.24625101740E+01 0.25466577778E+01
 0.26091681784E+01 0.26425828114E+01 0.26425798786E+01 0.26091577325E+01 0.25466428293E+01
 0.24625083131E+01 0.23657922457E+01 0.22658472080E+01 0.21714321809E+01 0.20897371543E+01
 0.20253081941E+01 0.19794519927E+01 0.19506541720E+01 0.19357675755E+01 0.19310992086E+01
 0.19328240093E+01 0.19370475849E+01 0.19402465450E+01 0.19402436633E+01 0.19370484924E+01
 0.19328356973E+01 0.24071767626E+01 0.23657621861E+01 0.23300982428E+01 0.23058459845E+01
 0.22972316114E+01 0.23058453778E+01 0.23300977290E+01 0.23657614921E+01 0.24071748115E+01
 0.24482911705E+01 0.24832389591E+01 0.25067756265E+01 0.25150920917E+01 0.25067769408E+01
 0.24832505340E+01 0.24483082463E+01 0.24071766819E+01 0.23657401927E+01 0.23300731381E+01
 0.23058387913E+01 0.22972351492E+01 0.23058344045E+01 0.23300662228E+01 0.23657323701E+01
 0.24071688343E+01 0.24483018057E+01 0.24832471652E+01 0.25067766893E+01 0.25150935259E+01
 0.25067778810E+01 0.24832420187E+01 0.24482943190E+01 0.29726070320E+01 0.28609756386E+01
 0.27537842003E+01 0.26594033106E+01 0.25831023506E+01 0.25263187089E+01 0.24872764592E+01
 0.24625101740E+01 0.24482911705E+01 0.24412941235E+01 0.24386546951E+01 0.24380358168E+01
 0.24380392829E+01 0.24386646551E+01 0.24413126113E+01 0.24483166857E+01 0.24625214930E+01
 0.24872471162E+01 0.25262613707E+01 0.25830705818E+01 0.26594269086E+01 0.27538269663E+01
 0.28609828264E+01 0.29725743740E+01 0.30787378074E+01 0.31695111726E+01 0.32359398968E+01
 0.32710804625E+01 0.32710714737E+01 0.32359241992E+01 0.31695137969E+01 0.30787693896E+01
 0.36145799777E+01 0.34046675155E+01 0.32032586170E+01 0.30215186718E+01 0.28652613923E+01
 0.27354168172E+01 0.26300680620E+01 0.25466577778E+01 0.24832389591E+01 0.24386546951E+01
 0.24122204693E+01 0.24034832835E+01 0.24122433919E+01 0.24386598878E+01 0.24832201015E+01
 0.25466550492E+01 0.26300983824E+01 0.27354492325E+01 0.28652711330E+01 0.30215145900E+01
 0.32032503232E+01 0.34046537252E+01 0.36145730485E+01 0.38179830920E+01 0.39984543224E+01
 0.41405123646E+01 0.42314456812E+01 0.42627749852E+01 0.42314740835E+01 0.41405259990E+01
 0.39984384203E+01 0.38179686787E+01 0.43044874782E+01 0.39675849178E+01 0.36505889030E+01
 0.33667662250E+01 0.31216506095E+01 0.29151829448E+01 0.27450349766E+01 0.26091681784E+01
 0.25067756265E+01 0.24380358168E+01 0.24034832835E+01 0.24034942419E+01 0.24380492255E+01
 0.25067655780E+01 0.26091443895E+01 0.27450295773E+01 0.29152138611E+01 0.31217097946E+01
 0.33668194317E+01 0.36505851756E+01 0.39675073663E+01 0.43043988572E+01 0.46408077581E+01
 0.49518858239E+01 0.52123114115E+01 0.53998572748E+01 0.54980579442E+01 0.54980896098E+01
 0.53998971191E+01 0.52122883082E+01 0.49518362486E+01 0.46408233088E+01 0.49972957723E+01
 0.45085842846E+01 0.40598421249E+01 0.36650429034E+01 0.33282768360E+01 0.30477151754E+01
 0.28199294615E+01 0.26425828114E+01 0.25150920917E+01 0.24380392829E+01 0.24122433919E+01
 0.24380492255E+01 0.25150912484E+01 0.26425719906E+01 0.28199375408E+01 0.30477511514E+01
 0.33283057612E+01 0.36650312299E+01 0.40598049450E+01 0.45085602118E+01 0.49972883176E+01
 0.55008519571E+01 0.59854389563E+01 0.64134889633E+01 0.67492058677E+01 0.69633678144E+01
 0.70369466868E+01 0.69633616654E+01 0.67492240635E+01 0.64135412905E+01 0.59854926830E+01
 0.55008757907E+01 0.56348117600E+01 0.49785149869E+01 0.43912561469E+01 0.38857137703E+01
 0.34629614643E+01 0.31182206473E+01 0.28459599767E+01 0.26425798786E+01 0.25067769408E+01
 0.24386646551E+01 0.24386598878E+01 0.25067655780E+01 0.26425719906E+01 0.28459728698E+01
 0.31182639043E+01 0.34630089252E+01 0.38857110611E+01 0.43911889966E+01 0.49784521988E+01
 0.56348295496E+01 0.63324724486E+01 0.70294287077E+01 0.76748994765E+01 0.82164646823E+01
 0.86072462029E+01 0.88120589146E+01 0.88120617435E+01 0.86072822767E+01 0.82165496030E+01
 0.76749665551E+01 0.70294073378E+01 0.63324011499E+01 0.61529386927E+01 0.53273630662E+01
 0.46078850263E+01 0.40033148374E+01 0.35098057060E+01 0.31182330416E+01 0.28199130284E+01
 0.26091577325E+01 0.24832505340E+01 0.24413126113E+01 0.24832201015E+01 0.26091443895E+01
 0.28199375408E+01 0.31182639043E+01 0.35098152512E+01 0.40033151869E+01 0.46078943811E+01
 0.53273756358E+01 0.61529452390E+01 0.70573681950E+01 0.79937362902E+01 0.88995446542E+01
 0.97044946332E+01 0.10339735498E+02 0.10747101198E+02 0.10887494818E+02 0.10747105489E+02
 0.10339745980E+02 0.97045032518E+01 0.88995413478E+01 0.79937261305E+01 0.70573615934E+01
 0.64923368070E+01 0.55136414104E+01 0.46833010198E+01 0.40032978911E+01 0.34629837661E+01
 0.30477420383E+01 0.27450260862E+01 0.25466428293E+01 0.24483082463E+01 0.24483166857E+01
 0.25466550492E+01 0.27450295773E+01 0.30477511514E+01 0.34630089252E+01 0.40033151869E+01
 0.46832916219E+01 0.55136396318E+01 0.64923868412E+01 0.75968213605E+01 0.87797802991E+01
 0.99717096641E+01 0.11087227371E+02 0.12034280030E+02 0.12725304970E+02 0.13090373990E+02
 0.13090306604E+02 0.12725184289E+02 0.12034247837E+02 0.11087311518E+02 0.99718011568E+01
 0.87797792775E+01 0.75967510147E+01 0.66105951244E+01 0.55136499146E+01 0.46078863659E+01
 0.38856839922E+01 0.33282793720E+01 0.29151957995E+01 0.26300821363E+01 0.24625083131E+01
 0.24071766819E+01 0.24625214930E+01 0.26300983824E+01 0.29152138611E+01 0.33283057612E+01
 0.38857110611E+01 0.46078943811E+01 0.55136396318E+01 0.66105961814E+01 0.78851615042E+01
 0.92959076769E+01 0.10773000128E+02 0.12222572676E+02 0.13533640707E+02 0.14587760371E+02
 0.15274490058E+02 0.15513135561E+02 0.15274463777E+02 0.14587749978E+02 0.13533670787E+02
 0.12222613631E+02 0.10773005851E+02 0.92958753709E+01 0.78851314069E+01 0.64922846685E+01
 0.53273620085E+01 0.43912659012E+01 0.36650413096E+01 0.31216107116E+01 0.27353872245E+01
 0.24873024731E+01 0.23657922457E+01 0.23657401927E+01 0.24872471162E+01 0.27354492325E+01
 0.31217097946E+01 0.36650312299E+01 0.43911889966E+01 0.53273756358E+01 0.64923868412E+01
 0.78851615042E+01 0.94758996864E+01 0.11202688926E+02 0.12972942828E+02 0.14666512736E+02
 0.16139624856E+02 0.17232123135E+02 0.17813066943E+02 0.17813150007E+02 0.17232255550E+02
 0.16139615388E+02 0.14666358849E+02 0.12972834593E+02 0.11202740015E+02 0.94759907935E+01
 0.78851328628E+01 0.61528797335E+01 0.49784651264E+01 0.40598587617E+01 0.33668079739E+01
 0.28652085731E+01 0.25262506961E+01 0.23301143390E+01 0.22658472080E+01 0.23300731381E+01
 0.25262613707E+01 0.28652711330E+01 0.33668194317E+01 0.40598049450E+01 0.49784521988E+01
 0.61529452390E+01 0.75968213605E+01 0.92959076769E+01 0.11202688926E+02 0.13235664209E+02
 0.15278989628E+02 0.17174299967E+02 0.18715545138E+02 0.19721231281E+02 0.20070685695E+02
 0.19721189472E+02 0.18715498704E+02 0.17174252709E+02 0.15278929017E+02 0.13235626602E+02
 0.11202706517E+02 0.92959230543E+01 0.75967691626E+01 0.56347853015E+01 0.45084967798E+01
 0.36505968175E+01 0.30215718291E+01 0.25830773688E+01 0.23057820863E+01 0.21713953323E+01
 0.21714321809E+01 0.23058387913E+01 0.25830705818E+01 0.30215145900E+01 0.36505851756E+01
 0.45085602118E+01 0.56348295496E+01 0.70573681950E+01 0.87797802991E+01 0.10773000128E+02
 0.12972942828E+02 0.15278989628E+02 0.17537667744E+02 0.19516664210E+02 0.20988306896E+02
 0.21774373588E+02 0.21774263676E+02 0.20988131429E+02 0.19516646432E+02 0.17537770085E+02
 0.15279010379E+02 0.12972844791E+02 0.10772935767E+02 0.87798219843E+01 0.70574102488E+01
 0.49972975228E+01 0.39675171135E+01 0.32032475814E+01 0.26594213508E+01 0.22972342840E+01
 0.20897383488E+01 0.20221068742E+01 0.20897371543E+01 0.22972351492E+01 0.26594269086E+01
 0.32032503232E+01 0.39675073663E+01 0.49972883176E+01 0.63324724486E+01 0.79937362902E+01
 0.99717096641E+01 0.12222572676E+02 0.14666512736E+02 0.17174299967E+02 0.19516664210E+02
 0.21432906052E+02 0.22693953159E+02 0.23134773184E+02 0.22693980310E+02 0.21432871098E+02
 0.19516552940E+02 0.17174219248E+02 0.14666538441E+02 0.12222647663E+02 0.99717409624E+01
 0.79937180763E+01 0.63324582225E+01 0.43044868363E+01 0.34046580918E+01 0.27537691730E+01
 0.23058197399E+01 0.20253579157E+01 0.18901940296E+01 0.18901598571E+01 0.20253081941E+01
 0.23058344045E+01 0.27538269663E+01 0.34046537252E+01 0.43043988572E+01 0.55008519571E+01
 0.70294287077E+01 0.88995446542E+01 0.11087227371E+02 0.13533640707E+02 0.16139624856E+02
 0.18715545138E+02 0.20988306896E+02 0.22693953159E+02 0.23612034413E+02 0.23612084386E+02
 0.22693962033E+02 0.20988115181E+02 0.18715302974E+02 0.16139602161E+02 0.13533822455E+02
 0.11087352280E+02 0.88994992897E+01 0.70293643252E+01 0.55009009860E+01 0.36145611767E+01
 0.28610067675E+01 0.23301049687E+01 0.19794510222E+01 0.17797635360E+01 0.17148989989E+01
 0.17797932725E+01 0.19794519927E+01 0.23300662228E+01 0.28609828264E+01 0.36145730485E+01
 0.46408077581E+01 0.59854389563E+01 0.76748994765E+01 0.97044946332E+01 0.12034280030E+02
 0.14587760371E+02 0.17232123135E+02 0.19721231281E+02 0.21774373588E+02 0.23134773184E+02
 0.23612084386E+02 0.23134679271E+02 0.21774249832E+02 0.19721160054E+02 0.17232132205E+02
 0.14587802161E+02 0.12034304213E+02 0.97045117068E+01 0.76749362713E+01 0.59854728408E+01
 0.46408055272E+01 0.29725824874E+01 0.23657913035E+01 0.19506824127E+01 0.16918570559E+01
 0.15674542944E+01 0.15674806136E+01 0.16918881779E+01 0.19506541720E+01 0.23657323701E+01
 0.29725743740E+01 0.38179830920E+01 0.49518858239E+01 0.64134889633E+01 0.82164646823E+01
 0.10339735498E+02 0.12725304970E+02 0.15274490058E+02 0.17813066943E+02 0.20070685695E+02
 0.21774263676E+02 0.22693980310E+02 0.22693962033E+02 0.21774249832E+02 0.20070727981E+02
 0.17813133096E+02 0.15274506962E+02 0.12725274913E+02 0.10339735516E+02 0.82165237543E+01
 0.64135379653E+01 0.49518639911E+01 0.38179348724E+01 0.24071661870E+01 0.19357681140E+01
 0.16251183006E+01 0.14484220695E+01 0.13910309817E+01 0.14484066598E+01 0.16251045435E+01
 0.19357675755E+01 0.24071688343E+01 0.30787378074E+01 0.39984543224E+01 0.52123114115E+01
 0.67492058677E+01 0.86072462029E+01 0.10747101198E+02 0.13090373990E+02 0.15513135561E+02
 0.17813150007E+02 0.19721189472E+02 0.20988131429E+02 0.21432871098E+02 0.20988115181E+02
 0.19721160054E+02 0.17813133096E+02 0.15513163392E+02 0.13090439837E+02 0.10747158153E+02
 0.86072634050E+01 0.67492018013E+01 0.52123183909E+01 0.39984734509E+01 0.30787484307E+01
 0.19311136998E+01 0.15771046420E+01 0.13562367211E+01 0.12500651989E+01 0.12500779237E+01
 0.13562474457E+01 0.15770875833E+01 0.19310992086E+01 0.24483018057E+01 0.31695111726E+01
 0.41405123646E+01 0.53998572748E+01 0.69633678144E+01 0.88120589146E+01 0.10887494818E+02
 0.13090306604E+02 0.15274463777E+02 0.17232255550E+02 0.18715498704E+02 0.19516646432E+02
 0.19516552940E+02 0.18715302974E+02 0.17232132205E+02 0.15274506962E+02 0.13090439837E+02
 0.10887574641E+02 0.88120498254E+01 0.69633549993E+01 0.53998959546E+01 0.41405556978E+01
 0.31695112585E+01 0.24482895147E+01 0.15450875051E+01 0.12886061151E+01 0.11424005971E+01
 0.10949035566E+01 0.11424359028E+01 0.12886126079E+01 0.15450551286E+01 0.19328240093E+01
 0.24832471652E+01 0.32359398968E+01 0.42314456812E+01 0.54980579442E+01 0.70369466868E+01
 0.88120617435E+01 0.10747105489E+02 0.12725184289E+02 0.14587749978E+02 0.16139615388E+02
 0.17174252709E+02 0.17537770085E+02 0.17174219248E+02 0.16139602161E+02 0.14587802161E+02
 0.12725274913E+02 0.10747158153E+02 0.88120498254E+01 0.70369282409E+01 0.54980814557E+01
 0.42314740815E+01 0.32359223188E+01 0.24832138036E+01 0.19328333171E+01 0.12425225537E+01
 0.10649597763E+01 0.97940797393E+00 0.97940270414E+00 0.10649519903E+01 0.12425242896E+01
 0.15258495012E+01 0.19370475849E+01 0.25067766893E+01 0.32710804625E+01 0.42627749852E+01
 0.54980896098E+01 0.69633616654E+01 0.86072822767E+01 0.10339745980E+02 0.12034247837E+02
 0.13533670787E+02 0.14666358849E+02 0.15278929017E+02 0.15279010379E+02 0.14666538441E+02
 0.13533822455E+02 0.12034304213E+02 0.10339735516E+02 0.86072634050E+01 0.69633549993E+01
 0.54980814557E+01 0.42627572096E+01 0.32710614171E+01 0.25067623596E+01 0.19370346960E+01
 0.15258384630E+01 0.10138518742E+01 0.89908046490E+00 0.86174465223E+00 0.89906870230E+00
 0.10138509072E+01 0.12146085971E+01 0.15161460077E+01 0.19402465450E+01 0.25150935259E+01
 0.32710714737E+01 0.42314740835E+01 0.53998971191E+01 0.67492240635E+01 0.82165496030E+01
 0.97045032518E+01 0.11087311518E+02 0.12222613631E+02 0.12972834593E+02 0.13235626602E+02
 0.12972844791E+02 0.12222647663E+02 0.11087352280E+02 0.97045117068E+01 0.82165237543E+01
 0.67492018013E+01 0.53998959546E+01 0.42314740815E+01 0.32710614171E+01 0.25150870469E+01
 0.19402467308E+01 0.15161385002E+01 0.12145958552E+01 0.84910005243E+00 0.78347303298E+00
 0.78347311181E+00 0.84910605445E+00 0.98525087791E+00 0.12016651589E+01 0.15132534170E+01
 0.19402436633E+01 0.25067778810E+01 0.32359241992E+01 0.41405259990E+01 0.52122883082E+01
 0.64135412905E+01 0.76749665551E+01 0.88995413478E+01 0.99718011568E+01 0.10773005851E+02
 0.11202740015E+02 0.11202706517E+02 0.10772935767E+02 0.99717409624E+01 0.88994992897E+01
 0.76749362713E+01 0.64135379653E+01 0.52123183909E+01 0.41405556978E+01 0.32359223188E+01
 0.25067623596E+01 0.19402467308E+01 0.15132685551E+01 0.12016667238E+01 0.98523996583E+00
 0.73915034954E+00 0.71114027913E+00 0.73914473498E+00 0.82535112389E+00 0.97610847081E+00
 0.12016697612E+01 0.15161336684E+01 0.19370484924E+01 0.24832420187E+01 0.31695137969E+01
 0.39984384203E+01 0.49518362486E+01 0.59854926830E+01 0.70294073378E+01 0.79937261305E+01
 0.87797792775E+01 0.92958753709E+01 0.94759907935E+01 0.92959230543E+01 0.87798219843E+01
 0.79937180763E+01 0.70293643252E+01 0.59854728408E+01 0.49518639911E+01 0.39984734509E+01
 0.31695112585E+01 0.24832138036E+01 0.19370346960E+01 0.15161385002E+01 0.12016667238E+01
 0.97609331138E+00 0.82534479480E+00 0.67653286249E+00 0.67652935254E+00 0.72484949768E+00
 0.82534913183E+00 0.98525453947E+00 0.12146126518E+01 0.15258486434E+01 0.19328356973E+01
 0.24482943190E+01 0.30787693896E+01 0.38179686787E+01 0.46408233088E+01 0.55008757907E+01
 0.63324011499E+01 0.70573615934E+01 0.75967510147E+01 0.78851314069E+01 0.78851328628E+01
 0.75967691626E+01 0.70574102488E+01 0.63324582225E+01 0.55009009860E+01 0.46408055272E+01
 0.38179348724E+01 0.30787484307E+01 0.24482895147E+01 0.19328333171E+01 0.15258384630E+01
 0.12145958552E+01 0.98523996583E+00 0.82534479480E+00 0.72485403178E+00 0.67653146832E+00
 0.71114049104E+00 0.78346853780E+00 0.89906886590E+00 0.10649445325E+01 0.12885960683E+01
 0.15771018168E+01 0.19357590960E+01 0.23657634992E+01 0.28609768530E+01 0.34046679058E+01
 0.39675856127E+01 0.45085862424E+01 0.49785170011E+01 0.53273639088E+01 0.55136422453E+01
 0.55136524571E+01 0.53273659038E+01 0.49784691273E+01 0.45085007429E+01 0.39675207105E+01
 0.34046592856E+01 0.28610038354E+01 0.23657850134E+01 0.19357601312E+01 0.15770955432E+01
 0.12885968288E+01 0.10649529345E+01 0.89907793664E+00 0.78347361153E+00 0.71114180293E+00
 0.67653147324E+00 0.71114049104E+00 0.75409841310E+00 0.83006150585E+00 0.94446989738E+00
 0.11032887136E+01 0.13120886660E+01 0.15751142269E+01 0.18939826855E+01 0.22657935750E+01
 0.26808907174E+01 0.31209956034E+01 0.35586366596E+01 0.39586855920E+01 0.42824385952E+01
 0.44939943699E+01 0.45676448508E+01 0.44939951307E+01 0.42824033374E+01 0.39586164968E+01
 0.35585932382E+01 0.31210144512E+01 0.26809301474E+01 0.22657919680E+01 0.18939430431E+01
 0.15750917433E+01 0.13121093021E+01 0.11033211869E+01 0.94447935216E+00 0.83005432290E+00
 0.75409880802E+00 0.71114908757E+00 0.69730075199E+00 0.78346853780E+00 0.83006150585E+00
 0.90533136238E+00 0.10141728669E+01 0.11612522231E+01 0.13502459689E+01 0.15830385490E+01
 0.18585792084E+01 0.21713984603E+01 0.25101645600E+01 0.28568481855E+01 0.31870671317E+01
 0.34721063835E+01 0.36828410478E+01 0.37951072917E+01 0.37951037280E+01 0.36828345682E+01
 0.34721075781E+01 0.31870837997E+01 0.28568737128E+01 0.25101814986E+01 0.21713982843E+01
 0.18585716779E+01 0.15830366097E+01 0.13502494935E+01 0.11612534100E+01 0.10141698971E+01
 0.90532810335E+00 0.83005922142E+00 0.78346612782E+00 0.76138175322E+00 0.76138305957E+00
 0.89906886590E+00 0.94446989738E+00 0.10141728669E+01 0.11122905116E+01 0.12422618829E+01
 0.14063072612E+01 0.16047165362E+01 0.18348027928E+01 0.20897573131E+01 0.23578648128E+01
 0.26224565604E+01 0.28628576189E+01 0.30565770739E+01 0.31828112428E+01 0.32266753247E+01
 0.31827712565E+01 0.30565569185E+01 0.28628948684E+01 0.26225144383E+01 0.23578796596E+01
 0.20897195831E+01 0.18347643461E+01 0.16047209415E+01 0.14063392817E+01 0.12422758524E+01
 0.11122694457E+01 0.10141417014E+01 0.94445860112E+00 0.89908032333E+00 0.87391332550E+00
 0.86589735791E+00 0.87389861846E+00 0.10649445325E+01 0.11032887136E+01 0.11612522231E+01
 0.12422618829E+01 0.13489586595E+01 0.14827655798E+01 0.16431079510E+01 0.18264145225E+01
 0.20253610571E+01 0.22287244987E+01 0.24219262199E+01 0.25882756078E+01 0.27110510785E+01
 0.27763979684E+01 0.27763899002E+01 0.27110391826E+01 0.25882767849E+01 0.24219341390E+01
 0.22287179181E+01 0.20253342972E+01 0.18263845359E+01 0.16430920038E+01 0.14827638479E+01
 0.13489600732E+01 0.12422581772E+01 0.11612438587E+01 0.11032822827E+01 0.10649457931E+01
 0.10424117874E+01 0.10322016221E+01 0.10321976226E+01 0.10424048351E+01 0.12885960683E+01
 0.13120886660E+01 0.13502459689E+01 0.14063072612E+01 0.14827655798E+01 0.15808289556E+01
 0.16995078232E+01 0.18348022113E+01 0.19794864319E+01 0.21235481183E+01 0.22550424909E+01
 0.23613029007E+01 0.24306968202E+01 0.24548628955E+01 0.24307295537E+01 0.23613418705E+01
 0.22550498481E+01 0.21235114213E+01 0.19794416401E+01 0.18347978791E+01 0.16995435708E+01
 0.15808540550E+01 0.14827463603E+01 0.14062703429E+01 0.13502378962E+01 0.13121126141E+01
 0.12886130407E+01 0.12759989333E+01 0.12704720626E+01 0.12690302916E+01 0.12704966163E+01
 0.12760133556E+01 0.15771018168E+01 0.15751142269E+01 0.15830385490E+01 0.16047165362E+01
 0.16431079510E+01 0.16995078232E+01 0.17726901775E+01 0.18585789813E+01 0.19506530152E+01
 0.20407387240E+01 0.21198222159E+01 0.21789776204E+01 0.22107329165E+01 0.22107420226E+01
 0.21789986076E+01 0.21198389577E+01 0.20407387239E+01 0.19506448078E+01 0.18585865448E+01
 0.17727220372E+01 0.16995425601E+01 0.16431210108E+01 0.16047111106E+01 0.15830362745E+01
 0.15751227627E+01 0.15771073705E+01 0.15846519478E+01 0.15932222318E+01 0.15987555153E+01
 0.15987644357E+01 0.15932402098E+01 0.15846615641E+01 0.19357590960E+01 0.18939826855E+01
 0.18585792084E+01 0.18348027928E+01 0.18264145225E+01 0.18348022113E+01 0.18585789813E+01
 0.18939829016E+01 0.19357590067E+01 0.19779354389E+01 0.20143171532E+01 0.20390898474E+01
 0.20478980098E+01 0.20390895900E+01 0.20143033782E+01 0.19779161294E+01 0.19357657021E+01
 0.18940238904E+01 0.18586150600E+01 0.18347937636E+01 0.18263785081E+01 0.18347933571E+01
 0.18586147967E+01 0.18940231318E+01 0.19357627971E+01 0.19779106431E+01 0.20142966572E+01
 0.20390830620E+01 0.20478924189E+01 0.20390860147E+01 0.20143156826E+01 0.19779355193E+01
 0.23657634992E+01 0.22657935750E+01 0.21713984603E+01 0.20897573131E+01 0.20253610571E+01
 0.19794864319E+01 0.19506530152E+01 0.19357590067E+01 0.19311061718E+01 0.19328358630E+01
 0.19370504079E+01 0.19402485059E+01 0.19402530260E+01 0.19370541506E+01 0.19328305075E+01
 0.19311051958E+01 0.19357713242E+01 0.19506547605E+01 0.19794503195E+01 0.20253047909E+01
 0.20897312103E+01 0.21714238591E+01 0.22658386017E+01 0.23657847981E+01 0.24625015367E+01
 0.25466367336E+01 0.26091541017E+01 0.26425797375E+01 0.26425848064E+01 0.26091707553E+01
 0.25466608268E+01 0.24625133952E+01 0.28609768530E+01 0.26808907174E+01 0.25101645600E+01
 0.23578648128E+01 0.22287244987E+01 0.21235481183E+01 0.20407387240E+01 0.19779354389E+01
 0.19328358630E+01 0.19031872085E+01 0.18866917234E+01 0.18814393946E+01 0.18866793183E+01
 0.19031933913E+01 0.19328770897E+01 0.19779715390E+01 0.20407021424E+01 0.21234343815E+01
 0.22286250526E+01 0.23578719077E+01 0.25102611281E+01 0.26809765399E+01 0.28609911084E+01
 0.30378903487E+01 0.31973311825E+01 0.33247419357E+01 0.34072502024E+01 0.34358386606E+01
 0.34072436760E+01 0.33247407671E+01 0.31973513467E+01 0.30379193073E+01 0.34046679058E+01
 0.31209956034E+01 0.28568481855E+01 0.26224565604E+01 0.24219262199E+01 0.22550424909E+01
 0.21198222159E+01 0.20143171532E+01 0.19370504079E+01 0.18866917234E+01 0.18619387241E+01
 0.18619239077E+01 0.18866764215E+01 0.19370763577E+01 0.20143598161E+01 0.21197941479E+01
 0.22549054969E+01 0.24217751638E+01 0.26224352584E+01 0.28569805887E+01 0.31211571019E+01
 0.34047377215E+01 0.36915040705E+01 0.39607577792E+01 0.41898266173E+01 0.43571353045E+01
 0.44455593508E+01 0.44455489416E+01 0.43571115043E+01 0.41898153735E+01 0.39607794585E+01
 0.36915199377E+01 0.39675856127E+01 0.35586366596E+01 0.31870671317E+01 0.28628576189E+01
 0.25882756078E+01 0.23613029007E+01 0.21789776204E+01 0.20390898474E+01 0.19402485059E+01
 0.18814393946E+01 0.18619239077E+01 0.18814396445E+01 0.19402781496E+01 0.20391181113E+01
 0.21789103110E+01 0.23611156825E+01 0.25880959042E+01 0.28628430262E+01 0.31872195934E+01
 0.35588042564E+01 0.39676491547E+01 0.43946230345E+01 0.48122119008E+01 0.51875190792E+01
 0.54866797383E+01 0.56799669015E+01 0.57468573274E+01 0.56799777059E+01 0.54866683558E+01
 0.51874917290E+01 0.48122113547E+01 0.43946345838E+01 0.45085862424E+01 0.39586855920E+01
 0.34721063835E+01 0.30565770739E+01 0.27110510785E+01 0.24306968202E+01 0.22107329165E+01
 0.20478980098E+01 0.19402530260E+01 0.18866793183E+01 0.18866764215E+01 0.19402781496E+01
 0.20479504081E+01 0.22106868950E+01 0.24304648401E+01 0.27107796588E+01 0.30565220464E+01
 0.34723147298E+01 0.39589353373E+01 0.45086679105E+01 0.51015507690E+01 0.57044355212E+01
 0.62735211222E+01 0.67597392877E+01 0.71158981730E+01 0.73044565538E+01 0.73044824518E+01
 0.71159323612E+01 0.67597291997E+01 0.62735064429E+01 0.57044850797E+01 0.51016111711E+01
 0.49785170011E+01 0.42824385952E+01 0.36828410478E+01 0.31828112428E+01 0.27763979684E+01
 0.24548628955E+01 0.22107420226E+01 0.20390895900E+01 0.19370541506E+01 0.19031933913E+01
 0.19370763577E+01 0.20391181113E+01 0.22106868950E+01 0.24546454667E+01 0.27761238244E+01
 0.31827224468E+01 0.36830335567E+01 0.42827312908E+01 0.49786700579E+01 0.57529495670E+01
 0.65695646492E+01 0.73753401514E+01 0.81051769737E+01 0.86906224801E+01 0.90705642140E+01
 0.92023528394E+01 0.90706062166E+01 0.86906505000E+01 0.81051690700E+01 0.73753504241E+01
 0.65696276619E+01 0.57529726754E+01 0.53273639088E+01 0.44939943699E+01 0.37951072917E+01
 0.32266753247E+01 0.27763899002E+01 0.24307295537E+01 0.21789986076E+01 0.20143033782E+01
 0.19328305075E+01 0.19328770897E+01 0.20143598161E+01 0.21789103110E+01 0.24304648401E+01
 0.27761238244E+01 0.32266375930E+01 0.37953368487E+01 0.44942906604E+01 0.53275052695E+01
 0.62828478650E+01 0.73257912403E+01 0.83977046766E+01 0.94195824327E+01 0.10300629349E+02
 0.10950912534E+02 0.11296926252E+02 0.11296948987E+02 0.10950945182E+02 0.10300615655E+02
 0.94195336386E+01 0.83977001332E+01 0.73258607331E+01 0.62828838696E+01 0.55136422453E+01
 0.45676448508E+01 0.37951037280E+01 0.31827712565E+01 0.27110391826E+01 0.23613418705E+01
 0.21198389577E+01 0.19779161294E+01 0.19311051958E+01 0.19779715390E+01 0.21197941479E+01
 0.23611156825E+01 0.27107796588E+01 0.31827224468E+01 0.37953368487E+01 0.45679733965E+01
 0.55138145089E+01 0.66302045620E+01 0.78895151694E+01 0.92340146903E+01 0.10576561805E+02
 0.11807156744E+02 0.12805349319E+02 0.13458901312E+02 0.13686699601E+02 0.13458938799E+02
 0.12805358695E+02 0.11807110280E+02 0.10576531681E+02 0.92340913788E+01 0.78896667813E+01
 0.66302625868E+01 0.55136524571E+01 0.44939951307E+01 0.36828345682E+01 0.30565569185E+01
 0.25882767849E+01 0.22550498481E+01 0.20407387239E+01 0.19357657021E+01 0.19357713242E+01
 0.20407021424E+01 0.22549054969E+01 0.25880959042E+01 0.30565220464E+01 0.36830335567E+01
 0.44942906604E+01 0.55138145089E+01 0.67513514046E+01 0.81913618038E+01 0.97844738369E+01
 0.11444325956E+02 0.13050111726E+02 0.14455467615E+02 0.15506570922E+02 0.16071004745E+02
 0.16071025603E+02 0.15506623742E+02 0.14455520999E+02 0.13050138576E+02 0.11444355733E+02
 0.97845708690E+01 0.81915082859E+01 0.67514035535E+01 0.53273659038E+01 0.42824033374E+01
 0.34721075781E+01 0.28628948684E+01 0.24219341390E+01 0.21235114213E+01 0.19506448078E+01
 0.18940238904E+01 0.19506547605E+01 0.21234343815E+01 0.24217751638E+01 0.28628430262E+01
 0.34723147298E+01 0.42827312908E+01 0.53275052695E+01 0.66302045620E+01 0.81913618038E+01
 0.99768499904E+01 0.11910894466E+02 0.13873992455E+02 0.15705803283E+02 0.17217521287E+02
 0.18220936572E+02 0.18573282647E+02 0.18220924386E+02 0.17217612445E+02 0.15705971174E+02
 0.13874059556E+02 0.11910834293E+02 0.99768631966E+01 0.81915446478E+01 0.66303445276E+01
 0.49784691273E+01 0.39586164968E+01 0.31870837997E+01 0.26225144383E+01 0.22287179181E+01
 0.19794416401E+01 0.18585865448E+01 0.18586150600E+01 0.19794503195E+01 0.22286250526E+01
 0.26224352584E+01 0.31872195934E+01 0.39589353373E+01 0.49786700579E+01 0.62828478650E+01
 0.78895151694E+01 0.97844738369E+01 0.11910894466E+02 0.14163025360E+02 0.16382856681E+02
 0.18363378391E+02 0.19869188433E+02 0.20684998501E+02 0.20684946266E+02 0.19869172498E+02
 0.18363556838E+02 0.16383083450E+02 0.14163057742E+02 0.11910795960E+02 0.97845206875E+01