   2   2   0   0
  0.1529437E+02  0.3691622E-09  0.3691622E-09  0.3691622E-09  0.5000000E-15
  1.000000000000000E-004
  CAR 
 unknown system                          
     22.70219079     -6.61425489  301      8.99618257      1.00000000
     -6.614  0.0000E+00  0.0000E+00
     -6.517  0.0000E+00  0.0000E+00
     -6.419  0.0000E+00  0.0000E+00
     -6.321  0.0000E+00  0.0000E+00
     -6.223  0.0000E+00  0.0000E+00
     -6.126  0.0000E+00  0.0000E+00
     -6.028  0.0000E+00  0.0000E+00
     -5.930  0.0000E+00  0.0000E+00
     -5.832  0.0000E+00  0.0000E+00
     -5.735  0.4637E-17  0.4532E-18
     -5.637  0.9407E-15  0.9238E-16
     -5.539  0.1204E-12  0.1186E-13
     -5.442  0.9645E-11  0.9544E-12
     -5.344  0.4836E-09  0.4821E-10
     -5.246  0.1520E-07  0.1534E-08
     -5.148  0.3001E-06  0.3086E-07
     -5.051  0.3729E-05  0.3952E-06
     -4.953  0.2931E-04  0.3259E-05
     -4.855  0.1473E-03  0.1766E-04
     -4.758  0.4883E-03  0.6537E-04
     -4.660  0.1149E-02  0.1777E-03
     -4.562  0.2179E-02  0.3905E-03
     -4.464  0.3658E-02  0.7480E-03
     -4.367  0.5402E-02  0.1276E-02
     -4.269  0.7291E-02  0.1988E-02
     -4.171  0.9928E-02  0.2959E-02
     -4.073  0.1256E-01  0.4186E-02
     -3.976  0.1233E-01  0.5390E-02
     -3.878  0.9283E-02  0.6298E-02
     -3.780  0.8320E-02  0.7111E-02
     -3.683  0.1335E-01  0.8415E-02
     -3.585  0.2171E-01  0.1054E-01
     -3.487  0.2606E-01  0.1308E-01
     -3.389  0.2271E-01  0.1530E-01
     -3.292  0.1553E-01  0.1682E-01
     -3.194  0.1068E-01  0.1787E-01
     -3.096  0.9802E-02  0.1882E-01
     -2.999  0.9753E-02  0.1978E-01
     -2.901  0.9172E-02  0.2067E-01
     -2.803  0.1158E-01  0.2180E-01
     -2.705  0.1987E-01  0.2375E-01
     -2.608  0.3022E-01  0.2670E-01
     -2.510  0.3469E-01  0.3009E-01
     -2.412  0.3205E-01  0.3322E-01
     -2.315  0.2949E-01  0.3610E-01
     -2.217  0.3076E-01  0.3911E-01
     -2.119  0.3119E-01  0.4216E-01
     -2.021  0.2633E-01  0.4473E-01
     -1.924  0.1946E-01  0.4663E-01
     -1.826  0.1655E-01  0.4825E-01
     -1.728  0.1904E-01  0.5011E-01
     -1.630  0.2437E-01  0.5249E-01
     -1.533  0.2685E-01  0.5512E-01
     -1.435  0.2330E-01  0.5739E-01
     -1.337  0.1971E-01  0.5932E-01
     -1.240  0.2270E-01  0.6154E-01
     -1.142  0.2764E-01  0.6424E-01
     -1.044  0.2685E-01  0.6686E-01
     -0.946  0.2362E-01  0.6917E-01
     -0.849  0.2607E-01  0.7172E-01
     -0.751  0.3455E-01  0.7509E-01
     -0.653  0.4297E-01  0.7929E-01
     -0.556  0.4723E-01  0.8391E-01
     -0.458  0.4666E-01  0.8847E-01
     -0.360  0.3916E-01  0.9230E-01
     -0.262  0.2600E-01  0.9484E-01
     -0.165  0.1735E-01  0.9653E-01
     -0.067  0.2192E-01  0.9867E-01
      0.031  0.3613E-01  0.1022E+00
      0.129  0.4762E-01  0.1069E+00
      0.226  0.4780E-01  0.1115E+00
      0.324  0.3870E-01  0.1153E+00
      0.422  0.2863E-01  0.1181E+00
      0.519  0.2411E-01  0.1205E+00
      0.617  0.2525E-01  0.1229E+00
      0.715  0.2857E-01  0.1257E+00
      0.813  0.3281E-01  0.1289E+00
      0.910  0.3998E-01  0.1328E+00
      1.008  0.4895E-01  0.1376E+00
      1.106  0.5475E-01  0.1430E+00
      1.203  0.5697E-01  0.1485E+00
      1.301  0.5916E-01  0.1543E+00
      1.399  0.5964E-01  0.1601E+00
      1.497  0.5177E-01  0.1652E+00
      1.594  0.3635E-01  0.1688E+00
      1.692  0.2392E-01  0.1711E+00
      1.790  0.2004E-01  0.1731E+00
      1.888  0.1855E-01  0.1749E+00
      1.985  0.1416E-01  0.1763E+00
      2.083  0.1168E-01  0.1774E+00
      2.181  0.1805E-01  0.1792E+00
      2.278  0.3130E-01  0.1822E+00
      2.376  0.4060E-01  0.1862E+00
      2.474  0.3955E-01  0.1900E+00
      2.572  0.3502E-01  0.1935E+00
      2.669  0.3506E-01  0.1969E+00
      2.767  0.3892E-01  0.2007E+00
      2.865  0.4371E-01  0.2050E+00
      2.962  0.4896E-01  0.2098E+00
      3.060  0.5402E-01  0.2150E+00
      3.158  0.5685E-01  0.2206E+00
      3.256  0.5453E-01  0.2259E+00
      3.353  0.4580E-01  0.2304E+00
      3.451  0.3661E-01  0.2340E+00
      3.549  0.3663E-01  0.2376E+00
      3.647  0.4633E-01  0.2421E+00
      3.744  0.5539E-01  0.2475E+00
      3.842  0.5682E-01  0.2530E+00
      3.940  0.5266E-01  0.2582E+00
      4.037  0.4693E-01  0.2628E+00
      4.135  0.4053E-01  0.2667E+00
      4.233  0.3309E-01  0.2700E+00
      4.331  0.2798E-01  0.2727E+00
      4.428  0.2850E-01  0.2755E+00
      4.526  0.3359E-01  0.2788E+00
      4.624  0.4162E-01  0.2828E+00
      4.721  0.5100E-01  0.2878E+00
      4.819  0.6010E-01  0.2937E+00
      4.917  0.6702E-01  0.3002E+00
      5.015  0.6788E-01  0.3069E+00
      5.112  0.6135E-01  0.3129E+00
      5.210  0.5184E-01  0.3179E+00
      5.308  0.4749E-01  0.3226E+00
      5.405  0.5189E-01  0.3277E+00
      5.503  0.5495E-01  0.3330E+00
      5.601  0.4576E-01  0.3375E+00
      5.699  0.2905E-01  0.3403E+00
      5.796  0.1591E-01  0.3419E+00
      5.894  0.1261E-01  0.3431E+00
      5.992  0.2237E-01  0.3453E+00
      6.090  0.4448E-01  0.3497E+00
      6.187  0.7132E-01  0.3566E+00
      6.285  0.9223E-01  0.3656E+00
      6.383  0.9905E-01  0.3753E+00
      6.480  0.9029E-01  0.3841E+00
      6.578  0.7444E-01  0.3914E+00
      6.676  0.6314E-01  0.3976E+00
      6.774  0.5899E-01  0.4033E+00
      6.871  0.5463E-01  0.4087E+00
      6.969  0.4595E-01  0.4132E+00
      7.067  0.4131E-01  0.4172E+00
      7.164  0.5020E-01  0.4221E+00
      7.262  0.6696E-01  0.4287E+00
      7.360  0.7745E-01  0.4362E+00
      7.458  0.7801E-01  0.4439E+00
      7.555  0.7347E-01  0.4510E+00
      7.653  0.6615E-01  0.4575E+00
      7.751  0.5980E-01  0.4633E+00
      7.849  0.5921E-01  0.4691E+00
      7.946  0.6038E-01  0.4750E+00
      8.044  0.5622E-01  0.4805E+00
      8.142  0.5176E-01  0.4856E+00
      8.239  0.5665E-01  0.4911E+00
      8.337  0.6495E-01  0.4975E+00
      8.435  0.6426E-01  0.5037E+00
      8.533  0.5678E-01  0.5093E+00
      8.630  0.5097E-01  0.5143E+00
      8.728  0.4874E-01  0.5190E+00
      8.826  0.5054E-01  0.5240E+00
      8.923  0.5464E-01  0.5293E+00
      9.021  0.5487E-01  0.5347E+00
      9.119  0.5064E-01  0.5396E+00
      9.217  0.4853E-01  0.5444E+00
      9.314  0.4932E-01  0.5492E+00
      9.412  0.4636E-01  0.5537E+00
      9.510  0.3827E-01  0.5575E+00
      9.608  0.3185E-01  0.5606E+00
      9.705  0.3083E-01  0.5636E+00
      9.803  0.3085E-01  0.5666E+00
      9.901  0.2757E-01  0.5693E+00
      9.998  0.2293E-01  0.5715E+00
     10.096  0.2214E-01  0.5737E+00
     10.194  0.2740E-01  0.5764E+00
     10.292  0.3542E-01  0.5798E+00
     10.389  0.4160E-01  0.5839E+00
     10.487  0.4843E-01  0.5886E+00
     10.585  0.6219E-01  0.5947E+00
     10.682  0.7651E-01  0.6022E+00
     10.780  0.7534E-01  0.6095E+00
     10.878  0.5855E-01  0.6153E+00
     10.976  0.4580E-01  0.6197E+00
     11.073  0.5098E-01  0.6247E+00
     11.171  0.6551E-01  0.6311E+00
     11.269  0.7137E-01  0.6381E+00
     11.366  0.6712E-01  0.6447E+00
     11.464  0.6771E-01  0.6513E+00
     11.562  0.7925E-01  0.6590E+00
     11.660  0.9252E-01  0.6681E+00
     11.757  0.9710E-01  0.6776E+00
     11.855  0.8821E-01  0.6862E+00
     11.953  0.6811E-01  0.6928E+00
     12.051  0.4743E-01  0.6975E+00
     12.148  0.3914E-01  0.7013E+00
     12.246  0.4816E-01  0.7060E+00
     12.344  0.6835E-01  0.7127E+00
     12.441  0.8782E-01  0.7213E+00
     12.539  0.9478E-01  0.7305E+00
     12.637  0.8289E-01  0.7386E+00
     12.735  0.5710E-01  0.7442E+00
     12.832  0.3191E-01  0.7473E+00
     12.930  0.1952E-01  0.7492E+00
     13.028  0.2330E-01  0.7515E+00
     13.125  0.3863E-01  0.7553E+00
     13.223  0.5326E-01  0.7605E+00
     13.321  0.5820E-01  0.7662E+00
     13.419  0.6078E-01  0.7721E+00
     13.516  0.7300E-01  0.7792E+00
     13.614  0.9077E-01  0.7881E+00
     13.712  0.9902E-01  0.7978E+00
     13.810  0.9153E-01  0.8067E+00
     13.907  0.7479E-01  0.8140E+00
     14.005  0.5991E-01  0.8199E+00
     14.103  0.5693E-01  0.8255E+00
     14.200  0.6833E-01  0.8321E+00
     14.298  0.8670E-01  0.8406E+00
     14.396  0.1008E+00  0.8505E+00
     14.494  0.1014E+00  0.8604E+00
     14.591  0.8772E-01  0.8689E+00
     14.689  0.7096E-01  0.8759E+00
     14.787  0.6085E-01  0.8818E+00
     14.884  0.5506E-01  0.8872E+00
     14.982  0.5011E-01  0.8921E+00
     15.080  0.5011E-01  0.8970E+00
     15.178  0.5908E-01  0.9028E+00
     15.275  0.7117E-01  0.9097E+00
     15.373  0.7449E-01  0.9170E+00
     15.471  0.6451E-01  0.9233E+00
     15.569  0.4683E-01  0.9279E+00
     15.666  0.3090E-01  0.9309E+00
     15.764  0.2571E-01  0.9334E+00
     15.862  0.3588E-01  0.9369E+00
     15.959  0.5531E-01  0.9423E+00
     16.057  0.6818E-01  0.9490E+00
     16.155  0.6523E-01  0.9554E+00
     16.253  0.5332E-01  0.9606E+00
     16.350  0.4421E-01  0.9649E+00
     16.448  0.4262E-01  0.9691E+00
     16.546  0.4678E-01  0.9736E+00
     16.643  0.5284E-01  0.9788E+00
     16.741  0.5649E-01  0.9843E+00
     16.839  0.5330E-01  0.9895E+00
     16.937  0.4255E-01  0.9937E+00
     17.034  0.3045E-01  0.9967E+00
     17.132  0.2377E-01  0.9990E+00
     17.230  0.2358E-01  0.1001E+01
     17.328  0.2753E-01  0.1004E+01
     17.425  0.3264E-01  0.1007E+01
     17.523  0.3474E-01  0.1011E+01
     17.621  0.3079E-01  0.1014E+01
     17.718  0.2327E-01  0.1016E+01
     17.816  0.1914E-01  0.1018E+01
     17.914  0.2324E-01  0.1020E+01
     18.012  0.3261E-01  0.1023E+01
     18.109  0.3815E-01  0.1027E+01
     18.207  0.3435E-01  0.1030E+01
     18.305  0.2643E-01  0.1033E+01
     18.402  0.2418E-01  0.1035E+01
     18.500  0.2983E-01  0.1038E+01
     18.598  0.3604E-01  0.1042E+01
     18.696  0.3613E-01  0.1045E+01
     18.793  0.3070E-01  0.1048E+01
     18.891  0.2354E-01  0.1050E+01
     18.989  0.1792E-01  0.1052E+01
     19.086  0.1550E-01  0.1054E+01
     19.184  0.1488E-01  0.1055E+01
     19.282  0.1454E-01  0.1057E+01
     19.380  0.1509E-01  0.1058E+01
     19.477  0.1539E-01  0.1060E+01
     19.575  0.1346E-01  0.1061E+01
     19.673  0.1058E-01  0.1062E+01
     19.771  0.8049E-02  0.1063E+01
     19.868  0.5212E-02  0.1063E+01
     19.966  0.2418E-02  0.1063E+01
     20.064  0.7418E-03  0.1064E+01
     20.161  0.1540E-03  0.1064E+01
     20.259  0.9325E-04  0.1064E+01
     20.357  0.4597E-03  0.1064E+01
     20.455  0.1804E-02  0.1064E+01
     20.552  0.4592E-02  0.1064E+01
     20.650  0.7581E-02  0.1065E+01
     20.748  0.8137E-02  0.1066E+01
     20.845  0.5679E-02  0.1066E+01
     20.943  0.2573E-02  0.1067E+01
     21.041  0.7546E-03  0.1067E+01
     21.139  0.1426E-03  0.1067E+01
     21.236  0.1729E-04  0.1067E+01
     21.334  0.1337E-05  0.1067E+01
     21.432  0.6575E-07  0.1067E+01
     21.530  0.2046E-08  0.1067E+01
     21.627  0.4015E-10  0.1067E+01
     21.725  0.4956E-12  0.1067E+01
     21.823  0.3840E-14  0.1067E+01
     21.920  0.1767E-16  0.1067E+01
     22.018  0.0000E+00  0.1067E+01
     22.116  0.0000E+00  0.1067E+01
     22.214  0.0000E+00  0.1067E+01
     22.311  0.0000E+00  0.1067E+01
     22.409  0.0000E+00  0.1067E+01
     22.507  0.0000E+00  0.1067E+01
     22.604  0.0000E+00  0.1067E+01
     22.702  0.0000E+00  0.1067E+01
