<?xml version="1.0" encoding="ISO-8859-1"?>
<modeling>
 <generator>
  <i name="program" type="string">vasp </i>
  <i name="version" type="string">5.4.4.18Apr17-6-g9f103f2a35  </i>
  <i name="subversion" type="string">(build Dec 09 2018 21:25:21) complex            parallel </i>
  <i name="platform" type="string">IFC18.0.1.163_CrayMPICH7.7.0_MKL18.0.1.163 </i>
  <i name="date" type="string">2019 03 19 </i>
  <i name="time" type="string">13:14:11 </i>
 </generator>
 <incar>
  <i type="string" name="PREC">normal</i>
  <i type="int" name="IBRION">     2</i>
  <i name="EDIFF">      0.00040000</i>
  <i name="EDIFFG">     -0.01000000</i>
  <i type="int" name="NSW">    15</i>
  <i type="int" name="ISIF">     2</i>
  <i name="ENCUT">    250.00000000</i>
  <i type="int" name="NBANDS">     8</i>
  <i type="logical" name="LREAL"> F  </i>
  <i type="int" name="ISMEAR">     0</i>
  <i name="SIGMA">      0.20000000</i>
  <v type="int" name="KPOINT_BSE">    -1     0     0     0</v>
 </incar>
 <structure name="primitive_cell" >
  <crystal>
   <varray name="basis" >
    <v>      -2.45000000       2.45000000       1.27400000 </v>
    <v>       2.45000000      -2.45000000       1.27400000 </v>
    <v>       2.45000000       2.45000000      -1.27400000 </v>
   </varray>
   <i name="volume">     30.58874000 </i>
   <varray name="rec_basis" >
    <v>       0.00000000       0.20408163       0.39246468 </v>
    <v>       0.20408163       0.00000000       0.39246468 </v>
    <v>       0.20408163       0.20408163      -0.00000000 </v>
   </varray>
  </crystal>
  <varray name="positions" >
   <v>       0.25000000      -0.25000000      -0.50000000 </v>
   <v>       0.00000000       0.00000000       0.00000000 </v>
  </varray>
 </structure>
 <varray name="primitive_index" >
  <v type="int" >        1 </v>
  <v type="int" >        2 </v>
 </varray>
 <kpoints>
  <generation param="Monkhorst-Pack">
   <v type="int" name="divisions">       7        7        7 </v>
   <v name="usershift">      0.00000000       0.00000000       0.00000000 </v>
   <v name="genvec1">      0.14285714       0.00000000      -0.00000000 </v>
   <v name="genvec2">      0.00000000       0.14285714      -0.00000000 </v>
   <v name="genvec3">      0.00000000      -0.00000000       0.14285714 </v>
   <v name="shift">      0.00000000       0.00000000       0.00000000 </v>
  </generation>
  <varray name="kpointlist" >
   <v>       0.00000000       0.00000000       0.00000000 </v>
   <v>       0.14285714      -0.00000000       0.00000000 </v>
   <v>       0.28571429      -0.00000000       0.00000000 </v>
   <v>       0.42857143      -0.00000000       0.00000000 </v>
   <v>       0.14285714       0.14285714       0.00000000 </v>
   <v>       0.28571429       0.14285714       0.00000000 </v>
   <v>       0.42857143       0.14285714       0.00000000 </v>
   <v>      -0.42857143       0.14285714      -0.00000000 </v>
   <v>      -0.28571429       0.14285714      -0.00000000 </v>
   <v>      -0.14285714       0.14285714      -0.00000000 </v>
   <v>       0.28571429       0.28571429       0.00000000 </v>
   <v>       0.42857143       0.28571429       0.00000000 </v>
   <v>      -0.42857143       0.28571429      -0.00000000 </v>
   <v>      -0.28571429       0.28571429      -0.00000000 </v>
   <v>       0.42857143       0.42857143       0.00000000 </v>
   <v>      -0.42857143       0.42857143       0.00000000 </v>
   <v>       0.14285714       0.14285714       0.14285714 </v>
   <v>       0.28571429       0.14285714       0.14285714 </v>
   <v>      -0.14285714       0.14285714       0.14285714 </v>
   <v>       0.28571429       0.28571429       0.14285714 </v>
   <v>       0.42857143       0.28571429       0.14285714 </v>
   <v>      -0.28571429       0.28571429       0.14285714 </v>
   <v>      -0.14285714       0.28571429       0.14285714 </v>
   <v>      -0.42857143       0.42857143       0.14285714 </v>
   <v>      -0.28571429       0.42857143       0.14285714 </v>
   <v>      -0.14285714       0.42857143       0.14285714 </v>
   <v>      -0.42857143      -0.42857143       0.14285714 </v>
   <v>      -0.28571429      -0.42857143       0.14285714 </v>
   <v>      -0.14285714      -0.42857143       0.14285714 </v>
   <v>      -0.28571429      -0.28571429       0.14285714 </v>
   <v>      -0.14285714      -0.28571429       0.14285714 </v>
   <v>      -0.14285714      -0.14285714       0.14285714 </v>
   <v>      -0.28571429       0.28571429       0.28571429 </v>
   <v>      -0.42857143       0.42857143       0.28571429 </v>
   <v>      -0.28571429       0.42857143       0.28571429 </v>
   <v>      -0.42857143      -0.42857143       0.28571429 </v>
   <v>      -0.28571429      -0.42857143       0.28571429 </v>
   <v>      -0.28571429      -0.28571429       0.28571429 </v>
   <v>      -0.42857143       0.42857143       0.42857143 </v>
   <v>      -0.42857143      -0.42857143       0.42857143 </v>
  </varray>
  <varray name="weights" >
   <v>       0.00291545 </v>
   <v>       0.02332362 </v>
   <v>       0.02332362 </v>
   <v>       0.02332362 </v>
   <v>       0.02332362 </v>
   <v>       0.04664723 </v>
   <v>       0.04664723 </v>
   <v>       0.04664723 </v>
   <v>       0.04664723 </v>
   <v>       0.01166181 </v>
   <v>       0.02332362 </v>
   <v>       0.04664723 </v>
   <v>       0.04664723 </v>
   <v>       0.01166181 </v>
   <v>       0.02332362 </v>
   <v>       0.01166181 </v>
   <v>       0.02332362 </v>
   <v>       0.04664723 </v>
   <v>       0.01166181 </v>
   <v>       0.02332362 </v>
   <v>       0.02332362 </v>
   <v>       0.02332362 </v>
   <v>       0.02332362 </v>
   <v>       0.02332362 </v>
   <v>       0.04664723 </v>
   <v>       0.02332362 </v>
   <v>       0.02332362 </v>
   <v>       0.04664723 </v>
   <v>       0.02332362 </v>
   <v>       0.02332362 </v>
   <v>       0.02332362 </v>
   <v>       0.00583090 </v>
   <v>       0.01166181 </v>
   <v>       0.02332362 </v>
   <v>       0.02332362 </v>
   <v>       0.02332362 </v>
   <v>       0.02332362 </v>
   <v>       0.00583090 </v>
   <v>       0.01166181 </v>
   <v>       0.00583090 </v>
  </varray>
 </kpoints>
 <parameters>
  <separator name="general" >
   <i type="string" name="SYSTEM">unknown system</i>
   <i type="logical" name="LCOMPAT"> F  </i>
  </separator>
  <separator name="electronic" >
   <i type="string" name="PREC">normal</i>
   <i name="ENMAX">    250.00000000</i>
   <i name="ENAUG">    322.06900000</i>
   <i name="EDIFF">      0.00040000</i>
   <i type="int" name="IALGO">    38</i>
   <i type="int" name="IWAVPR">    11</i>
   <i type="int" name="NBANDS">     8</i>
   <i name="NELECT">      8.00000000</i>
   <i type="int" name="TURBO">     0</i>
   <i type="int" name="IRESTART">     0</i>
   <i type="int" name="NREBOOT">     0</i>
   <i type="int" name="NMIN">     0</i>
   <i name="EREF">      0.00000000</i>
   <separator name="electronic smearing" >
    <i type="int" name="ISMEAR">     0</i>
    <i name="SIGMA">      0.20000000</i>
    <i name="KSPACING">      0.50000000</i>
    <i type="logical" name="KGAMMA"> T  </i>
   </separator>
   <separator name="electronic projectors" >
    <i type="logical" name="LREAL"> F  </i>
    <v name="ROPT">      0.00000000</v>
    <i type="int" name="LMAXPAW">  -100</i>
    <i type="int" name="LMAXMIX">     2</i>
    <i type="logical" name="NLSPLINE"> F  </i>
   </separator>
   <separator name="electronic startup" >
    <i type="int" name="ISTART">     1</i>
    <i type="int" name="ICHARG">     0</i>
    <i type="int" name="INIWAV">     1</i>
   </separator>
   <separator name="electronic spin" >
    <i type="int" name="ISPIN">     1</i>
    <i type="logical" name="LNONCOLLINEAR"> F  </i>
    <v name="MAGMOM">      1.00000000      1.00000000</v>
    <i name="NUPDOWN">     -1.00000000</i>
    <i type="logical" name="LSORBIT"> F  </i>
    <v name="SAXIS">      0.00000000      0.00000000      1.00000000</v>
    <i type="logical" name="LSPIRAL"> F  </i>
    <v name="QSPIRAL">      0.00000000      0.00000000      0.00000000</v>
    <i type="logical" name="LZEROZ"> F  </i>
   </separator>
   <separator name="electronic exchange-correlation" >
    <i type="logical" name="LASPH"> F  </i>
    <i type="logical" name="LMETAGGA"> F  </i>
   </separator>
   <separator name="electronic convergence" >
    <i type="int" name="NELM">    60</i>
    <i type="int" name="NELMDL">     0</i>
    <i type="int" name="NELMIN">     2</i>
    <i name="ENINI">    250.00000000</i>
    <separator name="electronic convergence detail" >
     <i type="logical" name="LDIAG"> T  </i>
     <i type="logical" name="LSUBROT"> F  </i>
     <i name="WEIMIN">      0.00100000</i>
     <i name="EBREAK">      0.00001250</i>
     <i name="DEPER">      0.30000000</i>
     <i type="int" name="NRMM">     4</i>
     <i name="TIME">      0.40000000</i>
    </separator>
   </separator>
   <separator name="electronic mixer" >
    <i name="AMIX">      0.40000000</i>
    <i name="BMIX">      1.00000000</i>
    <i name="AMIN">      0.10000000</i>
    <i name="AMIX_MAG">      1.60000000</i>
    <i name="BMIX_MAG">      1.00000000</i>
    <separator name="electronic mixer details" >
     <i type="int" name="IMIX">     4</i>
     <i type="logical" name="MIXFIRST"> F  </i>
     <i type="int" name="MAXMIX">   -45</i>
     <i name="WC">    100.00000000</i>
     <i type="int" name="INIMIX">     1</i>
     <i type="int" name="MIXPRE">     1</i>
     <i type="int" name="MREMOVE">     5</i>
    </separator>
   </separator>
   <separator name="electronic dipolcorrection" >
    <i type="logical" name="LDIPOL"> F  </i>
    <i type="logical" name="LMONO"> F  </i>
    <i type="int" name="IDIPOL">     0</i>
    <i name="EPSILON">      1.00000000</i>
    <v name="DIPOL">   -100.00000000   -100.00000000   -100.00000000</v>
    <i name="EFIELD">      0.00000000</i>
   </separator>
  </separator>
  <separator name="grids" >
   <i type="int" name="NGX">    14</i>
   <i type="int" name="NGY">    14</i>
   <i type="int" name="NGZ">    14</i>
   <i type="int" name="NGXF">    28</i>
   <i type="int" name="NGYF">    28</i>
   <i type="int" name="NGZF">    28</i>
   <i type="logical" name="ADDGRID"> F  </i>
  </separator>
  <separator name="ionic" >
   <i type="int" name="NSW">    15</i>
   <i type="int" name="IBRION">     2</i>
   <i type="int" name="MDALGO">     0</i>
   <i type="int" name="ISIF">     2</i>
   <i name="PSTRESS">      0.00000000</i>
   <i name="EDIFFG">     -0.01000000</i>
   <i type="int" name="NFREE">     1</i>
   <i name="POTIM">      0.50000000</i>
   <i name="SMASS">     -3.00000000</i>
   <i name="SCALEE">      1.00000000</i>
  </separator>
  <separator name="ionic md" >
   <i name="TEBEG">      0.00010000</i>
   <i name="TEEND">      0.00010000</i>
   <i type="int" name="NBLOCK">     1</i>
   <i type="int" name="KBLOCK">    15</i>
   <i type="int" name="NPACO">   256</i>
   <i name="APACO">     16.00000000</i>
  </separator>
  <separator name="symmetry" >
   <i type="int" name="ISYM">     2</i>
   <i name="SYMPREC">      0.00001000</i>
  </separator>
  <separator name="dos" >
   <i type="int" name="LORBIT">     0</i>
   <v name="RWIGS">     -1.00000000</v>
   <i type="int" name="NEDOS">   301</i>
   <i name="EMIN">     10.00000000</i>
   <i name="EMAX">    -10.00000000</i>
   <i name="EFERMI">      0.00000000</i>
  </separator>
  <separator name="writing" >
   <i type="int" name="NWRITE">     2</i>
   <i type="logical" name="LWAVE"> T  </i>
   <i type="logical" name="LDOWNSAMPLE"> F  </i>
   <i type="logical" name="LCHARG"> T  </i>
   <i type="logical" name="LPARD"> F  </i>
   <i type="logical" name="LVTOT"> F  </i>
   <i type="logical" name="LVHAR"> F  </i>
   <i type="logical" name="LELF"> F  </i>
   <i type="logical" name="LOPTICS"> F  </i>
   <v name="STM">      0.00000000      0.00000000      0.00000000      0.00000000      0.00000000      0.00000000      0.00000000</v>
  </separator>
  <separator name="performance" >
   <i type="int" name="NPAR">     8</i>
   <i type="int" name="NSIM">     4</i>
   <i type="int" name="NBLK">    -1</i>
   <i type="logical" name="LPLANE"> T  </i>
   <i type="logical" name="LSCALAPACK"> T  </i>
   <i type="logical" name="LSCAAWARE"> F  </i>
   <i type="logical" name="LSCALU"> F  </i>
   <i type="logical" name="LASYNC"> F  </i>
   <i type="logical" name="LORBITALREAL"> F  </i>
  </separator>
  <separator name="miscellaneous" >
   <i type="int" name="IDIOT">     3</i>
   <i type="int" name="ISPECIAL">     0</i>
   <i type="logical" name="LMUSIC"> F  </i>
   <v name="POMASS">     28.08500000</v>
   <v name="DARWINR">      0.00000000</v>
   <v name="DARWINV">      1.00000000</v>
   <i type="logical" name="LCORR"> T  </i>
  </separator>
  <i type="logical" name="GGA_COMPAT"> T  </i>
  <i type="logical" name="LBERRY"> F  </i>
  <i type="int" name="ICORELEVEL">     0</i>
  <i type="logical" name="LDAU"> F  </i>
  <i type="int" name="I_CONSTRAINED_M">     0</i>
  <separator name="electronic exchange-correlation" >
   <i type="string" name="GGA">--</i>
   <i type="int" name="VOSKOWN">     0</i>
   <i type="logical" name="LHFCALC"> F  </i>
   <i type="string" name="PRECFOCK"></i>
   <i type="logical" name="LSYMGRAD"> F  </i>
   <i type="logical" name="LHFONE"> F  </i>
   <i type="logical" name="LRHFCALC"> F  </i>
   <i type="logical" name="LTHOMAS"> F  </i>
   <i type="logical" name="LMODELHF"> F  </i>
   <i name="ENCUT4O">     -1.00000000</i>
   <i type="int" name="EXXOEP">     0</i>
   <i type="int" name="FOURORBIT">     0</i>
   <i name="AEXX">      0.00000000</i>
   <i name="HFALPHA">      0.00000000</i>
   <i name="MCALPHA">      0.00000000</i>
   <i name="ALDAX">      1.00000000</i>
   <i name="AGGAX">      1.00000000</i>
   <i name="ALDAC">      1.00000000</i>
   <i name="AGGAC">      1.00000000</i>
   <i type="int" name="NKREDX">     1</i>
   <i type="int" name="NKREDY">     1</i>
   <i type="int" name="NKREDZ">     1</i>
   <i type="logical" name="SHIFTRED"> F  </i>
   <i type="logical" name="ODDONLY"> F  </i>
   <i type="logical" name="EVENONLY"> F  </i>
   <i type="int" name="LMAXFOCK">     0</i>
   <i type="int" name="NMAXFOCKAE">     0</i>
   <i type="logical" name="LFOCKAEDFT"> F  </i>
   <i name="HFSCREEN">      0.00000000</i>
   <i name="HFSCREENC">      0.00000000</i>
   <i type="int" name="NBANDSGWLOW">     0</i>
  </separator>
  <separator name="vdW DFT" >
   <i type="logical" name="LUSE_VDW"> F  </i>
   <i name="Zab_VDW">     -0.84910000</i>
   <i name="PARAM1">      0.12340000</i>
   <i name="PARAM2">      1.00000000</i>
   <i name="PARAM3">      0.00000000</i>
  </separator>
  <separator name="model GW" >
   <i type="int" name="MODEL_GW">     0</i>
   <i name="MODEL_EPS0">      9.17662200</i>
   <i name="MODEL_ALPHA">      1.00000000</i>
  </separator>
  <separator name="linear response parameters" >
   <i type="logical" name="LEPSILON"> F  </i>
   <i type="logical" name="LRPA"> F  </i>
   <i type="logical" name="LNABLA"> F  </i>
   <i type="logical" name="LVEL"> F  </i>
   <i type="int" name="KINTER">     0</i>
   <i name="CSHIFT">      0.10000000</i>
   <i name="OMEGAMAX">     -1.00000000</i>
   <i name="DEG_THRESHOLD">      0.00200000</i>
   <i name="RTIME">     -0.10000000</i>
   <i name="WPLASMAI">      0.00000000</i>
   <v name="DFIELD">      0.00000000      0.00000000      0.00000000</v>
   <v name="WPLASMA">      0.00000000      0.00000000      0.00000000      0.00000000      0.00000000      0.00000000      0.00000000      0.00000000      0.00000000</v>
  </separator>
  <separator name="orbital magnetization" >
   <i type="logical" name="NUCIND"> F  </i>
   <v name="MAGPOS">      0.00000000      0.00000000      0.00000000</v>
   <i type="logical" name="LNICSALL"> T  </i>
   <i type="logical" name="ORBITALMAG"> F  </i>
   <i type="logical" name="LMAGBLOCH"> F  </i>
   <i type="logical" name="LCHIMAG"> F  </i>
   <i type="logical" name="LGAUGE"> T  </i>
   <i type="int" name="MAGATOM">     0</i>
   <v name="MAGDIPOL">      0.00000000      0.00000000      0.00000000</v>
   <v name="AVECCONST">      0.00000000      0.00000000      0.00000000</v>
  </separator>
  <separator name="response functions" >
   <i type="logical" name="LADDER"> F  </i>
   <i type="logical" name="LRPAFORCE"> F  </i>
   <i type="logical" name="LFXC"> F  </i>
   <i type="logical" name="LHARTREE"> T  </i>
   <i type="int" name="IBSE">     0</i>
   <v type="int" name="KPOINT">    -1     0     0     0</v>
   <i type="logical" name="LTCTE"> F  </i>
   <i type="logical" name="LTETE"> F  </i>
   <i type="logical" name="LTRIPLET"> F  </i>
   <i type="logical" name="LFXCEPS"> F  </i>
   <i type="logical" name="LFXHEG"> F  </i>
   <i type="int" name="NATURALO">     2</i>
   <i type="logical" name="L2ORDER"> F  </i>
   <i type="logical" name="LMP2LT"> F  </i>
   <i type="logical" name="LUSEW"> F  </i>
   <i name="ENCUTGW">     -2.00000000</i>
   <i name="ENCUTGWSOFT">     -2.00000000</i>
   <i name="ENCUTLF">     -1.00000000</i>
   <i type="int" name="LMAXMP2">    -1</i>
   <i name="SCISSOR">      0.00000000</i>
   <i type="int" name="NOMEGA">     0</i>
   <i type="int" name="NOMEGAR">     0</i>
   <i type="int" name="NBANDSGW">    -1</i>
   <i type="int" name="NBANDSO">    -1</i>
   <i type="int" name="NBANDSV">    -1</i>
   <i type="int" name="NELM">     1</i>
   <i type="int" name="NELMHF">     1</i>
   <i type="int" name="DIM">     3</i>
   <i type="int" name="ANTIRES">     0</i>
   <i name="OMEGAMAX">    -30.00000000</i>
   <i name="OMEGAMIN">    -30.00000000</i>
   <i name="OMEGATL">   -200.00000000</i>
   <i type="int" name="OMEGAGRID">   140</i>
   <i name="CSHIFT">     -0.10000000</i>
   <i type="logical" name="SELFENERGY"> F  </i>
   <i type="logical" name="LSPECTRAL"> F  </i>
   <i type="logical" name="LSPECTRALGW"> F  </i>
   <i type="logical" name="LSINGLES"> F  </i>
   <i type="logical" name="LFERMIGW"> F  </i>
   <i type="logical" name="ODDONLYGW"> F  </i>
   <i type="logical" name="EVENONLYGW"> F  </i>
   <i type="int" name="NKREDLFX">     1</i>
   <i type="int" name="NKREDLFY">     1</i>
   <i type="int" name="NKREDLFZ">     1</i>
   <i type="int" name="MAXMEM">  2800</i>
   <i type="int" name="TELESCOPE">     0</i>
   <i type="int" name="TAUPAR">     1</i>
   <i type="int" name="OMEGAPAR">    -1</i>
   <i name="LAMBDA">      1.00000000</i>
  </separator>
  <separator name="External order field" >
   <i name="OFIELD_KAPPA">      0.00000000</i>
   <v name="OFIELD_K">      0.00000000      0.00000000      0.00000000</v>
   <i name="OFIELD_Q6_NEAR">      0.00000000</i>
   <i name="OFIELD_Q6_FAR">      0.00000000</i>
   <i name="OFIELD_A">      0.00000000</i>
  </separator>
 </parameters>
 <atominfo>
  <atoms>       2 </atoms>
  <types>       1 </types>
  <array name="atoms" >
   <dimension dim="1">ion</dimension>
   <field type="string">element</field>
   <field type="int">atomtype</field>
   <set>
    <rc><c>Si</c><c>   1</c></rc>
    <rc><c>Si</c><c>   1</c></rc>
   </set>
  </array>
  <array name="atomtypes" >
   <dimension dim="1">type</dimension>
   <field type="int">atomspertype</field>
   <field type="string">element</field>
   <field>mass</field>
   <field>valence</field>
   <field type="string">pseudopotential</field>
   <set>
    <rc><c>   2</c><c>Si</c><c>     28.08500000</c><c>      4.00000000</c><c> PAW_PBE Si 05Jan2001                   </c></rc>
   </set>
  </array>
 </atominfo>
 <structure name="initialpos" >
  <crystal>
   <varray name="basis" >
    <v>      -2.45000000       2.45000000       1.27400000 </v>
    <v>       2.45000000      -2.45000000       1.27400000 </v>
    <v>       2.45000000       2.45000000      -1.27400000 </v>
   </varray>
   <i name="volume">     30.58874000 </i>
   <varray name="rec_basis" >
    <v>       0.00000000       0.20408163       0.39246468 </v>
    <v>       0.20408163       0.00000000       0.39246468 </v>
    <v>       0.20408163       0.20408163      -0.00000000 </v>
   </varray>
  </crystal>
  <varray name="positions" >
   <v>       0.25000000       0.75000000       0.50000000 </v>
   <v>       0.00000000       0.00000000       0.00000000 </v>
  </varray>
 </structure>
 <calculation>
  <scstep>
   <time name="dav">    0.19    0.20</time>
   <time name="total">    0.24    0.27</time>
   <energy>
    <i name="alphaZ">      4.40202223 </i>
    <i name="ewald">   -265.18101312 </i>
    <i name="hartreedc">     -2.50187034 </i>
    <i name="XCdc">    -17.57550156 </i>
    <i name="pawpsdc">     70.73294191 </i>
    <i name="pawaedc">    -35.65035218 </i>
    <i name="eentropy">     -0.01626299 </i>
    <i name="bandstr">     29.41982888 </i>
    <i name="atom">    206.12349923 </i>
    <i name="e_fr_energy">    -10.24670793 </i>
    <i name="e_wo_entrp">    -10.23044494 </i>
    <i name="e_0_energy">    -10.23857644 </i>
   </energy>
  </scstep>
  <scstep>
   <time name="dav">    0.18    0.18</time>
   <time name="total">    0.21    0.23</time>
   <energy>
    <i name="alphaZ">      4.40202223 </i>
    <i name="ewald">   -265.18101312 </i>
    <i name="hartreedc">     -2.50217092 </i>
    <i name="XCdc">    -17.57547830 </i>
    <i name="pawpsdc">     70.73316062 </i>
    <i name="pawaedc">    -35.65058131 </i>
    <i name="eentropy">     -0.01625991 </i>
    <i name="bandstr">     29.42011406 </i>
    <i name="atom">    206.12349923 </i>
    <i name="e_fr_energy">    -10.24670741 </i>
    <i name="e_wo_entrp">    -10.23044750 </i>
    <i name="e_0_energy">    -10.23857745 </i>
   </energy>
  </scstep>
  <structure>
   <crystal>
    <varray name="basis" >
     <v>      -2.45000000       2.45000000       1.27400000 </v>
     <v>       2.45000000      -2.45000000       1.27400000 </v>
     <v>       2.45000000       2.45000000      -1.27400000 </v>
    </varray>
    <i name="volume">     30.58874000 </i>
    <varray name="rec_basis" >
     <v>       0.00000000       0.20408163       0.39246468 </v>
     <v>       0.20408163       0.00000000       0.39246468 </v>
     <v>       0.20408163       0.20408163      -0.00000000 </v>
    </varray>
   </crystal>
   <varray name="positions" >
    <v>       0.25000000       0.75000000       0.50000000 </v>
    <v>       0.00000000       0.00000000       0.00000000 </v>
   </varray>
  </structure>
  <varray name="forces" >
   <v>      -0.00000000       0.00000000       0.00000000 </v>
   <v>       0.00000000      -0.00000000      -0.00000000 </v>
  </varray>
  <varray name="stress" >
   <v>     -38.77156773       0.00000000      -0.00000000 </v>
   <v>      -0.00000000     -38.77156773       0.00000000 </v>
   <v>       0.00000000       0.00000000      86.51124012 </v>
  </varray>
  <energy>
   <i name="e_fr_energy">    -10.24670741 </i>
   <i name="e_wo_entrp">    -10.23857745 </i>
   <i name="e_0_energy">     -0.01625991 </i>
  </energy>
  <time name="totalsc">    1.26    1.88</time>
  <eigenvalues>
   <array>
    <dimension dim="1">band</dimension>
    <dimension dim="2">kpoint</dimension>
    <dimension dim="3">spin</dimension>
    <field>eigene</field>
    <field>occ</field>
    <set>
     <set comment="spin 1">
      <set comment="kpoint 1">
       <r>   -4.6143    1.0000 </r>
       <r>    6.1905    1.0000 </r>
       <r>    6.2994    1.0000 </r>
       <r>    6.2994    1.0000 </r>
       <r>   10.5403    0.0000 </r>
       <r>   16.8716    0.0000 </r>
       <r>   17.3703    0.0000 </r>
       <r>   17.3704    0.0000 </r>
      </set>
      <set comment="kpoint 2">
       <r>   -4.0385    1.0000 </r>
       <r>    5.1618    1.0000 </r>
       <r>    6.2351    1.0000 </r>
       <r>    8.3210    1.0000 </r>
       <r>   11.6781    0.0000 </r>
       <r>   14.5394    0.0000 </r>
       <r>   14.9209    0.0000 </r>
       <r>   16.6276    0.0000 </r>
      </set>
      <set comment="kpoint 3">
       <r>   -2.3229    1.0000 </r>
       <r>    5.1433    1.0000 </r>
       <r>    6.5358    1.0000 </r>
       <r>    8.9656    0.5855 </r>
       <r>   11.2145    0.0000 </r>
       <r>   12.1590    0.0000 </r>
       <r>   13.5218    0.0000 </r>
       <r>   14.4069    0.0000 </r>
      </set>
      <set comment="kpoint 4">
       <r>    0.4876    1.0000 </r>
       <r>    4.3592    1.0000 </r>
       <r>    6.2278    1.0000 </r>
       <r>    7.4631    1.0000 </r>
       <r>    8.4537    0.9999 </r>
       <r>   10.9530    0.0000 </r>
       <r>   13.5814    0.0000 </r>
       <r>   14.4934    0.0000 </r>
      </set>
      <set comment="kpoint 5">
       <r>   -2.5628    1.0000 </r>
       <r>    5.4330    1.0000 </r>
       <r>    7.9396    1.0000 </r>
       <r>    9.0751    0.2883 </r>
       <r>   10.6799    0.0000 </r>
       <r>   11.1511    0.0000 </r>
       <r>   13.6163    0.0000 </r>
       <r>   14.4157    0.0000 </r>
      </set>
      <set comment="kpoint 6">
       <r>    0.0202    1.0000 </r>
       <r>    5.4517    1.0000 </r>
       <r>    6.3237    1.0000 </r>
       <r>    6.8890    1.0000 </r>
       <r>    9.4260    0.0012 </r>
       <r>   11.5497    0.0000 </r>
       <r>   12.3675    0.0000 </r>
       <r>   13.6675    0.0000 </r>
      </set>
      <set comment="kpoint 7">
       <r>    1.4097    1.0000 </r>
       <r>    3.6533    1.0000 </r>
       <r>    4.6479    1.0000 </r>
       <r>    7.5330    1.0000 </r>
       <r>    8.8438    0.8594 </r>
       <r>   11.5304    0.0000 </r>
       <r>   12.6470    0.0000 </r>
       <r>   16.1249    0.0000 </r>
      </set>
      <set comment="kpoint 8">
       <r>   -1.6056    1.0000 </r>
       <r>    3.2208    1.0000 </r>
       <r>    6.7191    1.0000 </r>
       <r>    8.2841    1.0000 </r>
       <r>   10.6758    0.0000 </r>
       <r>   12.5490    0.0000 </r>
       <r>   13.2810    0.0000 </r>
       <r>   15.2912    0.0000 </r>
      </set>
      <set comment="kpoint 9">
       <r>   -3.5546    1.0000 </r>
       <r>    2.9618    1.0000 </r>
       <r>    6.3918    1.0000 </r>
       <r>    9.6719    0.0000 </r>
       <r>   12.4474    0.0000 </r>
       <r>   13.7588    0.0000 </r>
       <r>   14.3127    0.0000 </r>
       <r>   16.0181    0.0000 </r>
      </set>
      <set comment="kpoint 10">
       <r>   -4.3715    1.0000 </r>
       <r>    3.7531    1.0000 </r>
       <r>    6.5247    1.0000 </r>
       <r>    7.9280    1.0000 </r>
       <r>   11.9867    0.0000 </r>
       <r>   14.3026    0.0000 </r>
       <r>   15.8738    0.0000 </r>
       <r>   19.4387    0.0000 </r>
      </set>
      <set comment="kpoint 11">
       <r>    2.6476    1.0000 </r>
       <r>    2.8165    1.0000 </r>
       <r>    3.6443    1.0000 </r>
       <r>    7.6742    1.0000 </r>
       <r>    9.3289    0.0093 </r>
       <r>   10.4779    0.0000 </r>
       <r>   14.6176    0.0000 </r>
       <r>   15.2989    0.0000 </r>
      </set>
      <set comment="kpoint 12">
       <r>   -0.4211    1.0000 </r>
       <r>    1.2091    1.0000 </r>
       <r>    7.5903    1.0000 </r>
       <r>    8.0091    1.0000 </r>
       <r>    9.2751    0.0243 </r>
       <r>   11.7967    0.0000 </r>
       <r>   14.3872    0.0000 </r>
       <r>   15.9373    0.0000 </r>
      </set>
      <set comment="kpoint 13">
       <r>   -2.5918    1.0000 </r>
       <r>    0.7104    1.0000 </r>
       <r>    7.2701    1.0000 </r>
       <r>   10.3346    0.0000 </r>
       <r>   10.7649    0.0000 </r>
       <r>   13.1671    0.0000 </r>
       <r>   14.7638    0.0000 </r>
       <r>   15.1863    0.0000 </r>
      </set>
      <set comment="kpoint 14">
       <r>   -3.6448    1.0000 </r>
       <r>    1.3125    1.0000 </r>
       <r>    7.2002    1.0000 </r>
       <r>    8.9876    0.5241 </r>
       <r>   11.8924    0.0000 </r>
       <r>   13.7544    0.0000 </r>
       <r>   15.2299    0.0000 </r>
       <r>   19.0383    0.0000 </r>
      </set>
      <set comment="kpoint 15">
       <r>   -1.1625    1.0000 </r>
       <r>   -1.1608    1.0000 </r>
       <r>    8.5840    0.9982 </r>
       <r>    8.6274    0.9954 </r>
       <r>   11.7147    0.0000 </r>
       <r>   12.2927    0.0000 </r>
       <r>   14.1543    0.0000 </r>
       <r>   15.0387    0.0000 </r>
      </set>
      <set comment="kpoint 16">
       <r>   -2.4422    1.0000 </r>
       <r>   -0.7787    1.0000 </r>
       <r>    8.3244    1.0000 </r>
       <r>    9.8926    0.0000 </r>
       <r>   10.2298    0.0000 </r>
       <r>   11.8252    0.0000 </r>
       <r>   18.8034    0.0000 </r>
       <r>   18.8611    0.0000 </r>
      </set>
      <set comment="kpoint 17">
       <r>   -1.8431    1.0000 </r>
       <r>    3.0519    1.0000 </r>
       <r>    8.3601    1.0000 </r>
       <r>    9.1969    0.0779 </r>
       <r>   10.2755    0.0000 </r>
       <r>   11.1778    0.0000 </r>
       <r>   14.0823    0.0000 </r>
       <r>   14.8132    0.0000 </r>
      </set>
      <set comment="kpoint 18">
       <r>    0.9581    1.0000 </r>
       <r>    4.1111    1.0000 </r>
       <r>    4.9105    1.0000 </r>
       <r>    6.3471    1.0000 </r>
       <r>   10.6113    0.0000 </r>
       <r>   13.1731    0.0000 </r>
       <r>   13.8876    0.0000 </r>
       <r>   14.2384    0.0000 </r>
      </set>
      <set comment="kpoint 19">
       <r>   -4.1291    1.0000 </r>
       <r>    3.4506    1.0000 </r>
       <r>    4.9270    1.0000 </r>
       <r>    9.8308    0.0000 </r>
       <r>   12.2194    0.0000 </r>
       <r>   12.8460    0.0000 </r>
       <r>   17.7697    0.0000 </r>
       <r>   17.9831    0.0000 </r>
      </set>
      <set comment="kpoint 20">
       <r>    2.3280    1.0000 </r>
       <r>    2.3582    1.0000 </r>
       <r>    4.6583    1.0000 </r>
       <r>    6.1504    1.0000 </r>
       <r>   11.6822    0.0000 </r>
       <r>   12.4936    0.0000 </r>
       <r>   14.4635    0.0000 </r>
       <r>   15.4572    0.0000 </r>
      </set>
      <set comment="kpoint 21">
       <r>   -0.6527    1.0000 </r>
       <r>    0.9908    1.0000 </r>
       <r>    8.6953    0.9833 </r>
       <r>    8.9133    0.7211 </r>
       <r>   10.6668    0.0000 </r>
       <r>   11.6892    0.0000 </r>
       <r>   12.5547    0.0000 </r>
       <r>   13.6024    0.0000 </r>
      </set>
      <set comment="kpoint 22">
       <r>   -3.4050    1.0000 </r>
       <r>    1.4834    1.0000 </r>
       <r>    5.1226    1.0000 </r>
       <r>    9.8235    0.0000 </r>
       <r>   11.3346    0.0000 </r>
       <r>   15.6309    0.0000 </r>
       <r>   15.9755    0.0000 </r>
       <r>   18.6150    0.0000 </r>
      </set>
      <set comment="kpoint 23">
       <r>   -3.0739    1.0000 </r>
       <r>    2.8188    1.0000 </r>
       <r>    4.4477    1.0000 </r>
       <r>   10.0867    0.0000 </r>
       <r>   11.6999    0.0000 </r>
       <r>   13.7418    0.0000 </r>
       <r>   15.2498    0.0000 </r>
       <r>   16.9400    0.0000 </r>
      </set>
      <set comment="kpoint 24">
       <r>   -2.2081    1.0000 </r>
       <r>   -0.5586    1.0000 </r>
       <r>    6.2164    1.0000 </r>
       <r>    7.8010    1.0000 </r>
       <r>   12.6275    0.0000 </r>
       <r>   14.1647    0.0000 </r>
       <r>   18.0434    0.0000 </r>
       <r>   18.1916    0.0000 </r>
      </set>
      <set comment="kpoint 25">
       <r>   -2.1194    1.0000 </r>
       <r>    1.0983    1.0000 </r>
       <r>    4.7992    1.0000 </r>
       <r>    7.8979    1.0000 </r>
       <r>   11.9127    0.0000 </r>
       <r>   14.5132    0.0000 </r>
       <r>   16.7943    0.0000 </r>
       <r>   17.4229    0.0000 </r>
      </set>
      <set comment="kpoint 26">
       <r>   -0.8976    1.0000 </r>
       <r>    3.2855    1.0000 </r>
       <r>    4.9616    1.0000 </r>
       <r>    7.4421    1.0000 </r>
       <r>    8.9746    0.5606 </r>
       <r>   13.3971    0.0000 </r>
       <r>   14.9679    0.0000 </r>
       <r>   16.0517    0.0000 </r>
      </set>
      <set comment="kpoint 27">
       <r>   -0.7114    1.0000 </r>
       <r>   -0.7063    1.0000 </r>
       <r>    6.1016    1.0000 </r>
       <r>    6.1068    1.0000 </r>
       <r>   11.8147    0.0000 </r>
       <r>   15.4737    0.0000 </r>
       <r>   16.2515    0.0000 </r>
       <r>   16.7600    0.0000 </r>
      </set>
      <set comment="kpoint 28">
       <r>    0.2642    1.0000 </r>
       <r>    1.8224    1.0000 </r>
       <r>    5.4932    1.0000 </r>
       <r>    6.8184    1.0000 </r>
       <r>    7.2524    1.0000 </r>
       <r>   13.5356    0.0000 </r>
       <r>   16.5880    0.0000 </r>
       <r>   17.5725    0.0000 </r>
      </set>
      <set comment="kpoint 29">
       <r>    2.2478    1.0000 </r>
       <r>    3.0653    1.0000 </r>
       <r>    4.9352    1.0000 </r>
       <r>    6.4435    1.0000 </r>
       <r>    8.5680    0.9988 </r>
       <r>   11.1394    0.0000 </r>
       <r>   12.3166    0.0000 </r>
       <r>   16.4784    0.0000 </r>
      </set>
      <set comment="kpoint 30">
       <r>    2.6105    1.0000 </r>
       <r>    3.6629    1.0000 </r>
       <r>    3.8302    1.0000 </r>
       <r>    7.1005    1.0000 </r>
       <r>    7.2502    1.0000 </r>
       <r>   11.1790    0.0000 </r>
       <r>   13.8923    0.0000 </r>
       <r>   14.7626    0.0000 </r>
      </set>
      <set comment="kpoint 31">
       <r>   -0.4522    1.0000 </r>
       <r>    6.5040    1.0000 </r>
       <r>    7.3540    1.0000 </r>
       <r>    8.2231    1.0000 </r>
       <r>    8.3061    1.0000 </r>
       <r>   10.7523    0.0000 </r>
       <r>   11.1740    0.0000 </r>
       <r>   12.4808    0.0000 </r>
      </set>
      <set comment="kpoint 32">
       <r>   -2.8035    1.0000 </r>
       <r>    7.7671    1.0000 </r>
       <r>    7.7671    1.0000 </r>
       <r>    7.7710    1.0000 </r>
       <r>   11.0818    0.0000 </r>
       <r>   11.5146    0.0000 </r>
       <r>   12.3605    0.0000 </r>
       <r>   13.7422    0.0000 </r>
      </set>
      <set comment="kpoint 33">
       <r>   -2.6901    1.0000 </r>
       <r>    1.5431    1.0000 </r>
       <r>    3.2805    1.0000 </r>
       <r>    7.3991    1.0000 </r>
       <r>   13.9361    0.0000 </r>
       <r>   17.0453    0.0000 </r>
       <r>   17.2622    0.0000 </r>
       <r>   18.1008    0.0000 </r>
      </set>
      <set comment="kpoint 34">
       <r>   -1.5158    1.0000 </r>
       <r>    0.0604    1.0000 </r>
       <r>    3.8286    1.0000 </r>
       <r>    5.3655    1.0000 </r>
       <r>   15.4450    0.0000 </r>
       <r>   16.3857    0.0000 </r>
       <r>   17.9704    0.0000 </r>
       <r>   18.5335    0.0000 </r>
      </set>
      <set comment="kpoint 35">
       <r>   -1.1882    1.0000 </r>
       <r>    1.3839    1.0000 </r>
       <r>    3.1586    1.0000 </r>
       <r>    5.6732    1.0000 </r>
       <r>   11.4922    0.0000 </r>
       <r>   17.1883    0.0000 </r>
       <r>   18.4427    0.0000 </r>
       <r>   19.1553    0.0000 </r>
      </set>
      <set comment="kpoint 36">
       <r>    0.1413    1.0000 </r>
       <r>    0.1507    1.0000 </r>
       <r>    3.9185    1.0000 </r>
       <r>    3.9207    1.0000 </r>
       <r>   11.3090    0.0000 </r>
       <r>   18.5865    0.0000 </r>
       <r>   18.7588    0.0000 </r>
       <r>   19.4251    0.0000 </r>
      </set>
      <set comment="kpoint 37">
       <r>    1.3488    1.0000 </r>
       <r>    2.3377    1.0000 </r>
       <r>    4.1002    1.0000 </r>
       <r>    5.0605    1.0000 </r>
       <r>    6.6340    1.0000 </r>
       <r>   15.3820    0.0000 </r>
       <r>   16.7738    0.0000 </r>
       <r>   18.1131    0.0000 </r>
      </set>
      <set comment="kpoint 38">
       <r>    2.4369    1.0000 </r>
       <r>    4.4148    1.0000 </r>
       <r>    4.5497    1.0000 </r>
       <r>    6.0496    1.0000 </r>
       <r>    6.0496    1.0000 </r>
       <r>   13.0176    0.0000 </r>
       <r>   13.6509    0.0000 </r>
       <r>   13.6509    0.0000 </r>
      </set>
      <set comment="kpoint 39">
       <r>   -0.4199    1.0000 </r>
       <r>    0.5761    1.0000 </r>
       <r>    2.3972    1.0000 </r>
       <r>    3.3806    1.0000 </r>
       <r>   16.2437    0.0000 </r>
       <r>   16.3847    0.0000 </r>
       <r>   19.6986    0.0000 </r>
       <r>   20.6300    0.0000 </r>
      </set>
      <set comment="kpoint 40">
       <r>    0.8940    1.0000 </r>
       <r>    0.9084    1.0000 </r>
       <r>    2.7144    1.0000 </r>
       <r>    2.7144    1.0000 </r>
       <r>   11.1195    0.0000 </r>
       <r>   19.7399    0.0000 </r>
       <r>   20.7022    0.0000 </r>
       <r>   20.7022    0.0000 </r>
      </set>
     </set>
    </set>
   </array>
  </eigenvalues>
  <separator name="orbital magnetization" >
   <v name="MAGDIPOLOUT">      0.00000000      0.00000000      0.00000000</v>
  </separator>
  <dos>
   <i name="efermi">      8.99618257 </i>
   <total>
    <array>
     <dimension dim="1">gridpoints</dimension>
     <dimension dim="2">spin</dimension>
     <field>energy</field>
     <field>total</field>
     <field>integrated</field>
     <set>
      <set comment="spin 1">
       <r>    -6.6143     0.0000     0.0000 </r>
       <r>    -6.5165     0.0000     0.0000 </r>
       <r>    -6.4188     0.0000     0.0000 </r>
       <r>    -6.3211     0.0000     0.0000 </r>
       <r>    -6.2234     0.0000     0.0000 </r>
       <r>    -6.1256     0.0000     0.0000 </r>
       <r>    -6.0279     0.0000     0.0000 </r>
       <r>    -5.9302     0.0000     0.0000 </r>
       <r>    -5.8325     0.0000     0.0000 </r>
       <r>    -5.7348     0.0000     0.0000 </r>
       <r>    -5.6370     0.0000     0.0000 </r>
       <r>    -5.5393     0.0000     0.0000 </r>
       <r>    -5.4416     0.0000     0.0000 </r>
       <r>    -5.3439     0.0000     0.0000 </r>
       <r>    -5.2462     0.0000     0.0000 </r>
       <r>    -5.1484     0.0000     0.0000 </r>
       <r>    -5.0507     0.0001     0.0000 </r>
       <r>    -4.9530     0.0004     0.0000 </r>
       <r>    -4.8553     0.0022     0.0003 </r>
       <r>    -4.7575     0.0073     0.0010 </r>
       <r>    -4.6598     0.0172     0.0027 </r>
       <r>    -4.5621     0.0327     0.0059 </r>
       <r>    -4.4644     0.0549     0.0112 </r>
       <r>    -4.3667     0.0810     0.0191 </r>
       <r>    -4.2689     0.1094     0.0298 </r>
       <r>    -4.1712     0.1489     0.0444 </r>
       <r>    -4.0735     0.1884     0.0628 </r>
       <r>    -3.9758     0.1849     0.0809 </r>
       <r>    -3.8781     0.1393     0.0945 </r>
       <r>    -3.7803     0.1248     0.1067 </r>
       <r>    -3.6826     0.2003     0.1262 </r>
       <r>    -3.5849     0.3257     0.1581 </r>
       <r>    -3.4872     0.3909     0.1963 </r>
       <r>    -3.3894     0.3406     0.2295 </r>
       <r>    -3.2917     0.2330     0.2523 </r>
       <r>    -3.1940     0.1603     0.2680 </r>
       <r>    -3.0963     0.1470     0.2823 </r>
       <r>    -2.9986     0.1463     0.2966 </r>
       <r>    -2.9008     0.1376     0.3101 </r>
       <r>    -2.8031     0.1738     0.3271 </r>
       <r>    -2.7054     0.2981     0.3562 </r>
       <r>    -2.6077     0.4533     0.4005 </r>
       <r>    -2.5100     0.5204     0.4514 </r>
       <r>    -2.4122     0.4808     0.4983 </r>
       <r>    -2.3145     0.4423     0.5416 </r>
       <r>    -2.2168     0.4614     0.5866 </r>
       <r>    -2.1191     0.4679     0.6324 </r>
       <r>    -2.0213     0.3949     0.6710 </r>
       <r>    -1.9236     0.2920     0.6995 </r>
       <r>    -1.8259     0.2482     0.7237 </r>
       <r>    -1.7282     0.2856     0.7517 </r>
       <r>    -1.6305     0.3655     0.7874 </r>
       <r>    -1.5327     0.4028     0.8267 </r>
       <r>    -1.4350     0.3495     0.8609 </r>
       <r>    -1.3373     0.2957     0.8898 </r>
       <r>    -1.2396     0.3405     0.9231 </r>
       <r>    -1.1419     0.4147     0.9636 </r>
       <r>    -1.0441     0.4027     1.0029 </r>
       <r>    -0.9464     0.3543     1.0376 </r>
       <r>    -0.8487     0.3910     1.0758 </r>
       <r>    -0.7510     0.5182     1.1264 </r>
       <r>    -0.6532     0.6446     1.1894 </r>
       <r>    -0.5555     0.7084     1.2586 </r>
       <r>    -0.4578     0.6998     1.3270 </r>
       <r>    -0.3601     0.5874     1.3844 </r>
       <r>    -0.2624     0.3900     1.4225 </r>
       <r>    -0.1646     0.2602     1.4480 </r>
       <r>    -0.0669     0.3287     1.4801 </r>
       <r>     0.0308     0.5420     1.5331 </r>
       <r>     0.1285     0.7143     1.6029 </r>
       <r>     0.2262     0.7171     1.6729 </r>
       <r>     0.3240     0.5805     1.7297 </r>
       <r>     0.4217     0.4294     1.7716 </r>
       <r>     0.5194     0.3616     1.8070 </r>
       <r>     0.6171     0.3788     1.8440 </r>
       <r>     0.7149     0.4286     1.8859 </r>
       <r>     0.8126     0.4922     1.9340 </r>
       <r>     0.9103     0.5997     1.9926 </r>
       <r>     1.0080     0.7343     2.0643 </r>
       <r>     1.1057     0.8213     2.1446 </r>
       <r>     1.2035     0.8546     2.2281 </r>
       <r>     1.3012     0.8873     2.3148 </r>
       <r>     1.3989     0.8945     2.4022 </r>
       <r>     1.4966     0.7766     2.4781 </r>
       <r>     1.5943     0.5452     2.5314 </r>
       <r>     1.6921     0.3589     2.5665 </r>
       <r>     1.7898     0.3005     2.5958 </r>
       <r>     1.8875     0.2782     2.6230 </r>
       <r>     1.9852     0.2124     2.6438 </r>
       <r>     2.0830     0.1752     2.6609 </r>
       <r>     2.1807     0.2707     2.6873 </r>
       <r>     2.2784     0.4695     2.7332 </r>
       <r>     2.3761     0.6090     2.7927 </r>
       <r>     2.4738     0.5933     2.8507 </r>
       <r>     2.5716     0.5253     2.9021 </r>
       <r>     2.6693     0.5259     2.9534 </r>
       <r>     2.7670     0.5838     3.0105 </r>
       <r>     2.8647     0.6556     3.0746 </r>
       <r>     2.9625     0.7344     3.1463 </r>
       <r>     3.0602     0.8103     3.2255 </r>
       <r>     3.1579     0.8528     3.3089 </r>
       <r>     3.2556     0.8179     3.3888 </r>
       <r>     3.3533     0.6870     3.4559 </r>
       <r>     3.4511     0.5491     3.5096 </r>
       <r>     3.5488     0.5494     3.5633 </r>
       <r>     3.6465     0.6950     3.6312 </r>
       <r>     3.7442     0.8309     3.7124 </r>
       <r>     3.8419     0.8523     3.7957 </r>
       <r>     3.9397     0.7900     3.8729 </r>
       <r>     4.0374     0.7040     3.9417 </r>
       <r>     4.1351     0.6080     4.0011 </r>
       <r>     4.2328     0.4964     4.0496 </r>
       <r>     4.3306     0.4197     4.0906 </r>
       <r>     4.4283     0.4275     4.1324 </r>
       <r>     4.5260     0.5039     4.1816 </r>
       <r>     4.6237     0.6244     4.2426 </r>
       <r>     4.7214     0.7651     4.3174 </r>
       <r>     4.8192     0.9015     4.4055 </r>
       <r>     4.9169     1.0053     4.5037 </r>
       <r>     5.0146     1.0182     4.6032 </r>
       <r>     5.1123     0.9202     4.6931 </r>
       <r>     5.2100     0.7776     4.7691 </r>
       <r>     5.3078     0.7123     4.8387 </r>
       <r>     5.4055     0.7783     4.9148 </r>
       <r>     5.5032     0.8243     4.9953 </r>
       <r>     5.6009     0.6863     5.0624 </r>
       <r>     5.6987     0.4357     5.1050 </r>
       <r>     5.7964     0.2387     5.1283 </r>
       <r>     5.8941     0.1891     5.1468 </r>
       <r>     5.9918     0.3355     5.1796 </r>
       <r>     6.0895     0.6673     5.2448 </r>
       <r>     6.1873     1.0699     5.3493 </r>
       <r>     6.2850     1.3835     5.4845 </r>
       <r>     6.3827     1.4857     5.6297 </r>
       <r>     6.4804     1.3544     5.7621 </r>
       <r>     6.5781     1.1166     5.8712 </r>
       <r>     6.6759     0.9471     5.9637 </r>
       <r>     6.7736     0.8848     6.0502 </r>
       <r>     6.8713     0.8194     6.1303 </r>
       <r>     6.9690     0.6892     6.1976 </r>
       <r>     7.0668     0.6196     6.2582 </r>
       <r>     7.1645     0.7530     6.3318 </r>
       <r>     7.2622     1.0044     6.4299 </r>
       <r>     7.3599     1.1617     6.5434 </r>
       <r>     7.4576     1.1702     6.6578 </r>
       <r>     7.5554     1.1020     6.7655 </r>
       <r>     7.6531     0.9922     6.8624 </r>
       <r>     7.7508     0.8970     6.9501 </r>
       <r>     7.8485     0.8881     7.0369 </r>
       <r>     7.9462     0.9057     7.1254 </r>
       <r>     8.0440     0.8433     7.2078 </r>
       <r>     8.1417     0.7763     7.2837 </r>
       <r>     8.2394     0.8497     7.3667 </r>
       <r>     8.3371     0.9743     7.4619 </r>
       <r>     8.4349     0.9639     7.5561 </r>
       <r>     8.5326     0.8517     7.6394 </r>
       <r>     8.6303     0.7645     7.7141 </r>
       <r>     8.7280     0.7312     7.7855 </r>
       <r>     8.8257     0.7580     7.8596 </r>
       <r>     8.9235     0.8195     7.9397 </r>
       <r>     9.0212     0.8231     8.0201 </r>
       <r>     9.1189     0.7597     8.0943 </r>
       <r>     9.2166     0.7280     8.1655 </r>
       <r>     9.3143     0.7398     8.2378 </r>
       <r>     9.4121     0.6954     8.3057 </r>
       <r>     9.5098     0.5741     8.3618 </r>
       <r>     9.6075     0.4778     8.4085 </r>
       <r>     9.7052     0.4625     8.4537 </r>
       <r>     9.8030     0.4627     8.4989 </r>
       <r>     9.9007     0.4135     8.5393 </r>
       <r>     9.9984     0.3439     8.5730 </r>
       <r>    10.0961     0.3320     8.6054 </r>
       <r>    10.1938     0.4109     8.6456 </r>
       <r>    10.2916     0.5314     8.6975 </r>
       <r>    10.3893     0.6241     8.7585 </r>
       <r>    10.4870     0.7264     8.8295 </r>
       <r>    10.5847     0.9329     8.9206 </r>
       <r>    10.6824     1.1477     9.0328 </r>
       <r>    10.7802     1.1301     9.1432 </r>
       <r>    10.8779     0.8782     9.2290 </r>
       <r>    10.9756     0.6870     9.2962 </r>
       <r>    11.0733     0.7646     9.3709 </r>
       <r>    11.1711     0.9826     9.4669 </r>
       <r>    11.2688     1.0705     9.5715 </r>
       <r>    11.3665     1.0067     9.6699 </r>
       <r>    11.4642     1.0157     9.7691 </r>
       <r>    11.5619     1.1888     9.8853 </r>
       <r>    11.6597     1.3878    10.0209 </r>
       <r>    11.7574     1.4565    10.1633 </r>
       <r>    11.8551     1.3231    10.2926 </r>
       <r>    11.9528     1.0217    10.3924 </r>
       <r>    12.0505     0.7115    10.4619 </r>
       <r>    12.1483     0.5872    10.5193 </r>
       <r>    12.2460     0.7224    10.5899 </r>
       <r>    12.3437     1.0252    10.6901 </r>
       <r>    12.4414     1.3173    10.8188 </r>
       <r>    12.5392     1.4218    10.9577 </r>
       <r>    12.6369     1.2434    11.0792 </r>
       <r>    12.7346     0.8566    11.1630 </r>
       <r>    12.8323     0.4787    11.2097 </r>
       <r>    12.9300     0.2927    11.2383 </r>
       <r>    13.0278     0.3495    11.2725 </r>
       <r>    13.1255     0.5795    11.3291 </r>
       <r>    13.2232     0.7989    11.4072 </r>
       <r>    13.3209     0.8729    11.4925 </r>
       <r>    13.4186     0.9118    11.5816 </r>
       <r>    13.5164     1.0950    11.6886 </r>
       <r>    13.6141     1.3616    11.8217 </r>
       <r>    13.7118     1.4854    11.9668 </r>
       <r>    13.8095     1.3729    12.1010 </r>
       <r>    13.9073     1.1218    12.2106 </r>
       <r>    14.0050     0.8987    12.2984 </r>
       <r>    14.1027     0.8539    12.3819 </r>
       <r>    14.2004     1.0250    12.4820 </r>
       <r>    14.2981     1.3005    12.6091 </r>
       <r>    14.3959     1.5122    12.7569 </r>
       <r>    14.4936     1.5208    12.9055 </r>
       <r>    14.5913     1.3158    13.0341 </r>
       <r>    14.6890     1.0644    13.1381 </r>
       <r>    14.7868     0.9127    13.2273 </r>
       <r>    14.8845     0.8259    13.3080 </r>
       <r>    14.9822     0.7517    13.3815 </r>
       <r>    15.0799     0.7517    13.4549 </r>
       <r>    15.1776     0.8862    13.5415 </r>
       <r>    15.2754     1.0676    13.6458 </r>
       <r>    15.3731     1.1174    13.7550 </r>
       <r>    15.4708     0.9677    13.8496 </r>
       <r>    15.5685     0.7024    13.9182 </r>
       <r>    15.6662     0.4635    13.9635 </r>
       <r>    15.7640     0.3856    14.0012 </r>
       <r>    15.8617     0.5383    14.0538 </r>
       <r>    15.9594     0.8297    14.1349 </r>
       <r>    16.0571     1.0227    14.2348 </r>
       <r>    16.1549     0.9785    14.3304 </r>
       <r>    16.2526     0.7998    14.4086 </r>
       <r>    16.3503     0.6631    14.4734 </r>
       <r>    16.4480     0.6393    14.5359 </r>
       <r>    16.5457     0.7017    14.6044 </r>
       <r>    16.6435     0.7926    14.6819 </r>
       <r>    16.7412     0.8474    14.7647 </r>
       <r>    16.8389     0.7996    14.8429 </r>
       <r>    16.9366     0.6383    14.9052 </r>
       <r>    17.0343     0.4567    14.9499 </r>
       <r>    17.1321     0.3565    14.9847 </r>
       <r>    17.2298     0.3537    15.0193 </r>
       <r>    17.3275     0.4129    15.0596 </r>
       <r>    17.4252     0.4896    15.1075 </r>
       <r>    17.5230     0.5210    15.1584 </r>
       <r>    17.6207     0.4618    15.2035 </r>
       <r>    17.7184     0.3490    15.2376 </r>
       <r>    17.8161     0.2871    15.2657 </r>
       <r>    17.9138     0.3486    15.2997 </r>
       <r>    18.0116     0.4892    15.3475 </r>
       <r>    18.1093     0.5722    15.4035 </r>
       <r>    18.2070     0.5153    15.4538 </r>
       <r>    18.3047     0.3964    15.4925 </r>
       <r>    18.4024     0.3627    15.5280 </r>
       <r>    18.5002     0.4475    15.5717 </r>
       <r>    18.5979     0.5406    15.6245 </r>
       <r>    18.6956     0.5420    15.6775 </r>
       <r>    18.7933     0.4605    15.7225 </r>
       <r>    18.8911     0.3532    15.7570 </r>
       <r>    18.9888     0.2689    15.7833 </r>
       <r>    19.0865     0.2326    15.8060 </r>
       <r>    19.1842     0.2232    15.8278 </r>
       <r>    19.2819     0.2181    15.8491 </r>
       <r>    19.3797     0.2263    15.8713 </r>
       <r>    19.4774     0.2308    15.8938 </r>
       <r>    19.5751     0.2019    15.9135 </r>
       <r>    19.6728     0.1586    15.9290 </r>
       <r>    19.7705     0.1207    15.9408 </r>
       <r>    19.8683     0.0782    15.9485 </r>
       <r>    19.9660     0.0363    15.9520 </r>
       <r>    20.0637     0.0111    15.9531 </r>
       <r>    20.1614     0.0023    15.9533 </r>
       <r>    20.2592     0.0014    15.9535 </r>
       <r>    20.3569     0.0069    15.9541 </r>
       <r>    20.4546     0.0271    15.9568 </r>
       <r>    20.5523     0.0689    15.9635 </r>
       <r>    20.6500     0.1137    15.9746 </r>
       <r>    20.7478     0.1221    15.9866 </r>
       <r>    20.8455     0.0852    15.9949 </r>
       <r>    20.9432     0.0386    15.9987 </r>
       <r>    21.0409     0.0113    15.9998 </r>
       <r>    21.1386     0.0021    16.0000 </r>
       <r>    21.2364     0.0003    16.0000 </r>
       <r>    21.3341     0.0000    16.0000 </r>
       <r>    21.4318     0.0000    16.0000 </r>
       <r>    21.5295     0.0000    16.0000 </r>
       <r>    21.6273     0.0000    16.0000 </r>
       <r>    21.7250     0.0000    16.0000 </r>
       <r>    21.8227     0.0000    16.0000 </r>
       <r>    21.9204     0.0000    16.0000 </r>
       <r>    22.0181     0.0000    16.0000 </r>
       <r>    22.1159     0.0000    16.0000 </r>
       <r>    22.2136     0.0000    16.0000 </r>
       <r>    22.3113     0.0000    16.0000 </r>
       <r>    22.4090     0.0000    16.0000 </r>
       <r>    22.5067     0.0000    16.0000 </r>
       <r>    22.6045     0.0000    16.0000 </r>
       <r>    22.7022     0.0000    16.0000 </r>
      </set>
     </set>
    </array>
   </total>
  </dos>
 </calculation>
 <structure name="finalpos" >
  <crystal>
   <varray name="basis" >
    <v>      -2.45000000       2.45000000       1.27400000 </v>
    <v>       2.45000000      -2.45000000       1.27400000 </v>
    <v>       2.45000000       2.45000000      -1.27400000 </v>
   </varray>
   <i name="volume">     30.58874000 </i>
   <varray name="rec_basis" >
    <v>       0.00000000       0.20408163       0.39246468 </v>
    <v>       0.20408163       0.00000000       0.39246468 </v>
    <v>       0.20408163       0.20408163      -0.00000000 </v>
   </varray>
  </crystal>
  <varray name="positions" >
   <v>       0.25000000       0.75000000       0.50000000 </v>
   <v>       0.00000000       0.00000000       0.00000000 </v>
  </varray>
 </structure>
</modeling>
