   2   2   0   0
  0.1529437E+02  0.3691622E-09  0.3691622E-09  0.3691622E-09  0.5000000E-15
  1.000000000000000E-004
  CAR 
 unknown system                          
     22.61289632     -6.43514217  301      9.21800440      1.00000000
     -6.435  0.0000E+00  0.0000E+00
     -6.338  0.0000E+00  0.0000E+00
     -6.241  0.0000E+00  0.0000E+00
     -6.145  0.0000E+00  0.0000E+00
     -6.048  0.0000E+00  0.0000E+00
     -5.951  0.0000E+00  0.0000E+00
     -5.854  0.0000E+00  0.0000E+00
     -5.757  0.0000E+00  0.0000E+00
     -5.661  0.0000E+00  0.0000E+00
     -5.564  0.1840E-16  0.1782E-17
     -5.467  0.3777E-14  0.3675E-15
     -5.370  0.4837E-12  0.4720E-13
     -5.273  0.3906E-10  0.3830E-11
     -5.176  0.1992E-08  0.1967E-09
     -5.080  0.6420E-07  0.6413E-08
     -4.983  0.1310E-05  0.1332E-06
     -4.886  0.1693E-04  0.1772E-05
     -4.789  0.1388E-03  0.1521E-04
     -4.692  0.7233E-03  0.8525E-04
     -4.595  0.2397E-02  0.3173E-03
     -4.499  0.5058E-02  0.8071E-03
     -4.402  0.6813E-02  0.1467E-02
     -4.305  0.5949E-02  0.2043E-02
     -4.208  0.3796E-02  0.2410E-02
     -4.111  0.3127E-02  0.2713E-02
     -4.014  0.5224E-02  0.3219E-02
     -3.918  0.1027E-01  0.4213E-02
     -3.821  0.1785E-01  0.5942E-02
     -3.724  0.2463E-01  0.8326E-02
     -3.627  0.2543E-01  0.1079E-01
     -3.530  0.2045E-01  0.1277E-01
     -3.434  0.1629E-01  0.1435E-01
     -3.337  0.1647E-01  0.1594E-01
     -3.240  0.1724E-01  0.1761E-01
     -3.143  0.1508E-01  0.1907E-01
     -3.046  0.1081E-01  0.2012E-01
     -2.949  0.6886E-02  0.2078E-01
     -2.853  0.6095E-02  0.2137E-01
     -2.756  0.1010E-01  0.2235E-01
     -2.659  0.1728E-01  0.2403E-01
     -2.562  0.2521E-01  0.2647E-01
     -2.465  0.3377E-01  0.2974E-01
     -2.368  0.4008E-01  0.3362E-01
     -2.272  0.3747E-01  0.3724E-01
     -2.175  0.2721E-01  0.3988E-01
     -2.078  0.1992E-01  0.4181E-01
     -1.981  0.2059E-01  0.4380E-01
     -1.884  0.2346E-01  0.4607E-01
     -1.787  0.2191E-01  0.4819E-01
     -1.691  0.1601E-01  0.4974E-01
     -1.594  0.1229E-01  0.5093E-01
     -1.497  0.1808E-01  0.5268E-01
     -1.400  0.3211E-01  0.5579E-01
     -1.303  0.4172E-01  0.5983E-01
     -1.206  0.3779E-01  0.6349E-01
     -1.110  0.2761E-01  0.6617E-01
     -1.013  0.2169E-01  0.6827E-01
     -0.916  0.2248E-01  0.7044E-01
     -0.819  0.3132E-01  0.7348E-01
     -0.722  0.4566E-01  0.7790E-01
     -0.626  0.5338E-01  0.8307E-01
     -0.529  0.4643E-01  0.8756E-01
     -0.432  0.3053E-01  0.9052E-01
     -0.335  0.1640E-01  0.9211E-01
     -0.238  0.1199E-01  0.9327E-01
     -0.141  0.2047E-01  0.9525E-01
     -0.045  0.3770E-01  0.9890E-01
      0.052  0.5245E-01  0.1040E+00
      0.149  0.5489E-01  0.1093E+00
      0.246  0.4410E-01  0.1136E+00
      0.343  0.2872E-01  0.1163E+00
      0.440  0.2157E-01  0.1184E+00
      0.536  0.2690E-01  0.1210E+00
      0.633  0.3414E-01  0.1243E+00
      0.730  0.3140E-01  0.1274E+00
      0.827  0.2115E-01  0.1294E+00
      0.924  0.1438E-01  0.1308E+00
      1.021  0.1737E-01  0.1325E+00
      1.117  0.2792E-01  0.1352E+00
      1.214  0.3754E-01  0.1388E+00
      1.311  0.4180E-01  0.1429E+00
      1.408  0.4544E-01  0.1473E+00
      1.505  0.4865E-01  0.1520E+00
      1.601  0.4681E-01  0.1565E+00
      1.698  0.4690E-01  0.1611E+00
      1.795  0.5692E-01  0.1666E+00
      1.892  0.6832E-01  0.1732E+00
      1.989  0.6923E-01  0.1799E+00
      2.086  0.6026E-01  0.1857E+00
      2.182  0.4871E-01  0.1905E+00
      2.279  0.4076E-01  0.1944E+00
      2.376  0.3956E-01  0.1982E+00
      2.473  0.4030E-01  0.2021E+00
      2.570  0.3521E-01  0.2055E+00
      2.667  0.2722E-01  0.2082E+00
      2.763  0.2374E-01  0.2105E+00
      2.860  0.2410E-01  0.2128E+00
      2.957  0.2409E-01  0.2151E+00
      3.054  0.2161E-01  0.2172E+00
      3.151  0.1681E-01  0.2189E+00
      3.248  0.1451E-01  0.2203E+00
      3.344  0.2075E-01  0.2223E+00
      3.441  0.3336E-01  0.2255E+00
      3.538  0.4279E-01  0.2297E+00
      3.635  0.4444E-01  0.2340E+00
      3.732  0.4125E-01  0.2379E+00
      3.828  0.3786E-01  0.2416E+00
      3.925  0.3984E-01  0.2455E+00
      4.022  0.4800E-01  0.2501E+00
      4.119  0.5736E-01  0.2557E+00
      4.216  0.6827E-01  0.2623E+00
      4.313  0.8126E-01  0.2702E+00
      4.409  0.8443E-01  0.2783E+00
      4.506  0.6899E-01  0.2850E+00
      4.603  0.4625E-01  0.2895E+00
      4.700  0.3278E-01  0.2927E+00
      4.797  0.3209E-01  0.2958E+00
      4.894  0.3632E-01  0.2993E+00
      4.990  0.3714E-01  0.3029E+00
      5.087  0.3424E-01  0.3062E+00
      5.184  0.3270E-01  0.3094E+00
      5.281  0.3135E-01  0.3124E+00
      5.378  0.2658E-01  0.3150E+00
      5.475  0.2460E-01  0.3174E+00
      5.571  0.3361E-01  0.3206E+00
      5.668  0.5151E-01  0.3256E+00
      5.765  0.7149E-01  0.3325E+00
      5.862  0.8823E-01  0.3411E+00
      5.959  0.9666E-01  0.3504E+00
      6.056  0.9366E-01  0.3595E+00
      6.152  0.7896E-01  0.3671E+00
      6.249  0.5848E-01  0.3728E+00
      6.346  0.4654E-01  0.3773E+00
      6.443  0.5171E-01  0.3823E+00
      6.540  0.6386E-01  0.3885E+00
      6.636  0.6653E-01  0.3949E+00
      6.733  0.5799E-01  0.4005E+00
      6.830  0.5051E-01  0.4054E+00
      6.927  0.5361E-01  0.4106E+00
      7.024  0.6576E-01  0.4170E+00
      7.121  0.7642E-01  0.4244E+00
      7.217  0.7438E-01  0.4316E+00
      7.314  0.6041E-01  0.4374E+00
      7.411  0.4816E-01  0.4421E+00
      7.508  0.4698E-01  0.4467E+00
      7.605  0.5139E-01  0.4516E+00
      7.702  0.5277E-01  0.4567E+00
      7.798  0.4999E-01  0.4616E+00
      7.895  0.4789E-01  0.4662E+00
      7.992  0.5171E-01  0.4712E+00
      8.089  0.6079E-01  0.4771E+00
      8.186  0.7284E-01  0.4842E+00
      8.283  0.8439E-01  0.4923E+00
      8.379  0.8403E-01  0.5005E+00
      8.476  0.6869E-01  0.5071E+00
      8.573  0.5273E-01  0.5122E+00
      8.670  0.4508E-01  0.5166E+00
      8.767  0.3918E-01  0.5204E+00
      8.863  0.2943E-01  0.5232E+00
      8.960  0.2194E-01  0.5254E+00
      9.057  0.2422E-01  0.5277E+00
      9.154  0.3300E-01  0.5309E+00
      9.251  0.3793E-01  0.5346E+00
      9.348  0.3457E-01  0.5379E+00
      9.444  0.3036E-01  0.5409E+00
      9.541  0.3373E-01  0.5441E+00
      9.638  0.4386E-01  0.5484E+00
      9.735  0.5737E-01  0.5539E+00
      9.832  0.7291E-01  0.5610E+00
      9.929  0.8470E-01  0.5692E+00
     10.025  0.8314E-01  0.5772E+00
     10.122  0.6703E-01  0.5837E+00
     10.219  0.4731E-01  0.5883E+00
     10.316  0.3372E-01  0.5916E+00
     10.413  0.2678E-01  0.5942E+00
     10.510  0.2485E-01  0.5966E+00
     10.606  0.2857E-01  0.5993E+00
     10.703  0.3731E-01  0.6030E+00
     10.800  0.4591E-01  0.6074E+00
     10.897  0.4726E-01  0.6120E+00
     10.994  0.4240E-01  0.6161E+00
     11.091  0.4189E-01  0.6201E+00
     11.187  0.5461E-01  0.6254E+00
     11.284  0.7995E-01  0.6332E+00
     11.381  0.1049E+00  0.6433E+00
     11.478  0.1112E+00  0.6541E+00
     11.575  0.9552E-01  0.6633E+00
     11.671  0.7764E-01  0.6709E+00
     11.768  0.7555E-01  0.6782E+00
     11.865  0.8034E-01  0.6860E+00
     11.962  0.7062E-01  0.6928E+00
     12.059  0.4824E-01  0.6975E+00
     12.156  0.3738E-01  0.7011E+00
     12.252  0.4952E-01  0.7059E+00
     12.349  0.6821E-01  0.7125E+00
     12.446  0.6917E-01  0.7192E+00
     12.543  0.5072E-01  0.7241E+00
     12.640  0.3298E-01  0.7273E+00
     12.737  0.2846E-01  0.7300E+00
     12.833  0.3323E-01  0.7333E+00
     12.930  0.3928E-01  0.7371E+00
     13.027  0.4188E-01  0.7411E+00
     13.124  0.4288E-01  0.7453E+00
     13.221  0.4710E-01  0.7498E+00
     13.318  0.5571E-01  0.7552E+00
     13.414  0.7218E-01  0.7622E+00
     13.511  0.1020E+00  0.7721E+00
     13.608  0.1328E+00  0.7849E+00
     13.705  0.1386E+00  0.7984E+00
     13.802  0.1167E+00  0.8097E+00
     13.898  0.9003E-01  0.8184E+00
     13.995  0.7506E-01  0.8256E+00
     14.092  0.6672E-01  0.8321E+00
     14.189  0.5880E-01  0.8378E+00
     14.286  0.6022E-01  0.8436E+00
     14.383  0.7610E-01  0.8510E+00
     14.479  0.9058E-01  0.8598E+00
     14.576  0.8631E-01  0.8681E+00
     14.673  0.6551E-01  0.8745E+00
     14.770  0.4324E-01  0.8787E+00
     14.867  0.2876E-01  0.8814E+00
     14.964  0.2105E-01  0.8835E+00
     15.060  0.2056E-01  0.8855E+00
     15.157  0.3336E-01  0.8887E+00
     15.254  0.6373E-01  0.8949E+00
     15.351  0.1032E+00  0.9049E+00
     15.448  0.1275E+00  0.9172E+00
     15.545  0.1181E+00  0.9286E+00
     15.641  0.8585E-01  0.9370E+00
     15.738  0.5749E-01  0.9425E+00
     15.835  0.4464E-01  0.9468E+00
     15.932  0.4033E-01  0.9507E+00
     16.029  0.3738E-01  0.9544E+00
     16.126  0.3557E-01  0.9578E+00
     16.222  0.3447E-01  0.9612E+00
     16.319  0.3099E-01  0.9642E+00
     16.416  0.2559E-01  0.9666E+00
     16.513  0.2278E-01  0.9688E+00
     16.610  0.2469E-01  0.9712E+00
     16.706  0.3036E-01  0.9742E+00
     16.803  0.3751E-01  0.9778E+00
     16.900  0.4215E-01  0.9819E+00
     16.997  0.4269E-01  0.9860E+00
     17.094  0.4064E-01  0.9899E+00
     17.191  0.3681E-01  0.9935E+00
     17.287  0.3291E-01  0.9967E+00
     17.384  0.3054E-01  0.9997E+00
     17.481  0.3092E-01  0.1003E+01
     17.578  0.3480E-01  0.1006E+01
     17.675  0.3793E-01  0.1010E+01
     17.772  0.3532E-01  0.1013E+01
     17.868  0.2784E-01  0.1016E+01
     17.965  0.2047E-01  0.1018E+01
     18.062  0.2074E-01  0.1020E+01
     18.159  0.3418E-01  0.1023E+01
     18.256  0.5394E-01  0.1028E+01
     18.353  0.6413E-01  0.1035E+01
     18.449  0.5807E-01  0.1040E+01
     18.546  0.4238E-01  0.1044E+01
     18.643  0.2593E-01  0.1047E+01
     18.740  0.1538E-01  0.1048E+01
     18.837  0.1374E-01  0.1050E+01
     18.933  0.1757E-01  0.1051E+01
     19.030  0.2109E-01  0.1053E+01
     19.127  0.2177E-01  0.1055E+01
     19.224  0.1917E-01  0.1057E+01
     19.321  0.1443E-01  0.1059E+01
     19.418  0.1067E-01  0.1060E+01
     19.514  0.8750E-02  0.1061E+01
     19.611  0.6584E-02  0.1061E+01
     19.708  0.3610E-02  0.1062E+01
     19.805  0.1311E-02  0.1062E+01
     19.902  0.3135E-03  0.1062E+01
     19.999  0.1154E-03  0.1062E+01
     20.095  0.4328E-03  0.1062E+01
     20.192  0.1688E-02  0.1062E+01
     20.289  0.4335E-02  0.1062E+01
     20.386  0.7547E-02  0.1063E+01
     20.483  0.9642E-02  0.1064E+01
     20.580  0.9954E-02  0.1065E+01
     20.676  0.8479E-02  0.1066E+01
     20.773  0.5493E-02  0.1066E+01
     20.870  0.2469E-02  0.1067E+01
     20.967  0.7308E-03  0.1067E+01
     21.064  0.1393E-03  0.1067E+01
     21.160  0.1695E-04  0.1067E+01
     21.257  0.1310E-05  0.1067E+01
     21.354  0.6421E-07  0.1067E+01
     21.451  0.1992E-08  0.1067E+01
     21.548  0.3906E-10  0.1067E+01
     21.645  0.4837E-12  0.1067E+01
     21.741  0.3777E-14  0.1067E+01
     21.838  0.1699E-16  0.1067E+01
     21.935  0.0000E+00  0.1067E+01
     22.032  0.0000E+00  0.1067E+01
     22.129  0.0000E+00  0.1067E+01
     22.226  0.0000E+00  0.1067E+01
     22.322  0.0000E+00  0.1067E+01
     22.419  0.0000E+00  0.1067E+01
     22.516  0.0000E+00  0.1067E+01
     22.613  0.0000E+00  0.1067E+01
