    2    2   15    1
  0.1529437E+02  0.3691622E-09  0.3691622E-09  0.3691622E-09  0.5000000E-15
  1.000000000000000E-004
  CAR 
 unknown system                          
      8     56      8
 
  0.6250000E-01  0.6250000E-01  0.6250000E-01  0.1562500E-01
    1       -4.094403   1.000000
    2        4.946081   1.000000
    3        7.162061   1.000000
    4        8.966179   0.784712
    5       12.308780   0.000000
    6       14.061871   0.000000
    7       14.554707   0.000000
    8       16.794757   0.000000
 
  0.1875000E+00  0.6250000E-01  0.6250000E-01  0.3125000E-01
    1       -2.877752   1.000000
    2        4.633711   1.000000
    3        7.410567   1.000000
    4        9.472401   0.002625
    5       11.192814   0.000000
    6       11.465603   0.000000
    7       14.094253   0.000000
    8       15.070671   0.000000
 
  0.3125000E+00  0.6250000E-01  0.6250000E-01  0.3125000E-01
    1       -0.880219   1.000000
    2        4.787946   1.000000
    3        5.780881   1.000000
    4        7.597149   1.000000
    5        9.018935   0.660989
    6       12.055935   0.000000
    7       13.865209   0.000000
    8       14.275748   0.000000
 
  0.4375000E+00  0.6250000E-01  0.6250000E-01  0.1562500E-01
    1        1.443367   1.000000
    2        2.388286   1.000000
    3        6.067386   1.000000
    4        6.555905   1.000000
    5        8.900687   0.894589
    6       10.924595   0.000000
    7       13.718872   0.000000
    8       14.617560   0.000000
 
 -0.6250000E-01  0.6250000E-01  0.6250000E-01  0.7812500E-02
    1       -4.502516   1.000000
    2        5.642699   1.000000
    3        6.325024   1.000000
    4        8.654845   0.998604
    5       11.405715   0.000000
    6       15.462456   0.000000
    7       17.971189   0.000000
    8       18.180099   0.000000
 
  0.1875000E+00  0.1875000E+00  0.6250000E-01  0.1562500E-01
    1       -1.071099   1.000000
    2        4.815230   1.000000
    3        6.646123   1.000000
    4        6.878606   1.000000
    5       10.054453   0.000000
    6       12.279181   0.000000
    7       13.249852   0.000000
    8       13.521101   0.000000
 
  0.3125000E+00  0.1875000E+00  0.6250000E-01  0.3125000E-01
    1        1.384965   1.000000
    2        3.151986   1.000000
    3        4.558580   1.000000
    4        6.115485   1.000000
    5       10.278475   0.000000
    6       12.034889   0.000000
    7       13.142754   0.000000
    8       15.312393   0.000000
 
  0.4375000E+00  0.1875000E+00  0.6250000E-01  0.3125000E-01
    1        0.072602   1.000000
    2        3.021730   1.000000
    3        5.052868   1.000000
    4        7.543583   1.000000
    5        9.547055   0.000451
    6       12.306723   0.000000
    7       14.191188   0.000000
    8       15.253295   0.000000
 
 -0.4375000E+00  0.1875000E+00  0.6250000E-01  0.3125000E-01
    1       -2.097721   1.000000
    2        2.471255   1.000000
    3        7.919700   1.000000
    4        9.041740   0.600218
    5       10.655299   0.000000
    6       12.167946   0.000000
    7       13.308465   0.000000
    8       15.723232   0.000000
 
 -0.3125000E+00  0.1875000E+00  0.6250000E-01  0.1562500E-01
    1       -3.504380   1.000000
    2        2.619568   1.000000
    3        7.680995   1.000000
    4        9.855212   0.000000
    5       12.541560   0.000000
    6       13.912507   0.000000
    7       14.744675   0.000000
    8       15.595161   0.000000
 
 -0.1875000E+00  0.1875000E+00  0.6250000E-01  0.1562500E-01
    1       -4.108015   1.000000
    2        3.498357   1.000000
    3        6.477453   1.000000
    4        9.866321   0.000000
    5       13.434848   0.000000
    6       13.512419   0.000000
    7       16.615131   0.000000
    8       17.364672   0.000000
 
 -0.6250000E-01  0.1875000E+00  0.6250000E-01  0.1562500E-01
    1       -3.897654   1.000000
    2        4.719189   1.000000
    3        5.744922   1.000000
    4       10.456039   0.000000
    5       13.055772   0.000000
    6       13.158090   0.000000
    7       14.126132   0.000000
    8       16.187841   0.000000
 
  0.3125000E+00  0.3125000E+00  0.6250000E-01  0.1562500E-01
    1        1.350011   1.000000
    2        1.424002   1.000000
    3        4.845436   1.000000
    4        7.466358   1.000000
    5       10.339831   0.000000
    6       11.177984   0.000000
    7       15.403235   0.000000
    8       16.177860   0.000000
 
  0.4375000E+00  0.3125000E+00  0.6250000E-01  0.3125000E-01
    1       -0.936210   1.000000
    2        0.594602   1.000000
    3        8.267355   1.000000
    4        8.991124   0.729672
    5       10.465711   0.000000
    6       11.875692   0.000000
    7       13.225794   0.000000
    8       14.656532   0.000000
 
 -0.4375000E+00  0.3125000E+00  0.6250000E-01  0.1562500E-01
    1       -2.525806   1.000000
    2        0.557462   1.000000
    3        8.533913   0.999940
    4       10.782223   0.000000
    5       11.169965   0.000000
    6       13.271233   0.000000
    7       14.131902   0.000000
    8       14.183982   0.000000
 
 -0.3125000E+00  0.3125000E+00  0.6250000E-01  0.1562500E-01
    1       -3.321771   1.000000
    2        1.295093   1.000000
    3        7.190043   1.000000
    4       10.790929   0.000000
    5       11.432314   0.000000
    6       14.937861   0.000000
    7       16.401764   0.000000
    8       17.106082   0.000000
 
 -0.1875000E+00  0.3125000E+00  0.6250000E-01  0.3125000E-01
    1       -3.308749   1.000000
    2        2.766140   1.000000
    3        5.923985   1.000000
    4       11.168342   0.000000
    5       11.747255   0.000000
    6       13.296645   0.000000
    7       15.185859   0.000000
    8       16.130238   0.000000
 
 -0.6250000E-01  0.3125000E+00  0.6250000E-01  0.1562500E-01
    1       -2.487925   1.000000
    2        4.523017   1.000000
    3        5.687804   1.000000
    4        8.611410   0.999511
    5       11.558796   0.000000
    6       13.419870   0.000000
    7       13.897361   0.000000
    8       13.966098   0.000000
 
  0.4375000E+00  0.4375000E+00  0.6250000E-01  0.7812500E-02
    1       -1.166786   1.000000
    2       -1.166786   1.000000
    3        9.689402   0.000008
    4        9.689412   0.000008
    5       12.095172   0.000000
    6       12.095204   0.000000
    7       13.786643   0.000000
    8       13.786665   0.000000
 
 -0.4375000E+00  0.4375000E+00  0.6250000E-01  0.1562500E-01
    1       -2.150380   1.000000
    2       -0.604084   1.000000
    3        8.267666   1.000000
    4        9.690523   0.000007
    5       11.920039   0.000000
    6       13.319681   0.000000
    7       16.723918   0.000000
    8       16.850731   0.000000
 
 -0.3125000E+00  0.4375000E+00  0.6250000E-01  0.3125000E-01
    1       -2.332570   1.000000
    2        0.736731   1.000000
    3        6.799761   1.000000
    4        9.603590   0.000100
    5       11.730960   0.000000
    6       13.488419   0.000000
    7       15.106868   0.000000
    8       16.148062   0.000000
 
 -0.1875000E+00  0.4375000E+00  0.6250000E-01  0.3125000E-01
    1       -1.711763   1.000000
    2        2.788289   1.000000
    3        5.954368   1.000000
    4        7.940852   1.000000
    5       10.203984   0.000000
    6       12.875403   0.000000
    7       14.751603   0.000000
    8       15.807223   0.000000
 
 -0.6250000E-01  0.4375000E+00  0.6250000E-01  0.1562500E-01
    1       -0.311027   1.000000
    2        4.251074   1.000000
    3        5.600170   1.000000
    4        6.242115   1.000000
    5        9.572998   0.000230
    6       11.804477   0.000000
    7       12.486961   0.000000
    8       15.902269   0.000000
 
 -0.4375000E+00 -0.4375000E+00  0.6250000E-01  0.1562500E-01
    1       -0.981391   1.000000
    2       -0.974440   1.000000
    3        8.033582   1.000000
    4        8.057533   1.000000
    5       11.682926   0.000000
    6       14.144448   0.000000
    7       14.974371   0.000000
    8       15.110079   0.000000
 
 -0.3125000E+00 -0.4375000E+00  0.6250000E-01  0.3125000E-01
    1       -0.557669   1.000000
    2        0.958249   1.000000
    3        6.829008   1.000000
    4        7.631759   1.000000
    5        8.696880   0.996453
    6       12.462822   0.000000
    7       15.913414   0.000000
    8       17.200967   0.000000
 
 -0.1875000E+00 -0.4375000E+00  0.6250000E-01  0.3125000E-01
    1        0.624281   1.000000
    2        3.311673   1.000000
    3        4.380164   1.000000
    4        6.772880   1.000000
    5        9.080129   0.493003
    6       11.053332   0.000000
    7       13.498927   0.000000
    8       17.277212   0.000000
 
 -0.6250000E-01 -0.4375000E+00  0.6250000E-01  0.1562500E-01
    1        1.018870   1.000000
    2        2.815117   1.000000
    3        6.665476   1.000000
    4        7.167363   1.000000
    5        8.063049   1.000000
    6       10.494393   0.000000
    7       12.167947   0.000000
    8       16.085702   0.000000
 
 -0.3125000E+00 -0.3125000E+00  0.6250000E-01  0.1562500E-01
    1        1.796407   1.000000
    2        1.997477   1.000000
    3        4.015246   1.000000
    4        7.672098   1.000000
    5        8.135451   1.000000
    6       10.627433   0.000000
    7       15.428728   0.000000
    8       16.278154   0.000000
 
 -0.1875000E+00 -0.3125000E+00  0.6250000E-01  0.3125000E-01
    1        0.691419   1.000000
    2        3.861925   1.000000
    3        5.276561   1.000000
    4        7.509943   1.000000
    5        8.656592   0.998546
    6       10.519260   0.000000
    7       12.139485   0.000000
    8       14.754918   0.000000
 
 -0.6250000E-01 -0.3125000E+00  0.6250000E-01  0.1562500E-01
    1       -1.456580   1.000000
    2        6.075578   1.000000
    3        7.309060   1.000000
    4        7.491862   1.000000
    5        8.840049   0.953529
    6       11.170521   0.000000
    7       12.262881   0.000000
    8       13.925665   0.000000
 
 -0.1875000E+00 -0.1875000E+00  0.6250000E-01  0.1562500E-01
    1       -1.649533   1.000000
    2        6.811502   1.000000
    3        7.374318   1.000000
    4        7.789739   1.000000
    5        9.197824   0.197726
    6       11.073413   0.000000
    7       12.016440   0.000000
    8       12.223462   0.000000
 
 -0.6250000E-01 -0.1875000E+00  0.6250000E-01  0.1562500E-01
    1       -3.269116   1.000000
    2        6.700564   1.000000
    3        7.286077   1.000000
    4        9.387772   0.014157
    5       11.242614   0.000000
    6       11.666731   0.000000
    7       12.451653   0.000000
    8       14.097201   0.000000
 
 -0.6250000E-01 -0.6250000E-01  0.6250000E-01  0.3906250E-02
    1       -4.291640   1.000000
    2        6.987964   1.000000
    3        6.987988   1.000000
    4        7.693030   1.000000
    5       11.113687   0.000000
    6       14.792582   0.000000
    7       14.949158   0.000000
    8       16.912027   0.000000
 
  0.1875000E+00  0.1875000E+00  0.1875000E+00  0.1562500E-01
    1       -0.113730   1.000000
    2        2.874880   1.000000
    3        6.188955   1.000000
    4        6.290800   1.000000
    5       11.095745   0.000000
    6       13.112804   0.000000
    7       14.300482   0.000000
    8       14.705033   0.000000
 
  0.3125000E+00  0.1875000E+00  0.1875000E+00  0.1562500E-01
    1        2.177265   1.000000
    2        2.950878   1.000000
    3        4.024395   1.000000
    4        4.715059   1.000000
    5       12.004531   0.000000
    6       13.932014   0.000000
    7       14.342005   0.000000
    8       14.568835   0.000000
 
 -0.1875000E+00  0.1875000E+00  0.1875000E+00  0.7812500E-02
    1       -3.714944   1.000000
    2        3.389938   1.000000
    3        4.598339   1.000000
    4       11.305953   0.000000
    5       12.066091   0.000000
    6       14.593979   0.000000
    7       16.421098   0.000000
    8       16.916681   0.000000
 
  0.3125000E+00  0.3125000E+00  0.1875000E+00  0.7812500E-02
    1        1.210100   1.000000
    2        1.210100   1.000000
    3        6.064377   1.000000
    4        6.064389   1.000000
    5       12.402062   0.000000
    6       12.402079   0.000000
    7       14.351934   0.000000
    8       14.351986   0.000000
 
 -0.3125000E+00  0.3125000E+00  0.1875000E+00  0.1562500E-01
    1       -2.932433   1.000000
    2        1.619197   1.000000
    3        4.892833   1.000000
    4        9.217322   0.161663
    5       13.333548   0.000000
    6       15.666035   0.000000
    7       16.346295   0.000000
    8       17.475832   0.000000
 
 -0.1875000E+00  0.3125000E+00  0.1875000E+00  0.1562500E-01
    1       -2.723929   1.000000
    2        2.817965   1.000000
    3        4.111096   1.000000
    4        9.342568   0.030516
    5       11.553593   0.000000
    6       14.882729   0.000000
    7       16.580824   0.000000
    8       16.710438   0.000000
 
 -0.4375000E+00  0.4375000E+00  0.1875000E+00  0.1562500E-01
    1       -1.767682   1.000000
    2       -0.235718   1.000000
    3        5.959020   1.000000
    4        7.416421   1.000000
    5       14.240177   0.000000
    6       14.993020   0.000000
    7       16.479041   0.000000
    8       17.151767   0.000000
 
 -0.3125000E+00  0.4375000E+00  0.1875000E+00  0.3125000E-01
    1       -1.755817   1.000000
    2        1.245945   1.000000
    3        4.556581   1.000000
    4        7.420428   1.000000
    5       11.095026   0.000000
    6       16.179941   0.000000
    7       16.781746   0.000000
    8       18.660591   0.000000
 
 -0.1875000E+00  0.4375000E+00  0.1875000E+00  0.1562500E-01
    1       -0.944708   1.000000
    2        3.003968   1.000000
    3        4.344695   1.000000
    4        7.136334   1.000000
    5        8.362168   1.000000
    6       14.211276   0.000000
    7       15.421554   0.000000
    8       17.469461   0.000000
 
 -0.4375000E+00 -0.4375000E+00  0.1875000E+00  0.1562500E-01
    1       -0.425441   1.000000
    2       -0.410540   1.000000
    3        5.782637   1.000000
    4        5.812017   1.000000
    5       10.928723   0.000000
    6       16.441310   0.000000
    7       17.441088   0.000000
    8       17.951675   0.000000
 
 -0.3125000E+00 -0.4375000E+00  0.1875000E+00  0.3125000E-01
    1        0.189391   1.000000
    2        1.649099   1.000000
    3        4.923139   1.000000
    4        6.204280   1.000000
    5        7.184721   1.000000
    6       14.328751   0.000000
    7       17.147924   0.000000
    8       18.583991   0.000000
 
 -0.1875000E+00 -0.4375000E+00  0.1875000E+00  0.1562500E-01
    1        1.503220   1.000000
    2        3.181904   1.000000
    3        4.509391   1.000000
    4        5.289677   1.000000
    5        7.672966   1.000000
    6       12.254442   0.000000
    7       13.363409   0.000000
    8       17.393766   0.000000
 
 -0.3125000E+00 -0.3125000E+00  0.1875000E+00  0.1562500E-01
    1        2.319530   1.000000
    2        2.899948   1.000000
    3        3.806464   1.000000
    4        6.086095   1.000000
    5        6.221211   1.000000
    6       12.452427   0.000000
    7       14.862892   0.000000
    8       15.864759   0.000000
 
 -0.1875000E+00 -0.3125000E+00  0.1875000E+00  0.1562500E-01
    1        0.329309   1.000000
    2        4.919430   1.000000
    3        5.975726   1.000000
    4        6.818847   1.000000
    5        7.751589   1.000000
    6       11.090166   0.000000
    7       11.933708   0.000000
    8       13.684007   0.000000
 
 -0.1875000E+00 -0.1875000E+00  0.1875000E+00  0.3906250E-02
    1       -1.843088   1.000000
    2        8.085120   1.000000
    3        8.085144   1.000000
    4        8.295274   1.000000
    5        8.506928   0.999973
    6       10.251629   0.000000
    7       11.701212   0.000000
    8       11.701250   0.000000
 
 -0.3125000E+00  0.3125000E+00  0.3125000E+00  0.7812500E-02
    1       -2.158359   1.000000
    2        1.844610   1.000000
    3        3.208983   1.000000
    4        7.082875   1.000000
    5       14.573612   0.000000
    6       15.148842   0.000000
    7       17.385602   0.000000
    8       18.825799   0.000000
 
 -0.4375000E+00  0.4375000E+00  0.3125000E+00  0.1562500E-01
    1       -1.011660   1.000000
    2        0.465387   1.000000
    3        3.824032   1.000000
    4        5.258523   1.000000
    5       14.646283   0.000000
    6       14.774924   0.000000
    7       18.616147   0.000000
    8       19.736676   0.000000
 
 -0.3125000E+00  0.4375000E+00  0.3125000E+00  0.1562500E-01
    1       -0.806437   1.000000
    2        1.654625   1.000000
    3        3.048326   1.000000
    4        5.445446   1.000000
    5       10.593687   0.000000
    6       17.825767   0.000000
    7       18.818842   0.000000
    8       19.371049   0.000000
 
 -0.4375000E+00 -0.4375000E+00  0.3125000E+00  0.1562500E-01
    1        0.461589   1.000000
    2        0.487562   1.000000
    3        3.827378   1.000000
    4        3.846499   1.000000
    5       10.419830   0.000000
    6       17.990861   0.000000
    7       19.855553   0.000000
    8       20.100892   0.000000
 
 -0.3125000E+00 -0.4375000E+00  0.3125000E+00  0.1562500E-01
    1        1.262014   1.000000
    2        2.234758   1.000000
    3        3.639052   1.000000
    4        4.572676   1.000000
    5        6.668537   1.000000
    6       16.156512   0.000000
    7       17.207355   0.000000
    8       18.633336   0.000000
 
 -0.3125000E+00 -0.3125000E+00  0.3125000E+00  0.3906250E-02
    1        2.478216   1.000000
    2        3.724182   1.000000
    3        4.377573   1.000000
    4        4.953748   1.000000
    5        4.953756   1.000000
    6       14.470116   0.000000
    7       14.671605   0.000000
    8       14.671679   0.000000
 
 -0.4375000E+00  0.4375000E+00  0.4375000E+00  0.7812500E-02
    1        0.076970   1.000000
    2        1.062244   1.000000
    3        2.487782   1.000000
    4        3.459334   1.000000
    5       14.456572   0.000000
    6       14.484703   0.000000
    7       21.052814   0.000000
    8       21.755261   0.000000
 
 -0.4375000E+00 -0.4375000E+00  0.4375000E+00  0.3906250E-02
    1        1.241257   1.000000
    2        1.286004   1.000000
    3        2.686956   1.000000
    4        2.686957   1.000000
    5       10.248273   0.000000
    6       18.363750   0.000000
    7       20.833433   0.000000
    8       20.833503   0.000000
