 running on    8 total cores
 distrk:  each k-point on    8 cores,    1 groups
 distr:  one band on    1 cores,    8 groups
 using from now: INCAR     
 vasp.5.4.4.18Apr17-6-g9f103f2a35 (build Dec 09 2018 21:25:21) complex          
  
 POSCAR found type information on POSCAR  Si
 POSCAR found :  1 types and       2 ions
 scaLAPACK will be used

 ----------------------------------------------------------------------------- 
|                                                                             |
|           W    W    AA    RRRRR   N    N  II  N    N   GGGG   !!!           |
|           W    W   A  A   R    R  NN   N  II  NN   N  G    G  !!!           |
|           W    W  A    A  R    R  N N  N  II  N N  N  G       !!!           |
|           W WW W  AAAAAA  RRRRR   N  N N  II  N  N N  G  GGG   !            |
|           WW  WW  A    A  R   R   N   NN  II  N   NN  G    G                |
|           W    W  A    A  R    R  N    N  II  N    N   GGGG   !!!           |
|                                                                             |
|      For optimal performance we recommend to set                            |
|        NCORE= 4 - approx SQRT( number of cores)                             |
|      NCORE specifies how many cores store one orbital (NPAR=cpu/NCORE).     |
|      This setting can  greatly improve the performance of VASP for DFT.     |
|      The default,   NCORE=1            might be grossly inefficient         |
|      on modern multi-core architectures or massively parallel machines.     |
|      Do your own testing !!!!                                               |
|      Unfortunately you need to use the default for GW and RPA calculations. |
|      (for HF NCORE is supported but not extensively tested yet)             |
|                                                                             |
 ----------------------------------------------------------------------------- 

 LDA part: xc-table for Pade appr. of Perdew
 POSCAR, INCAR and KPOINTS ok, starting setup
 FFT: planning ...
 WAVECAR not read
 entering main loop
       N       E                     dE             d eps       ncg     rms          rms(c)
DAV:   1    -0.201672235874E+01   -0.20167E+01   -0.23067E+03   904   0.450E+02
DAV:   2    -0.101088720001E+02   -0.80921E+01   -0.78054E+01  1360   0.539E+01
DAV:   3    -0.101968943835E+02   -0.88022E-01   -0.86789E-01  1160   0.650E+00
DAV:   4    -0.101972094804E+02   -0.31510E-03   -0.31505E-03  1392   0.294E-01
DAV:   5    -0.101972095865E+02   -0.10605E-06   -0.10690E-06  1136   0.430E-03    0.148E+00
DAV:   6    -0.101918733935E+02    0.53362E-02   -0.18725E-03  1104   0.325E-01    0.929E-01
DAV:   7    -0.101875797985E+02    0.42936E-02   -0.54455E-03   960   0.564E-01    0.337E-02
DAV:   8    -0.101875640815E+02    0.15717E-04   -0.79656E-05   584   0.717E-02
   1 F= -.10187564E+02 E0= -.10176616E+02  d E =-.101876E+02
 curvature:   0.00 expect dE= 0.000E+00 dE for cont linesearch  0.000E+00
 trial: gam= 0.00000 g(F)=  0.140E-45 g(S)=  0.567E-01 ort = 0.000E+00 (trialstep = 0.100E+01)
 search vector abs. value=  0.567E-01
 bond charge predicted
       N       E                     dE             d eps       ncg     rms          rms(c)
DAV:   1    -0.102562831264E+02   -0.68703E-01   -0.14624E+00  1272   0.692E+00    0.727E-01
DAV:   2    -0.102415271182E+02    0.14756E-01   -0.31133E-02  1136   0.136E+00    0.407E-01
DAV:   3    -0.102343719294E+02    0.71552E-02   -0.19527E-02  1216   0.767E-01    0.364E-02
DAV:   4    -0.102344297141E+02   -0.57785E-04   -0.73411E-04   864   0.220E-01
   2 F= -.10234430E+02 E0= -.10223652E+02  d E =-.468656E-01
 trial-energy change:   -0.046866  1 .order   -0.045811   -0.056686   -0.034936
 step:   2.6063(harm=  2.6063)  dis= 0.00000  next Energy=   -10.261434 (dE=-0.739E-01)
 bond charge predicted
       N       E                     dE             d eps       ncg     rms          rms(c)
DAV:   1    -0.102883570409E+02   -0.53985E-01   -0.34954E+00  1256   0.107E+01    0.109E+00
DAV:   2    -0.102548018833E+02    0.33555E-01   -0.73689E-02  1104   0.210E+00    0.621E-01
DAV:   3    -0.102380138719E+02    0.16788E-01   -0.45751E-02  1264   0.116E+00    0.592E-02
DAV:   4    -0.102381260960E+02   -0.11222E-03   -0.15513E-03  1008   0.319E-01
   3 F= -.10238126E+02 E0= -.10231243E+02  d E =-.505620E-01
 curvature:  -1.30 expect dE=-0.309E-01 dE for cont linesearch -0.270E-01
 ZBRENT: interpolating
 opt :   1.8112  next Energy=   -10.251741 (dE=-0.642E-01)
 bond charge predicted
       N       E                     dE             d eps       ncg     rms          rms(c)
DAV:   1    -0.102626494143E+02   -0.24636E-01   -0.82129E-01  1232   0.512E+00    0.559E-01
DAV:   2    -0.102541607450E+02    0.84887E-02   -0.17251E-02  1064   0.101E+00    0.316E-01
DAV:   3    -0.102498721520E+02    0.42886E-02   -0.11668E-02  1256   0.590E-01    0.291E-02
DAV:   4    -0.102498989645E+02   -0.26812E-04   -0.40036E-04   504   0.164E-01
   4 F= -.10249899E+02 E0= -.10240475E+02  d E =-.623349E-01
 curvature:  -0.66 expect dE=-0.394E-03 dE for cont linesearch -0.569E-04
 ZBRENT: interpolating
 opt :   1.8594  next Energy=   -10.249952 (dE=-0.624E-01)
 bond charge predicted
       N       E                     dE             d eps       ncg     rms          rms(c)
DAV:   1    -0.102499499236E+02   -0.77772E-04   -0.27858E-03  1208   0.300E-01    0.355E-02
DAV:   2    -0.102499247412E+02    0.25182E-04   -0.60364E-05   456   0.613E-02
   5 F= -.10249925E+02 E0= -.10240593E+02  d E =-.623607E-01
 curvature:  -0.62 expect dE=-0.330E-03 dE for cont linesearch -0.277E-05
 ZBRENT: interpolating
 opt :   1.8735  next Energy=   -10.249928 (dE=-0.624E-01)
 bond charge predicted
       N       E                     dE             d eps       ncg     rms          rms(c)
DAV:   1    -0.102499001925E+02    0.49731E-04   -0.13843E-04   552   0.723E-02    0.910E-03
DAV:   2    -0.102498985594E+02    0.16332E-05   -0.57261E-06   448   0.185E-02
   6 F= -.10249899E+02 E0= -.10240601E+02  d E =-.623345E-01
 curvature:  -0.80 expect dE=-0.457E-03 dE for cont linesearch -0.123E-04
 ZBRENT: interpolating
 opt :   1.8644  next Energy=   -10.249926 (dE=-0.624E-01)
 bond charge predicted
       N       E                     dE             d eps       ncg     rms          rms(c)
DAV:   1    -0.102499100215E+02   -0.98289E-05   -0.13380E-04   448   0.659E-02    0.607E-03
DAV:   2    -0.102499092197E+02    0.80179E-06   -0.48518E-06   448   0.180E-02
   7 F= -.10249909E+02 E0= -.10240595E+02  d E =-.623451E-01
 curvature:  -0.08 expect dE=-0.445E-04 dE for cont linesearch -0.146E-05
 ZBRENT: interpolating
 opt :   1.8611  next Energy=   -10.249925 (dE=-0.624E-01)
 bond charge predicted
       N       E                     dE             d eps       ncg     rms          rms(c)
DAV:   1    -0.102499117757E+02   -0.17542E-05   -0.87456E-06   448   0.171E-02    0.208E-03
DAV:   2    -0.102499116643E+02    0.11137E-06   -0.37783E-07   448   0.486E-03
   8 F= -.10249912E+02 E0= -.10240590E+02  d E =-.623476E-01
 curvature:  -0.02 expect dE=-0.123E-04 dE for cont linesearch -0.215E-06
 ZBRENT: interpolating
 opt :   1.8601  next Energy=   -10.249925 (dE=-0.624E-01)
 bond charge predicted
       N       E                     dE             d eps       ncg     rms          rms(c)
DAV:   1    -0.102499124183E+02   -0.64263E-06   -0.79506E-07   448   0.534E-03    0.681E-04
DAV:   2    -0.102499124060E+02    0.12345E-07   -0.43723E-08   448   0.160E-03
   9 F= -.10249912E+02 E0= -.10240588E+02  d E =-.623483E-01
 curvature:  -0.02 expect dE=-0.962E-05 dE for cont linesearch -0.132E-06
 ZBRENT: interpolating
 opt :   1.8597  next Energy=   -10.249925 (dE=-0.624E-01)
 bond charge predicted
       N       E                     dE             d eps       ncg     rms          rms(c)
DAV:   1    -0.102499127028E+02   -0.28449E-06   -0.13559E-07   448   0.222E-03    0.292E-04
DAV:   2    -0.102499127001E+02    0.27426E-08   -0.67957E-09   448   0.638E-04
  10 F= -.10249913E+02 E0= -.10240588E+02  d E =-.623486E-01
 curvature:  -0.01 expect dE=-0.537E-05 dE for cont linesearch -0.680E-07
 ZBRENT: interpolating
 opt :   1.8596  next Energy=   -10.249925 (dE=-0.624E-01)
 bond charge predicted
       N       E                     dE             d eps       ncg     rms          rms(c)
DAV:   1    -0.102499128267E+02   -0.12387E-06   -0.25303E-08   448   0.956E-04    0.156E-04
DAV:   2    -0.102499128251E+02    0.15598E-08   -0.11807E-09   448   0.268E-04
  11 F= -.10249913E+02 E0= -.10240587E+02  d E =-.623487E-01
 curvature:  -0.00 expect dE=-0.261E-05 dE for cont linesearch -0.320E-07
 ZBRENT: interpolating
 opt :   1.8595  next Energy=   -10.249925 (dE=-0.624E-01)
 bond charge predicted
       N       E                     dE             d eps       ncg     rms          rms(c)
DAV:   1    -0.102499128819E+02   -0.55215E-07   -0.50198E-09   448   0.424E-04    0.117E-04
DAV:   2    -0.102499128817E+02    0.23135E-09   -0.22273E-10   448   0.116E-04
  12 F= -.10249913E+02 E0= -.10240587E+02  d E =-.623488E-01
 curvature:  -0.00 expect dE=-0.123E-05 dE for cont linesearch -0.148E-07
 ZBRENT: interpolating
 opt :   1.8595  next Energy=   -10.249925 (dE=-0.624E-01)
 bond charge predicted
       N       E                     dE             d eps       ncg     rms          rms(c)
DAV:   1    -0.102499129069E+02   -0.25033E-07   -0.10196E-09   448   0.191E-04    0.108E-04
DAV:   2    -0.102499129070E+02   -0.10087E-09   -0.43801E-11   448   0.515E-05
  13 F= -.10249913E+02 E0= -.10240587E+02  d E =-.623488E-01
 curvature:  -0.00 expect dE=-0.566E-06 dE for cont linesearch -0.677E-08
 ZBRENT: interpolating
 opt :   1.8594  next Energy=   -10.249925 (dE=-0.624E-01)
 bond charge predicted
       N       E                     dE             d eps       ncg     rms          rms(c)
DAV:   1    -0.102499129181E+02   -0.11146E-07   -0.20980E-10   448   0.865E-05    0.106E-04
DAV:   2    -0.102499129186E+02   -0.57773E-09   -0.87653E-12   448   0.230E-05
  14 F= -.10249913E+02 E0= -.10240587E+02  d E =-.623488E-01
 curvature:  -0.00 expect dE=-0.260E-06 dE for cont linesearch -0.310E-08
 ZBRENT: interpolating
 opt :   1.8594  next Energy=   -10.249925 (dE=-0.624E-01)
 bond charge predicted
       N       E                     dE             d eps       ncg     rms          rms(c)
DAV:   1    -0.102499129242E+02   -0.61673E-08   -0.43280E-11   448   0.393E-05    0.105E-04
DAV:   2    -0.102499129236E+02    0.66251E-09   -0.17241E-12   448   0.104E-05
  15 F= -.10249913E+02 E0= -.10240587E+02  d E =-.623488E-01
 curvature:  -0.00 expect dE=-0.119E-06 dE for cont linesearch -0.141E-08
 ZBRENT: interpolating
 opt :   1.8594  next Energy=   -10.249925 (dE=-0.624E-01)
 writing wavefunctions
