   2   2   0   0
  0.1529437E+02  0.3691622E-09  0.3691622E-09  0.3691622E-09  0.5000000E-15
  1.000000000000000E-004
  CAR 
 unknown system                          
     23.58547008     -6.63526414  301      9.05479840      1.00000000
     -6.635  0.0000E+00  0.0000E+00
     -6.535  0.0000E+00  0.0000E+00
     -6.434  0.0000E+00  0.0000E+00
     -6.333  0.0000E+00  0.0000E+00
     -6.232  0.0000E+00  0.0000E+00
     -6.132  0.0000E+00  0.0000E+00
     -6.031  0.0000E+00  0.0000E+00
     -5.930  0.0000E+00  0.0000E+00
     -5.829  0.0000E+00  0.0000E+00
     -5.729  0.9676E-17  0.9747E-18
     -5.628  0.2020E-14  0.2045E-15
     -5.527  0.2572E-12  0.2611E-13
     -5.426  0.1992E-10  0.2033E-11
     -5.326  0.9412E-09  0.9684E-10
     -5.225  0.2724E-07  0.2841E-08
     -5.124  0.4867E-06  0.5187E-07
     -5.023  0.5439E-05  0.5997E-06
     -4.923  0.3896E-04  0.4524E-05
     -4.822  0.1864E-03  0.2330E-04
     -4.721  0.6339E-03  0.8716E-04
     -4.621  0.1646E-02  0.2530E-03
     -4.520  0.3442E-02  0.5997E-03
     -4.419  0.5813E-02  0.1185E-02
     -4.318  0.7719E-02  0.1963E-02
     -4.218  0.8491E-02  0.2818E-02
     -4.117  0.9699E-02  0.3795E-02
     -4.016  0.1240E-01  0.5044E-02
     -3.915  0.1404E-01  0.6459E-02
     -3.815  0.1293E-01  0.7761E-02
     -3.714  0.1117E-01  0.8886E-02
     -3.613  0.1132E-01  0.1003E-01
     -3.512  0.1434E-01  0.1147E-01
     -3.412  0.1869E-01  0.1335E-01
     -3.311  0.2087E-01  0.1546E-01
     -3.210  0.2077E-01  0.1755E-01
     -3.110  0.2145E-01  0.1971E-01
     -3.009  0.2198E-01  0.2192E-01
     -2.908  0.1946E-01  0.2388E-01
     -2.807  0.1492E-01  0.2539E-01
     -2.707  0.1213E-01  0.2661E-01
     -2.606  0.1402E-01  0.2802E-01
     -2.505  0.1983E-01  0.3002E-01
     -2.404  0.2529E-01  0.3257E-01
     -2.304  0.2845E-01  0.3543E-01
     -2.203  0.3159E-01  0.3861E-01
     -2.102  0.3366E-01  0.4200E-01
     -2.001  0.2993E-01  0.4502E-01
     -1.901  0.2214E-01  0.4725E-01
     -1.800  0.1825E-01  0.4909E-01
     -1.699  0.2135E-01  0.5124E-01
     -1.598  0.2617E-01  0.5388E-01
     -1.498  0.2696E-01  0.5659E-01
     -1.397  0.2473E-01  0.5908E-01
     -1.296  0.2460E-01  0.6156E-01
     -1.196  0.2806E-01  0.6439E-01
     -1.095  0.3157E-01  0.6757E-01
     -0.994  0.3209E-01  0.7080E-01
     -0.893  0.3012E-01  0.7383E-01
     -0.793  0.2909E-01  0.7676E-01
     -0.692  0.3237E-01  0.8002E-01
     -0.591  0.3754E-01  0.8381E-01
     -0.490  0.3846E-01  0.8768E-01
     -0.390  0.3446E-01  0.9115E-01
     -0.289  0.2978E-01  0.9415E-01
     -0.188  0.2631E-01  0.9680E-01
     -0.087  0.2453E-01  0.9927E-01
      0.013  0.2639E-01  0.1019E+00
      0.114  0.3201E-01  0.1052E+00
      0.215  0.3880E-01  0.1091E+00
      0.316  0.4429E-01  0.1135E+00
      0.416  0.4660E-01  0.1182E+00
      0.517  0.4559E-01  0.1228E+00
      0.618  0.4331E-01  0.1272E+00
      0.718  0.4048E-01  0.1313E+00
      0.819  0.3706E-01  0.1350E+00
      0.920  0.3612E-01  0.1386E+00
      1.021  0.3808E-01  0.1425E+00
      1.121  0.3784E-01  0.1463E+00
      1.222  0.3472E-01  0.1498E+00
      1.323  0.3429E-01  0.1532E+00
      1.424  0.3765E-01  0.1570E+00
      1.524  0.4090E-01  0.1611E+00
      1.625  0.4196E-01  0.1654E+00
      1.726  0.4120E-01  0.1695E+00
      1.827  0.3995E-01  0.1735E+00
      1.927  0.3842E-01  0.1774E+00
      2.028  0.3686E-01  0.1811E+00
      2.129  0.3768E-01  0.1849E+00
      2.229  0.4100E-01  0.1890E+00
      2.330  0.4254E-01  0.1933E+00
      2.431  0.3917E-01  0.1973E+00
      2.532  0.3385E-01  0.2007E+00
      2.632  0.3411E-01  0.2041E+00
      2.733  0.4241E-01  0.2084E+00
      2.834  0.4910E-01  0.2133E+00
      2.935  0.4409E-01  0.2178E+00
      3.035  0.3250E-01  0.2211E+00
      3.136  0.2485E-01  0.2236E+00
      3.237  0.2245E-01  0.2258E+00
      3.338  0.2334E-01  0.2282E+00
      3.438  0.2838E-01  0.2310E+00
      3.539  0.3719E-01  0.2348E+00
      3.640  0.4746E-01  0.2396E+00
      3.741  0.5649E-01  0.2453E+00
      3.841  0.6078E-01  0.2514E+00
      3.942  0.6059E-01  0.2575E+00
      4.043  0.5873E-01  0.2634E+00
      4.143  0.5357E-01  0.2688E+00
      4.244  0.4548E-01  0.2734E+00
      4.345  0.3948E-01  0.2774E+00
      4.446  0.3528E-01  0.2809E+00
      4.546  0.3160E-01  0.2841E+00
      4.647  0.3372E-01  0.2875E+00
      4.748  0.4292E-01  0.2918E+00
      4.849  0.5174E-01  0.2970E+00
      4.949  0.5484E-01  0.3025E+00
      5.050  0.5534E-01  0.3081E+00
      5.151  0.5795E-01  0.3140E+00
      5.252  0.6011E-01  0.3200E+00
      5.352  0.5852E-01  0.3259E+00
      5.453  0.5736E-01  0.3317E+00
      5.554  0.5892E-01  0.3376E+00
      5.655  0.5714E-01  0.3434E+00
      5.755  0.4882E-01  0.3483E+00
      5.856  0.4310E-01  0.3526E+00
      5.957  0.4778E-01  0.3574E+00
      6.057  0.5446E-01  0.3629E+00
      6.158  0.5324E-01  0.3683E+00
      6.259  0.4938E-01  0.3733E+00
      6.360  0.5261E-01  0.3786E+00
      6.460  0.6300E-01  0.3849E+00
      6.561  0.7118E-01  0.3921E+00
      6.662  0.6885E-01  0.3990E+00
      6.763  0.6038E-01  0.4051E+00
      6.863  0.5765E-01  0.4109E+00
      6.964  0.6453E-01  0.4174E+00
      7.065  0.7448E-01  0.4249E+00
      7.166  0.7886E-01  0.4329E+00
      7.266  0.7456E-01  0.4404E+00
      7.367  0.6561E-01  0.4470E+00
      7.468  0.5785E-01  0.4528E+00
      7.568  0.5327E-01  0.4582E+00
      7.669  0.5073E-01  0.4633E+00
      7.770  0.5063E-01  0.4684E+00
      7.871  0.5438E-01  0.4739E+00
      7.971  0.6037E-01  0.4799E+00
      8.072  0.6386E-01  0.4864E+00
      8.173  0.6155E-01  0.4926E+00
      8.274  0.5648E-01  0.4983E+00
      8.374  0.5454E-01  0.5038E+00
      8.475  0.5538E-01  0.5093E+00
      8.576  0.5250E-01  0.5146E+00
      8.677  0.4482E-01  0.5191E+00
      8.777  0.3860E-01  0.5230E+00
      8.878  0.3603E-01  0.5267E+00
      8.979  0.3626E-01  0.5303E+00
      9.080  0.4041E-01  0.5344E+00
      9.180  0.4559E-01  0.5390E+00
      9.281  0.4675E-01  0.5437E+00
      9.382  0.4554E-01  0.5483E+00
      9.482  0.4712E-01  0.5530E+00
      9.583  0.5207E-01  0.5583E+00
      9.684  0.5725E-01  0.5640E+00
      9.785  0.5957E-01  0.5700E+00
      9.885  0.5584E-01  0.5757E+00
      9.986  0.4555E-01  0.5803E+00
     10.087  0.3570E-01  0.5838E+00
     10.188  0.3314E-01  0.5872E+00
     10.288  0.3650E-01  0.5909E+00
     10.389  0.4026E-01  0.5949E+00
     10.490  0.4042E-01  0.5990E+00
     10.591  0.3804E-01  0.6028E+00
     10.691  0.3855E-01  0.6067E+00
     10.792  0.4512E-01  0.6113E+00
     10.893  0.5461E-01  0.6168E+00
     10.993  0.6289E-01  0.6231E+00
     11.094  0.6872E-01  0.6300E+00
     11.195  0.7166E-01  0.6372E+00
     11.296  0.7048E-01  0.6443E+00
     11.396  0.6412E-01  0.6508E+00
     11.497  0.5561E-01  0.6564E+00
     11.598  0.5164E-01  0.6616E+00
     11.699  0.5740E-01  0.6674E+00
     11.799  0.7186E-01  0.6746E+00
     11.900  0.8576E-01  0.6833E+00
     12.001  0.8762E-01  0.6921E+00
     12.102  0.7635E-01  0.6998E+00
     12.202  0.6604E-01  0.7064E+00
     12.303  0.6903E-01  0.7134E+00
     12.404  0.7923E-01  0.7214E+00
     12.505  0.8111E-01  0.7295E+00
     12.605  0.7010E-01  0.7366E+00
     12.706  0.5757E-01  0.7424E+00
     12.807  0.5300E-01  0.7477E+00
     12.907  0.5409E-01  0.7532E+00
     13.008  0.5650E-01  0.7589E+00
     13.109  0.5702E-01  0.7646E+00
     13.210  0.5452E-01  0.7701E+00
     13.310  0.5152E-01  0.7753E+00
     13.411  0.5072E-01  0.7804E+00
     13.512  0.5541E-01  0.7860E+00
     13.613  0.6731E-01  0.7928E+00
     13.713  0.8366E-01  0.8012E+00
     13.814  0.9803E-01  0.8111E+00
     13.915  0.9857E-01  0.8210E+00
     14.016  0.7965E-01  0.8290E+00
     14.116  0.5519E-01  0.8346E+00
     14.217  0.4354E-01  0.8390E+00
     14.318  0.4807E-01  0.8438E+00
     14.419  0.6168E-01  0.8500E+00
     14.519  0.7750E-01  0.8578E+00
     14.620  0.8924E-01  0.8668E+00
     14.721  0.9166E-01  0.8761E+00
     14.821  0.8614E-01  0.8847E+00
     14.922  0.7948E-01  0.8927E+00
     15.023  0.7682E-01  0.9005E+00
     15.124  0.7840E-01  0.9084E+00
     15.224  0.7950E-01  0.9164E+00
     15.325  0.7427E-01  0.9239E+00
     15.426  0.6126E-01  0.9300E+00
     15.527  0.4677E-01  0.9347E+00
     15.627  0.4065E-01  0.9388E+00
     15.728  0.4530E-01  0.9434E+00
     15.829  0.5241E-01  0.9487E+00
     15.930  0.5343E-01  0.9541E+00
     16.030  0.4877E-01  0.9590E+00
     16.131  0.4270E-01  0.9633E+00
     16.232  0.3701E-01  0.9670E+00
     16.332  0.3555E-01  0.9706E+00
     16.433  0.4423E-01  0.9750E+00
     16.534  0.5935E-01  0.9810E+00
     16.635  0.6931E-01  0.9880E+00
     16.735  0.6925E-01  0.9950E+00
     16.836  0.6123E-01  0.1001E+01
     16.937  0.4929E-01  0.1006E+01
     17.038  0.3868E-01  0.1010E+01
     17.138  0.3087E-01  0.1013E+01
     17.239  0.2479E-01  0.1016E+01
     17.340  0.2270E-01  0.1018E+01
     17.441  0.2681E-01  0.1021E+01
     17.541  0.3378E-01  0.1024E+01
     17.642  0.3819E-01  0.1028E+01
     17.743  0.3783E-01  0.1032E+01
     17.844  0.3458E-01  0.1035E+01
     17.944  0.3135E-01  0.1038E+01
     18.045  0.2832E-01  0.1041E+01
     18.146  0.2394E-01  0.1044E+01
     18.246  0.1782E-01  0.1045E+01
     18.347  0.1152E-01  0.1047E+01
     18.448  0.6638E-02  0.1047E+01
     18.549  0.3710E-02  0.1048E+01
     18.649  0.3792E-02  0.1048E+01
     18.750  0.8171E-02  0.1049E+01
     18.851  0.1559E-01  0.1050E+01
     18.952  0.2147E-01  0.1053E+01
     19.052  0.2183E-01  0.1055E+01
     19.153  0.1678E-01  0.1056E+01
     19.254  0.9642E-02  0.1057E+01
     19.355  0.4200E-02  0.1058E+01
     19.455  0.2031E-02  0.1058E+01
     19.556  0.2089E-02  0.1058E+01
     19.657  0.2825E-02  0.1058E+01
     19.758  0.4235E-02  0.1059E+01
     19.858  0.6828E-02  0.1060E+01
     19.959  0.8981E-02  0.1061E+01
     20.060  0.8922E-02  0.1061E+01
     20.160  0.7846E-02  0.1062E+01
     20.261  0.7224E-02  0.1063E+01
     20.362  0.6525E-02  0.1064E+01
     20.463  0.4883E-02  0.1064E+01
     20.563  0.2660E-02  0.1064E+01
     20.664  0.1047E-02  0.1064E+01
     20.765  0.6639E-03  0.1065E+01
     20.866  0.1420E-02  0.1065E+01
     20.966  0.2813E-02  0.1065E+01
     21.067  0.3731E-02  0.1065E+01
     21.168  0.3276E-02  0.1066E+01
     21.269  0.1961E-02  0.1066E+01
     21.369  0.1073E-02  0.1066E+01
     21.470  0.1215E-02  0.1066E+01
     21.571  0.1852E-02  0.1066E+01
     21.671  0.1963E-02  0.1066E+01
     21.772  0.1294E-02  0.1067E+01
     21.873  0.5250E-03  0.1067E+01
     21.974  0.1308E-03  0.1067E+01
     22.074  0.1998E-04  0.1067E+01
     22.175  0.1869E-05  0.1067E+01
     22.276  0.1069E-06  0.1067E+01
     22.377  0.3731E-08  0.1067E+01
     22.477  0.7935E-10  0.1067E+01
     22.578  0.1027E-11  0.1067E+01
     22.679  0.8074E-14  0.1067E+01
     22.780  0.3870E-16  0.1067E+01
     22.880  0.0000E+00  0.1067E+01
     22.981  0.0000E+00  0.1067E+01
     23.082  0.0000E+00  0.1067E+01
     23.183  0.0000E+00  0.1067E+01
     23.283  0.0000E+00  0.1067E+01
     23.384  0.0000E+00  0.1067E+01
     23.485  0.0000E+00  0.1067E+01
     23.585  0.0000E+00  0.1067E+01
