    2    2   15    1
  0.1529437E+02  0.3691622E-09  0.3691622E-09  0.3691622E-09  0.5000000E-15
  1.000000000000000E-004
  CAR 
 unknown system                          
      8     75      8
 
  0.0000000E+00  0.0000000E+00  0.0000000E+00  0.1371742E-02
    1       -4.635264   1.000000
    2        6.609534   1.000000
    3        6.609556   1.000000
    4        7.128162   1.000000
    5       10.816844   0.000000
    6       16.630744   0.000000
    7       17.885884   0.000000
    8       17.885909   0.000000
 
  0.1111111E+00 -0.9377698E-17  0.9377698E-17  0.1097394E-01
    1       -4.311956   1.000000
    2        5.830425   1.000000
    3        6.490885   1.000000
    4        8.463713   0.999985
    5       11.536163   0.000000
    6       14.688520   0.000000
    7       15.215383   0.000000
    8       17.002869   0.000000
 
  0.2222222E+00  0.6918512E-17 -0.6918512E-17  0.1097394E-01
    1       -3.345613   1.000000
    2        5.410344   1.000000
    3        6.414285   1.000000
    4        9.857469   0.000000
    5       11.622407   0.000000
    6       12.371794   0.000000
    7       13.134183   0.000000
    8       15.136096   0.000000
 
  0.3333333E+00 -0.3591853E-16  0.3591853E-16  0.1097394E-01
    1       -1.751481   1.000000
    2        5.432330   1.000000
    3        6.662506   1.000000
    4        6.975547   1.000000
    5        9.908634   0.000000
    6       12.081183   0.000000
    7       13.311988   0.000000
    8       14.249394   0.000000
 
  0.4444444E+00  0.1383702E-16 -0.1383702E-16  0.1097394E-01
    1        0.416069   1.000000
    2        3.333518   1.000000
    3        6.567769   1.000000
    4        7.134121   1.000000
    5        8.005628   1.000000
    6       10.539402   0.000000
    7       13.539723   0.000000
    8       14.588263   0.000000
 
  0.1111111E+00  0.1111111E+00  0.1875540E-16  0.1097394E-01
    1       -3.498665   1.000000
    2        5.663948   1.000000
    3        7.487741   1.000000
    4        9.141509   0.269894
    5       11.774619   0.000000
    6       11.914349   0.000000
    7       12.830571   0.000000
    8       15.058869   0.000000
 
  0.2222222E+00  0.1111111E+00 -0.2719765E-16  0.2194787E-01
    1       -2.053626   1.000000
    2        5.697058   1.000000
    3        7.465384   1.000000
    4        8.108482   1.000000
    5        9.447060   0.002771
    6       11.560513   0.000000
    7       12.533006   0.000000
    8       13.749430   0.000000
 
  0.3333333E+00  0.1111111E+00  0.2951719E-16  0.2194787E-01
    1       -0.013251   1.000000
    2        4.170114   1.000000
    3        6.353296   1.000000
    4        6.780806   1.000000
    5        8.800927   0.963684
    6       11.034742   0.000000
    7       12.436445   0.000000
    8       14.920378   0.000000
 
  0.4444444E+00  0.1111111E+00  0.7517205E-17  0.2194787E-01
    1        1.101768   1.000000
    2        2.788214   1.000000
    3        5.188669   1.000000
    4        7.233845   1.000000
    5        8.521702   0.999918
    6       11.344992   0.000000
    7       12.456787   0.000000
    8       15.837247   0.000000
 
 -0.4444444E+00  0.1111111E+00  0.4279628E-16  0.2194787E-01
    1       -1.149606   1.000000
    2        4.009971   1.000000
    3        6.035625   1.000000
    4        6.975018   1.000000
    5        9.784676   0.000000
    6       12.455930   0.000000
    7       13.366603   0.000000
    8       14.694272   0.000000
 
 -0.3333333E+00  0.1111111E+00 -0.1456430E-16  0.2194787E-01
    1       -2.887425   1.000000
    2        3.721782   1.000000
    3        6.490864   1.000000
    4        9.628023   0.000025
    5       11.829438   0.000000
    6       12.215698   0.000000
    7       13.782120   0.000000
    8       15.074838   0.000000
 
 -0.2222222E+00  0.1111111E+00  0.1629621E-16  0.2194787E-01
    1       -4.004371   1.000000
    2        3.969810   1.000000
    3        6.589267   1.000000
    4        9.580008   0.000102
    5       13.049042   0.000000
    6       13.635837   0.000000
    7       14.621664   0.000000
    8       16.118207   0.000000
 
 -0.1111111E+00  0.1111111E+00  0.7914115E-18  0.5486968E-02
    1       -4.481206   1.000000
    2        4.778312   1.000000
    3        6.750279   1.000000
    4        8.369921   0.999999
    5       11.802938   0.000000
    6       15.214149   0.000000
    7       17.092204   0.000000
    8       17.722197   0.000000
 
  0.2222222E+00  0.2222222E+00 -0.4159260E-16  0.1097394E-01
    1       -0.157683   1.000000
    2        5.133529   1.000000
    3        5.378627   1.000000
    4        6.543236   1.000000
    5        9.745942   0.000001
    6       11.300365   0.000000
    7       12.691278   0.000000
    8       13.085934   0.000000
 
  0.3333333E+00  0.2222222E+00  0.4287781E-16  0.2194787E-01
    1        1.836527   1.000000
    2        2.692591   1.000000
    3        3.766303   1.000000
    4        7.293558   1.000000
    5        9.175307   0.197073
    6       10.756990   0.000000
    7       13.559425   0.000000
    8       15.795535   0.000000
 
  0.4444444E+00  0.2222222E+00  0.2087783E-16  0.2194787E-01
    1       -0.251934   1.000000
    2        2.373355   1.000000
    3        5.615438   1.000000
    4        7.616207   1.000000
    5        9.374619   0.011865
    6       11.232285   0.000000
    7       14.858037   0.000000
    8       15.852596   0.000000
 
 -0.4444444E+00  0.2222222E+00  0.6918512E-17  0.2194787E-01
    1       -2.126880   1.000000
    2        1.888936   1.000000
    3        7.122132   1.000000
    4        9.177815   0.192189
    5       10.810427   0.000000
    6       12.759203   0.000000
    7       12.992496   0.000000
    8       16.231864   0.000000
 
 -0.3333333E+00  0.2222222E+00 -0.1251408E-16  0.2194787E-01
    1       -3.390995   1.000000
    2        1.993420   1.000000
    3        7.141842   1.000000
    4       10.379935   0.000000
    5       11.945831   0.000000
    6       13.836706   0.000000
    7       15.047928   0.000000
    8       15.697266   0.000000
 
 -0.2222222E+00  0.2222222E+00  0.1582823E-17  0.5486968E-02
    1       -4.019690   1.000000
    2        2.700016   1.000000
    3        7.172823   1.000000
    4        9.227143   0.111487
    5       13.344522   0.000000
    6       14.186469   0.000000
    7       15.533072   0.000000
    8       17.376675   0.000000
 
  0.3333333E+00  0.3333333E+00  0.7183707E-16  0.1097394E-01
    1        0.901454   1.000000
    2        0.959239   1.000000
    3        5.474536   1.000000
    4        8.131206   1.000000
    5        9.040350   0.540687
    6       10.668390   0.000000
    7       15.855711   0.000000
    8       16.651719   0.000000
 
  0.4444444E+00  0.3333333E+00  0.4983708E-16  0.2194787E-01
    1       -1.069622   1.000000
    2        0.275531   1.000000
    3        7.963406   1.000000
    4        8.783816   0.972326
    5        9.804692   0.000000
    6       12.296269   0.000000
    7       13.939041   0.000000
    8       15.273042   0.000000
 
 -0.4444444E+00  0.3333333E+00  0.6553460E-16  0.2194787E-01
    1       -2.475722   1.000000
    2        0.231828   1.000000
    3        7.978081   1.000000
    4       10.407205   0.000000
    5       11.283283   0.000000
    6       13.209845   0.000000
    7       14.466425   0.000000
    8       14.858686   0.000000
 
 -0.3333333E+00  0.3333333E+00  0.1438931E-16  0.5486968E-02
    1       -3.253557   1.000000
    2        0.809066   1.000000
    3        7.876632   1.000000
    4       10.075578   0.000000
    5       11.617531   0.000000
    6       13.900323   0.000000
    7       16.923289   0.000000
    8       17.071785   0.000000
 
  0.4444444E+00  0.4444444E+00 -0.8318520E-16  0.1097394E-01
    1       -1.266185   1.000000
    2       -1.263453   1.000000
    3        9.078937   0.432236
    4        9.085962   0.412796
    5       12.060062   0.000000
    6       12.551853   0.000000
    7       14.021253   0.000000
    8       14.692775   0.000000
 
 -0.4444444E+00  0.4444444E+00  0.3165646E-17  0.5486968E-02
    1       -2.187463   1.000000
    2       -0.829319   1.000000
    3        8.855095   0.921042
    4       10.111621   0.000000
    5       11.123252   0.000000
    6       12.408589   0.000000
    7       16.941411   0.000000
    8       17.026511   0.000000
 
  0.1111111E+00  0.1111111E+00  0.1111111E+00  0.1097394E-01
    1       -3.039750   1.000000
    2        3.625091   1.000000
    3        7.846300   1.000000
    4        9.823349   0.000000
    5       11.153491   0.000000
    6       11.398109   0.000000
    7       14.946454   0.000000
    8       15.337410   0.000000
 
  0.2222222E+00  0.1111111E+00  0.1111111E+00  0.2194787E-01
    1       -1.449029   1.000000
    2        3.821051   1.000000
    3        6.941093   1.000000
    4        7.884181   1.000000
    5        9.622596   0.000030
    6       12.356960   0.000000
    7       13.837392   0.000000
    8       14.550905   0.000000
 
  0.3333333E+00  0.1111111E+00  0.1111111E+00  0.2194787E-01
    1        0.712335   1.000000
    2        3.532886   1.000000
    3        4.830091   1.000000
    4        6.242143   1.000000
    5        9.895968   0.000000
    6       12.278288   0.000000
    7       13.861345   0.000000
    8       14.425089   0.000000
 
 -0.1111111E+00  0.1111111E+00  0.1111111E+00  0.5486968E-02
    1       -4.327343   1.000000
    2        4.514800   1.000000
    3        5.575275   1.000000
    4        9.710577   0.000002
    5       12.431089   0.000000
    6       13.864531   0.000000
    7       17.435062   0.000000
    8       18.143725   0.000000
 
  0.2222222E+00  0.2222222E+00  0.1111111E+00  0.1097394E-01
    1        0.575725   1.000000
    2        4.122164   1.000000
    3        4.858371   1.000000
    4        5.277937   1.000000
    5       11.023692   0.000000
    6       13.058488   0.000000
    7       13.794613   0.000000
    8       13.822079   0.000000
 
  0.3333333E+00  0.2222222E+00  0.1111111E+00  0.2194787E-01
    1        1.689088   1.000000
    2        2.823705   1.000000
    3        3.774190   1.000000
    4        5.975619   1.000000
    5       10.940788   0.000000
    6       12.511208   0.000000
    7       14.329654   0.000000
    8       15.256691   0.000000
 
  0.4444444E+00  0.2222222E+00  0.1111111E+00  0.2194787E-01
    1       -0.546504   1.000000
    2        2.110663   1.000000
    3        6.566572   1.000000
    4        7.654465   1.000000
    5       10.293085   0.000000
    6       12.782558   0.000000
    7       13.270627   0.000000
    8       15.156052   0.000000
 
 -0.4444444E+00  0.2222222E+00  0.1111111E+00  0.1097394E-01
    1       -2.277771   1.000000
    2        1.755148   1.000000
    3        8.385475   0.999999
    4        9.890009   0.000000
    5       11.111454   0.000000
    6       11.209392   0.000000
    7       13.514963   0.000000
    8       14.638678   0.000000
 
 -0.2222222E+00  0.2222222E+00  0.1111111E+00  0.1097394E-01
    1       -3.866725   1.000000
    2        2.798634   1.000000
    3        5.654258   1.000000
    4       10.873522   0.000000
    5       11.941741   0.000000
    6       14.478513   0.000000
    7       16.449856   0.000000
    8       17.131064   0.000000
 
 -0.1111111E+00  0.2222222E+00  0.1111111E+00  0.1097394E-01
    1       -3.697739   1.000000
    2        3.785639   1.000000
    3        5.018864   1.000000
    4       11.217023   0.000000
    5       12.050859   0.000000
    6       13.874703   0.000000
    7       14.121110   0.000000
    8       16.476367   0.000000
 
  0.3333333E+00  0.3333333E+00  0.1111111E+00  0.1097394E-01
    1        0.636603   1.000000
    2        0.654632   1.000000
    3        6.437352   1.000000
    4        7.561153   1.000000
    5       11.090332   0.000000
    6       11.732460   0.000000
    7       13.974698   0.000000
    8       14.690359   0.000000
 
  0.4444444E+00  0.3333333E+00  0.1111111E+00  0.1097394E-01
    1       -1.218020   1.000000
    2        0.132112   1.000000
    3        8.984465   0.690524
    4        9.494264   0.000943
    5       11.254306   0.000000
    6       11.719357   0.000000
    7       12.545347   0.000000
    8       13.406532   0.000000
 
 -0.3333333E+00  0.3333333E+00  0.1111111E+00  0.1097394E-01
    1       -3.101690   1.000000
    2        0.943935   1.000000
    3        6.339918   1.000000
    4       10.167536   0.000000
    5       11.774684   0.000000
    6       15.228473   0.000000
    7       16.549072   0.000000
    8       17.136425   0.000000
 
 -0.2222222E+00  0.3333333E+00  0.1111111E+00  0.2194787E-01
    1       -3.086667   1.000000
    2        2.222793   1.000000
    3        5.165138   1.000000
    4       10.151514   0.000000
    5       11.997793   0.000000
    6       13.689775   0.000000
    7       16.003896   0.000000
    8       16.771043   0.000000
 
 -0.1111111E+00  0.3333333E+00  0.1111111E+00  0.1097394E-01
    1       -2.431801   1.000000
    2        3.654718   1.000000
    3        4.972240   1.000000
    4        8.912765   0.842390
    5       10.794888   0.000000
    6       13.866579   0.000000
    7       14.383228   0.000000
    8       14.944129   0.000000
 
 -0.4444444E+00  0.4444444E+00  0.1111111E+00  0.1097394E-01
    1       -2.037757   1.000000
    2       -0.683676   1.000000
    3        7.337645   1.000000
    4        8.617301   0.999011
    5       12.780691   0.000000
    6       13.953684   0.000000
    7       16.559962   0.000000
    8       16.703648   0.000000
 
 -0.3333333E+00  0.4444444E+00  0.1111111E+00  0.2194787E-01
    1       -2.174946   1.000000
    2        0.510230   1.000000
    3        5.979902   1.000000
    4        8.521314   0.999919
    5       11.962974   0.000000
    6       14.239581   0.000000
    7       15.974109   0.000000
    8       16.759734   0.000000
 
 -0.2222222E+00  0.4444444E+00  0.1111111E+00  0.2194787E-01
    1       -1.676137   1.000000
    2        2.255993   1.000000
    3        5.215286   1.000000
    4        8.254107   1.000000
    5        9.269507   0.064479
    6       13.844504   0.000000
    7       15.420255   0.000000
    8       16.556591   0.000000
 
 -0.1111111E+00  0.4444444E+00  0.1111111E+00  0.1097394E-01
    1       -0.554243   1.000000
    2        3.975736   1.000000
    3        5.466282   1.000000
    4        5.594161   1.000000
    5        9.644957   0.000015
    6       12.081559   0.000000
    7       13.059271   0.000000
    8       16.589791   0.000000
 
 -0.4444444E+00 -0.4444444E+00  0.1111111E+00  0.1097394E-01
    1       -0.975483   1.000000
    2       -0.967015   1.000000
    3        7.101662   1.000000
    4        7.121440   1.000000
    5       11.898707   0.000000
    6       14.868041   0.000000
    7       15.686717   0.000000
    8       16.107689   0.000000
 
 -0.3333333E+00 -0.4444444E+00  0.1111111E+00  0.2194787E-01
    1       -0.627492   1.000000
    2        0.699075   1.000000
    3        6.129395   1.000000
    4        7.297097   1.000000
    5        8.470506   0.999982
    6       13.634730   0.000000
    7       16.455668   0.000000
    8       17.633788   0.000000
 
 -0.2222222E+00 -0.4444444E+00  0.1111111E+00  0.2194787E-01
    1        0.330682   1.000000
    2        2.842494   1.000000
    3        4.931105   1.000000
    4        5.977302   1.000000
    5        8.326028   1.000000
    6       11.857576   0.000000
    7       14.520574   0.000000
    8       17.628705   0.000000
 
 -0.1111111E+00 -0.4444444E+00  0.1111111E+00  0.1097394E-01
    1        1.557558   1.000000
    2        2.491406   1.000000
    3        5.476820   1.000000
    4        6.433195   1.000000
    5        8.750561   0.984273
    6       11.091485   0.000000
    7       11.471517   0.000000
    8       16.828377   0.000000
 
 -0.3333333E+00 -0.3333333E+00  0.1111111E+00  0.1097394E-01
    1        1.427668   1.000000
    2        1.543325   1.000000
    3        4.773531   1.000000
    4        6.884544   1.000000
    5        7.140339   1.000000
    6       11.730186   0.000000
    7       16.200697   0.000000
    8       16.813753   0.000000
 
 -0.2222222E+00 -0.3333333E+00  0.1111111E+00  0.2194787E-01
    1        1.600499   1.000000
    2        3.144191   1.000000
    3        4.360105   1.000000
    4        6.983579   1.000000
    5        8.058148   1.000000
    6       10.559083   0.000000
    7       12.980068   0.000000
    8       15.325798   0.000000
 
 -0.1111111E+00 -0.3333333E+00  0.1111111E+00  0.1097394E-01
    1       -0.454175   1.000000
    2        5.028204   1.000000
    3        7.098603   1.000000
    4        7.514981   1.000000
    5        8.077970   1.000000
    6       10.869143   0.000000
    7       11.031783   0.000000
    8       13.973510   0.000000
 
 -0.2222222E+00 -0.2222222E+00  0.1111111E+00  0.1097394E-01
    1       -0.601443   1.000000
    2        6.057125   1.000000
    3        6.159078   1.000000
    4        7.722108   1.000000
    5        8.477880   0.999977
    6       10.326731   0.000000
    7       11.981569   0.000000
    8       12.460402   0.000000
 
 -0.1111111E+00 -0.2222222E+00  0.1111111E+00  0.1097394E-01
    1       -2.357038   1.000000
    2        7.333631   1.000000
    3        7.805123   1.000000
    4        8.571058   0.999688
    5        9.450168   0.002589
    6       10.495047   0.000000
    7       11.978469   0.000000
    8       12.753878   0.000000
 
 -0.1111111E+00 -0.1111111E+00  0.1111111E+00  0.2743484E-02
    1       -3.651912   1.000000
    2        7.365188   1.000000
    3        7.365207   1.000000
    4        8.046687   1.000000
    5       11.819365   0.000000
    6       12.244837   0.000000
    7       12.306717   0.000000
    8       14.618956   0.000000
 
  0.2222222E+00  0.2222222E+00  0.2222222E+00  0.1097394E-01
    1        1.583179   1.000000
    2        2.822549   1.000000
    3        4.626144   1.000000
    4        4.719514   1.000000
    5       12.320322   0.000000
    6       13.572848   0.000000
    7       14.728104   0.000000
    8       14.780908   0.000000
 
 -0.2222222E+00  0.2222222E+00  0.2222222E+00  0.5486968E-02
    1       -3.407977   1.000000
    2        2.732769   1.000000
    3        4.078870   1.000000
    4        9.974483   0.000000
    5       12.839828   0.000000
    6       15.687535   0.000000
    7       16.122747   0.000000
    8       16.749556   0.000000
 
 -0.3333333E+00  0.3333333E+00  0.2222222E+00  0.1097394E-01
    1       -2.647604   1.000000
    2        1.317056   1.000000
    3        4.331175   1.000000
    4        8.146206   1.000000
    5       13.955847   0.000000
    6       15.550965   0.000000
    7       16.494616   0.000000
    8       18.159206   0.000000
 
 -0.2222222E+00  0.3333333E+00  0.2222222E+00  0.1097394E-01
    1       -2.480168   1.000000
    2        2.287588   1.000000
    3        3.692834   1.000000
    4        8.278876   1.000000
    5       11.789865   0.000000
    6       15.446964   0.000000
    7       17.232108   0.000000
    8       17.461438   0.000000
 
 -0.4444444E+00  0.4444444E+00  0.2222222E+00  0.1097394E-01
    1       -1.592085   1.000000
    2       -0.255893   1.000000
    3        5.289879   1.000000
    4        6.578017   1.000000
    5       14.619512   0.000000
    6       15.086442   0.000000
    7       16.760172   0.000000
    8       17.530464   0.000000
 
 -0.3333333E+00  0.4444444E+00  0.2222222E+00  0.2194787E-01
    1       -1.577761   1.000000
    2        1.028634   1.000000
    3        4.070099   1.000000
    4        6.588759   1.000000
    5       11.445332   0.000000
    6       16.669035   0.000000
    7       17.456168   0.000000
    8       18.980302   0.000000
 
 -0.2222222E+00  0.4444444E+00  0.2222222E+00  0.1097394E-01
    1       -0.930344   1.000000
    2        2.456171   1.000000
    3        3.894532   1.000000
    4        7.035857   1.000000
    5        8.159656   1.000000
    6       15.118358   0.000000
    7       16.498485   0.000000
    8       17.741283   0.000000
 
 -0.4444444E+00 -0.4444444E+00  0.2222222E+00  0.1097394E-01
    1       -0.400221   1.000000
    2       -0.386093   1.000000
    3        5.156205   1.000000
    4        5.175425   1.000000
    5       11.317413   0.000000
    6       17.002816   0.000000
    7       18.028531   0.000000
    8       18.357899   0.000000
 
 -0.3333333E+00 -0.4444444E+00  0.2222222E+00  0.2194787E-01
    1        0.097510   1.000000
    2        1.360991   1.000000
    3        4.390415   1.000000
    4        5.595027   1.000000
    5        7.779916   1.000000
    6       15.353101   0.000000
    7       17.902637   0.000000
    8       18.839736   0.000000
 
 -0.2222222E+00 -0.4444444E+00  0.2222222E+00  0.1097394E-01
    1        1.183145   1.000000
    2        3.092715   1.000000
    3        4.676615   1.000000
    4        4.734510   1.000000
    5        6.771399   1.000000
    6       13.266084   0.000000
    7       14.557857   0.000000
    8       17.761546   0.000000
 
 -0.3333333E+00 -0.3333333E+00  0.2222222E+00  0.1097394E-01
    1        2.131835   1.000000
    2        2.368925   1.000000
    3        4.383485   1.000000
    4        5.335018   1.000000
    5        5.557896   1.000000
    6       13.548190   0.000000
    7       15.779840   0.000000
    8       16.535523   0.000000
 
 -0.2222222E+00 -0.3333333E+00  0.2222222E+00  0.1097394E-01
    1        1.377362   1.000000
    2        4.047895   1.000000
    3        4.911979   1.000000
    4        5.983341   1.000000
    5        6.797366   1.000000
    6       11.940715   0.000000
    7       12.925828   0.000000
    8       14.359157   0.000000
 
 -0.2222222E+00 -0.2222222E+00  0.2222222E+00  0.2743484E-02
    1       -0.749598   1.000000
    2        6.789130   1.000000
    3        6.931721   1.000000
    4        7.529475   1.000000
    5        7.529492   1.000000
    6       10.938530   0.000000
    7       11.747541   0.000000
    8       11.747562   0.000000
 
 -0.3333333E+00  0.3333333E+00  0.3333333E+00  0.5486968E-02
    1       -1.896843   1.000000
    2        1.521212   1.000000
    3        2.976117   1.000000
    4        6.304202   1.000000
    5       14.710546   0.000000
    6       15.127368   0.000000
    7       17.675055   0.000000
    8       19.582153   0.000000
 
 -0.4444444E+00  0.4444444E+00  0.3333333E+00  0.1097394E-01
    1       -0.861356   1.000000
    2        0.412748   1.000000
    3        3.487405   1.000000
    4        4.732461   1.000000
    5       14.744105   0.000000
    6       14.842645   0.000000
    7       18.905807   0.000000
    8       19.904972   0.000000
 
 -0.3333333E+00  0.4444444E+00  0.3333333E+00  0.1097394E-01
    1       -0.696237   1.000000
    2        1.378241   1.000000
    3        2.855500   1.000000
    4        4.886128   1.000000
    5       11.059404   0.000000
    6       17.885941   0.000000
    7       19.125050   0.000000
    8       19.929195   0.000000
 
 -0.4444444E+00 -0.4444444E+00  0.3333333E+00  0.1097394E-01
    1        0.414166   1.000000
    2        0.436495   1.000000
    3        3.496896   1.000000
    4        3.509800   1.000000
    5       10.927820   0.000000
    6       18.004256   0.000000
    7       20.173180   0.000000
    8       20.365139   0.000000
 
 -0.3333333E+00 -0.4444444E+00  0.3333333E+00  0.1097394E-01
    1        1.058359   1.000000
    2        1.854163   1.000000
    3        3.334999   1.000000
    4        4.110630   1.000000
    5        7.465967   1.000000
    6       16.873865   0.000000
    7       18.119886   0.000000
    8       19.080731   0.000000
 
 -0.3333333E+00 -0.3333333E+00  0.3333333E+00  0.2743484E-02
    1        2.586668   1.000000
    2        3.036584   1.000000
    3        4.406793   1.000000
    4        4.406798   1.000000
    5        4.655690   1.000000
    6       15.125633   0.000000
    7       15.634994   0.000000
    8       15.635008   0.000000
 
 -0.4444444E+00  0.4444444E+00  0.4444444E+00  0.5486968E-02
    1        0.107743   1.000000
    2        0.910976   1.000000
    3        2.410830   1.000000
    4        3.201526   1.000000
    5       14.599356   0.000000
    6       14.621791   0.000000
    7       20.979407   0.000000
    8       21.585470   0.000000
 
 -0.4444444E+00 -0.4444444E+00  0.4444444E+00  0.2743484E-02
    1        1.055546   1.000000
    2        1.090196   1.000000
    3        2.571745   1.000000
    4        2.571750   1.000000
    5       10.795328   0.000000
    6       18.164094   0.000000
    7       21.090318   0.000000
    8       21.090328   0.000000
