 running on    8 total cores
 distrk:  each k-point on    8 cores,    1 groups
 distr:  one band on    1 cores,    8 groups
 using from now: INCAR     
 vasp.5.4.4.18Apr17-6-g9f103f2a35 (build Dec 09 2018 21:25:21) complex          
  
 POSCAR found type information on POSCAR  Si
 POSCAR found :  1 types and       2 ions
 scaLAPACK will be used

 ----------------------------------------------------------------------------- 
|                                                                             |
|           W    W    AA    RRRRR   N    N  II  N    N   GGGG   !!!           |
|           W    W   A  A   R    R  NN   N  II  NN   N  G    G  !!!           |
|           W    W  A    A  R    R  N N  N  II  N N  N  G       !!!           |
|           W WW W  AAAAAA  RRRRR   N  N N  II  N  N N  G  GGG   !            |
|           WW  WW  A    A  R   R   N   NN  II  N   NN  G    G                |
|           W    W  A    A  R    R  N    N  II  N    N   GGGG   !!!           |
|                                                                             |
|      For optimal performance we recommend to set                            |
|        NCORE= 4 - approx SQRT( number of cores)                             |
|      NCORE specifies how many cores store one orbital (NPAR=cpu/NCORE).     |
|      This setting can  greatly improve the performance of VASP for DFT.     |
|      The default,   NCORE=1            might be grossly inefficient         |
|      on modern multi-core architectures or massively parallel machines.     |
|      Do your own testing !!!!                                               |
|      Unfortunately you need to use the default for GW and RPA calculations. |
|      (for HF NCORE is supported but not extensively tested yet)             |
|                                                                             |
 ----------------------------------------------------------------------------- 

 LDA part: xc-table for Pade appr. of Perdew
 POSCAR, INCAR and KPOINTS ok, starting setup
 FFT: planning ...
 WAVECAR not read
 entering main loop
       N       E                     dE             d eps       ncg     rms          rms(c)
DAV:   1    -0.533347759091E+01   -0.53335E+01   -0.17624E+03  1296   0.307E+02
DAV:   2    -0.101018640484E+02   -0.47684E+01   -0.45106E+01  1856   0.385E+01
DAV:   3    -0.101332365709E+02   -0.31373E-01   -0.31293E-01  1472   0.359E+00
DAV:   4    -0.101332740367E+02   -0.37466E-04   -0.37465E-04  1912   0.103E-01
DAV:   5    -0.101332740492E+02   -0.12495E-07   -0.12249E-07  1304   0.105E-03    0.150E+00
DAV:   6    -0.101248515119E+02    0.84225E-02   -0.17382E-03  1424   0.259E-01    0.935E-01
DAV:   7    -0.101183023623E+02    0.65491E-02   -0.49691E-03  1408   0.457E-01    0.351E-02
DAV:   8    -0.101182796690E+02    0.22693E-04   -0.75329E-05   792   0.614E-02
   1 F= -.10118280E+02 E0= -.10112720E+02  d E =-.101183E+02
 curvature:   0.00 expect dE= 0.000E+00 dE for cont linesearch  0.000E+00
 trial: gam= 0.00000 g(F)=  0.967E-44 g(S)=  0.173E-01 ort = 0.000E+00 (trialstep = 0.100E+01)
 search vector abs. value=  0.173E-01
 bond charge predicted
       N       E                     dE             d eps       ncg     rms          rms(c)
DAV:   1    -0.101380754527E+02   -0.19773E-01   -0.43911E-01  1720   0.363E+00    0.399E-01
DAV:   2    -0.101335861327E+02    0.44893E-02   -0.80695E-03  1416   0.661E-01    0.223E-01
DAV:   3    -0.101314369599E+02    0.21492E-02   -0.54315E-03  1648   0.409E-01    0.194E-02
DAV:   4    -0.101314486095E+02   -0.11650E-04   -0.17610E-04   704   0.104E-01
   2 F= -.10131449E+02 E0= -.10124704E+02  d E =-.131689E-01
 trial-energy change:   -0.013169  1 .order   -0.014057   -0.017315   -0.010799
 step:   2.6575(harm=  2.6575)  dis= 0.00000  next Energy=   -10.141287 (dE=-0.230E-01)
 bond charge predicted
       N       E                     dE             d eps       ncg     rms          rms(c)
DAV:   1    -0.101556916541E+02   -0.24255E-01   -0.11705E+00  1664   0.584E+00    0.628E-01
DAV:   2    -0.101442514168E+02    0.11440E-01   -0.21219E-02  1456   0.107E+00    0.352E-01
DAV:   3    -0.101387045650E+02    0.55469E-02   -0.14186E-02  1544   0.649E-01    0.315E-02
DAV:   4    -0.101387340162E+02   -0.29451E-04   -0.43978E-04   744   0.163E-01
   3 F= -.10138734E+02 E0= -.10132362E+02  d E =-.204543E-01
 curvature:  -1.33 expect dE=-0.220E-01 dE for cont linesearch -0.697E-03
 ZBRENT: interpolating
 opt :   2.2959  next Energy=   -10.139279 (dE=-0.210E-01)
 bond charge predicted
       N       E                     dE             d eps       ncg     rms          rms(c)
DAV:   1    -0.101399085304E+02   -0.12040E-02   -0.51891E-02  1616   0.125E+00    0.135E-01
DAV:   2    -0.101394135252E+02    0.49501E-03   -0.95636E-04  1344   0.229E-01    0.761E-02
DAV:   3    -0.101391624433E+02    0.25108E-03   -0.63377E-04   744   0.140E-01
   4 F= -.10139162E+02 E0= -.10133052E+02  d E =-.208828E-01
 curvature:  -1.04 expect dE=-0.144E-01 dE for cont linesearch -0.293E-06
 trial: gam= 0.79490 g(F)=  0.173E-43 g(S)=  0.138E-01 ort = 0.699E-04 (trialstep = 0.876E+00)
 search vector abs. value=  0.249E-01
 bond charge predicted
       N       E                     dE             d eps       ncg     rms          rms(c)
DAV:   1    -0.101506717646E+02   -0.11258E-01   -0.43746E-01  1728   0.368E+00    0.392E-01
DAV:   2    -0.101466252927E+02    0.40465E-02   -0.81236E-03  1368   0.655E-01    0.225E-01
DAV:   3    -0.101444416589E+02    0.21836E-02   -0.50884E-03  1616   0.389E-01    0.215E-02
DAV:   4    -0.101444457887E+02   -0.41297E-05   -0.15082E-04   632   0.928E-02
   5 F= -.10144446E+02 E0= -.10138314E+02  d E =-.528335E-02
 trial-energy change:   -0.005283  1 .order   -0.005154   -0.012169    0.001860
 step:   0.7600(harm=  0.7600)  dis= 0.00000  next Energy=   -10.144440 (dE=-0.528E-02)
 bond charge predicted
       N       E                     dE             d eps       ncg     rms          rms(c)
DAV:   1    -0.101446615500E+02   -0.21989E-03   -0.75029E-03  1704   0.484E-01    0.518E-02
DAV:   2    -0.101445894281E+02    0.72122E-04   -0.14076E-04   672   0.870E-02
   6 F= -.10144589E+02 E0= -.10138290E+02  d E =-.542698E-02
 curvature:  -0.68 expect dE=-0.191E-03 dE for cont linesearch -0.269E-04
 ZBRENT: interpolating
 opt :   0.7093  next Energy=   -10.144615 (dE=-0.545E-02)
 bond charge predicted
       N       E                     dE             d eps       ncg     rms          rms(c)
DAV:   1    -0.101445296035E+02    0.13195E-03   -0.94960E-04  1472   0.172E-01    0.212E-02
DAV:   2    -0.101445170419E+02    0.12562E-04   -0.19892E-05   608   0.325E-02
   7 F= -.10144517E+02 E0= -.10138173E+02  d E =-.535460E-02
 curvature:  -0.64 expect dE=-0.254E-03 dE for cont linesearch -0.138E-04
 ZBRENT: interpolating
 opt :   0.7308  next Energy=   -10.144525 (dE=-0.536E-02)
 bond charge predicted
       N       E                     dE             d eps       ncg     rms          rms(c)
DAV:   1    -0.101445354531E+02   -0.58496E-05   -0.35985E-04   688   0.107E-01    0.953E-03
DAV:   2    -0.101445340173E+02    0.14358E-05   -0.13456E-05   600   0.284E-02
   8 F= -.10144534E+02 E0= -.10138221E+02  d E =-.537157E-02
 curvature:  -0.37 expect dE=-0.127E-03 dE for cont linesearch -0.149E-04
 ZBRENT: interpolating
 opt :   0.7455  next Energy=   -10.144597 (dE=-0.543E-02)
 bond charge predicted
       N       E                     dE             d eps       ncg     rms          rms(c)
DAV:   1    -0.101445443508E+02   -0.88978E-05   -0.95357E-05   632   0.545E-02    0.623E-03
DAV:   2    -0.101445436416E+02    0.70928E-06   -0.35243E-06   600   0.140E-02
   9 F= -.10144544E+02 E0= -.10138245E+02  d E =-.538120E-02
 curvature:  -0.18 expect dE=-0.511E-04 dE for cont linesearch -0.303E-05
 ZBRENT: interpolating
 opt :   0.7512  next Energy=   -10.144546 (dE=-0.538E-02)
 bond charge predicted
       N       E                     dE             d eps       ncg     rms          rms(c)
DAV:   1    -0.101445463290E+02   -0.19781E-05   -0.13006E-05   600   0.202E-02    0.249E-03
DAV:   2    -0.101445462655E+02    0.63411E-07   -0.52819E-07   600   0.526E-03
  10 F= -.10144546E+02 E0= -.10138253E+02  d E =-.538382E-02
 curvature:  -0.11 expect dE=-0.290E-04 dE for cont linesearch -0.949E-06
 ZBRENT: bisectioning
 opt :   0.7556  next Energy=   -10.144548 (dE=-0.539E-02)
 bond charge predicted
       N       E                     dE             d eps       ncg     rms          rms(c)
DAV:   1    -0.101445481212E+02   -0.17922E-05   -0.88034E-06   600   0.168E-02    0.189E-03
DAV:   2    -0.101445480957E+02    0.25477E-07   -0.31974E-07   600   0.417E-03
  11 F= -.10144548E+02 E0= -.10138260E+02  d E =-.538565E-02
 curvature:  -0.20 expect dE=-0.492E-04 dE for cont linesearch -0.108E-05
 ZBRENT: bisectioning
 opt :   0.7578  next Energy=   -10.144549 (dE=-0.539E-02)
 bond charge predicted
       N       E                     dE             d eps       ncg     rms          rms(c)
DAV:   1    -0.101445488605E+02   -0.73927E-06   -0.19983E-06   600   0.797E-03    0.944E-04
DAV:   2    -0.101445488672E+02   -0.67007E-08   -0.76157E-08   600   0.201E-03
  12 F= -.10144549E+02 E0= -.10138263E+02  d E =-.538642E-02
 curvature:  -0.14 expect dE=-0.332E-04 dE for cont linesearch -0.521E-06
 ZBRENT: bisectioning
 opt :   0.7589  next Energy=   -10.144549 (dE=-0.539E-02)
 bond charge predicted
       N       E                     dE             d eps       ncg     rms          rms(c)
DAV:   1    -0.101445492229E+02   -0.36248E-06   -0.50486E-07   600   0.401E-03    0.483E-04
DAV:   2    -0.101445492312E+02   -0.83084E-08   -0.19029E-08   600   0.998E-04
  13 F= -.10144549E+02 E0= -.10138264E+02  d E =-.538679E-02
 curvature:  -0.08 expect dE=-0.199E-04 dE for cont linesearch -0.258E-06
 ZBRENT: bisectioning
 opt :   0.7594  next Energy=   -10.144549 (dE=-0.539E-02)
 bond charge predicted
       N       E                     dE             d eps       ncg     rms          rms(c)
DAV:   1    -0.101445494014E+02   -0.17849E-06   -0.12578E-07   600   0.200E-03    0.254E-04
DAV:   2    -0.101445494073E+02   -0.59208E-08   -0.46853E-09   600   0.493E-04
  14 F= -.10144549E+02 E0= -.10138265E+02  d E =-.538696E-02
 curvature:  -0.05 expect dE=-0.112E-04 dE for cont linesearch -0.131E-06
 ZBRENT: bisectioning
 opt :   0.7597  next Energy=   -10.144549 (dE=-0.539E-02)
 bond charge predicted
       N       E                     dE             d eps       ncg     rms          rms(c)
DAV:   1    -0.101445494899E+02   -0.88468E-07   -0.31435E-08   600   0.100E-03    0.149E-04
DAV:   2    -0.101445494928E+02   -0.28891E-08   -0.11567E-09   600   0.245E-04
  15 F= -.10144549E+02 E0= -.10138266E+02  d E =-.538705E-02
 curvature:  -0.03 expect dE=-0.601E-05 dE for cont linesearch -0.661E-07
 ZBRENT: bisectioning
 opt :   0.7598  next Energy=   -10.144550 (dE=-0.539E-02)
 writing wavefunctions
