unknown system                          
           1
    -2.450000    2.450000    1.274000
     2.450000   -2.450000    1.274000
     2.450000    2.450000   -1.274000
   Si
   2
Direct configuration=     1
   0.25000000  0.75000000  0.50000000
   0.00000000  0.00000000  0.00000000
unknown system                          
           1
    -2.440044    2.440044    1.298986
     2.440044   -2.440044    1.298986
     2.440044    2.440044   -1.298986
   Si
   2
Direct configuration=     2
   0.25000000  0.75000000  0.50000000
  -0.00000000 -0.00000000 -0.00000000
unknown system                          
           1
    -2.423541    2.423541    1.340399
     2.423541   -2.423541    1.340399
     2.423541    2.423541   -1.340399
   Si
   2
Direct configuration=     3
   0.25000000  0.75000000  0.50000000
  -0.00000000 -0.00000000 -0.00000000
unknown system                          
           1
    -2.427141    2.427141    1.331365
     2.427141   -2.427141    1.331365
     2.427141    2.427141   -1.331365
   Si
   2
Direct configuration=     4
   0.25000000  0.75000000  0.50000000
  -0.00000000 -0.00000000 -0.00000000
unknown system                          
           1
    -2.393879    2.393879    1.343650
     2.393879   -2.393879    1.343650
     2.393879    2.393879   -1.343650
   Si
   2
Direct configuration=     5
   0.25000000  0.75000000  0.50000000
  -0.00000000 -0.00000000 -0.00000000
unknown system                          
           1
    -2.398289    2.398289    1.342021
     2.398289   -2.398289    1.342021
     2.398289    2.398289   -1.342021
   Si
   2
Direct configuration=     6
   0.25000000  0.75000000  0.50000000
  -0.00000000 -0.00000000 -0.00000000
unknown system                          
           1
    -2.400213    2.400213    1.341311
     2.400213   -2.400213    1.341311
     2.400213    2.400213   -1.341311
   Si
   2
Direct configuration=     7
   0.25000000  0.75000000  0.50000000
  -0.00000000 -0.00000000 -0.00000000
unknown system                          
           1
    -2.399394    2.399394    1.341613
     2.399394   -2.399394    1.341613
     2.399394    2.399394   -1.341613
   Si
   2
Direct configuration=     8
   0.25000000  0.75000000  0.50000000
  -0.00000000 -0.00000000 -0.00000000
unknown system                          
           1
    -2.398838    2.398838    1.341819
     2.398838   -2.398838    1.341819
     2.398838    2.398838   -1.341819
   Si
   2
Direct configuration=     9
   0.25000000  0.75000000  0.50000000
  -0.00000000 -0.00000000 -0.00000000
unknown system                          
           1
    -2.398619    2.398619    1.341899
     2.398619   -2.398619    1.341899
     2.398619    2.398619   -1.341899
   Si
   2
Direct configuration=    10
   0.25000000  0.75000000  0.50000000
  -0.00000000 -0.00000000 -0.00000000
unknown system                          
           1
    -2.398454    2.398454    1.341960
     2.398454   -2.398454    1.341960
     2.398454    2.398454   -1.341960
   Si
   2
Direct configuration=    11
   0.25000000  0.75000000  0.50000000
  -0.00000000 -0.00000000 -0.00000000
unknown system                          
           1
    -2.398371    2.398371    1.341991
     2.398371   -2.398371    1.341991
     2.398371    2.398371   -1.341991
   Si
   2
Direct configuration=    12
   0.25000000  0.75000000  0.50000000
  -0.00000000 -0.00000000 -0.00000000
unknown system                          
           1
    -2.398330    2.398330    1.342006
     2.398330   -2.398330    1.342006
     2.398330    2.398330   -1.342006
   Si
   2
Direct configuration=    13
   0.25000000  0.75000000  0.50000000
  -0.00000000 -0.00000000 -0.00000000
unknown system                          
           1
    -2.398309    2.398309    1.342014
     2.398309   -2.398309    1.342014
     2.398309    2.398309   -1.342014
   Si
   2
Direct configuration=    14
   0.25000000  0.75000000  0.50000000
  -0.00000000 -0.00000000 -0.00000000
unknown system                          
           1
    -2.398299    2.398299    1.342018
     2.398299   -2.398299    1.342018
     2.398299    2.398299   -1.342018
   Si
   2
Direct configuration=    15
   0.25000000  0.75000000  0.50000000
  -0.00000000 -0.00000000 -0.00000000
