   2   2   0   0
  0.2100111E+02  0.3901777E-09  0.3901777E-09  0.3901777E-09  0.5000000E-15
  1.000000000000000E-004
  CAR 
 unknown system                          
     16.55398941     -8.23528641  301      5.69865861      1.00000000
     -8.235  0.0000E+00  0.0000E+00
     -8.153  0.0000E+00  0.0000E+00
     -8.070  0.0000E+00  0.0000E+00
     -7.987  0.0000E+00  0.0000E+00
     -7.905  0.0000E+00  0.0000E+00
     -7.822  0.0000E+00  0.0000E+00
     -7.740  0.0000E+00  0.0000E+00
     -7.657  0.0000E+00  0.0000E+00
     -7.574  0.0000E+00  0.0000E+00
     -7.492  0.0000E+00  0.0000E+00
     -7.409  0.3499E-18  0.2891E-19
     -7.326  0.3779E-16  0.3151E-17
     -7.244  0.3117E-14  0.2607E-15
     -7.161  0.1834E-12  0.1541E-13
     -7.078  0.7716E-11  0.6530E-12
     -6.996  0.2325E-09  0.1986E-10
     -6.913  0.5027E-08  0.4352E-09
     -6.831  0.7819E-07  0.6896E-08
     -6.748  0.8787E-06  0.7951E-07
     -6.665  0.7181E-05  0.6729E-06
     -6.583  0.4309E-04  0.4233E-05
     -6.500  0.1924E-03  0.2013E-04
     -6.417  0.6518E-03  0.7400E-04
     -6.335  0.1712E-02  0.2155E-03
     -6.252  0.3576E-02  0.5110E-03
     -6.170  0.6105E-02  0.1015E-02
     -6.087  0.8818E-02  0.1744E-02
     -6.004  0.1130E-01  0.2678E-02
     -5.922  0.1357E-01  0.3800E-02
     -5.839  0.1577E-01  0.5102E-02
     -5.756  0.1764E-01  0.6560E-02
     -5.674  0.1880E-01  0.8113E-02
     -5.591  0.1967E-01  0.9739E-02
     -5.508  0.2132E-01  0.1150E-01
     -5.426  0.2386E-01  0.1347E-01
     -5.343  0.2587E-01  0.1561E-01
     -5.261  0.2633E-01  0.1779E-01
     -5.178  0.2620E-01  0.1995E-01
     -5.095  0.2710E-01  0.2219E-01
     -5.013  0.2916E-01  0.2460E-01
     -4.930  0.3148E-01  0.2720E-01
     -4.847  0.3373E-01  0.2999E-01
     -4.765  0.3583E-01  0.3295E-01
     -4.682  0.3717E-01  0.3602E-01
     -4.600  0.3713E-01  0.3909E-01
     -4.517  0.3632E-01  0.4209E-01
     -4.434  0.3692E-01  0.4514E-01
     -4.352  0.4113E-01  0.4854E-01
     -4.269  0.4810E-01  0.5251E-01
     -4.186  0.5399E-01  0.5697E-01
     -4.104  0.5639E-01  0.6163E-01
     -4.021  0.5661E-01  0.6631E-01
     -3.938  0.5670E-01  0.7100E-01
     -3.856  0.5642E-01  0.7566E-01
     -3.773  0.5410E-01  0.8013E-01
     -3.691  0.5001E-01  0.8426E-01
     -3.608  0.4777E-01  0.8821E-01
     -3.525  0.5047E-01  0.9238E-01
     -3.443  0.5572E-01  0.9698E-01
     -3.360  0.5743E-01  0.1017E+00
     -3.277  0.5219E-01  0.1060E+00
     -3.195  0.4237E-01  0.1095E+00
     -3.112  0.3291E-01  0.1123E+00
     -3.030  0.2705E-01  0.1145E+00
     -2.947  0.2573E-01  0.1166E+00
     -2.864  0.2878E-01  0.1190E+00
     -2.782  0.3447E-01  0.1218E+00
     -2.699  0.3883E-01  0.1251E+00
     -2.616  0.3759E-01  0.1282E+00
     -2.534  0.2981E-01  0.1306E+00
     -2.451  0.1882E-01  0.1322E+00
     -2.368  0.9249E-02  0.1329E+00
     -2.286  0.3513E-02  0.1332E+00
     -2.203  0.1304E-02  0.1333E+00
     -2.121  0.1813E-02  0.1335E+00
     -2.038  0.5719E-02  0.1340E+00
     -1.955  0.1461E-01  0.1352E+00
     -1.873  0.2744E-01  0.1374E+00
     -1.790  0.3826E-01  0.1406E+00
     -1.707  0.4086E-01  0.1440E+00
     -1.625  0.3621E-01  0.1470E+00
     -1.542  0.3204E-01  0.1496E+00
     -1.460  0.3544E-01  0.1525E+00
     -1.377  0.4757E-01  0.1565E+00
     -1.294  0.6362E-01  0.1617E+00
     -1.212  0.7660E-01  0.1681E+00
     -1.129  0.8251E-01  0.1749E+00
     -1.046  0.8090E-01  0.1816E+00
     -0.964  0.7219E-01  0.1875E+00
     -0.881  0.5913E-01  0.1924E+00
     -0.799  0.4847E-01  0.1964E+00
     -0.716  0.4471E-01  0.2001E+00
     -0.633  0.4396E-01  0.2038E+00
     -0.551  0.3930E-01  0.2070E+00
     -0.468  0.3071E-01  0.2095E+00
     -0.385  0.2463E-01  0.2116E+00
     -0.303  0.2534E-01  0.2137E+00
     -0.220  0.3124E-01  0.2162E+00
     -0.137  0.3730E-01  0.2193E+00
     -0.055  0.3838E-01  0.2225E+00
      0.028  0.3275E-01  0.2252E+00
      0.110  0.2396E-01  0.2272E+00
      0.193  0.1775E-01  0.2287E+00
      0.276  0.1740E-01  0.2301E+00
      0.358  0.2182E-01  0.2319E+00
      0.441  0.2623E-01  0.2341E+00
      0.524  0.2568E-01  0.2362E+00
      0.606  0.1987E-01  0.2378E+00
      0.689  0.1342E-01  0.2389E+00
      0.771  0.1066E-01  0.2398E+00
      0.854  0.1197E-01  0.2408E+00
      0.937  0.1569E-01  0.2421E+00
      1.019  0.2126E-01  0.2439E+00
      1.102  0.2892E-01  0.2462E+00
      1.185  0.3760E-01  0.2494E+00
      1.267  0.4532E-01  0.2531E+00
      1.350  0.5112E-01  0.2573E+00
      1.433  0.5635E-01  0.2620E+00
      1.515  0.6375E-01  0.2672E+00
      1.598  0.7342E-01  0.2733E+00
      1.680  0.8108E-01  0.2800E+00
      1.763  0.8242E-01  0.2868E+00
      1.846  0.7817E-01  0.2933E+00
      1.928  0.7297E-01  0.2993E+00
      2.011  0.7051E-01  0.3051E+00
      2.094  0.7070E-01  0.3110E+00
      2.176  0.7138E-01  0.3169E+00
      2.259  0.7218E-01  0.3228E+00
      2.341  0.7585E-01  0.3291E+00
      2.424  0.8489E-01  0.3361E+00
      2.507  0.9623E-01  0.3441E+00
      2.589  0.1019E+00  0.3525E+00
      2.672  0.9901E-01  0.3607E+00
      2.755  0.9427E-01  0.3685E+00
      2.837  0.9516E-01  0.3763E+00
      2.920  0.9956E-01  0.3846E+00
      3.003  0.1003E+00  0.3928E+00
      3.085  0.9619E-01  0.4008E+00
      3.168  0.9396E-01  0.4086E+00
      3.250  0.9884E-01  0.4167E+00
      3.333  0.1060E+00  0.4255E+00
      3.416  0.1049E+00  0.4342E+00
      3.498  0.9284E-01  0.4418E+00
      3.581  0.7825E-01  0.4483E+00
      3.664  0.7228E-01  0.4543E+00
      3.746  0.7816E-01  0.4607E+00
      3.829  0.8897E-01  0.4681E+00
      3.911  0.9471E-01  0.4759E+00
      3.994  0.9065E-01  0.4834E+00
      4.077  0.7952E-01  0.4900E+00
      4.159  0.6787E-01  0.4956E+00
      4.242  0.6121E-01  0.5006E+00
      4.325  0.5976E-01  0.5056E+00
      4.407  0.5787E-01  0.5103E+00
      4.490  0.5027E-01  0.5145E+00
      4.573  0.3891E-01  0.5177E+00
      4.655  0.3041E-01  0.5202E+00
      4.738  0.2801E-01  0.5225E+00
      4.820  0.2854E-01  0.5249E+00
      4.903  0.2700E-01  0.5271E+00
      4.986  0.2216E-01  0.5290E+00
      5.068  0.1656E-01  0.5303E+00
      5.151  0.1239E-01  0.5314E+00
      5.234  0.9538E-02  0.5321E+00
      5.316  0.6924E-02  0.5327E+00
      5.399  0.4279E-02  0.5331E+00
      5.481  0.2107E-02  0.5332E+00
      5.564  0.7965E-03  0.5333E+00
      5.647  0.2297E-03  0.5333E+00
      5.729  0.7965E-04  0.5333E+00
      5.812  0.1988E-03  0.5334E+00
      5.895  0.8204E-03  0.5334E+00
      5.977  0.2550E-02  0.5336E+00
      6.060  0.5832E-02  0.5341E+00
      6.142  0.1002E-01  0.5349E+00
      6.225  0.1357E-01  0.5361E+00
      6.308  0.1608E-01  0.5374E+00
      6.390  0.1936E-01  0.5390E+00
      6.473  0.2510E-01  0.5411E+00
      6.556  0.3198E-01  0.5437E+00
      6.638  0.3701E-01  0.5468E+00
      6.721  0.4001E-01  0.5501E+00
      6.804  0.4379E-01  0.5537E+00
      6.886  0.4934E-01  0.5578E+00
      6.969  0.5431E-01  0.5623E+00
      7.051  0.5706E-01  0.5670E+00
      7.134  0.5875E-01  0.5718E+00
      7.217  0.6203E-01  0.5769E+00
      7.299  0.7013E-01  0.5827E+00
      7.382  0.8524E-01  0.5898E+00
      7.465  0.1043E+00  0.5984E+00
      7.547  0.1176E+00  0.6081E+00
      7.630  0.1175E+00  0.6178E+00
      7.712  0.1059E+00  0.6266E+00
      7.795  0.9264E-01  0.6342E+00
      7.878  0.8540E-01  0.6413E+00
      7.960  0.8502E-01  0.6483E+00
      8.043  0.8602E-01  0.6554E+00
      8.126  0.8288E-01  0.6623E+00
      8.208  0.7615E-01  0.6686E+00
      8.291  0.7116E-01  0.6744E+00
      8.374  0.7320E-01  0.6805E+00
      8.456  0.8530E-01  0.6875E+00
      8.539  0.1059E+00  0.6963E+00
      8.621  0.1266E+00  0.7068E+00
      8.704  0.1374E+00  0.7181E+00
      8.787  0.1351E+00  0.7293E+00
      8.869  0.1257E+00  0.7397E+00
      8.952  0.1175E+00  0.7494E+00
      9.035  0.1125E+00  0.7587E+00
      9.117  0.1077E+00  0.7676E+00
      9.200  0.1012E+00  0.7759E+00
      9.282  0.9461E-01  0.7837E+00
      9.365  0.8987E-01  0.7912E+00
      9.448  0.8745E-01  0.7984E+00
      9.530  0.8686E-01  0.8056E+00
      9.613  0.8652E-01  0.8127E+00
      9.696  0.8562E-01  0.8198E+00
      9.778  0.8546E-01  0.8269E+00
      9.861  0.8675E-01  0.8340E+00
      9.944  0.8804E-01  0.8413E+00
     10.026  0.8943E-01  0.8487E+00
     10.109  0.9359E-01  0.8564E+00
     10.191  0.9984E-01  0.8647E+00
     10.274  0.1015E+00  0.8731E+00
     10.357  0.9370E-01  0.8808E+00
     10.439  0.8000E-01  0.8874E+00
     10.522  0.6821E-01  0.8931E+00
     10.605  0.6223E-01  0.8982E+00
     10.687  0.6048E-01  0.9032E+00
     10.770  0.6129E-01  0.9083E+00
     10.852  0.6693E-01  0.9138E+00
     10.935  0.7908E-01  0.9203E+00
     11.018  0.9310E-01  0.9280E+00
     11.100  0.1016E+00  0.9364E+00
     11.183  0.1010E+00  0.9448E+00
     11.266  0.9172E-01  0.9523E+00
     11.348  0.7620E-01  0.9586E+00
     11.431  0.5964E-01  0.9636E+00
     11.514  0.4846E-01  0.9676E+00
     11.596  0.4590E-01  0.9714E+00
     11.679  0.4869E-01  0.9754E+00
     11.761  0.4989E-01  0.9795E+00
     11.844  0.4654E-01  0.9834E+00
     11.927  0.4268E-01  0.9869E+00
     12.009  0.4495E-01  0.9906E+00
     12.092  0.5685E-01  0.9953E+00
     12.175  0.7461E-01  0.1001E+01
     12.257  0.8712E-01  0.1009E+01
     12.340  0.8454E-01  0.1016E+01
     12.422  0.6763E-01  0.1021E+01
     12.505  0.4613E-01  0.1025E+01
     12.588  0.3021E-01  0.1028E+01
     12.670  0.2469E-01  0.1030E+01
     12.753  0.2717E-01  0.1032E+01
     12.836  0.3057E-01  0.1034E+01
     12.918  0.3041E-01  0.1037E+01
     13.001  0.2872E-01  0.1039E+01
     13.083  0.2916E-01  0.1042E+01
     13.166  0.3175E-01  0.1044E+01
     13.249  0.3480E-01  0.1047E+01
     13.331  0.3773E-01  0.1050E+01
     13.414  0.3909E-01  0.1053E+01
     13.497  0.3547E-01  0.1056E+01
     13.579  0.2585E-01  0.1059E+01
     13.662  0.1435E-01  0.1060E+01
     13.745  0.5936E-02  0.1060E+01
     13.827  0.1975E-02  0.1060E+01
     13.910  0.1208E-02  0.1060E+01
     13.992  0.2491E-02  0.1061E+01
     14.075  0.5194E-02  0.1061E+01
     14.158  0.8035E-02  0.1062E+01
     14.240  0.9302E-02  0.1063E+01
     14.323  0.8853E-02  0.1063E+01
     14.406  0.8410E-02  0.1064E+01
     14.488  0.8893E-02  0.1065E+01
     14.571  0.8985E-02  0.1065E+01
     14.653  0.7295E-02  0.1066E+01
     14.736  0.4425E-02  0.1066E+01
     14.819  0.1962E-02  0.1067E+01
     14.901  0.6316E-03  0.1067E+01
     14.984  0.1473E-03  0.1067E+01
     15.067  0.2486E-04  0.1067E+01
     15.149  0.3029E-05  0.1067E+01
     15.232  0.2662E-06  0.1067E+01
     15.315  0.1684E-07  0.1067E+01
     15.397  0.7666E-09  0.1067E+01
     15.480  0.2505E-10  0.1067E+01
     15.562  0.5874E-12  0.1067E+01
     15.645  0.9871E-14  0.1067E+01
     15.728  0.1176E-15  0.1067E+01
     15.810  0.0000E+00  0.1067E+01
     15.893  0.0000E+00  0.1067E+01
     15.976  0.0000E+00  0.1067E+01
     16.058  0.0000E+00  0.1067E+01
     16.141  0.0000E+00  0.1067E+01
     16.223  0.0000E+00  0.1067E+01
     16.306  0.0000E+00  0.1067E+01
     16.389  0.0000E+00  0.1067E+01
     16.471  0.0000E+00  0.1067E+01
     16.554  0.0000E+00  0.1067E+01
