<?xml version="1.0" encoding="ISO-8859-1"?>
<modeling>
 <generator>
  <i name="program" type="string">vasp </i>
  <i name="version" type="string">5.4.4.18Apr17-6-g9f103f2a35  </i>
  <i name="subversion" type="string">(build Dec 09 2018 21:25:21) complex            parallel </i>
  <i name="platform" type="string">IFC18.0.1.163_CrayMPICH7.7.0_MKL18.0.1.163 </i>
  <i name="date" type="string">2019 03 23 </i>
  <i name="time" type="string">21:17:19 </i>
 </generator>
 <incar>
  <i type="string" name="PREC">normal</i>
  <i type="int" name="IBRION">     2</i>
  <i name="EDIFF">      0.00040000</i>
  <i name="EDIFFG">     -0.01000000</i>
  <i type="int" name="NSW">    15</i>
  <i type="int" name="ISIF">     2</i>
  <i name="ENCUT">    350.00000000</i>
  <i type="int" name="NBANDS">     8</i>
  <i type="logical" name="LREAL"> F  </i>
  <i type="int" name="ISMEAR">     0</i>
  <i name="SIGMA">      0.20000000</i>
  <v type="int" name="KPOINT_BSE">    -1     0     0     0</v>
 </incar>
 <structure name="primitive_cell" >
  <crystal>
   <varray name="basis" >
    <v>       0.00000000       2.75897300       2.75897300 </v>
    <v>       2.75897300       0.00000000       2.75897300 </v>
    <v>       2.75897300       2.75897300       0.00000000 </v>
   </varray>
   <i name="volume">     42.00222981 </i>
   <varray name="rec_basis" >
    <v>      -0.18122686       0.18122686       0.18122686 </v>
    <v>       0.18122686      -0.18122686       0.18122686 </v>
    <v>       0.18122686       0.18122686      -0.18122686 </v>
   </varray>
  </crystal>
  <varray name="positions" >
   <v>      -0.50000000      -0.50000000      -0.50000000 </v>
   <v>      -0.25000000      -0.25000000      -0.25000000 </v>
  </varray>
 </structure>
 <varray name="primitive_index" >
  <v type="int" >        1 </v>
  <v type="int" >        2 </v>
 </varray>
 <kpoints>
  <generation param="Monkhorst-Pack">
   <v type="int" name="divisions">       8        8        8 </v>
   <v name="usershift">      0.00000000       0.00000000       0.00000000 </v>
   <v name="genvec1">      0.12500000      -0.00000000       0.00000000 </v>
   <v name="genvec2">     -0.00000000       0.12500000      -0.00000000 </v>
   <v name="genvec3">      0.00000000       0.00000000       0.12500000 </v>
   <v name="shift">      0.50000000       0.50000000       0.50000000 </v>
  </generation>
  <varray name="kpointlist" >
   <v>       0.06250000       0.06250000       0.06250000 </v>
   <v>       0.18750000       0.06250000       0.06250000 </v>
   <v>       0.31250000       0.06250000       0.06250000 </v>
   <v>       0.43750000       0.06250000       0.06250000 </v>
   <v>      -0.43750000       0.06250000       0.06250000 </v>
   <v>      -0.31250000       0.06250000       0.06250000 </v>
   <v>      -0.18750000       0.06250000       0.06250000 </v>
   <v>      -0.06250000       0.06250000       0.06250000 </v>
   <v>       0.18750000       0.18750000       0.06250000 </v>
   <v>       0.31250000       0.18750000       0.06250000 </v>
   <v>       0.43750000       0.18750000       0.06250000 </v>
   <v>      -0.43750000       0.18750000       0.06250000 </v>
   <v>      -0.31250000       0.18750000       0.06250000 </v>
   <v>      -0.18750000       0.18750000       0.06250000 </v>
   <v>      -0.06250000       0.18750000       0.06250000 </v>
   <v>       0.31250000       0.31250000       0.06250000 </v>
   <v>       0.43750000       0.31250000       0.06250000 </v>
   <v>      -0.43750000       0.31250000       0.06250000 </v>
   <v>      -0.31250000       0.31250000       0.06250000 </v>
   <v>      -0.18750000       0.31250000       0.06250000 </v>
   <v>      -0.06250000       0.31250000       0.06250000 </v>
   <v>       0.43750000       0.43750000       0.06250000 </v>
   <v>      -0.43750000       0.43750000       0.06250000 </v>
   <v>      -0.31250000       0.43750000       0.06250000 </v>
   <v>      -0.18750000       0.43750000       0.06250000 </v>
   <v>      -0.06250000       0.43750000       0.06250000 </v>
   <v>      -0.43750000      -0.43750000       0.06250000 </v>
   <v>      -0.31250000      -0.43750000       0.06250000 </v>
   <v>      -0.18750000      -0.43750000       0.06250000 </v>
   <v>      -0.31250000      -0.31250000       0.06250000 </v>
   <v>      -0.18750000      -0.31250000       0.06250000 </v>
   <v>      -0.18750000      -0.18750000       0.06250000 </v>
   <v>       0.18750000       0.18750000       0.18750000 </v>
   <v>       0.31250000       0.18750000       0.18750000 </v>
   <v>       0.43750000       0.18750000       0.18750000 </v>
   <v>      -0.43750000       0.18750000       0.18750000 </v>
   <v>      -0.31250000       0.18750000       0.18750000 </v>
   <v>      -0.18750000       0.18750000       0.18750000 </v>
   <v>       0.31250000       0.31250000       0.18750000 </v>
   <v>       0.43750000       0.31250000       0.18750000 </v>
   <v>      -0.43750000       0.31250000       0.18750000 </v>
   <v>      -0.31250000       0.31250000       0.18750000 </v>
   <v>      -0.18750000       0.31250000       0.18750000 </v>
   <v>       0.43750000       0.43750000       0.18750000 </v>
   <v>      -0.43750000       0.43750000       0.18750000 </v>
   <v>      -0.31250000       0.43750000       0.18750000 </v>
   <v>      -0.18750000       0.43750000       0.18750000 </v>
   <v>      -0.43750000      -0.43750000       0.18750000 </v>
   <v>      -0.31250000      -0.43750000       0.18750000 </v>
   <v>      -0.31250000      -0.31250000       0.18750000 </v>
   <v>       0.31250000       0.31250000       0.31250000 </v>
   <v>       0.43750000       0.31250000       0.31250000 </v>
   <v>      -0.43750000       0.31250000       0.31250000 </v>
   <v>      -0.31250000       0.31250000       0.31250000 </v>
   <v>       0.43750000       0.43750000       0.31250000 </v>
   <v>      -0.43750000       0.43750000       0.31250000 </v>
   <v>      -0.31250000       0.43750000       0.31250000 </v>
   <v>      -0.43750000      -0.43750000       0.31250000 </v>
   <v>       0.43750000       0.43750000       0.43750000 </v>
   <v>      -0.43750000       0.43750000       0.43750000 </v>
  </varray>
  <varray name="weights" >
   <v>       0.00390625 </v>
   <v>       0.01171875 </v>
   <v>       0.01171875 </v>
   <v>       0.01171875 </v>
   <v>       0.01171875 </v>
   <v>       0.01171875 </v>
   <v>       0.01171875 </v>
   <v>       0.01171875 </v>
   <v>       0.01171875 </v>
   <v>       0.02343750 </v>
   <v>       0.02343750 </v>
   <v>       0.02343750 </v>
   <v>       0.02343750 </v>
   <v>       0.02343750 </v>
   <v>       0.02343750 </v>
   <v>       0.01171875 </v>
   <v>       0.02343750 </v>
   <v>       0.02343750 </v>
   <v>       0.02343750 </v>
   <v>       0.02343750 </v>
   <v>       0.02343750 </v>
   <v>       0.01171875 </v>
   <v>       0.02343750 </v>
   <v>       0.02343750 </v>
   <v>       0.02343750 </v>
   <v>       0.02343750 </v>
   <v>       0.01171875 </v>
   <v>       0.02343750 </v>
   <v>       0.02343750 </v>
   <v>       0.01171875 </v>
   <v>       0.02343750 </v>
   <v>       0.01171875 </v>
   <v>       0.00390625 </v>
   <v>       0.01171875 </v>
   <v>       0.01171875 </v>
   <v>       0.01171875 </v>
   <v>       0.01171875 </v>
   <v>       0.01171875 </v>
   <v>       0.01171875 </v>
   <v>       0.02343750 </v>
   <v>       0.02343750 </v>
   <v>       0.02343750 </v>
   <v>       0.02343750 </v>
   <v>       0.01171875 </v>
   <v>       0.02343750 </v>
   <v>       0.02343750 </v>
   <v>       0.02343750 </v>
   <v>       0.01171875 </v>
   <v>       0.02343750 </v>
   <v>       0.01171875 </v>
   <v>       0.00390625 </v>
   <v>       0.01171875 </v>
   <v>       0.01171875 </v>
   <v>       0.01171875 </v>
   <v>       0.01171875 </v>
   <v>       0.02343750 </v>
   <v>       0.02343750 </v>
   <v>       0.01171875 </v>
   <v>       0.00390625 </v>
   <v>       0.01171875 </v>
  </varray>
 </kpoints>
 <parameters>
  <separator name="general" >
   <i type="string" name="SYSTEM">unknown system</i>
   <i type="logical" name="LCOMPAT"> F  </i>
  </separator>
  <separator name="electronic" >
   <i type="string" name="PREC">normal</i>
   <i name="ENMAX">    350.00000000</i>
   <i name="ENAUG">    322.06900000</i>
   <i name="EDIFF">      0.00040000</i>
   <i type="int" name="IALGO">    38</i>
   <i type="int" name="IWAVPR">    11</i>
   <i type="int" name="NBANDS">     8</i>
   <i name="NELECT">      8.00000000</i>
   <i type="int" name="TURBO">     0</i>
   <i type="int" name="IRESTART">     0</i>
   <i type="int" name="NREBOOT">     0</i>
   <i type="int" name="NMIN">     0</i>
   <i name="EREF">      0.00000000</i>
   <separator name="electronic smearing" >
    <i type="int" name="ISMEAR">     0</i>
    <i name="SIGMA">      0.20000000</i>
    <i name="KSPACING">      0.50000000</i>
    <i type="logical" name="KGAMMA"> T  </i>
   </separator>
   <separator name="electronic projectors" >
    <i type="logical" name="LREAL"> F  </i>
    <v name="ROPT">      0.00000000</v>
    <i type="int" name="LMAXPAW">  -100</i>
    <i type="int" name="LMAXMIX">     2</i>
    <i type="logical" name="NLSPLINE"> F  </i>
   </separator>
   <separator name="electronic startup" >
    <i type="int" name="ISTART">     0</i>
    <i type="int" name="ICHARG">     2</i>
    <i type="int" name="INIWAV">     1</i>
   </separator>
   <separator name="electronic spin" >
    <i type="int" name="ISPIN">     1</i>
    <i type="logical" name="LNONCOLLINEAR"> F  </i>
    <v name="MAGMOM">      1.00000000      1.00000000</v>
    <i name="NUPDOWN">     -1.00000000</i>
    <i type="logical" name="LSORBIT"> F  </i>
    <v name="SAXIS">      0.00000000      0.00000000      1.00000000</v>
    <i type="logical" name="LSPIRAL"> F  </i>
    <v name="QSPIRAL">      0.00000000      0.00000000      0.00000000</v>
    <i type="logical" name="LZEROZ"> F  </i>
   </separator>
   <separator name="electronic exchange-correlation" >
    <i type="logical" name="LASPH"> F  </i>
    <i type="logical" name="LMETAGGA"> F  </i>
   </separator>
   <separator name="electronic convergence" >
    <i type="int" name="NELM">    60</i>
    <i type="int" name="NELMDL">    -5</i>
    <i type="int" name="NELMIN">     2</i>
    <i name="ENINI">    350.00000000</i>
    <separator name="electronic convergence detail" >
     <i type="logical" name="LDIAG"> T  </i>
     <i type="logical" name="LSUBROT"> F  </i>
     <i name="WEIMIN">      0.00100000</i>
     <i name="EBREAK">      0.00001250</i>
     <i name="DEPER">      0.30000000</i>
     <i type="int" name="NRMM">     4</i>
     <i name="TIME">      0.40000000</i>
    </separator>
   </separator>
   <separator name="electronic mixer" >
    <i name="AMIX">      0.40000000</i>
    <i name="BMIX">      1.00000000</i>
    <i name="AMIN">      0.10000000</i>
    <i name="AMIX_MAG">      1.60000000</i>
    <i name="BMIX_MAG">      1.00000000</i>
    <separator name="electronic mixer details" >
     <i type="int" name="IMIX">     4</i>
     <i type="logical" name="MIXFIRST"> F  </i>
     <i type="int" name="MAXMIX">   -45</i>
     <i name="WC">    100.00000000</i>
     <i type="int" name="INIMIX">     1</i>
     <i type="int" name="MIXPRE">     1</i>
     <i type="int" name="MREMOVE">     5</i>
    </separator>
   </separator>
   <separator name="electronic dipolcorrection" >
    <i type="logical" name="LDIPOL"> F  </i>
    <i type="logical" name="LMONO"> F  </i>
    <i type="int" name="IDIPOL">     0</i>
    <i name="EPSILON">      1.00000000</i>
    <v name="DIPOL">   -100.00000000   -100.00000000   -100.00000000</v>
    <i name="EFIELD">      0.00000000</i>
   </separator>
  </separator>
  <separator name="grids" >
   <i type="int" name="NGX">    18</i>
   <i type="int" name="NGY">    18</i>
   <i type="int" name="NGZ">    18</i>
   <i type="int" name="NGXF">    36</i>
   <i type="int" name="NGYF">    36</i>
   <i type="int" name="NGZF">    36</i>
   <i type="logical" name="ADDGRID"> F  </i>
  </separator>
  <separator name="ionic" >
   <i type="int" name="NSW">    15</i>
   <i type="int" name="IBRION">     2</i>
   <i type="int" name="MDALGO">     0</i>
   <i type="int" name="ISIF">     2</i>
   <i name="PSTRESS">      0.00000000</i>
   <i name="EDIFFG">     -0.01000000</i>
   <i type="int" name="NFREE">     1</i>
   <i name="POTIM">      0.50000000</i>
   <i name="SMASS">     -3.00000000</i>
   <i name="SCALEE">      1.00000000</i>
  </separator>
  <separator name="ionic md" >
   <i name="TEBEG">      0.00010000</i>
   <i name="TEEND">      0.00010000</i>
   <i type="int" name="NBLOCK">     1</i>
   <i type="int" name="KBLOCK">    15</i>
   <i type="int" name="NPACO">   256</i>
   <i name="APACO">     16.00000000</i>
  </separator>
  <separator name="symmetry" >
   <i type="int" name="ISYM">     2</i>
   <i name="SYMPREC">      0.00001000</i>
  </separator>
  <separator name="dos" >
   <i type="int" name="LORBIT">     0</i>
   <v name="RWIGS">     -1.00000000</v>
   <i type="int" name="NEDOS">   301</i>
   <i name="EMIN">     10.00000000</i>
   <i name="EMAX">    -10.00000000</i>
   <i name="EFERMI">      0.00000000</i>
  </separator>
  <separator name="writing" >
   <i type="int" name="NWRITE">     2</i>
   <i type="logical" name="LWAVE"> T  </i>
   <i type="logical" name="LDOWNSAMPLE"> F  </i>
   <i type="logical" name="LCHARG"> T  </i>
   <i type="logical" name="LPARD"> F  </i>
   <i type="logical" name="LVTOT"> F  </i>
   <i type="logical" name="LVHAR"> F  </i>
   <i type="logical" name="LELF"> F  </i>
   <i type="logical" name="LOPTICS"> F  </i>
   <v name="STM">      0.00000000      0.00000000      0.00000000      0.00000000      0.00000000      0.00000000      0.00000000</v>
  </separator>
  <separator name="performance" >
   <i type="int" name="NPAR">     8</i>
   <i type="int" name="NSIM">     4</i>
   <i type="int" name="NBLK">    -1</i>
   <i type="logical" name="LPLANE"> T  </i>
   <i type="logical" name="LSCALAPACK"> T  </i>
   <i type="logical" name="LSCAAWARE"> F  </i>
   <i type="logical" name="LSCALU"> F  </i>
   <i type="logical" name="LASYNC"> F  </i>
   <i type="logical" name="LORBITALREAL"> F  </i>
  </separator>
  <separator name="miscellaneous" >
   <i type="int" name="IDIOT">     3</i>
   <i type="int" name="ISPECIAL">     0</i>
   <i type="logical" name="LMUSIC"> F  </i>
   <v name="POMASS">     28.08500000</v>
   <v name="DARWINR">      0.00000000</v>
   <v name="DARWINV">      1.00000000</v>
   <i type="logical" name="LCORR"> T  </i>
  </separator>
  <i type="logical" name="GGA_COMPAT"> T  </i>
  <i type="logical" name="LBERRY"> F  </i>
  <i type="int" name="ICORELEVEL">     0</i>
  <i type="logical" name="LDAU"> F  </i>
  <i type="int" name="I_CONSTRAINED_M">     0</i>
  <separator name="electronic exchange-correlation" >
   <i type="string" name="GGA">--</i>
   <i type="int" name="VOSKOWN">     0</i>
   <i type="logical" name="LHFCALC"> F  </i>
   <i type="string" name="PRECFOCK"></i>
   <i type="logical" name="LSYMGRAD"> F  </i>
   <i type="logical" name="LHFONE"> F  </i>
   <i type="logical" name="LRHFCALC"> F  </i>
   <i type="logical" name="LTHOMAS"> F  </i>
   <i type="logical" name="LMODELHF"> F  </i>
   <i name="ENCUT4O">     -1.00000000</i>
   <i type="int" name="EXXOEP">     0</i>
   <i type="int" name="FOURORBIT">     0</i>
   <i name="AEXX">      0.00000000</i>
   <i name="HFALPHA">      0.00000000</i>
   <i name="MCALPHA">      0.00000000</i>
   <i name="ALDAX">      1.00000000</i>
   <i name="AGGAX">      1.00000000</i>
   <i name="ALDAC">      1.00000000</i>
   <i name="AGGAC">      1.00000000</i>
   <i type="int" name="NKREDX">     1</i>
   <i type="int" name="NKREDY">     1</i>
   <i type="int" name="NKREDZ">     1</i>
   <i type="logical" name="SHIFTRED"> F  </i>
   <i type="logical" name="ODDONLY"> F  </i>
   <i type="logical" name="EVENONLY"> F  </i>
   <i type="int" name="LMAXFOCK">     0</i>
   <i type="int" name="NMAXFOCKAE">     0</i>
   <i type="logical" name="LFOCKAEDFT"> F  </i>
   <i name="HFSCREEN">      0.00000000</i>
   <i name="HFSCREENC">      0.00000000</i>
   <i type="int" name="NBANDSGWLOW">     0</i>
  </separator>
  <separator name="vdW DFT" >
   <i type="logical" name="LUSE_VDW"> F  </i>
   <i name="Zab_VDW">     -0.84910000</i>
   <i name="PARAM1">      0.12340000</i>
   <i name="PARAM2">      1.00000000</i>
   <i name="PARAM3">      0.00000000</i>
  </separator>
  <separator name="model GW" >
   <i type="int" name="MODEL_GW">     0</i>
   <i name="MODEL_EPS0">     12.60066894</i>
   <i name="MODEL_ALPHA">      1.00000000</i>
  </separator>
  <separator name="linear response parameters" >
   <i type="logical" name="LEPSILON"> F  </i>
   <i type="logical" name="LRPA"> F  </i>
   <i type="logical" name="LNABLA"> F  </i>
   <i type="logical" name="LVEL"> F  </i>
   <i type="int" name="KINTER">     0</i>
   <i name="CSHIFT">      0.10000000</i>
   <i name="OMEGAMAX">     -1.00000000</i>
   <i name="DEG_THRESHOLD">      0.00200000</i>
   <i name="RTIME">     -0.10000000</i>
   <i name="WPLASMAI">      0.00000000</i>
   <v name="DFIELD">      0.00000000      0.00000000      0.00000000</v>
   <v name="WPLASMA">      0.00000000      0.00000000      0.00000000      0.00000000      0.00000000      0.00000000      0.00000000      0.00000000      0.00000000</v>
  </separator>
  <separator name="orbital magnetization" >
   <i type="logical" name="NUCIND"> F  </i>
   <v name="MAGPOS">      0.00000000      0.00000000      0.00000000</v>
   <i type="logical" name="LNICSALL"> T  </i>
   <i type="logical" name="ORBITALMAG"> F  </i>
   <i type="logical" name="LMAGBLOCH"> F  </i>
   <i type="logical" name="LCHIMAG"> F  </i>
   <i type="logical" name="LGAUGE"> T  </i>
   <i type="int" name="MAGATOM">     0</i>
   <v name="MAGDIPOL">      0.00000000      0.00000000      0.00000000</v>
   <v name="AVECCONST">      0.00000000      0.00000000      0.00000000</v>
  </separator>
  <separator name="response functions" >
   <i type="logical" name="LADDER"> F  </i>
   <i type="logical" name="LRPAFORCE"> F  </i>
   <i type="logical" name="LFXC"> F  </i>
   <i type="logical" name="LHARTREE"> T  </i>
   <i type="int" name="IBSE">     0</i>
   <v type="int" name="KPOINT">    -1     0     0     0</v>
   <i type="logical" name="LTCTE"> F  </i>
   <i type="logical" name="LTETE"> F  </i>
   <i type="logical" name="LTRIPLET"> F  </i>
   <i type="logical" name="LFXCEPS"> F  </i>
   <i type="logical" name="LFXHEG"> F  </i>
   <i type="int" name="NATURALO">     2</i>
   <i type="logical" name="L2ORDER"> F  </i>
   <i type="logical" name="LMP2LT"> F  </i>
   <i type="logical" name="LUSEW"> F  </i>
   <i name="ENCUTGW">     -2.00000000</i>
   <i name="ENCUTGWSOFT">     -2.00000000</i>
   <i name="ENCUTLF">     -1.00000000</i>
   <i type="int" name="LMAXMP2">    -1</i>
   <i name="SCISSOR">      0.00000000</i>
   <i type="int" name="NOMEGA">     0</i>
   <i type="int" name="NOMEGAR">     0</i>
   <i type="int" name="NBANDSGW">    -1</i>
   <i type="int" name="NBANDSO">    -1</i>
   <i type="int" name="NBANDSV">    -1</i>
   <i type="int" name="NELM">     1</i>
   <i type="int" name="NELMHF">     1</i>
   <i type="int" name="DIM">     3</i>
   <i type="int" name="ANTIRES">     0</i>
   <i name="OMEGAMAX">    -30.00000000</i>
   <i name="OMEGAMIN">    -30.00000000</i>
   <i name="OMEGATL">   -200.00000000</i>
   <i type="int" name="OMEGAGRID">   140</i>
   <i name="CSHIFT">     -0.10000000</i>
   <i type="logical" name="SELFENERGY"> F  </i>
   <i type="logical" name="LSPECTRAL"> F  </i>
   <i type="logical" name="LSPECTRALGW"> F  </i>
   <i type="logical" name="LSINGLES"> F  </i>
   <i type="logical" name="LFERMIGW"> F  </i>
   <i type="logical" name="ODDONLYGW"> F  </i>
   <i type="logical" name="EVENONLYGW"> F  </i>
   <i type="int" name="NKREDLFX">     1</i>
   <i type="int" name="NKREDLFY">     1</i>
   <i type="int" name="NKREDLFZ">     1</i>
   <i type="int" name="MAXMEM">  2800</i>
   <i type="int" name="TELESCOPE">     0</i>
   <i type="int" name="TAUPAR">     1</i>
   <i type="int" name="OMEGAPAR">    -1</i>
   <i name="LAMBDA">      1.00000000</i>
  </separator>
  <separator name="External order field" >
   <i name="OFIELD_KAPPA">      0.00000000</i>
   <v name="OFIELD_K">      0.00000000      0.00000000      0.00000000</v>
   <i name="OFIELD_Q6_NEAR">      0.00000000</i>
   <i name="OFIELD_Q6_FAR">      0.00000000</i>
   <i name="OFIELD_A">      0.00000000</i>
  </separator>
 </parameters>
 <atominfo>
  <atoms>       2 </atoms>
  <types>       1 </types>
  <array name="atoms" >
   <dimension dim="1">ion</dimension>
   <field type="string">element</field>
   <field type="int">atomtype</field>
   <set>
    <rc><c>Si</c><c>   1</c></rc>
    <rc><c>Si</c><c>   1</c></rc>
   </set>
  </array>
  <array name="atomtypes" >
   <dimension dim="1">type</dimension>
   <field type="int">atomspertype</field>
   <field type="string">element</field>
   <field>mass</field>
   <field>valence</field>
   <field type="string">pseudopotential</field>
   <set>
    <rc><c>   2</c><c>Si</c><c>     28.08500000</c><c>      4.00000000</c><c> PAW_PBE Si 05Jan2001                   </c></rc>
   </set>
  </array>
 </atominfo>
 <structure name="initialpos" >
  <crystal>
   <varray name="basis" >
    <v>       0.00000000       2.75897300       2.75897300 </v>
    <v>       2.75897300       0.00000000       2.75897300 </v>
    <v>       2.75897300       2.75897300       0.00000000 </v>
   </varray>
   <i name="volume">     42.00222981 </i>
   <varray name="rec_basis" >
    <v>      -0.18122686       0.18122686       0.18122686 </v>
    <v>       0.18122686      -0.18122686       0.18122686 </v>
    <v>       0.18122686       0.18122686      -0.18122686 </v>
   </varray>
  </crystal>
  <varray name="positions" >
   <v>       0.50000000       0.50000000       0.50000000 </v>
   <v>       0.75000000       0.75000000       0.75000000 </v>
  </varray>
 </structure>
 <calculation>
  <scstep>
   <time name="dav">    0.80    0.81</time>
   <time name="total">    0.85    0.87</time>
   <energy>
    <i name="alphaZ">      3.20583727 </i>
    <i name="ewald">   -224.92063901 </i>
    <i name="hartreedc">    -11.73634881 </i>
    <i name="XCdc">    -18.78862140 </i>
    <i name="pawpsdc">     65.95520812 </i>
    <i name="pawaedc">    -30.76852678 </i>
    <i name="eentropy">     -0.01764194 </i>
    <i name="bandstr">     15.39810327 </i>
    <i name="atom">    206.13125414 </i>
    <i name="e_fr_energy">      4.45862486 </i>
    <i name="e_wo_entrp">      4.47626679 </i>
    <i name="e_0_energy">      4.46744582 </i>
   </energy>
  </scstep>
  <scstep>
   <time name="dav">    1.20    1.21</time>
   <time name="total">    1.21    1.21</time>
   <energy>
    <i name="e_fr_energy">    -10.79337899 </i>
    <i name="e_wo_entrp">    -10.79337780 </i>
    <i name="e_0_energy">    -10.79337839 </i>
   </energy>
  </scstep>
  <scstep>
   <time name="dav">    0.99    0.99</time>
   <time name="total">    0.99    1.00</time>
   <energy>
    <i name="e_fr_energy">    -10.99240433 </i>
    <i name="e_wo_entrp">    -10.99240369 </i>
    <i name="e_0_energy">    -10.99240401 </i>
   </energy>
  </scstep>
  <scstep>
   <time name="dav">    1.30    1.30</time>
   <time name="total">    1.30    1.31</time>
   <energy>
    <i name="e_fr_energy">    -10.99323211 </i>
    <i name="e_wo_entrp">    -10.99323147 </i>
    <i name="e_0_energy">    -10.99323179 </i>
   </energy>
  </scstep>
  <scstep>
   <time name="dav">    0.98    0.98</time>
   <time name="total">    1.04    1.05</time>
   <energy>
    <i name="e_fr_energy">    -10.99323278 </i>
    <i name="e_wo_entrp">    -10.99323214 </i>
    <i name="e_0_energy">    -10.99323246 </i>
   </energy>
  </scstep>
  <scstep>
   <time name="dav">    0.93    0.93</time>
   <time name="total">    1.04    1.04</time>
   <energy>
    <i name="e_fr_energy">    -10.88810370 </i>
    <i name="e_wo_entrp">    -10.88810002 </i>
    <i name="e_0_energy">    -10.88810186 </i>
   </energy>
  </scstep>
  <scstep>
   <time name="dav">    0.97    0.97</time>
   <time name="total">    1.07    1.08</time>
   <energy>
    <i name="e_fr_energy">    -10.83838483 </i>
    <i name="e_wo_entrp">    -10.83835751 </i>
    <i name="e_0_energy">    -10.83837117 </i>
   </energy>
  </scstep>
  <scstep>
   <time name="dav">    0.91    0.91</time>
   <time name="total">    1.01    1.01</time>
   <energy>
    <i name="e_fr_energy">    -10.83971393 </i>
    <i name="e_wo_entrp">    -10.83969277 </i>
    <i name="e_0_energy">    -10.83970335 </i>
   </energy>
  </scstep>
  <scstep>
   <time name="dav">    0.75    0.75</time>
   <time name="total">    0.79    0.80</time>
   <energy>
    <i name="alphaZ">      3.20583727 </i>
    <i name="ewald">   -224.92063901 </i>
    <i name="hartreedc">    -15.48359880 </i>
    <i name="XCdc">    -18.18021757 </i>
    <i name="pawpsdc">     72.86136522 </i>
    <i name="pawaedc">    -37.85786346 </i>
    <i name="eentropy">     -0.00002091 </i>
    <i name="bandstr">      3.40406463 </i>
    <i name="atom">    206.13125414 </i>
    <i name="e_fr_energy">    -10.83981849 </i>
    <i name="e_wo_entrp">    -10.83979758 </i>
    <i name="e_0_energy">    -10.83980804 </i>
   </energy>
  </scstep>
  <structure>
   <crystal>
    <varray name="basis" >
     <v>       0.00000000       2.75897300       2.75897300 </v>
     <v>       2.75897300       0.00000000       2.75897300 </v>
     <v>       2.75897300       2.75897300       0.00000000 </v>
    </varray>
    <i name="volume">     42.00222981 </i>
    <varray name="rec_basis" >
     <v>      -0.18122686       0.18122686       0.18122686 </v>
     <v>       0.18122686      -0.18122686       0.18122686 </v>
     <v>       0.18122686       0.18122686      -0.18122686 </v>
    </varray>
   </crystal>
   <varray name="positions" >
    <v>       0.50000000       0.50000000       0.50000000 </v>
    <v>       0.75000000       0.75000000       0.75000000 </v>
   </varray>
  </structure>
  <varray name="forces" >
   <v>       0.00000000       0.00000000       0.00000000 </v>
   <v>      -0.00000000      -0.00000000      -0.00000000 </v>
  </varray>
  <varray name="stress" >
   <v>     -22.75640376       0.00000000      -0.00000000 </v>
   <v>       0.00000000     -22.75640376       0.00000000 </v>
   <v>      -0.00000000       0.00000000     -22.75640376 </v>
  </varray>
  <energy>
   <i name="e_fr_energy">    -10.83981849 </i>
   <i name="e_wo_entrp">    -10.83980804 </i>
   <i name="e_0_energy">     -0.00002091 </i>
  </energy>
  <time name="totalsc">   10.96   11.56</time>
  <eigenvalues>
   <array>
    <dimension dim="1">band</dimension>
    <dimension dim="2">kpoint</dimension>
    <dimension dim="3">spin</dimension>
    <field>eigene</field>
    <field>occ</field>
    <set>
     <set comment="spin 1">
      <set comment="kpoint 1">
       <r>   -6.2353    1.0000 </r>
       <r>    4.8166    1.0000 </r>
       <r>    5.2718    0.9987 </r>
       <r>    5.2718    0.9987 </r>
       <r>    7.8926    0.0000 </r>
       <r>    8.0160    0.0000 </r>
       <r>    8.0160    0.0000 </r>
       <r>    8.6385    0.0000 </r>
      </set>
      <set comment="kpoint 2">
       <r>   -5.9752    1.0000 </r>
       <r>    3.3263    1.0000 </r>
       <r>    4.4931    1.0000 </r>
       <r>    5.1550    0.9999 </r>
       <r>    7.9123    0.0000 </r>
       <r>    8.2554    0.0000 </r>
       <r>    8.5221    0.0000 </r>
       <r>   10.1564    0.0000 </r>
      </set>
      <set comment="kpoint 3">
       <r>   -5.3483    1.0000 </r>
       <r>    1.1583    1.0000 </r>
       <r>    4.0138    1.0000 </r>
       <r>    4.7059    1.0000 </r>
       <r>    7.4597    0.0000 </r>
       <r>    8.7466    0.0000 </r>
       <r>    9.0235    0.0000 </r>
       <r>   11.7587    0.0000 </r>
      </set>
      <set comment="kpoint 4">
       <r>   -4.4781    1.0000 </r>
       <r>   -0.6712    1.0000 </r>
       <r>    3.7989    1.0000 </r>
       <r>    4.3107    1.0000 </r>
       <r>    7.1467    0.0000 </r>
       <r>    8.8272    0.0000 </r>
       <r>    8.8409    0.0000 </r>
       <r>   13.0526    0.0000 </r>
      </set>
      <set comment="kpoint 5">
       <r>   -4.0504    1.0000 </r>
       <r>   -1.3446    1.0000 </r>
       <r>    3.8440    1.0000 </r>
       <r>    4.1000    1.0000 </r>
       <r>    7.0682    0.0000 </r>
       <r>    8.6433    0.0000 </r>
       <r>    8.9060    0.0000 </r>
       <r>   13.1505    0.0000 </r>
      </set>
      <set comment="kpoint 6">
       <r>   -4.7752    1.0000 </r>
       <r>   -0.1315    1.0000 </r>
       <r>    4.1220    1.0000 </r>
       <r>    4.1227    1.0000 </r>
       <r>    7.2362    0.0000 </r>
       <r>    8.6389    0.0000 </r>
       <r>    9.1471    0.0000 </r>
       <r>   12.1901    0.0000 </r>
      </set>
      <set comment="kpoint 7">
       <r>   -5.5939    1.0000 </r>
       <r>    1.8686    1.0000 </r>
       <r>    4.3934    1.0000 </r>
       <r>    4.5748    1.0000 </r>
       <r>    7.6000    0.0000 </r>
       <r>    8.4708    0.0000 </r>
       <r>    9.1805    0.0000 </r>
       <r>   10.9863    0.0000 </r>
      </set>
      <set comment="kpoint 8">
       <r>   -6.1045    1.0000 </r>
       <r>    4.0649    1.0000 </r>
       <r>    4.8617    1.0000 </r>
       <r>    5.0073    1.0000 </r>
       <r>    7.7344    0.0000 </r>
       <r>    8.2357    0.0000 </r>
       <r>    8.5757    0.0000 </r>
       <r>    9.4082    0.0000 </r>
      </set>
      <set comment="kpoint 9">
       <r>   -5.8442    1.0000 </r>
       <r>    3.1705    1.0000 </r>
       <r>    4.3227    1.0000 </r>
       <r>    4.3940    1.0000 </r>
       <r>    7.3283    0.0000 </r>
       <r>    8.9617    0.0000 </r>
       <r>    9.4096    0.0000 </r>
       <r>    9.8741    0.0000 </r>
      </set>
      <set comment="kpoint 10">
       <r>   -5.3356    1.0000 </r>
       <r>    1.7016    1.0000 </r>
       <r>    3.3808    1.0000 </r>
       <r>    4.1442    1.0000 </r>
       <r>    7.4911    0.0000 </r>
       <r>    9.0659    0.0000 </r>
       <r>    9.7995    0.0000 </r>
       <r>   10.1888    0.0000 </r>
      </set>
      <set comment="kpoint 11">
       <r>   -4.5187    1.0000 </r>
       <r>   -0.0952    1.0000 </r>
       <r>    2.8877    1.0000 </r>
       <r>    3.7503    1.0000 </r>
       <r>    7.6700    0.0000 </r>
       <r>    9.0486    0.0000 </r>
       <r>   10.2165    0.0000 </r>
       <r>   10.5181    0.0000 </r>
      </set>
      <set comment="kpoint 12">
       <r>   -3.7891    1.0000 </r>
       <r>   -1.2582    1.0000 </r>
       <r>    2.6034    1.0000 </r>
       <r>    3.6614    1.0000 </r>
       <r>    7.7231    0.0000 </r>
       <r>    8.7803    0.0000 </r>
       <r>   10.0794    0.0000 </r>
       <r>   12.4719    0.0000 </r>
      </set>
      <set comment="kpoint 13">
       <r>   -4.2267    1.0000 </r>
       <r>   -0.5959    1.0000 </r>
       <r>    2.5376    1.0000 </r>
       <r>    3.9351    1.0000 </r>
       <r>    7.9741    0.0000 </r>
       <r>    8.7135    0.0000 </r>
       <r>   10.0202    0.0000 </r>
       <r>   11.7457    0.0000 </r>
      </set>
      <set comment="kpoint 14">
       <r>   -5.0957    1.0000 </r>
       <r>    1.0724    1.0000 </r>
       <r>    2.8429    1.0000 </r>
       <r>    4.4243    1.0000 </r>
       <r>    8.2872    0.0000 </r>
       <r>    8.6081    0.0000 </r>
       <r>    9.8934    0.0000 </r>
       <r>   10.3872    0.0000 </r>
      </set>
      <set comment="kpoint 15">
       <r>   -5.7179    1.0000 </r>
       <r>    2.5197    1.0000 </r>
       <r>    3.9340    1.0000 </r>
       <r>    4.7844    1.0000 </r>
       <r>    7.8656    0.0000 </r>
       <r>    8.4568    0.0000 </r>
       <r>    9.2280    0.0000 </r>
       <r>   10.4106    0.0000 </r>
      </set>
      <set comment="kpoint 16">
       <r>   -4.9467    1.0000 </r>
       <r>    1.1896    1.0000 </r>
       <r>    3.2442    1.0000 </r>
       <r>    3.3621    1.0000 </r>
       <r>    6.5434    0.0000 </r>
       <r>    8.1798    0.0000 </r>
       <r>   11.2107    0.0000 </r>
       <r>   11.3645    0.0000 </r>
      </set>
      <set comment="kpoint 17">
       <r>   -4.2185    1.0000 </r>
       <r>   -0.0149    1.0000 </r>
       <r>    2.4847    1.0000 </r>
       <r>    3.0276    1.0000 </r>
       <r>    6.8522    0.0000 </r>
       <r>    8.0218    0.0000 </r>
       <r>   11.1761    0.0000 </r>
       <r>   12.3303    0.0000 </r>
      </set>
      <set comment="kpoint 18">
       <r>   -3.3538    1.0000 </r>
       <r>   -1.1698    1.0000 </r>
       <r>    1.6720    1.0000 </r>
       <r>    2.9966    1.0000 </r>
       <r>    7.0858    0.0000 </r>
       <r>    9.6412    0.0000 </r>
       <r>   10.7608    0.0000 </r>
       <r>   12.2432    0.0000 </r>
      </set>
      <set comment="kpoint 19">
       <r>   -3.4246    1.0000 </r>
       <r>   -1.0775    1.0000 </r>
       <r>    1.3342    1.0000 </r>
       <r>    3.3287    1.0000 </r>
       <r>    7.4718    0.0000 </r>
       <r>   10.3388    0.0000 </r>
       <r>   11.5894    0.0000 </r>
       <r>   11.9391    0.0000 </r>
      </set>
      <set comment="kpoint 20">
       <r>   -4.2887    1.0000 </r>
       <r>   -0.1442    1.0000 </r>
       <r>    1.9132    1.0000 </r>
       <r>    3.8930    1.0000 </r>
       <r>    8.0644    0.0000 </r>
       <r>    9.2588    0.0000 </r>
       <r>   10.6358    0.0000 </r>
       <r>   10.9393    0.0000 </r>
      </set>
      <set comment="kpoint 21">
       <r>   -4.9866    1.0000 </r>
       <r>    0.4991    1.0000 </r>
       <r>    3.4833    1.0000 </r>
       <r>    4.3273    1.0000 </r>
       <r>    7.7364    0.0000 </r>
       <r>    8.6454    0.0000 </r>
       <r>    9.4867    0.0000 </r>
       <r>   11.1463    0.0000 </r>
      </set>
      <set comment="kpoint 22">
       <r>   -3.5838    1.0000 </r>
       <r>   -0.8568    1.0000 </r>
       <r>    2.5783    1.0000 </r>
       <r>    2.7854    1.0000 </r>
       <r>    6.1675    0.0005 </r>
       <r>    6.8729    0.0000 </r>
       <r>   13.4488    0.0000 </r>
       <r>   13.4754    0.0000 </r>
      </set>
      <set comment="kpoint 23">
       <r>   -2.7033    1.0000 </r>
       <r>   -1.8187    1.0000 </r>
       <r>    2.0439    1.0000 </r>
       <r>    2.5526    1.0000 </r>
       <r>    6.5917    0.0000 </r>
       <r>    7.3009    0.0000 </r>
       <r>   13.2166    0.0000 </r>
       <r>   14.1803    0.0000 </r>
      </set>
      <set comment="kpoint 24">
       <r>   -2.8049    1.0000 </r>
       <r>   -1.6527    1.0000 </r>
       <r>    1.3437    1.0000 </r>
       <r>    2.8574    1.0000 </r>
       <r>    6.9443    0.0000 </r>
       <r>    9.4853    0.0000 </r>
       <r>   11.7292    0.0000 </r>
       <r>   12.8334    0.0000 </r>
      </set>
      <set comment="kpoint 25">
       <r>   -3.5404    1.0000 </r>
       <r>   -1.2281    1.0000 </r>
       <r>    1.8573    1.0000 </r>
       <r>    3.4383    1.0000 </r>
       <r>    7.5831    0.0000 </r>
       <r>    9.5000    0.0000 </r>
       <r>   11.0009    0.0000 </r>
       <r>   12.2289    0.0000 </r>
      </set>
      <set comment="kpoint 26">
       <r>   -4.1289    1.0000 </r>
       <r>   -1.0632    1.0000 </r>
       <r>    3.3072    1.0000 </r>
       <r>    4.0040    1.0000 </r>
       <r>    7.5280    0.0000 </r>
       <r>    8.5777    0.0000 </r>
       <r>    9.3225    0.0000 </r>
       <r>   12.7931    0.0000 </r>
      </set>
      <set comment="kpoint 27">
       <r>   -2.7512    1.0000 </r>
       <r>   -1.8344    1.0000 </r>
       <r>    2.4447    1.0000 </r>
       <r>    2.6676    1.0000 </r>
       <r>    6.1695    0.0004 </r>
       <r>    6.5213    0.0000 </r>
       <r>   14.4999    0.0000 </r>
       <r>   14.5540    0.0000 </r>
      </set>
      <set comment="kpoint 28">
       <r>   -3.5021    1.0000 </r>
       <r>   -0.9194    1.0000 </r>
       <r>    2.1948    1.0000 </r>
       <r>    2.7078    1.0000 </r>
       <r>    6.6730    0.0000 </r>
       <r>    7.5496    0.0000 </r>
       <r>   12.1703    0.0000 </r>
       <r>   13.4574    0.0000 </r>
      </set>
      <set comment="kpoint 29">
       <r>   -3.9624    1.0000 </r>
       <r>   -0.6409    1.0000 </r>
       <r>    2.2402    1.0000 </r>
       <r>    3.2871    1.0000 </r>
       <r>    7.3506    0.0000 </r>
       <r>    9.8206    0.0000 </r>
       <r>    9.9912    0.0000 </r>
       <r>   11.2114    0.0000 </r>
      </set>
      <set comment="kpoint 30">
       <r>   -4.3195    1.0000 </r>
       <r>    0.1603    1.0000 </r>
       <r>    2.8452    1.0000 </r>
       <r>    3.0188    1.0000 </r>
       <r>    6.2907    0.0000 </r>
       <r>    7.4385    0.0000 </r>
       <r>   12.3131    0.0000 </r>
       <r>   12.4063    0.0000 </r>
      </set>
      <set comment="kpoint 31">
       <r>   -4.8333    1.0000 </r>
       <r>    0.8616    1.0000 </r>
       <r>    2.8889    1.0000 </r>
       <r>    3.5181    1.0000 </r>
       <r>    7.1316    0.0000 </r>
       <r>    8.6732    0.0000 </r>
       <r>   10.2553    0.0000 </r>
       <r>   11.2298    0.0000 </r>
      </set>
      <set comment="kpoint 32">
       <r>   -5.4569    1.0000 </r>
       <r>    2.2025    1.0000 </r>
       <r>    3.7694    1.0000 </r>
       <r>    3.8043    1.0000 </r>
       <r>    6.9035    0.0000 </r>
       <r>    8.9851    0.0000 </r>
       <r>   10.2016    0.0000 </r>
       <r>   10.3589    0.0000 </r>
      </set>
      <set comment="kpoint 33">
       <r>   -5.8475    1.0000 </r>
       <r>    2.6242    1.0000 </r>
       <r>    4.8440    1.0000 </r>
       <r>    4.8440    1.0000 </r>
       <r>    7.4608    0.0000 </r>
       <r>    8.6177    0.0000 </r>
       <r>    8.6177    0.0000 </r>
       <r>   10.7839    0.0000 </r>
      </set>
      <set comment="kpoint 34">
       <r>   -5.4670    1.0000 </r>
       <r>    1.7889    1.0000 </r>
       <r>    3.3791    1.0000 </r>
       <r>    4.8578    1.0000 </r>
       <r>    8.1133    0.0000 </r>
       <r>    8.7403    0.0000 </r>
       <r>    9.0163    0.0000 </r>
       <r>   10.9354    0.0000 </r>
      </set>
      <set comment="kpoint 35">
       <r>   -4.7432    1.0000 </r>
       <r>    0.4465    1.0000 </r>
       <r>    2.3311    1.0000 </r>
       <r>    4.3691    1.0000 </r>
       <r>    8.0037    0.0000 </r>
       <r>    9.4809    0.0000 </r>
       <r>    9.6670    0.0000 </r>
       <r>   11.2207    0.0000 </r>
      </set>
      <set comment="kpoint 36">
       <r>   -3.8818    1.0000 </r>
       <r>   -0.9887    1.0000 </r>
       <r>    2.1721    1.0000 </r>
       <r>    3.8554    1.0000 </r>
       <r>    7.5387    0.0000 </r>
       <r>    9.6289    0.0000 </r>
       <r>    9.8793    0.0000 </r>
       <r>   13.0536    0.0000 </r>
      </set>
      <set comment="kpoint 37">
       <r>   -3.8663    1.0000 </r>
       <r>   -1.0165    1.0000 </r>
       <r>    2.4590    1.0000 </r>
       <r>    3.5485    1.0000 </r>
       <r>    7.2803    0.0000 </r>
       <r>    9.6893    0.0000 </r>
       <r>   10.2179    0.0000 </r>
       <r>   11.1671    0.0000 </r>
      </set>
      <set comment="kpoint 38">
       <r>   -4.7262    1.0000 </r>
       <r>    0.4434    1.0000 </r>
       <r>    3.0558    1.0000 </r>
       <r>    3.5272    1.0000 </r>
       <r>    7.2174    0.0000 </r>
       <r>    9.3477    0.0000 </r>
       <r>    9.9776    0.0000 </r>
       <r>   10.5685    0.0000 </r>
      </set>
      <set comment="kpoint 39">
       <r>   -5.2180    1.0000 </r>
       <r>    1.1436    1.0000 </r>
       <r>    3.8541    1.0000 </r>
       <r>    3.9333    1.0000 </r>
       <r>    7.5829    0.0000 </r>
       <r>    8.8826    0.0000 </r>
       <r>    9.8391    0.0000 </r>
       <r>   10.2333    0.0000 </r>
      </set>
      <set comment="kpoint 40">
       <r>   -4.6108    1.0000 </r>
       <r>    0.3745    1.0000 </r>
       <r>    2.3865    1.0000 </r>
       <r>    3.7420    1.0000 </r>
       <r>    8.0772    0.0000 </r>
       <r>    9.0634    0.0000 </r>
       <r>    9.6025    0.0000 </r>
       <r>   11.0576    0.0000 </r>
      </set>
      <set comment="kpoint 41">
       <r>   -3.7495    1.0000 </r>
       <r>   -0.7038    1.0000 </r>
       <r>    1.6247    1.0000 </r>
       <r>    3.1961    1.0000 </r>
       <r>    8.5213    0.0000 </r>
       <r>    8.9990    0.0000 </r>
       <r>   10.2480    0.0000 </r>
       <r>   12.1296    0.0000 </r>
      </set>
      <set comment="kpoint 42">
       <r>   -3.2812    1.0000 </r>
       <r>   -1.2934    1.0000 </r>
       <r>    1.6229    1.0000 </r>
       <r>    2.8954    1.0000 </r>
       <r>    8.0685    0.0000 </r>
       <r>    9.3193    0.0000 </r>
       <r>   11.0139    0.0000 </r>
       <r>   12.2485    0.0000 </r>
      </set>
      <set comment="kpoint 43">
       <r>   -4.0233    1.0000 </r>
       <r>   -0.3267    1.0000 </r>
       <r>    2.0361    1.0000 </r>
       <r>    3.0675    1.0000 </r>
       <r>    7.8042    0.0000 </r>
       <r>    9.0050    0.0000 </r>
       <r>    9.8171    0.0000 </r>
       <r>   12.2477    0.0000 </r>
      </set>
      <set comment="kpoint 44">
       <r>   -4.1290    1.0000 </r>
       <r>   -0.2663    1.0000 </r>
       <r>    2.3558    1.0000 </r>
       <r>    3.2060    1.0000 </r>
       <r>    6.8539    0.0000 </r>
       <r>    8.8404    0.0000 </r>
       <r>   11.0057    0.0000 </r>
       <r>   11.3742    0.0000 </r>
      </set>
      <set comment="kpoint 45">
       <r>   -3.3505    1.0000 </r>
       <r>   -1.0549    1.0000 </r>
       <r>    1.8040    1.0000 </r>
       <r>    2.5503    1.0000 </r>
       <r>    7.6089    0.0000 </r>
       <r>    8.6054    0.0000 </r>
       <r>   10.6936    0.0000 </r>
       <r>   13.4212    0.0000 </r>
      </set>
      <set comment="kpoint 46">
       <r>   -2.5707    1.0000 </r>
       <r>   -1.7922    1.0000 </r>
       <r>    1.5010    1.0000 </r>
       <r>    2.0678    1.0000 </r>
       <r>    8.7087    0.0000 </r>
       <r>    9.6299    0.0000 </r>
       <r>   10.2470    0.0000 </r>
       <r>   11.2423    0.0000 </r>
      </set>
      <set comment="kpoint 47">
       <r>   -3.1548    1.0000 </r>
       <r>   -1.2538    1.0000 </r>
       <r>    1.4892    1.0000 </r>
       <r>    2.5267    1.0000 </r>
       <r>    8.8046    0.0000 </r>
       <r>    9.2133    0.0000 </r>
       <r>    9.9452    0.0000 </r>
       <r>   12.3817    0.0000 </r>
      </set>
      <set comment="kpoint 48">
       <r>   -2.7267    1.0000 </r>
       <r>   -1.7678    1.0000 </r>
       <r>    1.6011    1.0000 </r>
       <r>    2.8733    1.0000 </r>
       <r>    6.4382    0.0000 </r>
       <r>    8.2915    0.0000 </r>
       <r>   13.1432    0.0000 </r>
       <r>   13.3087    0.0000 </r>
      </set>
      <set comment="kpoint 49">
       <r>   -2.6291    1.0000 </r>
       <r>   -1.8007    1.0000 </r>
       <r>    1.6918    1.0000 </r>
       <r>    2.2726    1.0000 </r>
       <r>    7.5089    0.0000 </r>
       <r>    8.4042    0.0000 </r>
       <r>   11.6773    0.0000 </r>
       <r>   12.7644    0.0000 </r>
      </set>
      <set comment="kpoint 50">
       <r>   -3.4445    1.0000 </r>
       <r>   -1.0150    1.0000 </r>
       <r>    1.8553    1.0000 </r>
       <r>    2.9854    1.0000 </r>
       <r>    6.5819    0.0000 </r>
       <r>    8.4735    0.0000 </r>
       <r>   12.1413    0.0000 </r>
       <r>   12.2578    0.0000 </r>
      </set>
      <set comment="kpoint 51">
       <r>   -5.1147    1.0000 </r>
       <r>    0.4762    1.0000 </r>
       <r>    4.4406    1.0000 </r>
       <r>    4.4406    1.0000 </r>
       <r>    7.0077    0.0000 </r>
       <r>    8.8627    0.0000 </r>
       <r>    8.8627    0.0000 </r>
       <r>   12.8181    0.0000 </r>
      </set>
      <set comment="kpoint 52">
       <r>   -4.6504    1.0000 </r>
       <r>   -0.0933    1.0000 </r>
       <r>    3.0128    1.0000 </r>
       <r>    4.3544    1.0000 </r>
       <r>    7.7398    0.0000 </r>
       <r>    9.0764    0.0000 </r>
       <r>    9.1286    0.0000 </r>
       <r>   12.2271    0.0000 </r>
      </set>
      <set comment="kpoint 53">
       <r>   -3.8839    1.0000 </r>
       <r>   -0.6350    1.0000 </r>
       <r>    1.5466    1.0000 </r>
       <r>    3.7938    1.0000 </r>
       <r>    7.4758    0.0000 </r>
       <r>   10.4803    0.0000 </r>
       <r>   10.6284    0.0000 </r>
       <r>   11.9691    0.0000 </r>
      </set>
      <set comment="kpoint 54">
       <r>   -3.0912    1.0000 </r>
       <r>   -1.4025    1.0000 </r>
       <r>    1.2257    1.0000 </r>
       <r>    3.2647    1.0000 </r>
       <r>    6.8883    0.0000 </r>
       <r>   10.7045    0.0000 </r>
       <r>   11.7209    0.0000 </r>
       <r>   11.9345    0.0000 </r>
      </set>
      <set comment="kpoint 55">
       <r>   -4.3475    1.0000 </r>
       <r>   -0.6334    1.0000 </r>
       <r>    3.3316    1.0000 </r>
       <r>    3.8111    1.0000 </r>
       <r>    7.4892    0.0000 </r>
       <r>    8.8343    0.0000 </r>
       <r>    9.6040    0.0000 </r>
       <r>   11.5937    0.0000 </r>
      </set>
      <set comment="kpoint 56">
       <r>   -3.7484    1.0000 </r>
       <r>   -0.9968    1.0000 </r>
       <r>    2.0699    1.0000 </r>
       <r>    3.3549    1.0000 </r>
       <r>    8.2619    0.0000 </r>
       <r>    8.6296    0.0000 </r>
       <r>   11.0746    0.0000 </r>
       <r>   11.3534    0.0000 </r>
      </set>
      <set comment="kpoint 57">
       <r>   -2.9565    1.0000 </r>
       <r>   -1.4711    1.0000 </r>
       <r>    1.3150    1.0000 </r>
       <r>    2.6669    1.0000 </r>
       <r>    7.9457    0.0000 </r>
       <r>   10.1488    0.0000 </r>
       <r>   10.9014    0.0000 </r>
       <r>   11.4075    0.0000 </r>
      </set>
      <set comment="kpoint 58">
       <r>   -3.4026    1.0000 </r>
       <r>   -1.2739    1.0000 </r>
       <r>    1.6965    1.0000 </r>
       <r>    3.3615    1.0000 </r>
       <r>    7.0299    0.0000 </r>
       <r>   10.6619    0.0000 </r>
       <r>   10.9605    0.0000 </r>
       <r>   10.9844    0.0000 </r>
      </set>
      <set comment="kpoint 59">
       <r>   -4.2585    1.0000 </r>
       <r>   -1.1173    1.0000 </r>
       <r>    4.2240    1.0000 </r>
       <r>    4.2240    1.0000 </r>
       <r>    6.7557    0.0000 </r>
       <r>    8.7408    0.0000 </r>
       <r>    8.7408    0.0000 </r>
       <r>   13.0532    0.0000 </r>
      </set>
      <set comment="kpoint 60">
       <r>   -3.9206    1.0000 </r>
       <r>   -1.2918    1.0000 </r>
       <r>    3.0261    1.0000 </r>
       <r>    3.9660    1.0000 </r>
       <r>    7.5028    0.0000 </r>
       <r>    8.8446    0.0000 </r>
       <r>    9.3035    0.0000 </r>
       <r>   13.3863    0.0000 </r>
      </set>
     </set>
    </set>
   </array>
  </eigenvalues>
  <separator name="orbital magnetization" >
   <v name="MAGDIPOLOUT">      0.00000000      0.00000000      0.00000000</v>
  </separator>
  <dos>
   <i name="efermi">      5.69865861 </i>
   <total>
    <array>
     <dimension dim="1">gridpoints</dimension>
     <dimension dim="2">spin</dimension>
     <field>energy</field>
     <field>total</field>
     <field>integrated</field>
     <set>
      <set comment="spin 1">
       <r>    -8.2353     0.0000     0.0000 </r>
       <r>    -8.1527     0.0000     0.0000 </r>
       <r>    -8.0700     0.0000     0.0000 </r>
       <r>    -7.9874     0.0000     0.0000 </r>
       <r>    -7.9048     0.0000     0.0000 </r>
       <r>    -7.8221     0.0000     0.0000 </r>
       <r>    -7.7395     0.0000     0.0000 </r>
       <r>    -7.6569     0.0000     0.0000 </r>
       <r>    -7.5742     0.0000     0.0000 </r>
       <r>    -7.4916     0.0000     0.0000 </r>
       <r>    -7.4090     0.0000     0.0000 </r>
       <r>    -7.3263     0.0000     0.0000 </r>
       <r>    -7.2437     0.0000     0.0000 </r>
       <r>    -7.1611     0.0000     0.0000 </r>
       <r>    -7.0785     0.0000     0.0000 </r>
       <r>    -6.9958     0.0000     0.0000 </r>
       <r>    -6.9132     0.0000     0.0000 </r>
       <r>    -6.8306     0.0000     0.0000 </r>
       <r>    -6.7479     0.0000     0.0000 </r>
       <r>    -6.6653     0.0001     0.0000 </r>
       <r>    -6.5827     0.0006     0.0001 </r>
       <r>    -6.5000     0.0029     0.0003 </r>
       <r>    -6.4174     0.0098     0.0011 </r>
       <r>    -6.3348     0.0257     0.0032 </r>
       <r>    -6.2521     0.0536     0.0077 </r>
       <r>    -6.1695     0.0916     0.0152 </r>
       <r>    -6.0869     0.1323     0.0262 </r>
       <r>    -6.0043     0.1696     0.0402 </r>
       <r>    -5.9216     0.2036     0.0570 </r>
       <r>    -5.8390     0.2365     0.0765 </r>
       <r>    -5.7564     0.2645     0.0984 </r>
       <r>    -5.6737     0.2820     0.1217 </r>
       <r>    -5.5911     0.2951     0.1461 </r>
       <r>    -5.5085     0.3199     0.1725 </r>
       <r>    -5.4258     0.3580     0.2021 </r>
       <r>    -5.3432     0.3881     0.2342 </r>
       <r>    -5.2606     0.3949     0.2668 </r>
       <r>    -5.1779     0.3930     0.2993 </r>
       <r>    -5.0953     0.4066     0.3329 </r>
       <r>    -5.0127     0.4374     0.3690 </r>
       <r>    -4.9300     0.4722     0.4080 </r>
       <r>    -4.8474     0.5060     0.4498 </r>
       <r>    -4.7648     0.5375     0.4942 </r>
       <r>    -4.6822     0.5575     0.5403 </r>
       <r>    -4.5995     0.5570     0.5863 </r>
       <r>    -4.5169     0.5448     0.6313 </r>
       <r>    -4.4343     0.5538     0.6771 </r>
       <r>    -4.3516     0.6170     0.7281 </r>
       <r>    -4.2690     0.7215     0.7877 </r>
       <r>    -4.1864     0.8098     0.8546 </r>
       <r>    -4.1037     0.8459     0.9245 </r>
       <r>    -4.0211     0.8491     0.9947 </r>
       <r>    -3.9385     0.8505     1.0650 </r>
       <r>    -3.8558     0.8464     1.1349 </r>
       <r>    -3.7732     0.8115     1.2020 </r>
       <r>    -3.6906     0.7501     1.2639 </r>
       <r>    -3.6080     0.7166     1.3231 </r>
       <r>    -3.5253     0.7570     1.3857 </r>
       <r>    -3.4427     0.8359     1.4548 </r>
       <r>    -3.3601     0.8615     1.5260 </r>
       <r>    -3.2774     0.7828     1.5906 </r>
       <r>    -3.1948     0.6355     1.6432 </r>
       <r>    -3.1122     0.4937     1.6839 </r>
       <r>    -3.0295     0.4057     1.7175 </r>
       <r>    -2.9469     0.3859     1.7494 </r>
       <r>    -2.8643     0.4316     1.7850 </r>
       <r>    -2.7816     0.5170     1.8277 </r>
       <r>    -2.6990     0.5824     1.8759 </r>
       <r>    -2.6164     0.5639     1.9225 </r>
       <r>    -2.5338     0.4472     1.9594 </r>
       <r>    -2.4511     0.2823     1.9827 </r>
       <r>    -2.3685     0.1387     1.9942 </r>
       <r>    -2.2859     0.0527     1.9986 </r>
       <r>    -2.2032     0.0196     2.0002 </r>
       <r>    -2.1206     0.0272     2.0024 </r>
       <r>    -2.0380     0.0858     2.0095 </r>
       <r>    -1.9553     0.2191     2.0276 </r>
       <r>    -1.8727     0.4116     2.0616 </r>
       <r>    -1.7901     0.5739     2.1091 </r>
       <r>    -1.7074     0.6129     2.1597 </r>
       <r>    -1.6248     0.5431     2.2046 </r>
       <r>    -1.5422     0.4806     2.2443 </r>
       <r>    -1.4596     0.5315     2.2882 </r>
       <r>    -1.3769     0.7135     2.3472 </r>
       <r>    -1.2943     0.9543     2.4260 </r>
       <r>    -1.2117     1.1491     2.5210 </r>
       <r>    -1.1290     1.2377     2.6232 </r>
       <r>    -1.0464     1.2135     2.7235 </r>
       <r>    -0.9638     1.0828     2.8130 </r>
       <r>    -0.8811     0.8869     2.8863 </r>
       <r>    -0.7985     0.7270     2.9464 </r>
       <r>    -0.7159     0.6707     3.0018 </r>
       <r>    -0.6332     0.6594     3.0563 </r>
       <r>    -0.5506     0.5895     3.1050 </r>
       <r>    -0.4680     0.4607     3.1430 </r>
       <r>    -0.3853     0.3694     3.1736 </r>
       <r>    -0.3027     0.3801     3.2050 </r>
       <r>    -0.2201     0.4686     3.2437 </r>
       <r>    -0.1375     0.5595     3.2899 </r>
       <r>    -0.0548     0.5757     3.3375 </r>
       <r>     0.0278     0.4913     3.3781 </r>
       <r>     0.1104     0.3594     3.4078 </r>
       <r>     0.1931     0.2663     3.4298 </r>
       <r>     0.2757     0.2610     3.4514 </r>
       <r>     0.3583     0.3273     3.4784 </r>
       <r>     0.4410     0.3934     3.5109 </r>
       <r>     0.5236     0.3851     3.5427 </r>
       <r>     0.6062     0.2981     3.5674 </r>
       <r>     0.6889     0.2013     3.5840 </r>
       <r>     0.7715     0.1599     3.5972 </r>
       <r>     0.8541     0.1796     3.6121 </r>
       <r>     0.9367     0.2353     3.6315 </r>
       <r>     1.0194     0.3189     3.6579 </r>
       <r>     1.1020     0.4337     3.6937 </r>
       <r>     1.1846     0.5640     3.7403 </r>
       <r>     1.2673     0.6799     3.7965 </r>
       <r>     1.3499     0.7667     3.8598 </r>
       <r>     1.4325     0.8453     3.9297 </r>
       <r>     1.5152     0.9562     4.0087 </r>
       <r>     1.5978     1.1013     4.0997 </r>
       <r>     1.6804     1.2162     4.2002 </r>
       <r>     1.7631     1.2363     4.3023 </r>
       <r>     1.8457     1.1726     4.3992 </r>
       <r>     1.9283     1.0946     4.4897 </r>
       <r>     2.0109     1.0577     4.5771 </r>
       <r>     2.0936     1.0605     4.6647 </r>
       <r>     2.1762     1.0707     4.7532 </r>
       <r>     2.2588     1.0827     4.8426 </r>
       <r>     2.3415     1.1377     4.9367 </r>
       <r>     2.4241     1.2734     5.0419 </r>
       <r>     2.5067     1.4434     5.1611 </r>
       <r>     2.5894     1.5292     5.2875 </r>
       <r>     2.6720     1.4851     5.4102 </r>
       <r>     2.7546     1.4141     5.5271 </r>
       <r>     2.8373     1.4273     5.6450 </r>
       <r>     2.9199     1.4934     5.7684 </r>
       <r>     3.0025     1.5046     5.8927 </r>
       <r>     3.0851     1.4429     6.0120 </r>
       <r>     3.1678     1.4094     6.1284 </r>
       <r>     3.2504     1.4827     6.2509 </r>
       <r>     3.3330     1.5893     6.3823 </r>
       <r>     3.4157     1.5738     6.5123 </r>
       <r>     3.4983     1.3926     6.6274 </r>
       <r>     3.5809     1.1738     6.7244 </r>
       <r>     3.6636     1.0843     6.8140 </r>
       <r>     3.7462     1.1724     6.9109 </r>
       <r>     3.8288     1.3346     7.0211 </r>
       <r>     3.9115     1.4206     7.1385 </r>
       <r>     3.9941     1.3598     7.2509 </r>
       <r>     4.0767     1.1928     7.3494 </r>
       <r>     4.1594     1.0180     7.4336 </r>
       <r>     4.2420     0.9181     7.5094 </r>
       <r>     4.3246     0.8964     7.5835 </r>
       <r>     4.4072     0.8680     7.6552 </r>
       <r>     4.4899     0.7541     7.7175 </r>
       <r>     4.5725     0.5836     7.7657 </r>
       <r>     4.6551     0.4562     7.8034 </r>
       <r>     4.7378     0.4202     7.8382 </r>
       <r>     4.8204     0.4281     7.8735 </r>
       <r>     4.9030     0.4050     7.9070 </r>
       <r>     4.9857     0.3324     7.9345 </r>
       <r>     5.0683     0.2483     7.9550 </r>
       <r>     5.1509     0.1859     7.9703 </r>
       <r>     5.2336     0.1431     7.9822 </r>
       <r>     5.3162     0.1039     7.9908 </r>
       <r>     5.3988     0.0642     7.9961 </r>
       <r>     5.4814     0.0316     7.9987 </r>
       <r>     5.5641     0.0119     7.9997 </r>
       <r>     5.6467     0.0034     7.9999 </r>
       <r>     5.7293     0.0012     8.0000 </r>
       <r>     5.8120     0.0030     8.0003 </r>
       <r>     5.8946     0.0123     8.0013 </r>
       <r>     5.9772     0.0383     8.0045 </r>
       <r>     6.0599     0.0875     8.0117 </r>
       <r>     6.1425     0.1503     8.0241 </r>
       <r>     6.2251     0.2035     8.0409 </r>
       <r>     6.3078     0.2412     8.0608 </r>
       <r>     6.3904     0.2904     8.0848 </r>
       <r>     6.4730     0.3765     8.1160 </r>
       <r>     6.5556     0.4796     8.1556 </r>
       <r>     6.6383     0.5551     8.2015 </r>
       <r>     6.7209     0.6001     8.2510 </r>
       <r>     6.8035     0.6569     8.3053 </r>
       <r>     6.8862     0.7401     8.3665 </r>
       <r>     6.9688     0.8146     8.4338 </r>
       <r>     7.0514     0.8558     8.5045 </r>
       <r>     7.1341     0.8813     8.5773 </r>
       <r>     7.2167     0.9304     8.6542 </r>
       <r>     7.2993     1.0519     8.7411 </r>
       <r>     7.3820     1.2786     8.8468 </r>
       <r>     7.4646     1.5638     8.9760 </r>
       <r>     7.5472     1.7647     9.1218 </r>
       <r>     7.6299     1.7622     9.2674 </r>
       <r>     7.7125     1.5892     9.3988 </r>
       <r>     7.7951     1.3896     9.5136 </r>
       <r>     7.8777     1.2810     9.6194 </r>
       <r>     7.9604     1.2752     9.7248 </r>
       <r>     8.0430     1.2903     9.8314 </r>
       <r>     8.1256     1.2431     9.9341 </r>
       <r>     8.2083     1.1422    10.0285 </r>
       <r>     8.2909     1.0674    10.1167 </r>
       <r>     8.3735     1.0980    10.2074 </r>
       <r>     8.4562     1.2795    10.3132 </r>
       <r>     8.5388     1.5880    10.4444 </r>
       <r>     8.6214     1.8995    10.6014 </r>
       <r>     8.7041     2.0617    10.7717 </r>
       <r>     8.7867     2.0267    10.9392 </r>
       <r>     8.8693     1.8858    11.0950 </r>
       <r>     8.9519     1.7618    11.2406 </r>
       <r>     9.0346     1.6879    11.3801 </r>
       <r>     9.1172     1.6156    11.5135 </r>
       <r>     9.1998     1.5174    11.6389 </r>
       <r>     9.2825     1.4191    11.7562 </r>
       <r>     9.3651     1.3481    11.8676 </r>
       <r>     9.4477     1.3118    11.9760 </r>
       <r>     9.5304     1.3029    12.0836 </r>
       <r>     9.6130     1.2977    12.1909 </r>
       <r>     9.6956     1.2843    12.2970 </r>
       <r>     9.7783     1.2819    12.4029 </r>
       <r>     9.8609     1.3013    12.5104 </r>
       <r>     9.9435     1.3207    12.6196 </r>
       <r>    10.0261     1.3414    12.7304 </r>
       <r>    10.1088     1.4039    12.8464 </r>
       <r>    10.1914     1.4976    12.9702 </r>
       <r>    10.2740     1.5226    13.0960 </r>
       <r>    10.3567     1.4055    13.2121 </r>
       <r>    10.4393     1.2000    13.3113 </r>
       <r>    10.5219     1.0231    13.3958 </r>
       <r>    10.6046     0.9334    13.4729 </r>
       <r>    10.6872     0.9072    13.5479 </r>
       <r>    10.7698     0.9194    13.6239 </r>
       <r>    10.8525     1.0040    13.7068 </r>
       <r>    10.9351     1.1863    13.8049 </r>
       <r>    11.0177     1.3965    13.9203 </r>
       <r>    11.1003     1.5239    14.0462 </r>
       <r>    11.1830     1.5153    14.1714 </r>
       <r>    11.2656     1.3758    14.2851 </r>
       <r>    11.3482     1.1430    14.3795 </r>
       <r>    11.4309     0.8947    14.4534 </r>
       <r>    11.5135     0.7269    14.5135 </r>
       <r>    11.5961     0.6885    14.5704 </r>
       <r>    11.6788     0.7303    14.6308 </r>
       <r>    11.7614     0.7484    14.6926 </r>
       <r>    11.8440     0.6982    14.7503 </r>
       <r>    11.9267     0.6403    14.8032 </r>
       <r>    12.0093     0.6743    14.8589 </r>
       <r>    12.0919     0.8528    14.9294 </r>
       <r>    12.1746     1.1191    15.0218 </r>
       <r>    12.2572     1.3069    15.1298 </r>
       <r>    12.3398     1.2682    15.2346 </r>
       <r>    12.4224     1.0145    15.3185 </r>
       <r>    12.5051     0.6919    15.3756 </r>
       <r>    12.5877     0.4531    15.4131 </r>
       <r>    12.6703     0.3703    15.4437 </r>
       <r>    12.7530     0.4076    15.4774 </r>
       <r>    12.8356     0.4586    15.5152 </r>
       <r>    12.9182     0.4561    15.5529 </r>
       <r>    13.0009     0.4308    15.5885 </r>
       <r>    13.0835     0.4374    15.6247 </r>
       <r>    13.1661     0.4762    15.6640 </r>
       <r>    13.2488     0.5221    15.7072 </r>
       <r>    13.3314     0.5660    15.7539 </r>
       <r>    13.4140     0.5864    15.8024 </r>
       <r>    13.4966     0.5320    15.8463 </r>
       <r>    13.5793     0.3877    15.8784 </r>
       <r>    13.6619     0.2152    15.8962 </r>
       <r>    13.7445     0.0890    15.9035 </r>
       <r>    13.8272     0.0296    15.9060 </r>
       <r>    13.9098     0.0181    15.9075 </r>
       <r>    13.9924     0.0374    15.9106 </r>
       <r>    14.0751     0.0779    15.9170 </r>
       <r>    14.1577     0.1205    15.9270 </r>
       <r>    14.2403     0.1395    15.9385 </r>
       <r>    14.3230     0.1328    15.9495 </r>
       <r>    14.4056     0.1261    15.9599 </r>
       <r>    14.4882     0.1334    15.9709 </r>
       <r>    14.5708     0.1348    15.9820 </r>
       <r>    14.6535     0.1094    15.9911 </r>
       <r>    14.7361     0.0664    15.9966 </r>
       <r>    14.8187     0.0294    15.9990 </r>
       <r>    14.9014     0.0095    15.9998 </r>
       <r>    14.9840     0.0022    16.0000 </r>
       <r>    15.0666     0.0004    16.0000 </r>
       <r>    15.1493     0.0000    16.0000 </r>
       <r>    15.2319     0.0000    16.0000 </r>
       <r>    15.3145     0.0000    16.0000 </r>
       <r>    15.3972     0.0000    16.0000 </r>
       <r>    15.4798     0.0000    16.0000 </r>
       <r>    15.5624     0.0000    16.0000 </r>
       <r>    15.6450     0.0000    16.0000 </r>
       <r>    15.7277     0.0000    16.0000 </r>
       <r>    15.8103     0.0000    16.0000 </r>
       <r>    15.8929     0.0000    16.0000 </r>
       <r>    15.9756     0.0000    16.0000 </r>
       <r>    16.0582     0.0000    16.0000 </r>
       <r>    16.1408     0.0000    16.0000 </r>
       <r>    16.2235     0.0000    16.0000 </r>
       <r>    16.3061     0.0000    16.0000 </r>
       <r>    16.3887     0.0000    16.0000 </r>
       <r>    16.4714     0.0000    16.0000 </r>
       <r>    16.5540     0.0000    16.0000 </r>
      </set>
     </set>
    </array>
   </total>
  </dos>
 </calculation>
 <structure name="finalpos" >
  <crystal>
   <varray name="basis" >
    <v>       0.00000000       2.75897300       2.75897300 </v>
    <v>       2.75897300       0.00000000       2.75897300 </v>
    <v>       2.75897300       2.75897300       0.00000000 </v>
   </varray>
   <i name="volume">     42.00222981 </i>
   <varray name="rec_basis" >
    <v>      -0.18122686       0.18122686       0.18122686 </v>
    <v>       0.18122686      -0.18122686       0.18122686 </v>
    <v>       0.18122686       0.18122686      -0.18122686 </v>
   </varray>
  </crystal>
  <varray name="positions" >
   <v>       0.50000000       0.50000000       0.50000000 </v>
   <v>       0.75000000       0.75000000       0.75000000 </v>
  </varray>
 </structure>
</modeling>
