   2   2   0   0
  0.2001288E+02  0.3839590E-09  0.3839590E-09  0.3839590E-09  0.5000000E-15
  1.000000000000000E-004
  CAR 
 unknown system                          
     15.21764871     -8.17227730  301      5.89174510      1.00000000
     -8.172  0.0000E+00  0.0000E+00
     -8.094  0.0000E+00  0.0000E+00
     -8.016  0.0000E+00  0.0000E+00
     -7.938  0.0000E+00  0.0000E+00
     -7.860  0.0000E+00  0.0000E+00
     -7.782  0.0000E+00  0.0000E+00
     -7.704  0.0000E+00  0.0000E+00
     -7.627  0.0000E+00  0.0000E+00
     -7.549  0.0000E+00  0.0000E+00
     -7.471  0.0000E+00  0.0000E+00
     -7.393  0.0000E+00  0.0000E+00
     -7.315  0.2110E-16  0.1645E-17
     -7.237  0.1631E-14  0.1288E-15
     -7.159  0.9510E-13  0.7544E-14
     -7.081  0.4111E-11  0.3281E-12
     -7.003  0.1317E-09  0.1060E-10
     -6.925  0.3128E-08  0.2545E-09
     -6.847  0.5510E-07  0.4550E-08
     -6.769  0.7200E-06  0.6069E-07
     -6.691  0.6984E-05  0.6052E-06
     -6.613  0.5029E-04  0.4526E-05
     -6.535  0.2690E-03  0.2550E-04
     -6.457  0.1069E-02  0.1088E-03
     -6.379  0.3156E-02  0.3548E-03
     -6.301  0.6926E-02  0.8948E-03
     -6.223  0.1130E-01  0.1776E-02
     -6.145  0.1371E-01  0.2845E-02
     -6.067  0.1237E-01  0.3809E-02
     -5.989  0.8294E-02  0.4456E-02
     -5.911  0.4136E-02  0.4778E-02
     -5.833  0.1533E-02  0.4897E-02
     -5.755  0.4223E-03  0.4930E-02
     -5.677  0.8642E-04  0.4937E-02
     -5.599  0.1316E-04  0.4938E-02
     -5.521  0.1881E-05  0.4938E-02
     -5.443  0.5382E-05  0.4939E-02
     -5.365  0.5158E-04  0.4943E-02
     -5.288  0.3755E-03  0.4972E-02
     -5.210  0.2031E-02  0.5130E-02
     -5.132  0.8161E-02  0.5767E-02
     -5.054  0.2437E-01  0.7666E-02
     -4.976  0.5408E-01  0.1188E-01
     -4.898  0.8924E-01  0.1884E-01
     -4.820  0.1096E+00  0.2738E-01
     -4.742  0.1004E+00  0.3521E-01
     -4.664  0.7055E-01  0.4071E-01
     -4.586  0.4418E-01  0.4416E-01
     -4.508  0.3925E-01  0.4722E-01
     -4.430  0.5542E-01  0.5154E-01
     -4.352  0.7632E-01  0.5749E-01
     -4.274  0.8201E-01  0.6388E-01
     -4.196  0.6600E-01  0.6903E-01
     -4.118  0.3953E-01  0.7211E-01
     -4.040  0.1760E-01  0.7348E-01
     -3.962  0.5827E-02  0.7394E-01
     -3.884  0.1433E-02  0.7405E-01
     -3.806  0.2620E-03  0.7407E-01
     -3.728  0.3583E-04  0.7407E-01
     -3.650  0.7550E-05  0.7407E-01
     -3.572  0.4254E-04  0.7408E-01
     -3.494  0.3344E-03  0.7410E-01
     -3.416  0.1964E-02  0.7426E-01
     -3.338  0.8571E-02  0.7493E-01
     -3.260  0.2779E-01  0.7709E-01
     -3.182  0.6697E-01  0.8231E-01
     -3.104  0.1200E+00  0.9167E-01
     -3.026  0.1598E+00  0.1041E+00
     -2.949  0.1583E+00  0.1165E+00
     -2.871  0.1166E+00  0.1256E+00
     -2.793  0.6382E-01  0.1305E+00
     -2.715  0.2597E-01  0.1326E+00
     -2.637  0.7857E-02  0.1332E+00
     -2.559  0.1766E-02  0.1333E+00
     -2.481  0.2949E-03  0.1333E+00
     -2.403  0.3656E-04  0.1333E+00
     -2.325  0.3366E-05  0.1333E+00
     -2.247  0.2299E-06  0.1333E+00
     -2.169  0.1165E-07  0.1333E+00
     -2.091  0.4458E-09  0.1333E+00
     -2.013  0.3135E-09  0.1333E+00
     -1.935  0.8284E-08  0.1333E+00
     -1.857  0.1689E-06  0.1333E+00
     -1.779  0.2553E-05  0.1333E+00
     -1.701  0.2865E-04  0.1333E+00
     -1.623  0.2386E-03  0.1334E+00
     -1.545  0.1476E-02  0.1335E+00
     -1.467  0.6781E-02  0.1340E+00
     -1.389  0.2315E-01  0.1358E+00
     -1.311  0.5873E-01  0.1404E+00
     -1.233  0.1108E+00  0.1490E+00
     -1.155  0.1553E+00  0.1611E+00
     -1.077  0.1619E+00  0.1738E+00
     -0.999  0.1255E+00  0.1835E+00
     -0.921  0.7237E-01  0.1892E+00
     -0.843  0.3101E-01  0.1916E+00
     -0.765  0.9876E-02  0.1924E+00
     -0.688  0.2337E-02  0.1926E+00
     -0.610  0.4109E-03  0.1926E+00
     -0.532  0.5365E-04  0.1926E+00
     -0.454  0.5225E-05  0.1926E+00
     -0.376  0.8014E-06  0.1926E+00
     -0.298  0.5623E-05  0.1926E+00
     -0.220  0.5453E-04  0.1926E+00
     -0.142  0.3942E-03  0.1926E+00
     -0.064  0.2117E-02  0.1928E+00
      0.014  0.8454E-02  0.1935E+00
      0.092  0.2517E-01  0.1954E+00
      0.170  0.5610E-01  0.1998E+00
      0.248  0.9476E-01  0.2072E+00
      0.326  0.1246E+00  0.2169E+00
      0.404  0.1345E+00  0.2274E+00
      0.482  0.1286E+00  0.2374E+00
      0.560  0.1141E+00  0.2463E+00
      0.638  0.9061E-01  0.2534E+00
      0.716  0.5981E-01  0.2580E+00
      0.794  0.3110E-01  0.2604E+00
      0.872  0.1341E-01  0.2615E+00
      0.950  0.9589E-02  0.2622E+00
      1.028  0.2185E-01  0.2639E+00
      1.106  0.5496E-01  0.2682E+00
      1.184  0.1061E+00  0.2765E+00
      1.262  0.1526E+00  0.2884E+00
      1.340  0.1633E+00  0.3011E+00
      1.418  0.1298E+00  0.3113E+00
      1.496  0.7678E-01  0.3172E+00
      1.574  0.3375E-01  0.3199E+00
      1.651  0.1103E-01  0.3207E+00
      1.729  0.2678E-02  0.3209E+00
      1.807  0.4830E-03  0.3210E+00
      1.885  0.6470E-04  0.3210E+00
      1.963  0.6435E-05  0.3210E+00
      2.041  0.4750E-06  0.3210E+00
      2.119  0.2601E-07  0.3210E+00
      2.197  0.1057E-08  0.3210E+00
      2.275  0.7308E-10  0.3210E+00
      2.353  0.1343E-08  0.3210E+00
      2.431  0.3235E-07  0.3210E+00
      2.509  0.5783E-06  0.3210E+00
      2.587  0.7669E-05  0.3210E+00
      2.665  0.7548E-04  0.3210E+00
      2.743  0.5516E-03  0.3210E+00
      2.821  0.2994E-02  0.3213E+00
      2.899  0.1208E-01  0.3222E+00
      2.977  0.3628E-01  0.3250E+00
      3.055  0.8135E-01  0.3314E+00
      3.133  0.1376E+00  0.3421E+00
      3.211  0.1801E+00  0.3561E+00
      3.289  0.1949E+00  0.3713E+00
      3.367  0.1952E+00  0.3866E+00
      3.445  0.1954E+00  0.4018E+00
      3.523  0.1845E+00  0.4162E+00
      3.601  0.1464E+00  0.4276E+00
      3.679  0.9070E-01  0.4347E+00
      3.757  0.4247E-01  0.4380E+00
      3.835  0.1487E-01  0.4391E+00
      3.913  0.3878E-02  0.4394E+00
      3.990  0.7812E-03  0.4395E+00
      4.068  0.3690E-03  0.4395E+00
      4.146  0.1674E-02  0.4397E+00
      4.224  0.7870E-02  0.4403E+00
      4.302  0.2767E-01  0.4424E+00
      4.380  0.7231E-01  0.4481E+00
      4.458  0.1405E+00  0.4590E+00
      4.536  0.2029E+00  0.4748E+00
      4.614  0.2179E+00  0.4918E+00
      4.692  0.1740E+00  0.5054E+00
      4.770  0.1033E+00  0.5135E+00
      4.848  0.4560E-01  0.5170E+00
      4.926  0.1496E-01  0.5182E+00
      5.004  0.3663E-02  0.5185E+00
      5.082  0.7794E-03  0.5185E+00
      5.160  0.7495E-03  0.5186E+00
      5.238  0.2737E-02  0.5188E+00
      5.316  0.8370E-02  0.5194E+00
      5.394  0.1909E-01  0.5209E+00
      5.472  0.3236E-01  0.5235E+00
      5.550  0.4079E-01  0.5266E+00
      5.628  0.3823E-01  0.5296E+00
      5.706  0.2665E-01  0.5317E+00
      5.784  0.1387E-01  0.5328E+00
      5.862  0.5778E-02  0.5332E+00
      5.940  0.3824E-02  0.5335E+00
      6.018  0.8847E-02  0.5342E+00
      6.096  0.2350E-01  0.5360E+00
      6.174  0.4797E-01  0.5398E+00
      6.252  0.7293E-01  0.5455E+00
      6.329  0.8245E-01  0.5519E+00
      6.407  0.6931E-01  0.5573E+00
      6.485  0.4332E-01  0.5607E+00
      6.563  0.2019E-01  0.5623E+00
      6.641  0.7425E-02  0.5628E+00
      6.719  0.4599E-02  0.5632E+00
      6.797  0.1280E-01  0.5642E+00
      6.875  0.4123E-01  0.5674E+00
      6.953  0.1016E+00  0.5753E+00
      7.031  0.1875E+00  0.5899E+00
      7.109  0.2587E+00  0.6101E+00
      7.187  0.2683E+00  0.6310E+00
      7.265  0.2128E+00  0.6476E+00
      7.343  0.1396E+00  0.6585E+00
      7.421  0.9597E-01  0.6660E+00
      7.499  0.8708E-01  0.6728E+00
      7.577  0.8659E-01  0.6795E+00
      7.655  0.7298E-01  0.6852E+00
      7.733  0.4874E-01  0.6890E+00
      7.811  0.2959E-01  0.6913E+00
      7.889  0.2531E-01  0.6933E+00
      7.967  0.3277E-01  0.6959E+00
      8.045  0.4073E-01  0.6990E+00
      8.123  0.3977E-01  0.7021E+00
      8.201  0.3014E-01  0.7045E+00
      8.279  0.1975E-01  0.7060E+00
      8.357  0.1477E-01  0.7072E+00
      8.435  0.1445E-01  0.7083E+00
      8.513  0.1440E-01  0.7094E+00
      8.591  0.1318E-01  0.7105E+00
      8.668  0.1613E-01  0.7117E+00
      8.746  0.3504E-01  0.7144E+00
      8.824  0.8152E-01  0.7208E+00
      8.902  0.1505E+00  0.7325E+00
      8.980  0.2085E+00  0.7488E+00
      9.058  0.2151E+00  0.7656E+00
      9.136  0.1650E+00  0.7784E+00
      9.214  0.9407E-01  0.7858E+00
      9.292  0.3988E-01  0.7889E+00
      9.370  0.1256E-01  0.7898E+00
      9.448  0.2942E-02  0.7901E+00
      9.526  0.5117E-03  0.7901E+00
      9.604  0.6610E-04  0.7901E+00
      9.682  0.6339E-05  0.7901E+00
      9.760  0.4511E-06  0.7901E+00
      9.838  0.2381E-07  0.7901E+00
      9.916  0.9323E-09  0.7901E+00
      9.994  0.2706E-10  0.7901E+00
     10.072  0.5819E-12  0.7901E+00
     10.150  0.1014E-13  0.7901E+00
     10.228  0.5855E-13  0.7901E+00
     10.306  0.3152E-11  0.7901E+00
     10.384  0.1259E-09  0.7901E+00
     10.462  0.3730E-08  0.7901E+00
     10.540  0.8192E-07  0.7901E+00
     10.618  0.1334E-05  0.7901E+00
     10.696  0.1613E-04  0.7901E+00
     10.774  0.1447E-03  0.7901E+00
     10.852  0.9637E-03  0.7902E+00
     10.929  0.4768E-02  0.7906E+00
     11.007  0.1753E-01  0.7919E+00
     11.085  0.4788E-01  0.7957E+00
     11.163  0.9723E-01  0.8033E+00
     11.241  0.1468E+00  0.8147E+00
     11.319  0.1649E+00  0.8276E+00
     11.397  0.1381E+00  0.8383E+00
     11.475  0.8850E-01  0.8452E+00
     11.553  0.5196E-01  0.8493E+00
     11.631  0.5082E-01  0.8532E+00
     11.709  0.8573E-01  0.8599E+00
     11.787  0.1355E+00  0.8705E+00
     11.865  0.1645E+00  0.8833E+00
     11.943  0.1494E+00  0.8950E+00
     12.021  0.1029E+00  0.9030E+00
     12.099  0.6084E-01  0.9077E+00
     12.177  0.5189E-01  0.9118E+00
     12.255  0.8386E-01  0.9183E+00
     12.333  0.1444E+00  0.9296E+00
     12.411  0.2067E+00  0.9457E+00
     12.489  0.2458E+00  0.9649E+00
     12.567  0.2512E+00  0.9844E+00
     12.645  0.2218E+00  0.1002E+01
     12.723  0.1641E+00  0.1015E+01
     12.801  0.9783E-01  0.1022E+01
     12.879  0.4789E-01  0.1026E+01
     12.957  0.2772E-01  0.1028E+01
     13.035  0.3711E-01  0.1031E+01
     13.113  0.6713E-01  0.1036E+01
     13.191  0.9904E-01  0.1044E+01
     13.268  0.1097E+00  0.1052E+01
     13.346  0.9040E-01  0.1060E+01
     13.424  0.5541E-01  0.1064E+01
     13.502  0.2524E-01  0.1066E+01
     13.580  0.8550E-02  0.1066E+01
     13.658  0.2152E-02  0.1067E+01
     13.736  0.4023E-03  0.1067E+01
     13.814  0.5587E-04  0.1067E+01
     13.892  0.5760E-05  0.1067E+01
     13.970  0.4408E-06  0.1067E+01
     14.048  0.2502E-07  0.1067E+01
     14.126  0.1054E-08  0.1067E+01
     14.204  0.3289E-10  0.1067E+01
     14.282  0.7609E-12  0.1067E+01
     14.360  0.1305E-13  0.1067E+01
     14.438  0.1688E-15  0.1067E+01
     14.516  0.0000E+00  0.1067E+01
     14.594  0.0000E+00  0.1067E+01
     14.672  0.0000E+00  0.1067E+01
     14.750  0.0000E+00  0.1067E+01
     14.828  0.0000E+00  0.1067E+01
     14.906  0.0000E+00  0.1067E+01
     14.984  0.0000E+00  0.1067E+01
     15.062  0.0000E+00  0.1067E+01
     15.140  0.0000E+00  0.1067E+01
     15.218  0.0000E+00  0.1067E+01
