       N       E                     dE             d eps       ncg     rms          rms(c)
DAV:   1     0.430048059927E+01    0.43005E+01   -0.25412E+03    64   0.576E+02
DAV:   2    -0.102783473106E+02   -0.14579E+02   -0.14451E+02   104   0.719E+01
DAV:   3    -0.104631475015E+02   -0.18480E+00   -0.18480E+00    80   0.112E+01
DAV:   4    -0.104637402855E+02   -0.59278E-03   -0.59278E-03    96   0.606E-01
DAV:   5    -0.104637413153E+02   -0.10297E-05   -0.10298E-05    80   0.160E-02    0.336E+00
DAV:   6    -0.102961263138E+02    0.16762E+00   -0.10624E-01    80   0.173E+00    0.199E+00
DAV:   7    -0.102218461765E+02    0.74280E-01   -0.20164E-01    80   0.255E+00    0.183E-01
DAV:   8    -0.102246303439E+02   -0.27842E-02   -0.63709E-03    64   0.570E-01    0.301E-02
DAV:   9    -0.102248040752E+02   -0.17373E-03   -0.21109E-04    80   0.113E-01
   1 F= -.10224804E+02 E0= -.10223891E+02  d E =-.102248E+02
       N       E                     dE             d eps       ncg     rms          rms(c)
DAV:   1    -0.102607617578E+02   -0.36131E-01   -0.10315E+00    72   0.564E+00    0.640E-01
DAV:   2    -0.102436156854E+02    0.17146E-01   -0.12345E-02    64   0.747E-01    0.369E-01
DAV:   3    -0.102343806202E+02    0.92351E-02   -0.17799E-02    80   0.682E-01    0.435E-02
DAV:   4    -0.102344010449E+02   -0.20425E-04   -0.20925E-04    40   0.123E-01
   2 F= -.10234401E+02 E0= -.10234048E+02  d E =-.959697E-02
       N       E                     dE             d eps       ncg     rms          rms(c)
DAV:   1    -0.102493536327E+02   -0.14973E-01   -0.19527E-01    72   0.250E+00    0.280E-01
DAV:   2    -0.102461643452E+02    0.31893E-02   -0.22451E-03    64   0.317E-01    0.162E-01
DAV:   3    -0.102444728055E+02    0.16915E-02   -0.32678E-03    72   0.294E-01    0.190E-02
DAV:   4    -0.102444825785E+02   -0.97730E-05   -0.40900E-05    40   0.565E-02
   3 F= -.10244483E+02 E0= -.10243964E+02  d E =-.196785E-01
