unknown system                          
   1.00000000000000     
     0.000000    2.715000    2.715000
     2.715000    0.000000    2.715000
     2.715000    2.715000    0.000000
   Si
     2
Direct
  0.500000  0.500000  0.500000
  0.750000  0.750000  0.750000
 
   28   28   28
 0.88984     0.91683      1.0000      1.1466      1.3685      1.6815      2.1014      2.6379      3.2866      4.0226    
  4.7969      5.5376      6.1580      6.5731      6.7192      6.5730      6.1580      5.5375      4.7969      4.0226    
  3.2866      2.6379      2.1015      1.6816      1.3685      1.1466      1.0000     0.91680     0.91683     0.96232    
  1.0568      1.2074      1.4246      1.7207      2.1057      2.5819      3.1375      3.7431      4.3497      4.8939    
  5.3073      5.5311      5.5311      5.3073      4.8939      4.3497      3.7431      3.1376      2.5819      2.1058    
  1.7208      1.4247      1.2074      1.0568     0.96231     0.91682      1.0000      1.0568      1.1560      1.3044    
  1.5107      1.7833      2.1270      2.5381      3.0004      3.4825      3.9399      4.3201      4.5728      4.6616    
  4.5728      4.3201      3.9399      3.4825      3.0004      2.5382      2.1271      1.7834      1.5107      1.3043    
  1.1559      1.0568      1.0000     0.98159      1.1466      1.2074      1.3044      1.4438      1.6322      1.8745    
  2.1711      2.5143      2.8856      3.2551      3.5847      3.8338      3.9682      3.9682      3.8338      3.5847    
  3.2551      2.8856      2.5144      2.1712      1.8745      1.6321      1.4437      1.3043      1.2074      1.1466    
  1.1174      1.1174      1.3685      1.4246      1.5107      1.6322      1.7938      1.9978      2.2412      2.5143    
  2.7986      3.0679      3.2915      3.4400      3.4920      3.4399      3.2915      3.0679      2.7987      2.5143    
  2.2412      1.9977      1.7937      1.6321      1.5106      1.4246      1.3685      1.3372      1.3271      1.3371    
  1.6815      1.7207      1.7833      1.8745      1.9978      2.1533      2.3369      2.5381      2.7405      2.9223    
  3.0606      3.1355      3.1355      3.0606      2.9223      2.7405      2.5381      2.3369      2.1533      1.9977    
  1.8745      1.7833      1.7208      1.6815      1.6597      1.6503      1.6503      1.6597      2.1014      2.1057    
  2.1270      2.1711      2.2412      2.3369      2.4536      2.5819      2.7081      2.8158      2.8885      2.9142    
  2.8885      2.8158      2.7081      2.5818      2.4535      2.3369      2.2412      2.1712      2.1271      2.1058    
  2.1015      2.1066      2.1136      2.1166      2.1135      2.1066      2.6379      2.5819      2.5381      2.5143    
  2.5143      2.5381      2.5819      2.6379      2.6957      2.7433      2.7703      2.7703      2.7433      2.6957    
  2.6379      2.5819      2.5382      2.5144      2.5144      2.5382      2.5819      2.6379      2.6957      2.7433    
  2.7703      2.7703      2.7433      2.6957      3.2866      3.1375      3.0004      2.8856      2.7986      2.7405    
  2.7081      2.6957      2.6954      2.6994      2.7014      2.6994      2.6954      2.6957      2.7082      2.7406    
  2.7987      2.8856      3.0004      3.1375      3.2865      3.4321      3.5557      3.6391      3.6686      3.6391    
  3.5557      3.4321      4.0226      3.7431      3.4825      3.2551      3.0679      2.9223      2.8158      2.7433    
  2.6994      2.6789      2.6789      2.6994      2.7434      2.8158      2.9225      3.0680      3.2552      3.4825    
  3.7430      4.0225      4.2993      4.5458      4.7321      4.8327      4.8327      4.7321      4.5458      4.2994    
  4.7969      4.3497      3.9399      3.5847      3.2915      3.0606      2.8885      2.7703      2.7014      2.6789    
  2.7015      2.7703      2.8886      3.0607      3.2916      3.5847      3.9398      4.3496      4.7968      5.2527    
  5.6780      6.0277      6.2587      6.3395      6.2587      6.0278      5.6781      5.2528      5.5376      4.8939    
  4.3201      3.8338      3.4400      3.1355      2.9142      2.7703      2.6994      2.6994      2.7703      2.9143    
  3.1356      3.4401      3.8339      4.3200      4.8937      5.5374      6.2166      6.8800      7.4640      7.9016    
  8.1367      8.1367      7.9016      7.4640      6.8801      6.2167      6.1580      5.3073      4.5728      3.9682    
  3.4920      3.1355      2.8885      2.7433      2.6954      2.7434      2.8886      3.1356      3.4922      3.9683    
  4.5728      5.3071      6.1578      7.0895      8.0417      8.9316      9.6640      10.148      10.317      10.148    
  9.6638      8.9316      8.0418      7.0897      6.5731      5.5311      4.6616      3.9682      3.4399      3.0606    
  2.8158      2.6957      2.6957      2.8158      3.0607      3.4401      3.9683      4.6615      5.5309      6.5728    
  7.7582      9.0249      10.276      11.389      12.229      12.683      12.682      12.229      11.388      10.276    
  9.0249      7.7584      6.7192      5.5311      4.5728      3.8338      3.2915      2.9223      2.7081      2.6379    
  2.7082      2.9225      3.2916      3.8339      4.5728      5.5309      6.7190      8.1223      9.6881      11.317    
  12.867      14.161      15.027      15.331      15.027      14.161      12.866      11.317      9.6881      8.1225    
  6.5730      5.3073      4.3201      3.5847      3.0679      2.7405      2.5818      2.5819      2.7406      3.0680    
  3.5847      4.3200      5.3071      6.5728      8.1223      9.9228      11.889      13.874      15.675      17.044    
  17.781      17.781      17.045      15.675      13.874      11.888      9.9228      8.1225      6.1580      4.8939    
  3.9399      3.2551      2.7987      2.5381      2.4535      2.5382      2.7987      3.2552      3.9398      4.8937    
  6.1578      7.7582      9.6881      11.889      14.232      16.508      18.407      19.658      20.093      19.658    
  18.408      16.508      14.232      11.888      9.6880      7.7583      5.5375      4.3497      3.4825      2.8856    
  2.5143      2.3369      2.3369      2.5144      2.8856      3.4825      4.3496      5.5374      7.0895      9.0249    
  11.317      13.874      16.508      18.888      20.674      21.627      21.627      20.675      18.889      16.508    
  13.874      11.317      9.0248      7.0896      4.7969      3.7431      3.0004      2.5144      2.2412      2.1533    
  2.2412      2.5144      3.0004      3.7430      4.7968      6.2166      8.0417      10.276      12.867      15.675    
  18.407      20.674      22.164      22.682      22.164      20.675      18.407      15.675      12.866      10.276    
  8.0416      6.2166      4.0226      3.1376      2.5382      2.1712      1.9977      1.9977      2.1712      2.5382    
  3.1375      4.0225      5.2527      6.8800      8.9316      11.389      14.161      17.044      19.658      21.627    
  22.682      22.682      21.627      19.658      17.044      14.161      11.388      8.9314      6.8800      5.2527    
  3.2866      2.5819      2.1271      1.8745      1.7937      1.8745      2.1271      2.5819      3.2865      4.2993    
  5.6780      7.4640      9.6640      12.229      15.027      17.781      20.093      21.627      22.164      21.627    
  20.093      17.781      15.027      12.229      9.6638      7.4639      5.6780      4.2994      2.6379      2.1058    
  1.7834      1.6321      1.6321      1.7833      2.1058      2.6379      3.4321      4.5458      6.0277      7.9016    
  10.148      12.683      15.331      17.781      19.658      20.675      20.675      19.658      17.781      15.331    
  12.682      10.148      7.9015      6.0277      4.5457      3.4321      2.1015      1.7208      1.5107      1.4437    
  1.5106      1.7208      2.1015      2.6957      3.5557      4.7321      6.2587      8.1367      10.317      12.682    
  15.027      17.045      18.408      18.889      18.407      17.044      15.027      12.682      10.317      8.1366    
  6.2586      4.7320      3.5557      2.6957      1.6816      1.4247      1.3043      1.3043      1.4246      1.6815    
  2.1066      2.7433      3.6391      4.8327      6.3395      8.1367      10.148      12.229      14.161      15.675    
  16.508      16.508      15.675      14.161      12.229      10.148      8.1366      6.3395      4.8326      3.6391    
  2.7433      2.1066      1.3685      1.2074      1.1559      1.2074      1.3685      1.6597      2.1136      2.7703    
  3.6686      4.8327      6.2587      7.9016      9.6638      11.388      12.866      13.874      14.232      13.874    
  12.866      11.388      9.6638      7.9015      6.2586      4.8326      3.6686      2.7703      2.1136      1.6597    
  1.1466      1.0568      1.0568      1.1466      1.3372      1.6503      2.1166      2.7703      3.6391      4.7321    
  6.0278      7.4640      8.9316      10.276      11.317      11.888      11.888      11.317      10.276      8.9314    
  7.4639      6.0277      4.7320      3.6391      2.7703      2.1167      1.6503      1.3372      1.0000     0.96231    
  1.0000      1.1174      1.3271      1.6503      2.1135      2.7433      3.5557      4.5458      5.6781      6.8801    
  8.0418      9.0249      9.6881      9.9228      9.6880      9.0248      8.0416      6.8800      5.6780      4.5457    
  3.5557      2.7433      2.1136      1.6503      1.3272      1.1174     0.91680     0.91682     0.98159      1.1174    
  1.3371      1.6597      2.1066      2.6957      3.4321      4.2994      5.2528      6.2167      7.0897      7.7584    
  8.1225      8.1225      7.7583      7.0896      6.2166      5.2527      4.2994      3.4321      2.6957      2.1066    
  1.6597      1.3372      1.1174     0.98154     0.91683     0.96233      1.0568      1.2074      1.4246      1.7207    
  2.1057      2.5819      3.1375      3.7431      4.3497      4.8939      5.3073      5.5311      5.5311      5.3073    
  4.8939      4.3497      3.7431      3.1376      2.5819      2.1058      1.7208      1.4247      1.2074      1.0568    
 0.96231     0.91682     0.96233      1.0176      1.1140      1.2579      1.4578      1.7219      2.0550      2.4535    
  2.9017      3.3690      3.8120      4.1800      4.4245      4.5103      4.4245      4.1800      3.8120      3.3690    
  2.9017      2.4536      2.0551      1.7220      1.4578      1.2579      1.1139      1.0176     0.96233     0.94433    
  1.0568      1.1140      1.2048      1.3349      1.5108      1.7373      2.0151      2.3369      2.6851      3.0313    
  3.3396      3.5722      3.6976      3.6976      3.5722      3.3396      3.0313      2.6851      2.3369      2.0152    
  1.7374      1.5108      1.3349      1.2048      1.1140      1.0568      1.0292      1.0292      1.2074      1.2579    
  1.3349      1.4437      1.5888      1.7728      1.9933      2.2412      2.4993      2.7433      2.9452      3.0789    
  3.1257      3.0789      2.9452      2.7433      2.4993      2.2413      1.9933      1.7728      1.5888      1.4436    
  1.3349      1.2579      1.2074      1.1790      1.1699      1.1790      1.4246      1.4578      1.5108      1.5888    
  1.6955      1.8316      1.9933      2.1711      2.3498      2.5098      2.6310      2.6964      2.6964      2.6310    
  2.5098      2.3498      2.1711      1.9933      1.8316      1.6954      1.5888      1.5108      1.4578      1.4246    
  1.4061      1.3981      1.3980      1.4061      1.7207      1.7219      1.7373      1.7728      1.8316      1.9137    
  2.0151      2.1270      2.2369      2.3302      2.3929      2.4151      2.3929      2.3302      2.2369      2.1270    
  2.0151      1.9137      1.8315      1.7727      1.7373      1.7219      1.7208      1.7269      1.7338      1.7367    
  1.7338      1.7269      2.1057      2.0550      2.0151      1.9933      1.9933      2.0151      2.0550      2.1057    
  2.1576      2.2001      2.2240      2.2240      2.2001      2.1576      2.1057      2.0550      2.0151      1.9933    
  1.9933      2.0151      2.0550      2.1057      2.1576      2.2001      2.2240      2.2240      2.2001      2.1576    
  2.5819      2.4535      2.3369      2.2412      2.1711      2.1270      2.1057      2.1014      2.1066      2.1135    
  2.1166      2.1136      2.1066      2.1015      2.1058      2.1271      2.1712      2.2412      2.3369      2.4535    
  2.5818      2.7081      2.8158      2.8885      2.9142      2.8885      2.8158      2.7081      3.1375      2.9017    
  2.6851      2.4993      2.3498      2.2369      2.1576      2.1066      2.0775      2.0646      2.0646      2.0775    
  2.1066      2.1577      2.2370      2.3498      2.4993      2.6850      2.9016      3.1375      3.3740      3.5867    
  3.7486      3.8364      3.8364      3.7486      3.5867      3.3740      3.7431      3.3690      3.0313      2.7433    
  2.5098      2.3302      2.2001      2.1135      2.0646      2.0489      2.0647      2.1136      2.2002      2.3303    
  2.5099      2.7432      3.0312      3.3688      3.7430      4.1300      4.4961      4.8005      5.0032      5.0745    
  5.0032      4.8005      4.4961      4.1300      4.3497      3.8120      3.3396      2.9452      2.6310      2.3929    
  2.2240      2.1166      2.0646      2.0647      2.1167      2.2241      2.3930      2.6310      2.9451      3.3394    
  3.8118      4.3496      4.9258      5.4974      6.0078      6.3947      6.6042      6.6042      6.3947      6.0078    
  5.4974      4.9258      4.8939      4.1800      3.5722      3.0789      2.6964      2.4151      2.2240      2.1136    
  2.0775      2.1136      2.2241      2.4152      2.6964      3.0788      3.5720      4.1797      4.8937      5.6875    
  6.5116      7.2938      7.9464      8.3820      8.5353      8.3819      7.9463      7.2938      6.5116      5.6875    
  5.3073      4.4245      3.6976      3.1257      2.6964      2.3929      2.2001      2.1066      2.1066      2.2002    
  2.3930      2.6964      3.1256      3.6974      4.4242      5.3071      6.3259      7.4314      8.5405      9.5403    
  10.304      10.720      10.720      10.304      9.5402      8.5404      7.4313      6.3260      5.5311      4.5103    
  3.6976      3.0789      2.6310      2.3302      2.1576      2.1015      2.1577      2.3303      2.6310      3.0788    
  3.6974      4.5100      5.5309      6.7532      8.1368      9.5981      11.007      12.198      13.000      13.284    
  13.000      12.198      11.007      9.5979      8.1367      6.7533      5.5311      4.4245      3.5722      2.9452    
  2.5098      2.2369      2.1057      2.1058      2.2370      2.5099      2.9451      3.5720      4.4242      5.5309    
  6.9037      8.5213      10.313      12.145      13.828      15.132      15.848      15.848      15.132      13.828    
  12.145      10.312      8.5212      6.9038      5.3073      4.1800      3.3396      2.7433      2.3498      2.1270    
  2.0550      2.1271      2.3498      2.7432      3.3394      4.1797      5.3071      6.7532      8.5213      10.566    
  12.771      14.942      16.810      18.086      18.541      18.086      16.810      14.942      12.771      10.565    
  8.5211      6.7532      4.8939      3.8120      3.0313      2.4993      2.1711      2.0151      2.0151      2.1712    
  2.4993      3.0312      3.8118      4.8937      6.3259      8.1368      10.313      12.771      15.339      17.740    
  19.629      20.673      20.673      19.629      17.740      15.339      12.771      10.312      8.1367      6.3259    
  4.3497      3.3690      2.6851      2.2413      1.9933      1.9137      1.9933      2.2412      2.6850      3.3688    
  4.3496      5.6875      7.4314      9.5981      12.145      14.942      17.740      20.181      21.853      22.449    
  21.854      20.181      17.740      14.942      12.145      9.5978      7.4313      5.6875      3.7431      2.9017    
  2.3369      1.9933      1.8316      1.8315      1.9933      2.3369      2.9016      3.7430      4.9258      6.5116    
  8.5405      11.007      13.828      16.810      19.629      21.853      23.082      23.082      21.854      19.629    
  16.810      13.828      11.007      8.5403      6.5115      4.9258      3.1376      2.4536      2.0152      1.7728    
  1.6954      1.7727      2.0151      2.4535      3.1375      4.1300      5.4974      7.2938      9.5403      12.198    
  15.132      18.086      20.673      22.449      23.082      22.449      20.673      18.086      15.132      12.197    
  9.5401      7.2937      5.4974      4.1300      2.5819      2.0551      1.7374      1.5888      1.5888      1.7373    
  2.0550      2.5818      3.3740      4.4961      6.0078      7.9464      10.304      13.000      15.848      18.541    
  20.673      21.854      21.854      20.673      18.541      15.848      13.000      10.304      7.9463      6.0077    
  4.4961      3.3741      2.1058      1.7220      1.5108      1.4436      1.5108      1.7219      2.1057      2.7081    
  3.5867      4.8005      6.3947      8.3820      10.720      13.284      15.848      18.086      19.629      20.181    
  19.629      18.086      15.848      13.284      10.720      8.3819      6.3947      4.8005      3.5867      2.7082    
  1.7208      1.4578      1.3349      1.3349      1.4578      1.7208      2.1576      2.8158      3.7486      5.0032    
  6.6042      8.5353      10.720      13.000      15.132      16.810      17.740      17.740      16.810      15.132    
  13.000      10.720      8.5353      6.6041      5.0032      3.7486      2.8158      2.1577      1.4247      1.2579    
  1.2048      1.2579      1.4246      1.7269      2.2001      2.8885      3.8364      5.0745      6.6042      8.3819    
  10.304      12.198      13.828      14.942      15.339      14.942      13.828      12.197      10.304      8.3819    
  6.6041      5.0745      3.8365      2.8886      2.2002      1.7270      1.2074      1.1139      1.1140      1.2074    
  1.4061      1.7338      2.2240      2.9142      3.8364      5.0032      6.3947      7.9463      9.5402      11.007    
  12.145      12.771      12.771      12.145      11.007      9.5401      7.9463      6.3947      5.0032      3.8365    
  2.9143      2.2241      1.7339      1.4061      1.0568      1.0176      1.0568      1.1790      1.3981      1.7367    
  2.2240      2.8885      3.7486      4.8005      6.0078      7.2938      8.5404      9.5979      10.312      10.565    
  10.312      9.5978      8.5403      7.2937      6.0077      4.8005      3.7486      2.8886      2.2241      1.7368    
  1.3981      1.1790     0.96231     0.96233      1.0292      1.1699      1.3980      1.7338      2.2001      2.8158    
  3.5867      4.4961      5.4974      6.5116      7.4313      8.1367      8.5212      8.5211      8.1367      7.4313    
  6.5115      5.4974      4.4961      3.5867      2.8158      2.2002      1.7339      1.3981      1.1698      1.0292    
 0.91682     0.94433      1.0292      1.1790      1.4061      1.7269      2.1576      2.7081      3.3740      4.1300    
  4.9258      5.6875      6.3260      6.7533      6.9038      6.7532      6.3259      5.6875      4.9258      4.1300    
  3.3741      2.7082      2.1577      1.7270      1.4061      1.1790      1.0292     0.94430      1.0000      1.0568    
  1.1560      1.3044      1.5107      1.7833      2.1270      2.5381      3.0004      3.4825      3.9399      4.3201    
  4.5728      4.6616      4.5728      4.3201      3.9399      3.4825      3.0004      2.5382      2.1271      1.7834    
  1.5107      1.3043      1.1559      1.0568      1.0000     0.98159      1.0568      1.1140      1.2048      1.3349    
  1.5108      1.7373      2.0151      2.3369      2.6851      3.0313      3.3396      3.5722      3.6976      3.6976    
  3.5722      3.3396      3.0313      2.6851      2.3369      2.0152      1.7374      1.5108      1.3349      1.2048    
  1.1140      1.0568      1.0292      1.0292      1.1560      1.2048      1.2790      1.3836      1.5234      1.7008    
  1.9137      2.1534      2.4027      2.6382      2.8329      2.9617      3.0068      2.9617      2.8329      2.6382    
  2.4027      2.1534      1.9138      1.7008      1.5234      1.3836      1.2790      1.2048      1.1560      1.1285    
  1.1196      1.1284      1.3044      1.3349      1.3836      1.4554      1.5541      1.6806      1.8316      1.9978    
  2.1645      2.3135      2.4259      2.4864      2.4864      2.4259      2.3135      2.1645      1.9978      1.8316    
  1.6806      1.5540      1.4554      1.3836      1.3349      1.3044      1.2871      1.2795      1.2795      1.2871    
  1.5107      1.5108      1.5234      1.5541      1.6064      1.6806      1.7728      1.8745      1.9740      2.0580    
  2.1142      2.1340      2.1142      2.0580      1.9740      1.8745      1.7728      1.6806      1.6064      1.5540    
  1.5234      1.5108      1.5107      1.5166      1.5228      1.5253      1.5228      1.5166      1.7833      1.7373    
  1.7008      1.6806      1.6806      1.7008      1.7373      1.7833      1.8297      1.8672      1.8881      1.8881    
  1.8672      1.8297      1.7833      1.7373      1.7008      1.6806      1.6806      1.7008      1.7373      1.7833    
  1.8297      1.8672      1.8881      1.8881      1.8672      1.8297      2.1270      2.0151      1.9137      1.8316    
  1.7728      1.7373      1.7219      1.7207      1.7269      1.7338      1.7367      1.7338      1.7269      1.7208    
  1.7219      1.7373      1.7727      1.8315      1.9137      2.0151      2.1270      2.2369      2.3302      2.3929    
  2.4151      2.3929      2.3302      2.2369      2.5381      2.3369      2.1534      1.9978      1.8745      1.7833    
  1.7207      1.6815      1.6597      1.6502      1.6503      1.6597      1.6815      1.7208      1.7833      1.8745    
  1.9977      2.1533      2.3369      2.5381      2.7405      2.9223      3.0606      3.1355      3.1355      3.0606    
  2.9223      2.7405      3.0004      2.6851      2.4027      2.1645      1.9740      1.8297      1.7269      1.6597    
  1.6222      1.6102      1.6222      1.6597      1.7270      1.8297      1.9740      2.1644      2.4026      2.6850    
  3.0003      3.3283      3.6393      3.8982      4.0706      4.1312      4.0706      3.8982      3.6392      3.3282    
  3.4825      3.0313      2.6382      2.3135      2.0580      1.8672      1.7338      1.6502      1.6102      1.6103    
  1.6503      1.7339      1.8672      2.0580      2.3134      2.6381      3.0312      3.4825      3.9691      4.4541    
  4.8885      5.2184      5.3971      5.3971      5.2184      4.8884      4.4541      3.9691      3.9399      3.3396    
  2.8329      2.4259      2.1142      1.8881      1.7367      1.6503      1.6222      1.6503      1.7368      1.8882    
  2.1141      2.4258      2.8327      3.3394      3.9398      4.6118      5.3133      5.9818      6.5411      6.9151    
  7.0469      6.9151      6.5411      5.9818      5.3132      4.6118      4.3201      3.5722      2.9617      2.4864    
  2.1340      1.8881      1.7338      1.6597      1.6597      1.7339      1.8882      2.1339      2.4863      2.9615    
  3.5720      4.3200      5.1891      6.1372      7.0924      7.9562      8.6176      8.9777      8.9777      8.6176    
  7.9562      7.0923      6.1371      5.1890      4.5728      3.6976      3.0068      2.4864      2.1142      1.8672    
  1.7269      1.6815      1.7270      1.8672      2.1141      2.4863      3.0066      3.6974      4.5728      5.6281    
  6.8290      8.1023      9.3334      10.376      11.079      11.328      11.079      10.376      9.3333      8.1022    
  6.8289      5.6280      4.6616      3.6976      2.9617      2.4259      2.0580      1.8297      1.7208      1.7208    
  1.8297      2.0580      2.4258      2.9615      3.6974      4.6615      5.8659      7.2926      8.8786      10.505    
  12.001      13.161      13.797      13.797      13.161      12.001      10.505      8.8785      7.2925      5.8659    
  4.5728      3.5722      2.8329      2.3135      1.9740      1.7833      1.7219      1.7833      1.9740      2.3134    
  2.8327      3.5720      4.5728      5.8659      7.4561      9.3023      11.299      13.266      14.960      16.116    
  16.528      16.116      14.960      13.266      11.299      9.3021      7.4559      5.8659      4.3201      3.3396    
  2.6382      2.1645      1.8745      1.7373      1.7373      1.8745      2.1644      2.6381      3.3394      4.3200    
  5.6281      7.2926      9.3023      11.581      13.963      16.192      17.945      18.917      18.917      17.945    
  16.192      13.963      11.580      9.3021      7.2924      5.6280      3.9399      3.0313      2.4027      1.9978    
  1.7728      1.7008      1.7727      1.9977      2.4026      3.0312      3.9398      5.1891      6.8290      8.8786    
  11.299      13.963      16.632      18.961      20.568      21.144      20.568      18.961      16.632      13.963    
  11.299      8.8785      6.8289      5.1890      3.4825      2.6851      2.1534      1.8316      1.6806      1.6806    
  1.8315      2.1533      2.6850      3.4825      4.6118      6.1372      8.1023      10.505      13.266      16.192    
  18.961      21.160      22.386      22.386      21.160      18.961      16.192      13.266      10.505      8.1022    
  6.1371      4.6118      3.0004      2.3369      1.9138      1.6806      1.6064      1.6806      1.9137      2.3369    
  3.0003      3.9691      5.3133      7.0924      9.3334      12.001      14.960      17.945      20.568      22.386    
  23.038      22.385      20.568      17.945      14.960      12.001      9.3333      7.0923      5.3132      3.9691    
  2.5382      2.0152      1.7008      1.5540      1.5540      1.7008      2.0151      2.5381      3.3283      4.4541    
  5.9818      7.9562      10.376      13.161      16.116      18.917      21.144      22.386      22.385      21.143    
  18.917      16.116      13.161      10.376      7.9562      5.9818      4.4541      3.3283      2.1271      1.7374    
  1.5234      1.4554      1.5234      1.7373      2.1270      2.7405      3.6393      4.8885      6.5411      8.6176    
  11.079      13.797      16.528      18.917      20.568      21.160      20.568      18.917      16.528      13.797    
  11.079      8.6176      6.5411      4.8885      3.6393      2.7406      1.7834      1.5108      1.3836      1.3836    
  1.5108      1.7833      2.2369      2.9223      3.8982      5.2184      6.9151      8.9777      11.328      13.797    
  16.116      17.945      18.961      18.961      17.945      16.116      13.797      11.328      8.9778      6.9151    
  5.2184      3.8983      2.9225      2.2370      1.5107      1.3349      1.2790      1.3349      1.5107      1.8297    
  2.3302      3.0606      4.0706      5.3971      7.0469      8.9777      11.079      13.161      14.960      16.192    
  16.632      16.192      14.960      13.161      11.079      8.9778      7.0469      5.3972      4.0707      3.0608    
  2.3303      1.8298      1.3043      1.2048      1.2048      1.3044      1.5166      1.8672      2.3929      3.1355    
  4.1312      5.3971      6.9151      8.6176      10.376      12.001      13.266      13.963      13.963      13.266    
  12.001      10.376      8.6176      6.9151      5.3972      4.1314      3.1356      2.3931      1.8673      1.5166    
  1.1559      1.1140      1.1560      1.2871      1.5228      1.8881      2.4151      3.1355      4.0706      5.2184    
  6.5411      7.9562      9.3333      10.505      11.299      11.580      11.299      10.505      9.3333      7.9562    
  6.5411      5.2184      4.0707      3.1356      2.4152      1.8882      1.5228      1.2871      1.0568      1.0568    
  1.1285      1.2795      1.5253      1.8881      2.3929      3.0606      3.8982      4.8884      5.9818      7.0923    
  8.1022      8.8785      9.3021      9.3021      8.8785      8.1022      7.0923      5.9818      4.8885      3.8983    
  3.0608      2.3931      1.8882      1.5253      1.2794      1.1284      1.0000      1.0292      1.1196      1.2795    
  1.5228      1.8672      2.3302      2.9223      3.6392      4.4541      5.3132      6.1371      6.8289      7.2925    
  7.4559      7.2924      6.8289      6.1371      5.3132      4.4541      3.6393      2.9225      2.3303      1.8673    
  1.5228      1.2794      1.1195      1.0292     0.98159      1.0292      1.1284      1.2871      1.5166      1.8297    
  2.2369      2.7405      3.3282      3.9691      4.6118      5.1890      5.6280      5.8659      5.8659      5.6280    
  5.1890      4.6118      3.9691      3.3283      2.7406      2.2370      1.8298      1.5166      1.2871      1.1284    
  1.0292     0.98158      1.1466      1.2074      1.3044      1.4438      1.6322      1.8745      2.1711      2.5143    
  2.8855      3.2551      3.5847      3.8338      3.9682      3.9682      3.8338      3.5847      3.2551      2.8856    
  2.5144      2.1712      1.8745      1.6321      1.4437      1.3043      1.2074      1.1466      1.1174      1.1174    
  1.2074      1.2579      1.3349      1.4437      1.5888      1.7728      1.9933      2.2412      2.4993      2.7433    
  2.9452      3.0789      3.1257      3.0789      2.9452      2.7433      2.4993      2.2413      1.9933      1.7728    
  1.5888      1.4436      1.3349      1.2579      1.2074      1.1790      1.1699      1.1790      1.3044      1.3349    
  1.3836      1.4554      1.5541      1.6806      1.8316      1.9978      2.1645      2.3135      2.4259      2.4864    
  2.4864      2.4259      2.3135      2.1645      1.9978      1.8316      1.6806      1.5540      1.4554      1.3836    
  1.3349      1.3044      1.2871      1.2795      1.2795      1.2871      1.4438      1.4437      1.4554      1.4846    
  1.5348      1.6064      1.6955      1.7938      1.8899      1.9707      2.0246      2.0436      2.0246      1.9707    