unknown system                          
   1.00000000000000     
     0.000000    2.715000    2.715000
     2.715000    0.000000    2.715000
     2.715000    2.715000    0.000000
   Si
     2
Direct
  0.500000  0.500000  0.500000
  0.750000  0.750000  0.750000
 
   28   28   28
 0.88905     0.91608     0.99947      1.1462      1.3684      1.6817      2.1019      2.6385      3.2873      4.0233    
  4.7976      5.5382      6.1586      6.5736      6.7197      6.5736      6.1586      5.5383      4.7977      4.0234    
  3.2872      2.6384      2.1018      1.6817      1.3684      1.1463     0.99947     0.91608     0.91608     0.96169    
  1.0563      1.2072      1.4246      1.7210      2.1062      2.5824      3.1382      3.7437      4.3503      4.8945    
  5.3078      5.5316      5.5316      5.3078      4.8945      4.3504      3.7437      3.1381      2.5824      2.1062    
  1.7210      1.4247      1.2072      1.0563     0.96169     0.91608     0.99947      1.0563      1.1557      1.3043    
  1.5108      1.7836      2.1275      2.5387      3.0010      3.4831      3.9404      4.3206      4.5733      4.6621    
  4.5733      4.3206      3.9404      3.4831      3.0009      2.5387      2.1275      1.7836      1.5108      1.3043    
  1.1557      1.0563     0.99947     0.98096      1.1462      1.2072      1.3043      1.4439      1.6324      1.8749    
  2.1716      2.5148      2.8861      3.2556      3.5852      3.8343      3.9687      3.9687      3.8343      3.5852    
  3.2556      2.8861      2.5149      2.1716      1.8749      1.6324      1.4438      1.3043      1.2072      1.1462    
  1.1170      1.1170      1.3684      1.4246      1.5108      1.6324      1.7942      1.9982      2.2417      2.5148    
  2.7992      3.0685      3.2920      3.4405      3.4926      3.4405      3.2920      3.0685      2.7992      2.5149    
  2.2417      1.9982      1.7941      1.6324      1.5108      1.4247      1.3684      1.3370      1.3270      1.3370    
  1.6817      1.7210      1.7836      1.8749      1.9982      2.1538      2.3374      2.5387      2.7410      2.9229    
  3.0612      3.1361      3.1361      3.0612      2.9229      2.7410      2.5387      2.3374      2.1538      1.9982    
  1.8749      1.7836      1.7210      1.6817      1.6598      1.6504      1.6504      1.6598      2.1019      2.1062    
  2.1275      2.1716      2.2417      2.3374      2.4541      2.5824      2.7087      2.8164      2.8891      2.9149    
  2.8891      2.8164      2.7087      2.5824      2.4541      2.3374      2.2417      2.1716      2.1275      2.1062    
  2.1018      2.1070      2.1140      2.1170      2.1140      2.1070      2.6385      2.5824      2.5387      2.5148    
  2.5148      2.5387      2.5824      2.6385      2.6963      2.7440      2.7710      2.7710      2.7440      2.6963    
  2.6384      2.5824      2.5387      2.5149      2.5149      2.5387      2.5824      2.6385      2.6963      2.7440    
  2.7710      2.7710      2.7440      2.6963      3.2873      3.1382      3.0010      2.8861      2.7992      2.7410    
  2.7087      2.6963      2.6961      2.7001      2.7022      2.7001      2.6961      2.6963      2.7087      2.7410    
  2.7992      2.8862      3.0009      3.1381      3.2872      3.4329      3.5566      3.6400      3.6695      3.6400    
  3.5566      3.4329      4.0233      3.7437      3.4831      3.2556      3.0685      2.9229      2.8164      2.7440    
  2.7001      2.6796      2.6796      2.7001      2.7440      2.8164      2.9229      3.0685      3.2557      3.4831    
  3.7437      4.0233      4.3002      4.5467      4.7331      4.8337      4.8337      4.7331      4.5467      4.3002    
  4.7976      4.3503      3.9404      3.5852      3.2920      3.0612      2.8891      2.7710      2.7022      2.6796    
  2.7022      2.7710      2.8891      3.0612      3.2921      3.5853      3.9404      4.3503      4.7976      5.2536    
  5.6790      6.0287      6.2597      6.3405      6.2597      6.0287      5.6790      5.2536      5.5382      4.8945    
  4.3206      3.8343      3.4405      3.1361      2.9149      2.7710      2.7001      2.7001      2.7710      2.9149    
  3.1361      3.4405      3.8344      4.3206      4.8945      5.5382      6.2174      6.8809      7.4648      7.9024    
  8.1374      8.1374      7.9024      7.4648      6.8809      6.2175      6.1586      5.3078      4.5733      3.9687    
  3.4926      3.1361      2.8891      2.7440      2.6961      2.7440      2.8891      3.1361      3.4926      3.9688    
  4.5734      5.3078      6.1585      7.0902      8.0424      8.9322      9.6644      10.148      10.318      10.148    
  9.6643      8.9321      8.0424      7.0903      6.5736      5.5316      4.6621      3.9687      3.4405      3.0612    
  2.8164      2.6963      2.6963      2.8164      3.0612      3.4405      3.9688      4.6621      5.5315      6.5735    
  7.7588      9.0254      10.277      11.389      12.229      12.682      12.682      12.229      11.388      10.276    
  9.0254      7.7589      6.7197      5.5316      4.5733      3.8343      3.2920      2.9229      2.7087      2.6384    
  2.7087      2.9229      3.2921      3.8344      4.5734      5.5315      6.7196      8.1229      9.6884      11.317    
  12.866      14.161      15.026      15.330      15.026      14.161      12.866      11.317      9.6884      8.1230    
  6.5736      5.3078      4.3206      3.5852      3.0685      2.7410      2.5824      2.5824      2.7410      3.0685    
  3.5853      4.3206      5.3078      6.5735      8.1229      9.9231      11.889      13.873      15.674      17.043    
  17.779      17.779      17.044      15.674      13.873      11.888      9.9230      8.1229      6.1586      4.8945    
  3.9404      3.2556      2.7992      2.5387      2.4541      2.5387      2.7992      3.2557      3.9404      4.8945    
  6.1585      7.7588      9.6884      11.889      14.232      16.507      18.406      19.656      20.091      19.656    
  18.406      16.507      14.232      11.888      9.6883      7.7588      5.5383      4.3504      3.4831      2.8861    
  2.5149      2.3374      2.3374      2.5149      2.8862      3.4831      4.3503      5.5382      7.0902      9.0254    
  11.317      13.873      16.507      18.887      20.673      21.625      21.625      20.673      18.887      16.507    
  13.873      11.317      9.0253      7.0903      4.7977      3.7437      3.0009      2.5149      2.2417      2.1538    
  2.2417      2.5149      3.0009      3.7437      4.7976      6.2174      8.0424      10.277      12.866      15.674    
  18.406      20.673      22.162      22.680      22.162      20.673      18.406      15.674      12.866      10.276    
  8.0423      6.2175      4.0234      3.1381      2.5387      2.1716      1.9982      1.9982      2.1716      2.5387    
  3.1381      4.0233      5.2536      6.8809      8.9322      11.389      14.161      17.043      19.656      21.625    
  22.680      22.680      21.626      19.656      17.043      14.161      11.388      8.9321      6.8809      5.2536    
  3.2872      2.5824      2.1275      1.8749      1.7941      1.8749      2.1275      2.5824      3.2872      4.3002    
  5.6790      7.4648      9.6644      12.229      15.026      17.779      20.091      21.625      22.162      21.626    
  20.092      17.779      15.026      12.229      9.6643      7.4648      5.6790      4.3003      2.6384      2.1062    
  1.7836      1.6324      1.6324      1.7836      2.1062      2.6385      3.4329      4.5467      6.0287      7.9024    
  10.148      12.682      15.330      17.779      19.656      20.673      20.673      19.656      17.779      15.330    
  12.682      10.148      7.9024      6.0288      4.5468      3.4329      2.1018      1.7210      1.5108      1.4438    
  1.5108      1.7210      2.1018      2.6963      3.5566      4.7331      6.2597      8.1374      10.318      12.682    
  15.026      17.044      18.406      18.887      18.406      17.043      15.026      12.682      10.318      8.1375    
  6.2597      4.7331      3.5565      2.6963      1.6817      1.4247      1.3043      1.3043      1.4247      1.6817    
  2.1070      2.7440      3.6400      4.8337      6.3405      8.1374      10.148      12.229      14.161      15.674    
  16.507      16.507      15.674      14.161      12.229      10.148      8.1375      6.3406      4.8337      3.6400    
  2.7440      2.1070      1.3684      1.2072      1.1557      1.2072      1.3684      1.6598      2.1140      2.7710    
  3.6695      4.8337      6.2597      7.9024      9.6643      11.388      12.866      13.873      14.232      13.873    
  12.866      11.388      9.6643      7.9024      6.2597      4.8337      3.6695      2.7710      2.1140      1.6598    
  1.1463      1.0563      1.0563      1.1462      1.3370      1.6504      2.1170      2.7710      3.6400      4.7331    
  6.0287      7.4648      8.9321      10.276      11.317      11.888      11.888      11.317      10.276      8.9321    
  7.4648      6.0288      4.7331      3.6400      2.7710      2.1170      1.6504      1.3370     0.99947     0.96169    
 0.99947      1.1170      1.3270      1.6504      2.1140      2.7440      3.5566      4.5467      5.6790      6.8809    
  8.0424      9.0254      9.6884      9.9230      9.6883      9.0253      8.0423      6.8809      5.6790      4.5468    
  3.5565      2.7440      2.1140      1.6504      1.3270      1.1170     0.91608     0.91608     0.98096      1.1170    
  1.3370      1.6598      2.1070      2.6963      3.4329      4.3002      5.2536      6.2175      7.0903      7.7589    
  8.1230      8.1229      7.7588      7.0903      6.2175      5.2536      4.3003      3.4329      2.6963      2.1070    
  1.6598      1.3370      1.1170     0.98095     0.91608     0.96169      1.0563      1.2072      1.4246      1.7210    
  2.1062      2.5824      3.1382      3.7437      4.3503      4.8945      5.3078      5.5316      5.5316      5.3078    
  4.8945      4.3504      3.7437      3.1381      2.5824      2.1062      1.7210      1.4247      1.2072      1.0563    
 0.96169     0.91608     0.96169      1.0171      1.1136      1.2578      1.4579      1.7222      2.0554      2.4541    
  2.9023      3.3696      3.8126      4.1806      4.4250      4.5108      4.4250      4.1806      3.8126      3.3696    
  2.9022      2.4541      2.0554      1.7222      1.4579      1.2578      1.1136      1.0171     0.96169     0.94364    
  1.0563      1.1136      1.2046      1.3350      1.5110      1.7377      2.0156      2.3374      2.6856      3.0319    
  3.3401      3.5728      3.6981      3.6981      3.5728      3.3401      3.0318      2.6856      2.3374      2.0156    
  1.7377      1.5110      1.3350      1.2046      1.1136      1.0563      1.0287      1.0287      1.2072      1.2578    
  1.3350      1.4438      1.5891      1.7731      1.9937      2.2417      2.4998      2.7438      2.9457      3.0794    
  3.1262      3.0794      2.9457      2.7438      2.4998      2.2417      1.9938      1.7731      1.5891      1.4438    
  1.3350      1.2578      1.2072      1.1787      1.1695      1.1787      1.4246      1.4579      1.5110      1.5891    
  1.6958      1.8320      1.9937      2.1716      2.3503      2.5103      2.6315      2.6968      2.6968      2.6315    
  2.5103      2.3503      2.1716      1.9937      1.8320      1.6958      1.5891      1.5110      1.4579      1.4247    
  1.4061      1.3980      1.3980      1.4061      1.7210      1.7222      1.7377      1.7731      1.8320      1.9142    
  2.0156      2.1275      2.2374      2.3307      2.3934      2.4155      2.3934      2.3307      2.2374      2.1275    
  2.0155      1.9142      1.8320      1.7731      1.7377      1.7222      1.7210      1.7271      1.7340      1.7369    
  1.7340      1.7271      2.1062      2.0554      2.0156      1.9937      1.9937      2.0156      2.0554      2.1062    
  2.1581      2.2005      2.2244      2.2244      2.2005      2.1580      2.1062      2.0554      2.0156      1.9938    
  1.9938      2.0156      2.0554      2.1062      2.1581      2.2005      2.2244      2.2244      2.2005      2.1581    
  2.5824      2.4541      2.3374      2.2417      2.1716      2.1275      2.1062      2.1019      2.1070      2.1140    
  2.1170      2.1140      2.1070      2.1018      2.1062      2.1275      2.1716      2.2417      2.3374      2.4541    
  2.5824      2.7087      2.8164      2.8891      2.9149      2.8891      2.8164      2.7087      3.1382      2.9023    
  2.6856      2.4998      2.3503      2.2374      2.1581      2.1070      2.0779      2.0651      2.0650      2.0779    
  2.1070      2.1581      2.2374      2.3503      2.4998      2.6856      2.9022      3.1382      3.3747      3.5874    
  3.7494      3.8372      3.8372      3.7493      3.5874      3.3747      3.7437      3.3696      3.0319      2.7438    
  2.5103      2.3307      2.2005      2.1140      2.0651      2.0493      2.0650      2.1140      2.2005      2.3307    
  2.5104      2.7438      3.0318      3.3695      3.7437      4.1308      4.4969      4.8013      5.0040      5.0753    
  5.0040      4.8013      4.4968      4.1308      4.3503      3.8126      3.3401      2.9457      2.6315      2.3934    
  2.2244      2.1170      2.0650      2.0650      2.1170      2.2244      2.3934      2.6315      2.9457      3.3401    
  3.8125      4.3503      4.9266      5.4982      6.0085      6.3954      6.6048      6.6048      6.3954      6.0085    
  5.4981      4.9265      4.8945      4.1806      3.5728      3.0794      2.6968      2.4155      2.2244      2.1140    
  2.0779      2.1140      2.2244      2.4156      2.6969      3.0794      3.5727      4.1805      4.8945      5.6882    
  6.5122      7.2944      7.9468      8.3824      8.5357      8.3824      7.9468      7.2943      6.5122      5.6881    
  5.3078      4.4250      3.6981      3.1262      2.6968      2.3934      2.2005      2.1070      2.1070      2.2005    
  2.3934      2.6969      3.1262      3.6981      4.4250      5.3078      6.3265      7.4319      8.5408      9.5405    
  10.304      10.720      10.720      10.304      9.5405      8.5407      7.4318      6.3265      5.5316      4.5108    
  3.6981      3.0794      2.6315      2.3307      2.1580      2.1018      2.1581      2.3307      2.6315      3.0794    
  3.6981      4.5107      5.5315      6.7537      8.1372      9.5982      11.007      12.197      13.000      13.284    
  13.000      12.197      11.007      9.5981      8.1371      6.7537      5.5316      4.4250      3.5728      2.9457    
  2.5103      2.2374      2.1062      2.1062      2.2374      2.5104      2.9457      3.5727      4.4250      5.5315    
  6.9043      8.5216      10.313      12.145      13.827      15.131      15.848      15.848      15.132      13.827    
  12.145      10.312      8.5215      6.9042      5.3078      4.1806      3.3401      2.7438      2.3503      2.1275    
  2.0554      2.1275      2.3503      2.7438      3.3401      4.1805      5.3078      6.7537      8.5216      10.566    
  12.771      14.941      16.809      18.085      18.540      18.085      16.809      14.941      12.771      10.565    
  8.5214      6.7537      4.8945      3.8126      3.0318      2.4998      2.1716      2.0155      2.0156      2.1716    
  2.4998      3.0318      3.8125      4.8945      6.3265      8.1372      10.313      12.771      15.338      17.739    
  19.628      20.671      20.671      19.628      17.739      15.338      12.771      10.312      8.1371      6.3265    
  4.3504      3.3696      2.6856      2.2417      1.9937      1.9142      1.9938      2.2417      2.6856      3.3695    
  4.3503      5.6882      7.4319      9.5982      12.145      14.941      17.739      20.179      21.852      22.447    
  21.852      20.179      17.739      14.941      12.145      9.5981      7.4318      5.6882      3.7437      2.9022    
  2.3374      1.9938      1.8320      1.8320      1.9938      2.3374      2.9022      3.7437      4.9266      6.5122    
  8.5408      11.007      13.827      16.809      19.628      21.852      23.080      23.080      21.852      19.628    
  16.809      13.827      11.007      8.5408      6.5122      4.9266      3.1381      2.4541      2.0156      1.7731    
  1.6958      1.7731      2.0156      2.4541      3.1382      4.1308      5.4982      7.2944      9.5405      12.197    
  15.131      18.085      20.671      22.447      23.080      22.447      20.671      18.085      15.131      12.197    
  9.5405      7.2944      5.4981      4.1308      2.5824      2.0554      1.7377      1.5891      1.5891      1.7377    
  2.0554      2.5824      3.3747      4.4969      6.0085      7.9468      10.304      13.000      15.848      18.540    
  20.671      21.852      21.852      20.671      18.539      15.848      13.000      10.304      7.9469      6.0085    
  4.4968      3.3747      2.1062      1.7222      1.5110      1.4438      1.5110      1.7222      2.1062      2.7087    
  3.5874      4.8013      6.3954      8.3824      10.720      13.284      15.848      18.085      19.628      20.179    
  19.628      18.085      15.848      13.284      10.720      8.3825      6.3954      4.8012      3.5874      2.7087    
  1.7210      1.4579      1.3350      1.3350      1.4579      1.7210      2.1581      2.8164      3.7494      5.0040    
  6.6048      8.5357      10.720      13.000      15.132      16.809      17.739      17.739      16.809      15.131    
  13.000      10.720      8.5358      6.6049      5.0040      3.7493      2.8164      2.1581      1.4247      1.2578    
  1.2046      1.2578      1.4247      1.7271      2.2005      2.8891      3.8372      5.0753      6.6048      8.3824    
  10.304      12.197      13.827      14.941      15.338      14.941      13.827      12.197      10.304      8.3825    
  6.6049      5.0752      3.8371      2.8891      2.2005      1.7271      1.2072      1.1136      1.1136      1.2072    
  1.4061      1.7340      2.2244      2.9149      3.8372      5.0040      6.3954      7.9468      9.5405      11.007    
  12.145      12.771      12.771      12.145      11.007      9.5405      7.9469      6.3954      5.0040      3.8371    
  2.9149      2.2244      1.7341      1.4061      1.0563      1.0171      1.0563      1.1787      1.3980      1.7369    
  2.2244      2.8891      3.7493      4.8013      6.0085      7.2943      8.5407      9.5981      10.312      10.565    
  10.312      9.5981      8.5408      7.2944      6.0085      4.8012      3.7493      2.8891      2.2244      1.7369    
  1.3980      1.1787     0.96169     0.96169      1.0287      1.1695      1.3980      1.7340      2.2005      2.8164    
  3.5874      4.4968      5.4981      6.5122      7.4318      8.1371      8.5215      8.5214      8.1371      7.4318    
  6.5122      5.4981      4.4968      3.5874      2.8164      2.2005      1.7341      1.3980      1.1696      1.0287    
 0.91608     0.94364      1.0287      1.1787      1.4061      1.7271      2.1581      2.7087      3.3747      4.1308    
  4.9265      5.6881      6.3265      6.7537      6.9042      6.7537      6.3265      5.6882      4.9266      4.1308    
  3.3747      2.7087      2.1581      1.7271      1.4061      1.1787      1.0287     0.94364     0.99947      1.0563    
  1.1557      1.3043      1.5108      1.7836      2.1275      2.5387      3.0010      3.4831      3.9404      4.3206    
  4.5733      4.6621      4.5734      4.3206      3.9404      3.4831      3.0009      2.5387      2.1275      1.7836    
  1.5108      1.3043      1.1557      1.0563     0.99947     0.98096      1.0563      1.1136      1.2046      1.3350    
  1.5110      1.7377      2.0155      2.3374      2.6856      3.0319      3.3401      3.5728      3.6981      3.6981    
  3.5728      3.3401      3.0318      2.6856      2.3374      2.0156      1.7377      1.5110      1.3350      1.2046    
  1.1136      1.0563      1.0287      1.0287      1.1557      1.2046      1.2790      1.3837      1.5236      1.7011    
  1.9142      2.1538      2.4032      2.6388      2.8334      2.9622      3.0073      2.9622      2.8334      2.6387    
  2.4032      2.1538      1.9142      1.7011      1.5236      1.3837      1.2790      1.2046      1.1557      1.1281    
  1.1192      1.1281      1.3043      1.3350      1.3837      1.4556      1.5544      1.6810      1.8320      1.9982    
  2.1650      2.3139      2.4264      2.4869      2.4869      2.4264      2.3139      2.1650      1.9982      1.8320    
  1.6810      1.5543      1.4556      1.3837      1.3350      1.3043      1.2870      1.2793      1.2793      1.2870    
  1.5108      1.5110      1.5236      1.5544      1.6067      1.6810      1.7731      1.8749      1.9744      2.0584    
  2.1146      2.1343      2.1146      2.0584      1.9744      1.8749      1.7731      1.6810      1.6067      1.5543    
  1.5236      1.5110      1.5108      1.5167      1.5229      1.5254      1.5229      1.5167      1.7836      1.7377    
  1.7011      1.6810      1.6810      1.7011      1.7377      1.7836      1.8300      1.8675      1.8884      1.8884    
  1.8675      1.8300      1.7836      1.7377      1.7011      1.6810      1.6810      1.7011      1.7377      1.7836    
  1.8300      1.8675      1.8884      1.8884      1.8675      1.8300      2.1275      2.0155      1.9142      1.8320    
  1.7731      1.7377      1.7222      1.7210      1.7271      1.7340      1.7369      1.7340      1.7271      1.7210    
  1.7222      1.7377      1.7731      1.8320      1.9142      2.0155      2.1275      2.2374      2.3307      2.3934    
  2.4155      2.3934      2.3307      2.2374      2.5387      2.3374      2.1538      1.9982      1.8749      1.7836    
  1.7210      1.6817      1.6598      1.6504      1.6504      1.6598      1.6817      1.7210      1.7836      1.8749    
  1.9982      2.1538      2.3374      2.5387      2.7410      2.9229      3.0612      3.1361      3.1361      3.0612    
  2.9229      2.7410      3.0010      2.6856      2.4032      2.1650      1.9744      1.8300      1.7271      1.6598    
  1.6223      1.6103      1.6223      1.6598      1.7272      1.8300      1.9744      2.1650      2.4032      2.6856    
  3.0010      3.3289      3.6399      3.8988      4.0712      4.1319      4.0712      3.8988      3.6399      3.3288    
  3.4831      3.0319      2.6388      2.3139      2.0584      1.8675      1.7340      1.6504      1.6103      1.6103    
  1.6504      1.7341      1.8675      2.0584      2.3139      2.6387      3.0318      3.4831      3.9698      4.4547    
  4.8890      5.2190      5.3977      5.3977      5.2190      4.8890      4.4547      3.9697      3.9404      3.3401    
  2.8334      2.4264      2.1146      1.8884      1.7369      1.6504      1.6223      1.6504      1.7369      1.8885    
  2.1146      2.4263      2.8334      3.3401      3.9405      4.6124      5.3139      5.9823      6.5415      6.9155    
  7.0473      6.9156      6.5416      5.9823      5.3138      4.6124      4.3206      3.5728      2.9622      2.4869    
  2.1343      1.8884      1.7340      1.6598      1.6598      1.7341      1.8885      2.1344      2.4869      2.9622    
  3.5727      4.3206      5.1896      6.1376      7.0927      7.9564      8.6177      8.9778      8.9779      8.6178    
  7.9565      7.0927      6.1376      5.1895      4.5733      3.6981      3.0073      2.4869      2.1146      1.8675    
  1.7271      1.6817      1.7272      1.8675      2.1146      2.4869      3.0072      3.6981      4.5734      5.6285    
  6.8293      8.1025      9.3333      10.376      11.079      11.328      11.079      10.376      9.3334      8.1025    
  6.8292      5.6285      4.6621      3.6981      2.9622      2.4264      2.0584      1.8300      1.7210      1.7210    
  1.8300      2.0584      2.4263      2.9622      3.6981      4.6621      5.8664      7.2928      8.8786      10.505    
  12.000      13.160      13.797      13.797      13.160      12.000      10.505      8.8786      7.2928      5.8663    
  4.5734      3.5728      2.8334      2.3139      1.9744      1.7836      1.7222      1.7836      1.9744      2.3139    
  2.8334      3.5727      4.5734      5.8664      7.4563      9.3022      11.299      13.266      14.959      16.115    
  16.527      16.115      14.959      13.266      11.299      9.3021      7.4562      5.8663      4.3206      3.3401    
  2.6387      2.1650      1.8749      1.7377      1.7377      1.8749      2.1650      2.6387      3.3401      4.3206    
  5.6285      7.2928      9.3022      11.580      13.963      16.191      17.944      18.915      18.915      17.944    
  16.191      13.963      11.580      9.3022      7.2928      5.6285      3.9404      3.0318      2.4032      1.9982    
  1.7731      1.7011      1.7731      1.9982      2.4032      3.0318      3.9405      5.1896      6.8293      8.8786    
  11.299      13.963      16.631      18.960      20.566      21.142      20.566      18.960      16.631      13.963    
  11.299      8.8786      6.8293      5.1895      3.4831      2.6856      2.1538      1.8320      1.6810      1.6810    
  1.8320      2.1538      2.6856      3.4831      4.6124      6.1376      8.1025      10.505      13.266      16.191    
  18.960      21.158      22.383      22.383      21.158      18.959      16.191      13.266      10.505      8.1025    
  6.1376      4.6124      3.0009      2.3374      1.9142      1.6810      1.6067      1.6810      1.9142      2.3374    
  3.0010      3.9698      5.3139      7.0927      9.3333      12.000      14.959      17.944      20.566      22.383    
  23.036      22.383      20.566      17.944      14.959      12.000      9.3335      7.0927      5.3138      3.9697    
  2.5387      2.0156      1.7011      1.5543      1.5543      1.7011      2.0155      2.5387      3.3289      4.4547    
  5.9823      7.9564      10.376      13.160      16.115      18.915      21.142      22.383      22.383      21.141    
  18.915      16.115      13.160      10.376      7.9565      5.9823      4.4547      3.3288      2.1275      1.7377    
  1.5236      1.4556      1.5236      1.7377      2.1275      2.7410      3.6399      4.8890      6.5415      8.6177    
  11.079      13.797      16.527      18.915      20.566      21.158      20.566      18.915      16.527      13.797    
  11.079      8.6178      6.5415      4.8890      3.6398      2.7410      1.7836      1.5110      1.3837      1.3837    
  1.5110      1.7836      2.2374      2.9229      3.8988      5.2190      6.9155      8.9778      11.328      13.797    
  16.115      17.944      18.960      18.959      17.944      16.115      13.797      11.328      8.9779      6.9155    
  5.2189      3.8988      2.9229      2.2374      1.5108      1.3350      1.2790      1.3350      1.5108      1.8300    
  2.3307      3.0612      4.0712      5.3977      7.0473      8.9779      11.079      13.160      14.959      16.191    
  16.631      16.191      14.959      13.160      11.079      8.9779      7.0472      5.3976      4.0712      3.0612    
  2.3307      1.8300      1.3043      1.2046      1.2046      1.3043      1.5167      1.8675      2.3934      3.1361    
  4.1319      5.3977      6.9156      8.6178      10.376      12.000      13.266      13.963      13.963      13.266    
  12.000      10.376      8.6178      6.9155      5.3976      4.1318      3.1361      2.3934      1.8675      1.5167    
  1.1557      1.1136      1.1557      1.2870      1.5229      1.8884      2.4155      3.1361      4.0712      5.2190    
  6.5416      7.9565      9.3334      10.505      11.299      11.580      11.299      10.505      9.3335      7.9565    
  6.5415      5.2189      4.0712      3.1361      2.4156      1.8885      1.5229      1.2870      1.0563      1.0563    
  1.1281      1.2793      1.5254      1.8884      2.3934      3.0612      3.8988      4.8890      5.9823      7.0927    
  8.1025      8.8786      9.3021      9.3022      8.8786      8.1025      7.0927      5.9823      4.8890      3.8988    
  3.0612      2.3934      1.8885      1.5254      1.2793      1.1281     0.99947      1.0287      1.1192      1.2793    
  1.5229      1.8675      2.3307      2.9229      3.6399      4.4547      5.3138      6.1376      6.8292      7.2928    
  7.4562      7.2928      6.8293      6.1376      5.3138      4.4547      3.6398      2.9229      2.3307      1.8675    
  1.5229      1.2793      1.1192      1.0287     0.98096      1.0287      1.1281      1.2870      1.5167      1.8300    
  2.2374      2.7410      3.3288      3.9697      4.6124      5.1895      5.6285      5.8663      5.8663      5.6285    
  5.1895      4.6124      3.9697      3.3288      2.7410      2.2374      1.8300      1.5167      1.2870      1.1281    
  1.0287     0.98096      1.1462      1.2072      1.3043      1.4439      1.6324      1.8749      2.1716      2.5148    
  2.8861      3.2556      3.5852      3.8343      3.9687      3.9687      3.8343      3.5852      3.2556      2.8861    
  2.5149      2.1716      1.8749      1.6324      1.4438      1.3043      1.2072      1.1462      1.1170      1.1170    
  1.2072      1.2578      1.3350      1.4438      1.5891      1.7731      1.9937      2.2417      2.4998      2.7438    
  2.9457      3.0794      3.1262      3.0794      2.9457      2.7438      2.4998      2.2417      1.9938      1.7731    
  1.5891      1.4438      1.3350      1.2578      1.2072      1.1787      1.1695      1.1787      1.3043      1.3350    
  1.3837      1.4556      1.5544      1.6810      1.8320      1.9982      2.1650      2.3139      2.4264      2.4869    
  2.4869      2.4264      2.3139      2.1650      1.9982      1.8320      1.6810      1.5543      1.4556      1.3837    
  1.3350      1.3043      1.2870      1.2793      1.2793      1.2870      1.4439      1.4438      1.4556      1.4848    
  1.5351      1.6067      1.6958      1.7942      1.8902      1.9710      2.0250      2.0439      2.0250      1.9710    