unknown system                          
   1.00000000000000     
     0.000000    2.715000    2.715000
     2.715000    0.000000    2.715000
     2.715000    2.715000    0.000000
   Si
     2
Direct
  0.500000  0.500000  0.500000
  0.750000  0.750000  0.750000
 
   28   28   28
 0.88983957848E+00 0.91682720967E+00 0.10000426147E+01 0.11465756228E+01 0.13684620530E+01
 0.16814772943E+01 0.21014364619E+01 0.26378968176E+01 0.32865689046E+01 0.40226001884E+01
 0.47969110761E+01 0.55375640148E+01 0.61580360000E+01 0.65730693783E+01 0.67192412924E+01
 0.65730165419E+01 0.61579751924E+01 0.55375307298E+01 0.47968977210E+01 0.40225842675E+01
 0.32865552407E+01 0.26379137584E+01 0.21014948963E+01 0.16815501632E+01 0.13685078674E+01
 0.11465754486E+01 0.10000121787E+01 0.91679964250E+00 0.91682720967E+00 0.96232419336E+00
 0.10567853356E+01 0.12073641307E+01 0.14246145660E+01 0.17207373919E+01 0.21057444622E+01
 0.25818623505E+01 0.31375434327E+01 0.37430679433E+01 0.43496975381E+01 0.48939009351E+01
 0.53072968365E+01 0.55310996611E+01 0.55310862959E+01 0.53072740046E+01 0.48938950039E+01
 0.43497086860E+01 0.37430797970E+01 0.31375578891E+01 0.25819006856E+01 0.21058120596E+01
 0.17208071436E+01 0.14246534101E+01 0.12073655009E+01 0.10567682577E+01 0.96230905839E+00
 0.91682195302E+00 0.10000426147E+01 0.10567853356E+01 0.11559583015E+01 0.13043629823E+01
 0.15106622268E+01 0.17833157690E+01 0.21270209739E+01 0.25381318082E+01 0.30003548259E+01
 0.34824978295E+01 0.39398595784E+01 0.43200609242E+01 0.45728355873E+01 0.46615697959E+01
 0.45728274356E+01 0.43200573515E+01 0.39398697547E+01 0.34825225532E+01 0.30003962826E+01
 0.25381919401E+01 0.21270856567E+01 0.17833561748E+01 0.15106620144E+01 0.13043369707E+01
 0.11559360878E+01 0.10567812725E+01 0.10000477515E+01 0.98158838427E+00 0.11465756228E+01
 0.12073641307E+01 0.13043629823E+01 0.14437643951E+01 0.16321630496E+01 0.18745092621E+01
 0.21711321689E+01 0.25143091365E+01 0.28855504442E+01 0.32550873271E+01 0.35846704533E+01
 0.38338031087E+01 0.39682259245E+01 0.39682216883E+01 0.38337968254E+01 0.35846758743E+01
 0.32551153128E+01 0.28856015492E+01 0.25143681075E+01 0.21711689758E+01 0.18744979454E+01
 0.16321079610E+01 0.14437021192E+01 0.13043308019E+01 0.12073690717E+01 0.11465961235E+01
 0.11174065716E+01 0.11173962650E+01 0.13684620530E+01 0.14246145660E+01 0.15106622268E+01
 0.16321630496E+01 0.17938298038E+01 0.19977641039E+01 0.22412192802E+01 0.25143078087E+01
 0.27986235033E+01 0.30679149943E+01 0.32914785832E+01 0.34399505931E+01 0.34920357014E+01
 0.34399444625E+01 0.32914796792E+01 0.30679351501E+01 0.27986586853E+01 0.25143363655E+01
 0.22412138850E+01 0.19977123092E+01 0.17937495754E+01 0.16320953524E+01 0.15106398739E+01
 0.14246367178E+01 0.13685006522E+01 0.13371684090E+01 0.13271325047E+01 0.13371421253E+01
 0.16814772943E+01 0.17207373919E+01 0.17833157690E+01 0.18745092621E+01 0.19977641039E+01
 0.21533486888E+01 0.23368978577E+01 0.25381309072E+01 0.27404655868E+01 0.29223398530E+01
 0.30606078631E+01 0.31354735897E+01 0.31354708531E+01 0.30606046772E+01 0.29223425540E+01
 0.27404687447E+01 0.25381194549E+01 0.23368626174E+01 0.21532970269E+01 0.19977159969E+01
 0.18744852216E+01 0.17833255431E+01 0.17207749523E+01 0.16815245977E+01 0.16597071928E+01
 0.16502640506E+01 0.16502502541E+01 0.16596700641E+01 0.21014364619E+01 0.21057444622E+01
 0.21270209739E+01 0.21711321689E+01 0.22412192802E+01 0.23368978577E+01 0.24535500250E+01
 0.25818649944E+01 0.27081190184E+01 0.28157627122E+01 0.28885011217E+01 0.29142421153E+01
 0.28885019423E+01 0.28157586724E+01 0.27081023996E+01 0.25818348876E+01 0.24535197407E+01
 0.23368886220E+01 0.22412416649E+01 0.21711753817E+01 0.21270642206E+01 0.21057778840E+01
 0.21014654767E+01 0.21066033066E+01 0.21135639665E+01 0.21165921402E+01 0.21135428938E+01
 0.21065739811E+01 0.26378968176E+01 0.25818623505E+01 0.25381318082E+01 0.25143091365E+01
 0.25143078087E+01 0.25381309072E+01 0.25818649944E+01 0.26378999653E+01 0.26956722206E+01
 0.27433152203E+01 0.27702824367E+01 0.27702901429E+01 0.27433265455E+01 0.26956689198E+01
 0.26378862967E+01 0.25818703330E+01 0.25381809218E+01 0.25143958653E+01 0.25143981088E+01
 0.25381844345E+01 0.25818715830E+01 0.26378876367E+01 0.26956726840E+01 0.27433291755E+01
 0.27702884320E+01 0.27702796443E+01 0.27433148660E+01 0.26956717921E+01 0.32865689046E+01
 0.31375434327E+01 0.30003548259E+01 0.28855504442E+01 0.27986235033E+01 0.27404655868E+01
 0.27081190184E+01 0.26956722206E+01 0.26953964629E+01 0.26993516438E+01 0.27014499951E+01
 0.26993785883E+01 0.26954253779E+01 0.26956961551E+01 0.27081660783E+01 0.27405597904E+01
 0.27987436404E+01 0.28856431228E+01 0.30003833884E+01 0.31375158820E+01 0.32865218440E+01
 0.34320776786E+01 0.35556996050E+01 0.36390860605E+01 0.36685741912E+01 0.36390860547E+01
 0.35557118078E+01 0.34321119827E+01 0.40226001884E+01 0.37430679433E+01 0.34824978295E+01
 0.32550873271E+01 0.30679149943E+01 0.29223398530E+01 0.28157627122E+01 0.27433152203E+01
 0.26993516438E+01 0.26788711448E+01 0.26788914892E+01 0.26993983241E+01 0.27433716409E+01
 0.28158408363E+01 0.29224547760E+01 0.30680389047E+01 0.32551595009E+01 0.34824848564E+01
 0.37429939361E+01 0.40225141173E+01 0.42993401567E+01 0.45457626381E+01 0.47320729214E+01
 0.48326960350E+01 0.48327085156E+01 0.47321065329E+01 0.45458128793E+01 0.42994094510E+01
 0.47969110761E+01 0.43496975381E+01 0.39398595784E+01 0.35846704533E+01 0.32914785832E+01
 0.30606078631E+01 0.28885011217E+01 0.27702824367E+01 0.27014499951E+01 0.26788914892E+01
 0.27014886176E+01 0.27703499449E+01 0.28885982112E+01 0.30607362080E+01 0.32916049925E+01
 0.35847300113E+01 0.39398135297E+01 0.43495733381E+01 0.47967721339E+01 0.52526579825E+01
 0.56780214124E+01 0.60277334147E+01 0.62587003186E+01 0.63395415511E+01 0.62587277239E+01
 0.60277843181E+01 0.56780975747E+01 0.52527683198E+01 0.55375640148E+01 0.48939009351E+01
 0.43200609242E+01 0.38338031087E+01 0.34399505931E+01 0.31354735897E+01 0.29142421153E+01
 0.27702901429E+01 0.26993785883E+01 0.26993983241E+01 0.27703499449E+01 0.29143454194E+01
 0.31356159828E+01 0.34400926523E+01 0.38338713192E+01 0.43200013216E+01 0.48937313090E+01
 0.55373617520E+01 0.62165607816E+01 0.68800396936E+01 0.74639833354E+01 0.79016374559E+01
 0.81366746917E+01 0.81366587904E+01 0.79016094343E+01 0.74639874285E+01 0.68801152749E+01
 0.62167176953E+01 0.61580360000E+01 0.53072968365E+01 0.45728355873E+01 0.39682259245E+01
 0.34920357014E+01 0.31354708531E+01 0.28885019423E+01 0.27433265455E+01 0.26954253779E+01
 0.27433716409E+01 0.28885982112E+01 0.31356159828E+01 0.34921913523E+01 0.39683112415E+01
 0.45727762885E+01 0.53070936400E+01 0.61577778293E+01 0.70894703622E+01 0.80417061932E+01
 0.89316336361E+01 0.96639836318E+01 0.10147901126E+02 0.10317257999E+02 0.10147788624E+02
 0.96638359812E+01 0.89315537731E+01 0.80417637123E+01 0.70896656217E+01 0.65730693783E+01
 0.55310996611E+01 0.46615697959E+01 0.39682216883E+01 0.34399444625E+01 0.30606046772E+01
 0.28157586724E+01 0.26956689198E+01 0.26956961551E+01 0.28158408363E+01 0.30607362080E+01
 0.34400926523E+01 0.39683112415E+01 0.46615161848E+01 0.55308848294E+01 0.65727836426E+01
 0.77581753542E+01 0.90249084741E+01 0.10276289786E+02 0.11388552077E+02 0.12228853323E+02
 0.12682521444E+02 0.12682449073E+02 0.12228667621E+02 0.11388337837E+02 0.10276157574E+02
 0.90249452772E+01 0.77583859407E+01 0.67192412924E+01 0.55310862959E+01 0.45728274356E+01
 0.38337968254E+01 0.32914796792E+01 0.29223425540E+01 0.27081023996E+01 0.26378862967E+01
 0.27081660783E+01 0.29224547760E+01 0.32916049925E+01 0.38338713192E+01 0.45727762885E+01
 0.55308848294E+01 0.67189688173E+01 0.81223402058E+01 0.96880929865E+01 0.11317393947E+02
 0.12866596263E+02 0.14161398390E+02 0.15026904116E+02 0.15331087506E+02 0.15026861535E+02
 0.14161285706E+02 0.12866425697E+02 0.11317258748E+02 0.96881089521E+01 0.81225349284E+01
 0.65730165419E+01 0.53072740046E+01 0.43200573515E+01 0.35846758743E+01 0.30679351501E+01
 0.27404687447E+01 0.25818348876E+01 0.25818703330E+01 0.27405597904E+01 0.30680389047E+01
 0.35847300113E+01 0.43200013216E+01 0.53070936400E+01 0.65727836426E+01 0.81223402058E+01
 0.99227937397E+01 0.11888602596E+02 0.13873720381E+02 0.15674627601E+02 0.17044498783E+02
 0.17780567332E+02 0.17780634618E+02 0.17044624972E+02 0.15674670046E+02 0.13873628192E+02
 0.11888476534E+02 0.99227823063E+01 0.81224936518E+01 0.61579751924E+01 0.48938950039E+01
 0.39398697547E+01 0.32551153128E+01 0.27986586853E+01 0.25381194549E+01 0.24535197407E+01
 0.25381809218E+01 0.27987436404E+01 0.32551595009E+01 0.39398135297E+01 0.48937313090E+01
 0.61577778293E+01 0.77581753542E+01 0.96880929865E+01 0.11888602596E+02 0.14232162621E+02
 0.16507633934E+02 0.18407290550E+02 0.19657724361E+02 0.20092905135E+02 0.19657955828E+02
 0.18407571006E+02 0.16507763999E+02 0.14232094791E+02 0.11888462518E+02 0.96880467165E+01
 0.77582856570E+01 0.55375307298E+01 0.43497086860E+01 0.34825225532E+01 0.28856015492E+01
 0.25143363655E+01 0.23368626174E+01 0.23368886220E+01 0.25143958653E+01 0.28856431228E+01
 0.34824848564E+01 0.43495733381E+01 0.55373617520E+01 0.70894703622E+01 0.90249084741E+01
 0.11317393947E+02 0.13873720381E+02 0.16507633934E+02 0.18888399236E+02 0.20674238499E+02
 0.21627003625E+02 0.21627156344E+02 0.20674588329E+02 0.18888709695E+02 0.16507726656E+02
 0.13873597372E+02 0.11317211076E+02 0.90248328244E+01 0.70895546042E+01 0.47968977210E+01
 0.37430797970E+01 0.30003962826E+01 0.25143681075E+01 0.22412138850E+01 0.21532970269E+01
 0.22412416649E+01 0.25143981088E+01 0.30003833884E+01 0.37429939361E+01 0.47967721339E+01
 0.62165607816E+01 0.80417061932E+01 0.10276289786E+02 0.12866596263E+02 0.15674627601E+02
 0.18407290550E+02 0.20674238499E+02 0.22163765360E+02 0.22682200467E+02 0.22164045189E+02
 0.20674600608E+02 0.18407497992E+02 0.15674578389E+02 0.12866371869E+02 0.10276069853E+02
 0.80416250690E+01 0.62166281144E+01 0.40225842675E+01 0.31375578891E+01 0.25381919401E+01
 0.21711689758E+01 0.19977123092E+01 0.19977159969E+01 0.21711753817E+01 0.25381844345E+01
 0.31375158820E+01 0.40225141173E+01 0.52526579825E+01 0.68800396936E+01 0.89316336361E+01
 0.11388552077E+02 0.14161398390E+02 0.17044498783E+02 0.19657724361E+02 0.21627003625E+02
 0.22682200467E+02 0.22682338155E+02 0.21627305286E+02 0.19657954670E+02 0.17044498257E+02
 0.14161185056E+02 0.11388271051E+02 0.89314327328E+01 0.68799782741E+01 0.52527012784E+01
 0.32865552407E+01 0.25819006856E+01 0.21270856567E+01 0.18744979454E+01 0.17937495754E+01
 0.18744852216E+01 0.21270642206E+01 0.25818715830E+01 0.32865218440E+01 0.42993401567E+01
 0.56780214124E+01 0.74639833354E+01 0.96639836318E+01 0.12228853323E+02 0.15026904116E+02
 0.17780567332E+02 0.20092905135E+02 0.21627156344E+02 0.22164045189E+02 0.21627305286E+02
 0.20093050109E+02 0.17780557279E+02 0.15026719209E+02 0.12228590207E+02 0.96637577306E+01
 0.74638525040E+01 0.56779829331E+01 0.42993572799E+01 0.26379137584E+01 0.21058120596E+01
 0.17833561748E+01 0.16321079610E+01 0.16320953524E+01 0.17833255431E+01 0.21057778840E+01
 0.26378876367E+01 0.34320776786E+01 0.45457626381E+01 0.60277334147E+01 0.79016374559E+01
 0.10147901126E+02 0.12682521444E+02 0.15331087506E+02 0.17780634618E+02 0.19657955828E+02
 0.20674588329E+02 0.20674600608E+02 0.19657954670E+02 0.17780557279E+02 0.15330925576E+02
 0.12682325693E+02 0.10147729373E+02 0.79015144062E+01 0.60276605373E+01 0.45457349640E+01
 0.34320838318E+01 0.21014948963E+01 0.17208071436E+01 0.15106620144E+01 0.14437021192E+01
 0.15106398739E+01 0.17207749523E+01 0.21014654767E+01 0.26956726840E+01 0.35556996050E+01
 0.47320729214E+01 0.62587003186E+01 0.81366746917E+01 0.10317257999E+02 0.12682449073E+02
 0.15026861535E+02 0.17044624972E+02 0.18407571006E+02 0.18888709695E+02 0.18407497992E+02
 0.17044498257E+02 0.15026719209E+02 0.12682325693E+02 0.10317161550E+02 0.81365908611E+01
 0.62586249147E+01 0.47320224222E+01 0.35556854087E+01 0.26956876357E+01 0.16815501632E+01
 0.14246534101E+01 0.13043369707E+01 0.13043308019E+01 0.14246367178E+01 0.16815245977E+01
 0.21066033066E+01 0.27433291755E+01 0.36390860605E+01 0.48326960350E+01 0.63395415511E+01
 0.81366587904E+01 0.10147788624E+02 0.12228667621E+02 0.14161285706E+02 0.15674670046E+02
 0.16507763999E+02 0.16507726656E+02 0.15674578389E+02 0.14161185056E+02 0.12228590207E+02
 0.10147729373E+02 0.81365908611E+01 0.63394603284E+01 0.48326320204E+01 0.36390667860E+01
 0.27433484538E+01 0.21066343529E+01 0.13685078674E+01 0.12073655009E+01 0.11559360878E+01
 0.12073690717E+01 0.13685006522E+01 0.16597071928E+01 0.21135639665E+01 0.27702884320E+01
 0.36685741912E+01 0.48327085156E+01 0.62587277239E+01 0.79016094343E+01 0.96638359812E+01
 0.11388337837E+02 0.12866425697E+02 0.13873628192E+02 0.14232094791E+02 0.13873597372E+02
 0.12866371869E+02 0.11388271051E+02 0.96637577306E+01 0.79015144062E+01 0.62586249147E+01
 0.48326320204E+01 0.36685568492E+01 0.27703264990E+01 0.21136181099E+01 0.16597409077E+01
 0.11465754486E+01 0.10567682577E+01 0.10567812725E+01 0.11465961235E+01 0.13371684090E+01
 0.16502640506E+01 0.21165921402E+01 0.27702796443E+01 0.36390860547E+01 0.47321065329E+01
 0.60277843181E+01 0.74639874285E+01 0.89315537731E+01 0.10276157574E+02 0.11317258748E+02
 0.11888476534E+02 0.11888462518E+02 0.11317211076E+02 0.10276069853E+02 0.89314327328E+01
 0.74638525040E+01 0.60276605373E+01 0.47320224222E+01 0.36390667860E+01 0.27703264990E+01
 0.21166692650E+01 0.16503199733E+01 0.13371773916E+01 0.10000121787E+01 0.96230905839E+00
 0.10000477515E+01 0.11174065716E+01 0.13271325047E+01 0.16502502541E+01 0.21135428938E+01
 0.27433148660E+01 0.35557118078E+01 0.45458128793E+01 0.56780975747E+01 0.68801152749E+01
 0.80417637123E+01 0.90249452772E+01 0.96881089521E+01 0.99227823063E+01 0.96880467165E+01
 0.90248328244E+01 0.80416250690E+01 0.68799782741E+01 0.56779829331E+01 0.45457349640E+01
 0.35556854087E+01 0.27433484538E+01 0.21136181099E+01 0.16503199733E+01 0.13271535433E+01
 0.11173781786E+01 0.91679964250E+00 0.91682195302E+00 0.98158838427E+00 0.11173962650E+01
 0.13371421253E+01 0.16596700641E+01 0.21065739811E+01 0.26956717921E+01 0.34321119827E+01
 0.42994094510E+01 0.52527683198E+01 0.62167176953E+01 0.70896656217E+01 0.77583859407E+01
 0.81225349284E+01 0.81224936518E+01 0.77582856570E+01 0.70895546042E+01 0.62166281144E+01
 0.52527012784E+01 0.42993572799E+01 0.34320838318E+01 0.26956876357E+01 0.21066343529E+01
 0.16597409077E+01 0.13371773916E+01 0.11173781786E+01 0.98154448708E+00 0.91682775011E+00
 0.96232552741E+00 0.10567864049E+01 0.12073648717E+01 0.14246157854E+01 0.17207390165E+01
 0.21057455317E+01 0.25818626405E+01 0.31375434397E+01 0.37430673889E+01 0.43496956196E+01
 0.48938980532E+01 0.53072944353E+01 0.55310983796E+01 0.55310858213E+01 0.53072745558E+01
 0.48938971997E+01 0.43497119669E+01 0.37430826553E+01 0.31375596858E+01 0.25819017272E+01
 0.21058120861E+01 0.17208054896E+01 0.14246506143E+01 0.12073630530E+01 0.10567667176E+01
 0.96230795315E+00 0.91682136186E+00 0.96232552741E+00 0.10175829270E+01 0.11139527376E+01
 0.12578908572E+01 0.14577763325E+01 0.17219144632E+01 0.20549985596E+01 0.24535489950E+01
 0.29016797596E+01 0.33689744332E+01 0.38119808175E+01 0.41799867630E+01 0.44245038471E+01
 0.45103089653E+01 0.44244961945E+01 0.41799851980E+01 0.38119904138E+01 0.33689880339E+01
 0.29016991115E+01 0.24535887289E+01 0.20550600711E+01 0.17219720578E+01 0.14578023310E+01
 0.12578861146E+01 0.11139411993E+01 0.10175817450E+01 0.96233070458E+00 0.94432832495E+00
 0.10567864049E+01 0.11139527376E+01 0.12047737135E+01 0.13349463411E+01 0.15108096905E+01
 0.17373370820E+01 0.20151134682E+01 0.23368999416E+01 0.26850587803E+01 0.30312927716E+01
 0.33395901513E+01 0.35722311529E+01 0.36975954647E+01 0.36975911527E+01 0.35722212654E+01
 0.33395814927E+01 0.30312940008E+01 0.26850803199E+01 0.23369458236E+01 0.20151681263E+01
 0.17373702102E+01 0.15108043320E+01 0.13349180407E+01 0.12047540569E+01 0.11139572240E+01
 0.10568038357E+01 0.10292411950E+01 0.10292320901E+01 0.12073648717E+01 0.12578908572E+01
 0.13349463411E+01 0.14436857559E+01 0.15888163072E+01 0.17727599846E+01 0.19932857678E+01
 0.22412213485E+01 0.24993172528E+01 0.27432645178E+01 0.29451750239E+01 0.30788907864E+01
 0.31257216071E+01 0.30788810053E+01 0.29451602992E+01 0.27432577082E+01 0.24993338433E+01
 0.22412619290E+01 0.19933251619E+01 0.17727642586E+01 0.15887768898E+01 0.14436315008E+01
 0.13349158688E+01 0.12578969515E+01 0.12073900384E+01 0.11790031365E+01 0.11698641447E+01
 0.11789836771E+01 0.14246157854E+01 0.14577763325E+01 0.15108096905E+01 0.15888163072E+01
 0.16954818910E+01 0.18315635417E+01 0.19932849384E+01 0.21711320804E+01 0.23497976604E+01
 0.25098366858E+01 0.26309818641E+01 0.26963545103E+01 0.26963505502E+01 0.26309718952E+01
 0.25098281964E+01 0.23498014871E+01 0.21711497839E+01 0.19932992635E+01 0.18315506082E+01
 0.16954376368E+01 0.15887659362E+01 0.15107854216E+01 0.14577878871E+01 0.14246461950E+01
 0.14061379272E+01 0.13980521850E+01 0.13980425840E+01 0.14061117611E+01 0.17207390165E+01
 0.17219144632E+01 0.17373370820E+01 0.17727599846E+01 0.18315635417E+01 0.19137411229E+01
 0.20151129888E+01 0.21270216584E+01 0.22369295492E+01 0.23302034126E+01 0.23929267414E+01
 0.24150561833E+01 0.23929246531E+01 0.23301984375E+01 0.22369235277E+01 0.21270173102E+01
 0.20151082005E+01 0.19137302150E+01 0.18315463955E+01 0.17727457232E+01 0.17373360875E+01
 0.17219290278E+01 0.17207626738E+01 0.17269309522E+01 0.17338375548E+01 0.17367151904E+01
 0.17338235777E+01 0.17269079090E+01 0.21057455317E+01 0.20549985596E+01 0.20151134682E+01
 0.19932857678E+01 0.19932849384E+01 0.20151129888E+01 0.20550004913E+01 0.21057479531E+01
 0.21576331522E+01 0.22000806175E+01 0.22239674154E+01 0.22239716550E+01 0.22000875415E+01
 0.21576341807E+01 0.21057444289E+01 0.20550016064E+01 0.20151243649E+01 0.19933041141E+01
 0.19933058034E+01 0.20151272998E+01 0.20550033429E+01 0.21057462446E+01 0.21576373406E+01
 0.22000895893E+01 0.22239704868E+01 0.22239652215E+01 0.22000798371E+01 0.21576323451E+01
 0.25818626405E+01 0.24535489950E+01 0.23368999416E+01 0.22412213485E+01 0.21711320804E+01
 0.21270216584E+01 0.21057479531E+01 0.21014396188E+01 0.21065742689E+01 0.21135426255E+01
 0.21165928915E+01 0.21135627040E+01 0.21065983522E+01 0.21014605697E+01 0.21057760985E+01
 0.21270635103E+01 0.21711741522E+01 0.22412427967E+01 0.23368936721E+01 0.24535249382E+01
 0.25818371611E+01 0.27081037644E+01 0.28157606621E+01 0.28885016439E+01 0.29142379854E+01
 0.28884969125E+01 0.28157613270E+01 0.27081181007E+01 0.31375434397E+01 0.29016797596E+01
 0.26850587803E+01 0.24993172528E+01 0.23497976604E+01 0.22369295492E+01 0.21576331522E+01
 0.21065742689E+01 0.20774663465E+01 0.20646300471E+01 0.20646484780E+01 0.20775098593E+01
 0.21066258765E+01 0.21576913564E+01 0.22369924944E+01 0.23498397391E+01 0.24993065501E+01
 0.26849968550E+01 0.29016052944E+01 0.31374931369E+01 0.33740246123E+01 0.35866700842E+01
 0.37485945183E+01 0.38364197221E+01 0.38364221556E+01 0.37485994443E+01 0.35866771539E+01
 0.33740454378E+01 0.37430673889E+01 0.33689744332E+01 0.30312927716E+01 0.27432645178E+01
 0.25098366858E+01 0.23302034126E+01 0.22000806175E+01 0.21135426255E+01 0.20646300471E+01
 0.20488942010E+01 0.20646724462E+01 0.21136123534E+01 0.22001626783E+01 0.23302789083E+01
 0.25098673211E+01 0.27432114475E+01 0.30311645797E+01 0.33688354634E+01 0.37429815368E+01
 0.41300172294E+01 0.44960689403E+01 0.48004845661E+01 0.50032128584E+01 0.50744807557E+01
 0.50032297241E+01 0.48004980937E+01 0.44960731170E+01 0.41300427051E+01 0.43496956196E+01
 0.38119808175E+01 0.33395901513E+01 0.29451750239E+01 0.26309818641E+01 0.23929267414E+01
 0.22239674154E+01 0.21165928915E+01 0.20646484780E+01 0.20646724462E+01 0.21166599056E+01
 0.22240619500E+01 0.23930158918E+01 0.26310111820E+01 0.29450958707E+01 0.33394109467E+01
 0.38117794839E+01 0.43495600610E+01 0.49257908451E+01 0.54974171654E+01 0.60077574563E+01
 0.63947297319E+01 0.66041508686E+01 0.66041597338E+01 0.63947430039E+01 0.60077555640E+01
 0.54974124473E+01 0.49258350462E+01 0.48938980532E+01 0.41799867630E+01 0.35722311529E+01
 0.30788907864E+01 0.26963545103E+01 0.24150561833E+01 0.22239716550E+01 0.21135627040E+01
 0.20775098593E+01 0.21136123534E+01 0.22240619500E+01 0.24151533210E+01 0.26963937930E+01
 0.30788091881E+01 0.35720259989E+01 0.41797374456E+01 0.48937120933E+01 0.56874517835E+01
 0.65115839226E+01 0.72938194727E+01 0.79463712190E+01 0.83819569821E+01 0.85352579957E+01
 0.83819430419E+01 0.79463372386E+01 0.72937723136E+01 0.65115641722E+01 0.56875212753E+01
 0.53072944353E+01 0.44245038471E+01 0.36975954647E+01 0.31257216071E+01 0.26963505502E+01
 0.23929246531E+01 0.22000875415E+01 0.21065983522E+01 0.21066258765E+01 0.22001626783E+01
 0.23930158918E+01 0.26963937930E+01 0.31256464053E+01 0.36973841128E+01 0.44242269193E+01
 0.53070729424E+01 0.63259081201E+01 0.74313842051E+01 0.85404533108E+01 0.95402781193E+01
 0.10304234652E+02 0.10719713716E+02 0.10719699561E+02 0.10304185908E+02 0.95401899351E+01
 0.85403518085E+01 0.74313384739E+01 0.63259913959E+01 0.55310983796E+01 0.45103089653E+01
 0.36975911527E+01 0.30788810053E+01 0.26309718952E+01 0.23301984375E+01 0.21576341807E+01
 0.21014605697E+01 0.21576913564E+01 0.23302789083E+01 0.26310111820E+01 0.30788091881E+01
 0.36973841128E+01 0.45100273378E+01 0.55308666963E+01 0.67531837308E+01 0.81368313807E+01
 0.95980590068E+01 0.11006716014E+02 0.12197532556E+02 0.13000273842E+02 0.13284300801E+02
 0.13000293314E+02 0.12197513434E+02 0.11006613894E+02 0.95979119637E+01 0.81367494394E+01
 0.67532609363E+01 0.55310858213E+01 0.44244961945E+01 0.35722212654E+01 0.29451602992E+01
 0.25098281964E+01 0.22369235277E+01 0.21057444289E+01 0.21057760985E+01 0.22369924944E+01
 0.25098673211E+01 0.29450958707E+01 0.35720259989E+01 0.44242269193E+01 0.55308666963E+01
 0.69037299256E+01 0.85212879998E+01 0.10312563925E+02 0.12145424944E+02 0.13827721161E+02
 0.15132118332E+02 0.15848420595E+02 0.15848494842E+02 0.15132264699E+02 0.13827786964E+02
 0.12145330707E+02 0.10312379051E+02 0.85211678670E+01 0.69037856074E+01 0.53072745558E+01
 0.41799851980E+01 0.33395814927E+01 0.27432577082E+01 0.23498014871E+01 0.21270173102E+01
 0.20550016064E+01 0.21270635103E+01 0.23498397391E+01 0.27432114475E+01 0.33394109467E+01
 0.41797374456E+01 0.53070729424E+01 0.67531837308E+01 0.85212879998E+01 0.10565627323E+02
 0.12771236011E+02 0.14941676579E+02 0.16809757194E+02 0.18086028230E+02 0.18540848248E+02
 0.18086244839E+02 0.16810016896E+02 0.14941783063E+02 0.12771128128E+02 0.10565411701E+02
 0.85211416150E+01 0.67532204404E+01 0.48938971997E+01 0.38119904138E+01 0.30312940008E+01
 0.24993338433E+01 0.21711497839E+01 0.20151082005E+01 0.20151243649E+01 0.21711741522E+01
 0.24993065501E+01 0.30311645797E+01 0.38117794839E+01 0.48937120933E+01 0.63259081201E+01
 0.81368313807E+01 0.10312563925E+02 0.12771236011E+02 0.15338662423E+02 0.17739925119E+02
 0.19629101484E+02 0.20672664591E+02 0.20672786427E+02 0.19629382102E+02 0.17740174403E+02
 0.15338724271E+02 0.12771092358E+02 0.10312334828E+02 0.81366853822E+01 0.63259443204E+01
 0.43497119669E+01 0.33689880339E+01 0.26850803199E+01 0.22412619290E+01 0.19932992635E+01
 0.19137302150E+01 0.19933041141E+01 0.22412427967E+01 0.26849968550E+01 0.33688354634E+01
 0.43495600610E+01 0.56874517835E+01 0.74313842051E+01 0.95980590068E+01 0.12145424944E+02
 0.14941676579E+02 0.17739925119E+02 0.20180576663E+02 0.21853425068E+02 0.22448856919E+02
 0.21853581914E+02 0.20180793002E+02 0.17740066482E+02 0.14941653789E+02 0.12145250691E+02
 0.95978431881E+01 0.74312650128E+01 0.56874941325E+01 0.37430826553E+01 0.29016991115E+01
 0.23369458236E+01 0.19933251619E+01 0.18315506082E+01 0.18315463955E+01 0.19933058034E+01
 0.23368936721E+01 0.29016052944E+01 0.37429815368E+01 0.49257908451E+01 0.65115839226E+01
 0.85404533108E+01 0.11006716014E+02 0.13827721161E+02 0.16809757194E+02 0.19629101484E+02
 0.21853425068E+02 0.23081704315E+02 0.23081743676E+02 0.21853517162E+02 0.19629184883E+02
 0.16809767293E+02 0.13827625500E+02 0.11006539305E+02 0.85402768807E+01 0.65114988818E+01
 0.49258249258E+01 0.31375596858E+01 0.24535887289E+01 0.20151681263E+01 0.17727642586E+01
 0.16954376368E+01 0.17727457232E+01 0.20151272998E+01 0.24535249382E+01 0.31374931369E+01
 0.41300172294E+01 0.54974171654E+01 0.72938194727E+01 0.95402781193E+01 0.12197532556E+02
 0.15132118332E+02 0.18086028230E+02 0.20672664591E+02 0.22448856919E+02 0.23081743676E+02
 0.22448836512E+02 0.20672620546E+02 0.18085961690E+02 0.15132029248E+02 0.12197416134E+02
 0.95401397741E+01 0.72936977059E+01 0.54973621291E+01 0.41300409853E+01 0.25819017272E+01
 0.20550600711E+01 0.17373702102E+01 0.15887768898E+01 0.15887659362E+01 0.17373360875E+01
 0.20550033429E+01 0.25818371611E+01 0.33740246123E+01 0.44960689403E+01 0.60077574563E+01
 0.79463712190E+01 0.10304234652E+02 0.13000273842E+02 0.15848420595E+02 0.18540848248E+02
 0.20672786427E+02 0.21853581913E+02 0.21853517162E+02 0.20672620546E+02 0.18540652769E+02
 0.15848264850E+02 0.13000177315E+02 0.10304163576E+02 0.79462937681E+01 0.60076901540E+01
 0.44960501192E+01 0.33740625943E+01 0.21058120861E+01 0.17219720578E+01 0.15108043320E+01
 0.14436315008E+01 0.15107854216E+01 0.17219290278E+01 0.21057462446E+01 0.27081037644E+01
 0.35866700842E+01 0.48004845661E+01 0.63947297319E+01 0.83819569821E+01 0.10719713716E+02
 0.13284300801E+02 0.15848494842E+02 0.18086244839E+02 0.19629382102E+02 0.20180793002E+02
 0.19629184883E+02 0.18085961690E+02 0.15848264850E+02 0.13284191144E+02 0.10719688033E+02
 0.83819397762E+01 0.63946956617E+01 0.48004669929E+01 0.35867003330E+01 0.27081698835E+01
 0.17208054896E+01 0.14578023310E+01 0.13349180407E+01 0.13349158688E+01 0.14577878871E+01
 0.17207626738E+01 0.21576373406E+01 0.28157606621E+01 0.37485945183E+01 0.50032128584E+01
 0.66041508686E+01 0.85352579957E+01 0.10719699561E+02 0.13000293314E+02 0.15132264699E+02
 0.16810016896E+02 0.17740174403E+02 0.17740066482E+02 0.16809767293E+02 0.15132029248E+02
 0.13000177315E+02 0.10719688033E+02 0.85352687106E+01 0.66041397063E+01 0.50032061817E+01
 0.37486315458E+01 0.28158362507E+01 0.21577109439E+01 0.14246506143E+01 0.12578861146E+01
 0.12047540569E+01 0.12578969515E+01 0.14246461950E+01 0.17269309522E+01 0.22000895893E+01
 0.28885016439E+01 0.38364197221E+01 0.50744807557E+01 0.66041597338E+01 0.83819430419E+01
 0.10304185908E+02 0.12197513434E+02 0.13827786964E+02 0.14941783063E+02 0.15338724271E+02
 0.14941653789E+02 0.13827625500E+02 0.12197416134E+02 0.10304163576E+02 0.83819397762E+01
 0.66041397063E+01 0.50744703899E+01 0.38364622634E+01 0.28885945611E+01 0.22001829036E+01
 0.17269803970E+01 0.12073630530E+01 0.11139411993E+01 0.11139572240E+01 0.12073900384E+01
 0.14061379272E+01 0.17338375548E+01 0.22239704868E+01 0.29142379854E+01 0.38364221556E+01
 0.50032297241E+01 0.63947430039E+01 0.79463372386E+01 0.95401899351E+01 0.11006613894E+02
 0.12145330707E+02 0.12771128128E+02 0.12771092358E+02 0.12145250691E+02 0.11006539305E+02
 0.95401397741E+01 0.79462937681E+01 0.63946956617E+01 0.50032061817E+01 0.38364622634E+01
 0.29143428709E+01 0.22240895937E+01 0.17339108920E+01 0.14061461226E+01 0.10567667176E+01
 0.10175817450E+01 0.10568038357E+01 0.11790031365E+01 0.13980521850E+01 0.17367151904E+01
 0.22239652215E+01 0.28884969125E+01 0.37485994443E+01 0.48004980937E+01 0.60077555640E+01
 0.72937723136E+01 0.85403518085E+01 0.95979119637E+01 0.10312379051E+02 0.10565411701E+02
 0.10312334828E+02 0.95978431881E+01 0.85402768807E+01 0.72936977059E+01 0.60076901540E+01
 0.48004669929E+01 0.37486315458E+01 0.28885945611E+01 0.22240895937E+01 0.17368079718E+01
 0.13980770516E+01 0.11789724054E+01 0.96230795315E+00 0.96233070458E+00 0.10292411950E+01
 0.11698641447E+01 0.13980425840E+01 0.17338235777E+01 0.22000798371E+01 0.28157613270E+01
 0.35866771539E+01 0.44960731170E+01 0.54974124473E+01 0.65115641722E+01 0.74313384739E+01
 0.81367494394E+01 0.85211678670E+01 0.85211416150E+01 0.81366853822E+01 0.74312650128E+01
 0.65114988818E+01 0.54973621291E+01 0.44960501192E+01 0.35867003330E+01 0.28158362507E+01
 0.22001829036E+01 0.17339108920E+01 0.13980770516E+01 0.11698414450E+01 0.10291949546E+01
 0.91682136186E+00 0.94432832495E+00 0.10292320901E+01 0.11789836771E+01 0.14061117611E+01
 0.17269079090E+01 0.21576323451E+01 0.27081181007E+01 0.33740454378E+01 0.41300427051E+01
 0.49258350462E+01 0.56875212753E+01 0.63259913959E+01 0.67532609363E+01 0.69037856074E+01
 0.67532204404E+01 0.63259443204E+01 0.56874941325E+01 0.49258249258E+01 0.41300409853E+01
 0.33740625943E+01 0.27081698835E+01 0.21577109439E+01 0.17269803970E+01 0.14061461226E+01
 0.11789724054E+01 0.10291949546E+01 0.94429773463E+00 0.10000448381E+01 0.10567880402E+01
 0.11559598647E+01 0.13043636895E+01 0.15106634921E+01 0.17833171865E+01 0.21270209053E+01
 0.25381302781E+01 0.30003530756E+01 0.34824957018E+01 0.39398562289E+01 0.43200575158E+01
 0.45728343743E+01 0.46615709940E+01 0.45728296469E+01 0.43200603628E+01 0.39398740734E+01
 0.34825268560E+01 0.30003983047E+01 0.25381914858E+01 0.21270840936E+01 0.17833536527E+01
 0.15106579883E+01 0.13043327588E+01 0.11559339170E+01 0.10567812151E+01 0.10000482890E+01
 0.98158935496E+00 0.10567880402E+01 0.11139540541E+01 0.12047741691E+01 0.13349462913E+01
 0.15108097348E+01 0.17373368890E+01 0.20151123676E+01 0.23368981725E+01 0.26850570655E+01
 0.30312912265E+01 0.33395887422E+01 0.35722306397E+01 0.36975966474E+01 0.36975936137E+01
 0.35722239367E+01 0.33395839447E+01 0.30312961121E+01 0.26850813301E+01 0.23369449889E+01
 0.20151658887E+01 0.17373676178E+01 0.15108017944E+01 0.13349156881E+01 0.12047526624E+01
 0.11139575068E+01 0.10568053052E+01 0.10292428157E+01 0.10292336208E+01 0.11559598647E+01
 0.12047741691E+01 0.12790051161E+01 0.13836465153E+01 0.15233939675E+01 0.17007778465E+01