unknown system                          
   1.00000000000000     
    -0.000000    2.733533    2.733533
     2.733533    0.000000    2.733533
     2.733533    2.733533   -0.000000
   Si
     2
Direct
  0.500000  0.500000  0.500000
  0.750000  0.750000  0.750000
 
   28   28   28
 0.86475940354E+00 0.89130064645E+00 0.97321029229E+00 0.11175723627E+01 0.13364073627E+01
 0.16455015898E+01 0.20607737269E+01 0.25920411545E+01 0.32354414303E+01 0.39666380538E+01
 0.47370053563E+01 0.54748465374E+01 0.60936062669E+01 0.65077970145E+01 0.66537398195E+01
 0.65077864304E+01 0.60936176259E+01 0.54748940569E+01 0.47370563742E+01 0.39666474483E+01
 0.32354026160E+01 0.25919896823E+01 0.20607462573E+01 0.16455040611E+01 0.13364218852E+01
 0.11175821489E+01 0.97321194651E+00 0.89129917645E+00 0.89130064645E+00 0.93601494303E+00
 0.10289134404E+01 0.11771373977E+01 0.13912325782E+01 0.16834291812E+01 0.20638521205E+01
 0.25349588236E+01 0.30855472650E+01 0.36863039650E+01 0.42888655866E+01 0.48299574260E+01
 0.52413031591E+01 0.54641089788E+01 0.54641104999E+01 0.52413157253E+01 0.48299850582E+01
 0.42888853490E+01 0.36862872397E+01 0.30854998484E+01 0.25349194229E+01 0.20638488498E+01
 0.16834527367E+01 0.13912558762E+01 0.11771475619E+01 0.10289162833E+01 0.93601766125E+00
 0.89130232939E+00 0.97321029229E+00 0.10289134404E+01 0.11263442254E+01 0.12723028900E+01
 0.14754714084E+01 0.17443731267E+01 0.20838378039E+01 0.24904334057E+01 0.29481531798E+01
 0.34261287686E+01 0.38799650516E+01 0.42575196828E+01 0.45086701428E+01 0.45968644877E+01
 0.45086752091E+01 0.42575256183E+01 0.38799595756E+01 0.34261028716E+01 0.29481194814E+01
 0.24904193182E+01 0.20838545805E+01 0.17444023384E+01 0.14754878519E+01 0.12723015487E+01
 0.11263381419E+01 0.10289129766E+01 0.97321331532E+00 0.95509978607E+00 0.11175723627E+01
 0.11771373977E+01 0.12723028900E+01 0.14092896804E+01 0.15947510624E+01 0.18337372042E+01
 0.21267252911E+01 0.24661870886E+01 0.28338610726E+01 0.32002169475E+01 0.35272235755E+01
 0.37745541338E+01 0.39080559409E+01 0.39080563466E+01 0.37745537195E+01 0.35272187621E+01
 0.32002076182E+01 0.28338554995E+01 0.24661949484E+01 0.21267431672E+01 0.18337487312E+01
 0.15947459621E+01 0.14092754981E+01 0.12722930956E+01 0.11771354413E+01 0.11175732867E+01
 0.10889981952E+01 0.10889977752E+01 0.13364073627E+01 0.13912325782E+01 0.14754714084E+01
 0.15947510624E+01 0.17538802752E+01 0.19550843501E+01 0.21957629996E+01 0.24661857810E+01
 0.27480993267E+01 0.30153873633E+01 0.32374530792E+01 0.33850049009E+01 0.34367840235E+01
 0.33850070590E+01 0.32374596002E+01 0.30153985740E+01 0.27481119248E+01 0.24661944184E+01
 0.21957620308E+01 0.19550714912E+01 0.17538621927E+01 0.15947410538E+01 0.14754756706E+01
 0.13912422447E+01 0.13364104984E+01 0.13058863241E+01 0.12961358499E+01 0.13058890416E+01
 0.16455015898E+01 0.16834291812E+01 0.17443731267E+01 0.18337372042E+01 0.19550843501E+01
 0.21088051431E+01 0.22906506056E+01 0.24904325146E+01 0.26916232305E+01 0.28726749235E+01
 0.30104251475E+01 0.30850474868E+01 0.30850506611E+01 0.30104350355E+01 0.28726883461E+01
 0.26916296511E+01 0.24904217671E+01 0.22906249884E+01 0.21087800745E+01 0.19550759057E+01
 0.18337495692E+01 0.17443964299E+01 0.16834476634E+01 0.16455058011E+01 0.16246262023E+01
 0.16156836984E+01 0.16156879084E+01 0.16246322788E+01 0.20607737269E+01 0.20638521205E+01
 0.20838378039E+01 0.21267252911E+01 0.21957629996E+01 0.22906506056E+01 0.24068206296E+01
 0.25349614147E+01 0.26612865127E+01 0.27691317041E+01 0.28420672616E+01 0.28678912748E+01
 0.28420756600E+01 0.27691376412E+01 0.26612761164E+01 0.25349310152E+01 0.24067850051E+01
 0.22906342423E+01 0.21957781003E+01 0.21267587623E+01 0.20838635142E+01 0.20638559329E+01
 0.20607631073E+01 0.20669250693E+01 0.20745780963E+01 0.20778602007E+01 0.20745819135E+01
 0.20669351727E+01 0.25920411545E+01 0.25349588236E+01 0.24904334057E+01 0.24661870886E+01
 0.24661857810E+01 0.24904325146E+01 0.25349614147E+01 0.25920442387E+01 0.26509273490E+01
 0.26995066666E+01 0.27270105061E+01 0.27270164030E+01 0.26995116444E+01 0.26509109686E+01
 0.25920082444E+01 0.25349333707E+01 0.24904384301E+01 0.24662228960E+01 0.24662250513E+01
 0.24904417327E+01 0.25349343588E+01 0.25920092640E+01 0.26509143629E+01 0.26995139610E+01
 0.27270145224E+01 0.27270076468E+01 0.26995062771E+01 0.26509269278E+01 0.32354414303E+01
 0.30855472650E+01 0.29481531798E+01 0.28338610726E+01 0.27480993267E+01 0.26916232305E+01
 0.26612865127E+01 0.26509273490E+01 0.26525035420E+01 0.26577423343E+01 0.26602941065E+01
 0.26577468400E+01 0.26524905339E+01 0.26508942460E+01 0.26612658112E+01 0.26916438915E+01
 0.27481473706E+01 0.28338929492E+01 0.29481421597E+01 0.30855066823E+01 0.32354063306E+01
 0.33822972718E+01 0.35073315175E+01 0.35917879837E+01 0.36216676085E+01 0.35917671094E+01
 0.35073117063E+01 0.33823029110E+01 0.39666380538E+01 0.36863039650E+01 0.34261287686E+01
 0.32002169475E+01 0.30153873633E+01 0.28726749235E+01 0.27691317041E+01 0.26995066666E+01
 0.26577423343E+01 0.26384636034E+01 0.26384614011E+01 0.26577259756E+01 0.26994717007E+01
 0.27691063382E+01 0.28726917722E+01 0.30154353035E+01 0.32002484360E+01 0.34261162224E+01
 0.36862680623E+01 0.39666165180E+01 0.42452694235E+01 0.44940268633E+01 0.46824846197E+01
 0.47843838125E+01 0.47843782569E+01 0.46824684445E+01 0.44940068867E+01 0.42452631988E+01
 0.47370053563E+01 0.42888655866E+01 0.38799650516E+01 0.35272235755E+01 0.32374530792E+01
 0.30104251475E+01 0.28420672616E+01 0.27270105061E+01 0.26602941065E+01 0.26384614011E+01
 0.26602690111E+01 0.27269660150E+01 0.28420310144E+01 0.30104314677E+01 0.32375001483E+01
 0.35272678885E+01 0.38799708239E+01 0.42888429690E+01 0.47369885032E+01 0.51956069811E+01
 0.56249173519E+01 0.59787631587E+01 0.62128542775E+01 0.62948515490E+01 0.62128573065E+01
 0.59787605948E+01 0.56249074330E+01 0.51956038844E+01 0.54748465374E+01 0.48299574260E+01
 0.42575196828E+01 0.37745541338E+01 0.33850049009E+01 0.30850474868E+01 0.28678912748E+01
 0.27270164030E+01 0.26577468400E+01 0.26577259756E+01 0.27269660150E+01 0.28678466311E+01
 0.30850483560E+01 0.33850576609E+01 0.37746184559E+01 0.42575473470E+01 0.48299391193E+01
 0.54748107644E+01 0.61580703835E+01 0.68278919303E+01 0.74191119932E+01 0.78631405338E+01
 0.81019025270E+01 0.81018948113E+01 0.78631235026E+01 0.74190986154E+01 0.68278940694E+01
 0.61580939383E+01 0.60936062669E+01 0.52413031591E+01 0.45086701428E+01 0.39080559409E+01
 0.34367840235E+01 0.30850506611E+01 0.28420756600E+01 0.26995116444E+01 0.26524905339E+01
 0.26994717007E+01 0.28420310144E+01 0.30850483560E+01 0.34368409894E+01 0.39081348100E+01
 0.45087090772E+01 0.52412742823E+01 0.60935377034E+01 0.70308437457E+01 0.79924183459E+01
 0.88938600776E+01 0.96373982893E+01 0.10129452626E+02 0.10301806451E+02 0.10129400318E+02
 0.96373286530E+01 0.88938162739E+01 0.79924261239E+01 0.70308996784E+01 0.65077970145E+01
 0.54641089788E+01 0.45968644877E+01 0.39080563466E+01 0.33850070590E+01 0.30104350355E+01
 0.27691376412E+01 0.26509109686E+01 0.26508942460E+01 0.27691063382E+01 0.30104314677E+01
 0.33850576609E+01 0.39081348100E+01 0.45969042976E+01 0.54640677300E+01 0.65077042189E+01
 0.77000994890E+01 0.89792707296E+01 0.10247019613E+02 0.11376537756E+02 0.12231228131E+02
 0.12693085034E+02 0.12693059314E+02 0.12231157530E+02 0.11376445645E+02 0.10246948737E+02
 0.89792659494E+01 0.77001689665E+01 0.66537398195E+01 0.54641104999E+01 0.45086752091E+01
 0.37745537195E+01 0.32374596002E+01 0.28726883461E+01 0.26612761164E+01 0.25920082444E+01
 0.26612658112E+01 0.28726917722E+01 0.32375001483E+01 0.37746184559E+01 0.45087090772E+01
 0.54640677300E+01 0.66536460451E+01 0.80647808845E+01 0.96454613885E+01 0.11295745021E+02
 0.12868709853E+02 0.14185404556E+02 0.15066564252E+02 0.15376712861E+02 0.15066588958E+02
 0.14185396509E+02 0.12868633203E+02 0.11295644759E+02 0.96454241934E+01 0.80648390930E+01
 0.65077864304E+01 0.52413157253E+01 0.42575256183E+01 0.35272187621E+01 0.30153985740E+01
 0.26916296511E+01 0.25349310152E+01 0.25349333707E+01 0.26916438915E+01 0.30154353035E+01
 0.35272678885E+01 0.42575473470E+01 0.52412742823E+01 0.65077042189E+01 0.80647808845E+01
 0.98813208259E+01 0.11871455753E+02 0.13886102301E+02 0.15717240871E+02 0.17114408610E+02
 0.17866516150E+02 0.17866584041E+02 0.17114538950E+02 0.15717293801E+02 0.13886021166E+02
 0.11871320237E+02 0.98812531574E+01 0.80648204388E+01 0.60936176259E+01 0.48299850582E+01
 0.38799595756E+01 0.32002076182E+01 0.27481119248E+01 0.24904217671E+01 0.24067850051E+01
 0.24904384301E+01 0.27481473706E+01 0.32002484360E+01 0.38799708239E+01 0.48299391193E+01
 0.60935377034E+01 0.77000994890E+01 0.96454613885E+01 0.11871455753E+02 0.14248300618E+02
 0.16561803639E+02 0.18500137169E+02 0.19778389392E+02 0.20223523081E+02 0.19778543646E+02
 0.18500304460E+02 0.16561838672E+02 0.14248186375E+02 0.11871302565E+02 0.96453899593E+01
 0.77001364790E+01 0.54748940569E+01 0.42888853490E+01 0.34261028716E+01 0.28338554995E+01
 0.24661944184E+01 0.22906249884E+01 0.22906342423E+01 0.24662228960E+01 0.28338929492E+01
 0.34261162224E+01 0.42888429690E+01 0.54748107644E+01 0.70308437457E+01 0.89792707296E+01
 0.11295745021E+02 0.13886102301E+02 0.16561803639E+02 0.18989684943E+02 0.20814463635E+02
 0.21788598935E+02 0.21788683037E+02 0.20814644564E+02 0.18989813154E+02 0.16561782439E+02
 0.13885962689E+02 0.11295604205E+02 0.89792252699E+01 0.70308978624E+01 0.47370563742E+01
 0.36862872397E+01 0.29481194814E+01 0.24661949484E+01 0.21957620308E+01 0.21087800745E+01
 0.21957781003E+01 0.24662250513E+01 0.29481421597E+01 0.36862680623E+01 0.47369885032E+01
 0.61580703835E+01 0.79924183459E+01 0.10247019613E+02 0.12868709853E+02 0.15717240871E+02
 0.18500137169E+02 0.20814463635E+02 0.22336276681E+02 0.22865932178E+02 0.22336430890E+02
 0.20814647446E+02 0.18500212316E+02 0.15717168328E+02 0.12868565731E+02 0.10246917029E+02
 0.79924155139E+01 0.61581390710E+01 0.39666474483E+01 0.30854998484E+01 0.24904193182E+01
 0.21267431672E+01 0.19550714912E+01 0.19550759057E+01 0.21267587623E+01 0.24904417327E+01
 0.30855066823E+01 0.39666165180E+01 0.51956069811E+01 0.68278919303E+01 0.88938600776E+01
 0.11376537756E+02 0.14185404556E+02 0.17114408610E+02 0.19778389392E+02 0.21788598935E+02
 0.22865932178E+02 0.22866023874E+02 0.21788795766E+02 0.19778533885E+02 0.17114409240E+02
 0.14185298085E+02 0.11376428775E+02 0.88938234755E+01 0.68279280959E+01 0.51956650413E+01
 0.32354026160E+01 0.25349194229E+01 0.20838545805E+01 0.18337487312E+01 0.17538621927E+01
 0.18337495692E+01 0.20838635142E+01 0.25349343588E+01 0.32354063306E+01 0.42452694235E+01
 0.56249173519E+01 0.74191119932E+01 0.96373982893E+01 0.12231228131E+02 0.15066564252E+02
 0.17866516150E+02 0.20223523081E+02 0.21788683037E+02 0.22336430890E+02 0.21788795766E+02
 0.20223640158E+02 0.17866540724E+02 0.15066502802E+02 0.12231159115E+02 0.96373812579E+01
 0.74191449935E+01 0.56249619842E+01 0.42452929055E+01 0.25919896823E+01 0.20638488498E+01
 0.17444023384E+01 0.15947459621E+01 0.15947410538E+01 0.17443964299E+01 0.20638559329E+01
 0.25920092640E+01 0.33822972718E+01 0.44940268633E+01 0.59787631587E+01 0.78631405338E+01
 0.10129452626E+02 0.12693085034E+02 0.15376712861E+02 0.17866584041E+02 0.19778543646E+02
 0.20814644564E+02 0.20814647446E+02 0.19778533885E+02 0.17866540724E+02 0.15376659103E+02
 0.12693070086E+02 0.10129494191E+02 0.78632074538E+01 0.59788122770E+01 0.44940395435E+01
 0.33822828267E+01 0.20607462573E+01 0.16834527367E+01 0.14754878519E+01 0.14092754981E+01
 0.14754756706E+01 0.16834476634E+01 0.20607631073E+01 0.26509143629E+01 0.35073315175E+01
 0.46824846197E+01 0.62128542775E+01 0.81019025270E+01 0.10301806451E+02 0.12693059314E+02
 0.15066588958E+02 0.17114538950E+02 0.18500304460E+02 0.18989813154E+02 0.18500212316E+02
 0.17114409240E+02 0.15066502802E+02 0.12693070086E+02 0.10301898183E+02 0.81020078966E+01
 0.62129152526E+01 0.46824895499E+01 0.35073026972E+01 0.26508808046E+01 0.16455040611E+01
 0.13912558762E+01 0.12723015487E+01 0.12722930956E+01 0.13912422447E+01 0.16455058011E+01
 0.20669250693E+01 0.26995139610E+01 0.35917879837E+01 0.47843838125E+01 0.62948515490E+01
 0.81018948113E+01 0.10129400318E+02 0.12231157530E+02 0.14185396509E+02 0.15717293801E+02
 0.16561838672E+02 0.16561782439E+02 0.15717168328E+02 0.14185298085E+02 0.12231159115E+02
 0.10129494191E+02 0.81020078966E+01 0.62949157669E+01 0.47843851437E+01 0.35917535189E+01
 0.26994746399E+01 0.20669003898E+01 0.13364218852E+01 0.11771475619E+01 0.11263381419E+01
 0.11771354413E+01 0.13364104984E+01 0.16246262023E+01 0.20745780963E+01 0.27270145224E+01
 0.36216676085E+01 0.47843782569E+01 0.62128573065E+01 0.78631235026E+01 0.96373286530E+01
 0.11376445645E+02 0.12868633203E+02 0.13886021166E+02 0.14248186375E+02 0.13885962689E+02
 0.12868565731E+02 0.11376428775E+02 0.96373812579E+01 0.78632074538E+01 0.62129152526E+01
 0.47843851437E+01 0.36216408269E+01 0.27269836449E+01 0.20745599202E+01 0.16246247507E+01
 0.11175821489E+01 0.10289162833E+01 0.10289129766E+01 0.11175732867E+01 0.13058863241E+01
 0.16156836984E+01 0.20778602007E+01 0.27270076468E+01 0.35917671094E+01 0.46824684445E+01
 0.59787605948E+01 0.74190986154E+01 0.88938162739E+01 0.10246948737E+02 0.11295644759E+02
 0.11871320237E+02 0.11871302565E+02 0.11295604205E+02 0.10246917029E+02 0.88938234755E+01
 0.74191449935E+01 0.59788122770E+01 0.46824895499E+01 0.35917535189E+01 0.27269836449E+01
 0.20778483995E+01 0.16156874150E+01 0.13058967589E+01 0.97321194651E+00 0.93601766125E+00
 0.97321331532E+00 0.10889981952E+01 0.12961358499E+01 0.16156879084E+01 0.20745819135E+01
 0.26995062771E+01 0.35073117063E+01 0.44940068867E+01 0.56249074330E+01 0.68278940694E+01
 0.79924261239E+01 0.89792659494E+01 0.96454241934E+01 0.98812531574E+01 0.96453899593E+01
 0.89792252699E+01 0.79924155139E+01 0.68279280959E+01 0.56249619842E+01 0.44940395435E+01
 0.35073026972E+01 0.26994746399E+01 0.20745599202E+01 0.16156874150E+01 0.12961446393E+01
 0.10890021270E+01 0.89129917645E+00 0.89130232939E+00 0.95509978607E+00 0.10889977752E+01
 0.13058890416E+01 0.16246322788E+01 0.20669351727E+01 0.26509269278E+01 0.33823029110E+01
 0.42452631988E+01 0.51956038844E+01 0.61580939383E+01 0.70308996784E+01 0.77001689665E+01
 0.80648390930E+01 0.80648204388E+01 0.77001364790E+01 0.70308978624E+01 0.61581390710E+01
 0.51956650413E+01 0.42452929055E+01 0.33822828267E+01 0.26508808046E+01 0.20669003898E+01
 0.16246247507E+01 0.13058967589E+01 0.10890021270E+01 0.95509614877E+00 0.89130129584E+00
 0.93601634187E+00 0.10289145637E+01 0.11771382084E+01 0.13912338616E+01 0.16834308423E+01
 0.20638532273E+01 0.25349591915E+01 0.30855473904E+01 0.36863035559E+01 0.42888638455E+01
 0.48299547349E+01 0.52413008900E+01 0.54641077054E+01 0.54641099108E+01 0.52413160701E+01
 0.48299869642E+01 0.42888882720E+01 0.36862897304E+01 0.30855013299E+01 0.25349202232E+01
 0.20638487238E+01 0.16834510561E+01 0.13912531888E+01 0.11771452972E+01 0.10289149281E+01
 0.93601672056E+00 0.89130188391E+00 0.93601634187E+00 0.99027991019E+00 0.10849775662E+01
 0.12265539960E+01 0.14233950632E+01 0.16838571597E+01 0.20127557422E+01 0.24068196737E+01
 0.28504505341E+01 0.33135626551E+01 0.37530201601E+01 0.41183572984E+01 0.43612357313E+01
 0.44464970204E+01 0.43612446061E+01 0.41183718570E+01 0.37530233788E+01 0.33135355602E+01
 0.28504018792E+01 0.24067861900E+01 0.20127628290E+01 0.16838913852E+01 0.14234242308E+01
 0.12265635172E+01 0.10849768955E+01 0.99028127606E+00 0.93601993734E+00 0.91834739653E+00
 0.10289145637E+01 0.10849775662E+01 0.11741222441E+01 0.13020489419E+01 0.14751280155E+01
 0.16984069113E+01 0.19725991373E+01 0.22906527180E+01 0.26351667628E+01 0.29781060196E+01
 0.32837079193E+01 0.35144515401E+01 0.36388434541E+01 0.36388459203E+01 0.35144534694E+01
 0.32836971573E+01 0.29780769897E+01 0.26351331545E+01 0.22906396841E+01 0.19726168552E+01
 0.16984381335E+01 0.14751478336E+01 0.13020505518E+01 0.11741167999E+01 0.10849755431E+01
 0.10289163259E+01 0.10019024711E+01 0.10019011956E+01 0.11771382084E+01 0.12265539960E+01
 0.13020489419E+01 0.14088039977E+01 0.15515812454E+01 0.17328908214E+01 0.19506246483E+01
 0.21957651184E+01 0.24512401464E+01 0.26929241000E+01 0.28930950364E+01 0.30257213998E+01
 0.30721862994E+01 0.30257217982E+01 0.28930881457E+01 0.26929083802E+01 0.24512280867E+01
 0.21957710029E+01 0.19506455290E+01 0.17329073530E+01 0.15515801527E+01 0.14087924349E+01
 0.13020417042E+01 0.12265541492E+01 0.11771387015E+01 0.11494101374E+01 0.11404996424E+01
 0.11494117994E+01 0.13912338616E+01 0.14233950632E+01 0.14751280155E+01 0.15515812454E+01
 0.16565073862E+01 0.17907478614E+01 0.19506238288E+01 0.21267252828E+01 0.23038480925E+01
 0.24626418535E+01 0.25829164823E+01 0.26478451240E+01 0.26478463244E+01 0.25829170668E+01
 0.24626388965E+01 0.23038462000E+01 0.21267308120E+01 0.19506331544E+01 0.17907492875E+01
 0.16564969946E+01 0.15515700298E+01 0.14751281326E+01 0.14234038269E+01 0.13912385898E+01
 0.13733952262E+01 0.13656533518E+01 0.13656567008E+01 0.13733988508E+01 0.16834308423E+01
 0.16838571597E+01 0.16984069113E+01 0.17328908214E+01 0.17907478614E+01 0.18720275750E+01
 0.19725986692E+01 0.20838385406E+01 0.21932283155E+01 0.22861394390E+01 0.23486512213E+01
 0.23707130195E+01 0.23486528050E+01 0.22861380129E+01 0.21932219733E+01 0.20838303923E+01
 0.19725915803E+01 0.18720217706E+01 0.17907448146E+01 0.17328941243E+01 0.16984165050E+01
 0.16838664876E+01 0.16834330012E+01 0.16901675506E+01 0.16974374782E+01 0.17004475840E+01
 0.16974429597E+01 0.16901724607E+01 0.20638532273E+01 0.20127557422E+01 0.19725991373E+01
 0.19506246483E+01 0.19506238288E+01 0.19725986692E+01 0.20127576646E+01 0.20638556322E+01
 0.21161035322E+01 0.21588493591E+01 0.21829027474E+01 0.21829028415E+01 0.21588451661E+01
 0.21160899309E+01 0.20638379389E+01 0.20127476637E+01 0.19726023232E+01 0.19506372761E+01
 0.19506389028E+01 0.19726050895E+01 0.20127491571E+01 0.20638394563E+01 0.21160927717E+01
 0.21588469403E+01 0.21829014954E+01 0.21829004629E+01 0.21588485404E+01 0.21161027210E+01
 0.25349591915E+01 0.24068196737E+01 0.22906527180E+01 0.21957651184E+01 0.21267252828E+01
 0.20838385406E+01 0.20638556322E+01 0.20607769441E+01 0.20669355973E+01 0.20745818396E+01
 0.20778612159E+01 0.20745772009E+01 0.20669205303E+01 0.20607585302E+01 0.20638543172E+01
 0.20838628287E+01 0.21267574134E+01 0.21957789356E+01 0.22906388493E+01 0.24067897128E+01
 0.25349328157E+01 0.26612770403E+01 0.27691392825E+01 0.28420751978E+01 0.28678871644E+01
 0.28420631550E+01 0.27691304369E+01 0.26612857298E+01 0.30855473904E+01 0.28504505341E+01
 0.26351667628E+01 0.24512401464E+01 0.23038480925E+01 0.21932283155E+01 0.21161035322E+01
 0.20669355973E+01 0.20392320716E+01 0.20271367011E+01 0.20271325512E+01 0.20392180252E+01
 0.20669189921E+01 0.21161077909E+01 0.21932654530E+01 0.23038921532E+01 0.24512494859E+01
 0.26351318062E+01 0.28504035388E+01 0.30855249898E+01 0.33218388572E+01 0.35346612191E+01
 0.36969136889E+01 0.37849731136E+01 0.37849655144E+01 0.36968928587E+01 0.35346363723E+01
 0.33218290521E+01 0.36863035559E+01 0.33135626551E+01 0.29781060196E+01 0.26929241000E+01
 0.24626418535E+01 0.22861394390E+01 0.21588493591E+01 0.20745818396E+01 0.20271367011E+01
 0.20118898488E+01 0.20271226235E+01 0.20745651444E+01 0.21588536535E+01 0.22861777695E+01
 0.24626887647E+01 0.26929327823E+01 0.29780635055E+01 0.33135105031E+01 0.36862915459E+01
 0.40729101379E+01 0.44393375529E+01 0.47445447362E+01 0.49480074895E+01 0.50195638506E+01
 0.49480066890E+01 0.47445259408E+01 0.44392971687E+01 0.40728777349E+01 0.42888638455E+01
 0.37530201601E+01 0.32837079193E+01 0.28930950364E+01 0.25829164823E+01 0.23486512213E+01
 0.21829027474E+01 0.20778612159E+01 0.20271325512E+01 0.20271226235E+01 0.20778440695E+01
 0.21829062220E+01 0.23486899290E+01 0.25829666180E+01 0.28931100001E+01 0.32836707008E+01
 0.37529694521E+01 0.42888533976E+01 0.48646536198E+01 0.54372351135E+01 0.59494115223E+01
 0.63383079141E+01 0.65489416436E+01 0.65489512147E+01 0.63383193601E+01 0.59493944198E+01
 0.54371875219E+01 0.48646148060E+01 0.48299547349E+01 0.41183572984E+01 0.35144515401E+01
 0.30257213998E+01 0.26478451240E+01 0.23707130195E+01 0.21829028415E+01 0.20745772009E+01
 0.20392180252E+01 0.20745651444E+01 0.21829062220E+01 0.23707521216E+01 0.26479006768E+01
 0.30257462768E+01 0.35144219376E+01 0.41183045567E+01 0.48299340665E+01 0.56234184724E+01
 0.64495067736E+01 0.72353523338E+01 0.78920140827E+01 0.83308267583E+01 0.84853571635E+01
 0.83308422883E+01 0.78920200931E+01 0.72353253128E+01 0.64494564162E+01 0.56233875142E+01
 0.52413008900E+01 0.43612357313E+01 0.36388434541E+01 0.30721862994E+01 0.26478463244E+01
 0.23486528050E+01 0.21588451661E+01 0.20669205303E+01 0.20669189921E+01 0.21588536535E+01
 0.23486899290E+01 0.26479006768E+01 0.30722151377E+01 0.36388163716E+01 0.43611749288E+01
 0.52412652373E+01 0.62600887151E+01 0.73687858996E+01 0.84838647062E+01 0.94910433985E+01
 0.10261637616E+02 0.10681054897E+02 0.10681069261E+02 0.10261661928E+02 0.94910395645E+01
 0.84838159130E+01 0.73687219216E+01 0.62600632658E+01 0.54641077054E+01 0.44464970204E+01
 0.36388459203E+01 0.30257217982E+01 0.25829170668E+01 0.22861380129E+01 0.21160899309E+01
 0.20607585302E+01 0.21161077909E+01 0.22861777695E+01 0.25829666180E+01 0.30257462768E+01
 0.36388163716E+01 0.44464292779E+01 0.54640624080E+01 0.66864669814E+01 0.80745105552E+01
 0.95443528055E+01 0.10964324588E+02 0.12166487456E+02 0.12977612415E+02 0.13264742896E+02
 0.12977686546E+02 0.12166560700E+02 0.10964320909E+02 0.95442687683E+01 0.80744162028E+01
 0.66864367349E+01 0.54641099108E+01 0.43612446061E+01 0.35144534694E+01 0.28930881457E+01
 0.24626388965E+01 0.21932219733E+01 0.20638379389E+01 0.20638543172E+01 0.21932654530E+01
 0.24626887647E+01 0.28931100001E+01 0.35144219376E+01 0.43611749288E+01 0.54640624080E+01
 0.68367508153E+01 0.84593433257E+01 0.10261382168E+02 0.12109485336E+02 0.13808504428E+02
 0.15127170877E+02 0.15851678312E+02 0.15851763366E+02 0.15127352426E+02 0.13808631627E+02
 0.12109466987E+02 0.10261254911E+02 0.84592192257E+01 0.68367133638E+01 0.52413160701E+01
 0.41183718570E+01 0.32836971573E+01 0.26929083802E+01 0.23038462000E+01 0.20838303923E+01
 0.20127476637E+01 0.20838628287E+01 0.23038921532E+01 0.26929327823E+01 0.32836707008E+01
 0.41183045567E+01 0.52412652373E+01 0.66864669814E+01 0.84593433257E+01 0.10515440868E+02
 0.12739201845E+02 0.14931325105E+02 0.16820083227E+02 0.18111189412E+02 0.18571430874E+02
 0.18111373241E+02 0.16820310563E+02 0.14931437702E+02 0.12739147380E+02 0.10515291794E+02
 0.84592177444E+01 0.66864359067E+01 0.48299869642E+01 0.37530233788E+01 0.29780769897E+01
 0.24512280867E+01 0.21267308120E+01 0.19725915803E+01 0.19726023232E+01 0.21267574134E+01
 0.24512494859E+01 0.29780635055E+01 0.37529694521E+01 0.48299340665E+01 0.62600887151E+01
 0.80745105552E+01 0.10261382168E+02 0.12739201845E+02 0.15331600111E+02 0.17759104155E+02
 0.19670795099E+02 0.20728111706E+02 0.20728187145E+02 0.19670969638E+02 0.17759263400E+02
 0.15331651859E+02 0.12739134101E+02 0.10261259225E+02 0.80744205150E+01 0.62600802661E+01
 0.42888882720E+01 0.33135355602E+01 0.26351331545E+01 0.21957710029E+01 0.19506331544E+01
 0.18720217706E+01 0.19506372761E+01 0.21957789356E+01 0.26351318062E+01 0.33135105031E+01
 0.42888533976E+01 0.56234184724E+01 0.73687858996E+01 0.95443528055E+01 0.12109485336E+02
 0.14931325105E+02 0.17759104155E+02 0.20228661004E+02 0.21924036693E+02 0.22527848009E+02
 0.21924089138E+02 0.20228742051E+02 0.17759175720E+02 0.14931351070E+02 0.12109453455E+02
 0.95442902448E+01 0.73687432301E+01 0.56234242358E+01 0.36862897304E+01 0.28504018792E+01
 0.22906396841E+01 0.19506455290E+01 0.17907492875E+01 0.17907448146E+01 0.19506389028E+01
 0.22906388493E+01 0.28504035388E+01 0.36862915459E+01 0.48646536198E+01 0.64495067736E+01
 0.84838647062E+01 0.10964324588E+02 0.13808504428E+02 0.16820083227E+02 0.19670795099E+02
 0.21924036693E+02 0.23169496093E+02 0.23169487696E+02 0.21924024351E+02 0.19670804887E+02
 0.16820125541E+02 0.13808556603E+02 0.10964351150E+02 0.84838561479E+01 0.64494860926E+01
 0.48646429909E+01 0.30855013299E+01 0.24067861900E+01 0.19726168552E+01 0.17329073530E+01
 0.16564969946E+01 0.17328941243E+01 0.19726050895E+01 0.24067897128E+01 0.30855249898E+01
 0.40729101379E+01 0.54372351135E+01 0.72353523338E+01 0.94910433985E+01 0.12166487456E+02
 0.15127170877E+02 0.18111189412E+02 0.20728111706E+02 0.22527848009E+02 0.23169487696E+02
 0.22527787082E+02 0.20728039277E+02 0.18111170156E+02 0.15127230809E+02 0.12166587124E+02
 0.94911145296E+01 0.72353613180E+01 0.54372014214E+01 0.40728708173E+01 0.25349202232E+01
 0.20127628290E+01 0.16984381335E+01 0.15515801527E+01 0.15515700298E+01 0.16984165050E+01
 0.20127491571E+01 0.25349328157E+01 0.33218388572E+01 0.44393375529E+01 0.59494115223E+01
 0.78920140827E+01 0.10261637616E+02 0.12977612415E+02 0.15851678312E+02 0.18571430874E+02
 0.20728187145E+02 0.21924089138E+02 0.21924024351E+02 0.20728039277E+02 0.18571308518E+02
 0.15851672891E+02 0.12977723843E+02 0.10261776871E+02 0.78920873440E+01 0.59493974211E+01
 0.44392816816E+01 0.33217939086E+01 0.20638487238E+01 0.16838913852E+01 0.14751478336E+01
 0.14087924349E+01 0.14751281326E+01 0.16838664876E+01 0.20638394563E+01 0.26612770403E+01
 0.35346612191E+01 0.47445447362E+01 0.63383079141E+01 0.83308267583E+01 0.10681054897E+02
 0.13264742896E+02 0.15851763366E+02 0.18111373241E+02 0.19670969638E+02 0.20228742051E+02
 0.19670804887E+02 0.18111170156E+02 0.15851672891E+02 0.13264818563E+02 0.10681217860E+02
 0.83309492542E+01 0.63383266445E+01 0.47444914418E+01 0.35346029506E+01 0.26612525292E+01
 0.16834510561E+01 0.14234242308E+01 0.13020505518E+01 0.13020417042E+01 0.14234038269E+01
 0.16834330012E+01 0.21160927717E+01 0.27691392825E+01 0.36969136889E+01 0.49480074895E+01
 0.65489416436E+01 0.84853571635E+01 0.10681069261E+02 0.12977686546E+02 0.15127352426E+02
 0.16820310563E+02 0.17759263400E+02 0.17759175720E+02 0.16820125541E+02 0.15127230809E+02
 0.12977723843E+02 0.10681217860E+02 0.84854886890E+01 0.65489725557E+01 0.49479552479E+01
 0.36968469002E+01 0.27691037781E+01 0.21160918989E+01 0.13912531888E+01 0.12265635172E+01
 0.11741167999E+01 0.12265541492E+01 0.13912385898E+01 0.16901675506E+01 0.21588469403E+01
 0.28420751978E+01 0.37849731136E+01 0.50195638506E+01 0.65489512147E+01 0.83308422883E+01
 0.10261661928E+02 0.12166560700E+02 0.13808631627E+02 0.14931437702E+02 0.15331651859E+02
 0.14931351070E+02 0.13808556603E+02 0.12166587124E+02 0.10261776871E+02 0.83309492542E+01
 0.65489725557E+01 0.50195078516E+01 0.37849033880E+01 0.28420385189E+01 0.21588448398E+01
 0.16901807440E+01 0.11771452972E+01 0.10849768955E+01 0.10849755431E+01 0.11771387015E+01
 0.13733952262E+01 0.16974374782E+01 0.21829014954E+01 0.28678871644E+01 0.37849655144E+01
 0.49480066890E+01 0.63383193601E+01 0.78920200931E+01 0.94910395645E+01 0.10964320909E+02
 0.12109466987E+02 0.12739147380E+02 0.12739134101E+02 0.12109453455E+02 0.10964351150E+02
 0.94911145296E+01 0.78920873440E+01 0.63383266445E+01 0.49479552479E+01 0.37849033880E+01
 0.28678576896E+01 0.21829089726E+01 0.16974590936E+01 0.13734113128E+01 0.10289149281E+01
 0.99028127606E+00 0.10289163259E+01 0.11494101374E+01 0.13656533518E+01 0.17004475840E+01
 0.21829004629E+01 0.28420631550E+01 0.36968928587E+01 0.47445259408E+01 0.59493944198E+01
 0.72353253128E+01 0.84838159130E+01 0.95442687683E+01 0.10261254911E+02 0.10515291794E+02
 0.10261259225E+02 0.95442902448E+01 0.84838561479E+01 0.72353613180E+01 0.59493974211E+01
 0.47444914418E+01 0.36968469002E+01 0.28420385189E+01 0.21829089726E+01 0.17004747283E+01
 0.13656760827E+01 0.11494177012E+01 0.93601672056E+00 0.93601993734E+00 0.10019024711E+01
 0.11404996424E+01 0.13656567008E+01 0.16974429597E+01 0.21588485404E+01 0.27691304369E+01
 0.35346363723E+01 0.44392971687E+01 0.54371875219E+01 0.64494564162E+01 0.73687219216E+01
 0.80744162028E+01 0.84592192257E+01 0.84592177444E+01 0.80744205150E+01 0.73687432301E+01
 0.64494860926E+01 0.54372014214E+01 0.44392816816E+01 0.35346029506E+01 0.27691037781E+01
 0.21588448398E+01 0.16974590936E+01 0.13656760827E+01 0.11405078719E+01 0.10018994744E+01
 0.89130188391E+00 0.91834739653E+00 0.10019011956E+01 0.11494117994E+01 0.13733988508E+01
 0.16901724607E+01 0.21161027210E+01 0.26612857298E+01 0.33218290521E+01 0.40728777349E+01
 0.48646148060E+01 0.56233875142E+01 0.62600632658E+01 0.66864367349E+01 0.68367133638E+01
 0.66864359067E+01 0.62600802661E+01 0.56234242358E+01 0.48646429909E+01 0.40728708173E+01
 0.33217939086E+01 0.26612525292E+01 0.21160918989E+01 0.16901807440E+01 0.13734113128E+01
 0.11494177012E+01 0.10018994744E+01 0.91834368613E+00 0.97321260172E+00 0.10289161839E+01
 0.11263458259E+01 0.12723036598E+01 0.14754727293E+01 0.17443745722E+01 0.20838377815E+01
 0.24904319837E+01 0.29481515735E+01 0.34261267712E+01 0.38799617964E+01 0.42575162942E+01
 0.45086687970E+01 0.45968653660E+01 0.45086769776E+01 0.42575281519E+01 0.38799634195E+01
 0.34261067356E+01 0.29481211778E+01 0.24904187149E+01 0.20838530403E+01 0.17443999846E+01
 0.14754841332E+01 0.12722977399E+01 0.11263363600E+01 0.10289132069E+01 0.97321404616E+00
 0.95510089502E+00 0.10289161839E+01 0.10849788651E+01 0.11741226885E+01 0.13020488871E+01
 0.14751280517E+01 0.16984067076E+01 0.19725980393E+01 0.22906509705E+01 0.26351650663E+01
 0.29781044541E+01 0.32837064233E+01 0.35144508550E+01 0.36388443763E+01 0.36388480617E+01
 0.35144558218E+01 0.32836993470E+01 0.29780789244E+01 0.26351340893E+01 0.22906388910E+01
 0.19726147787E+01 0.16984357977E+01 0.14751456085E+01 0.13020485235E+01 0.11741156918E+01
 0.10849760280E+01 0.10289178989E+01 0.10019041238E+01 0.10019027241E+01 0.11263458259E+01
 0.11741226885E+01 0.12468773744E+01 0.13496155184E+01 0.14870732340E+01 0.16618573600E+01