    2    2   15    1
  0.2001288E+02  0.3839590E-09  0.3839590E-09  0.3839590E-09  0.5000000E-15
  1.000000000000000E-004
  CAR 
 unknown system                          
      8    182      8
 
  0.4166667E-01  0.4166667E-01  0.4166667E-01  0.1157407E-02
    1       -6.109407   1.000000
    2        5.595206   0.999951
    3        5.813849   0.990627
    4        5.813849   0.990627
    5        8.475857   0.000000
    6        8.482254   0.000000
    7        8.482254   0.000000
    8        9.370752   0.000000
 
  0.1250000E+00  0.4166667E-01  0.4166667E-01  0.3472222E-02
    1       -5.988247   1.000000
    2        4.702923   1.000000
    3        5.386583   1.000000
    4        5.759209   0.996899
    5        8.558174   0.000000
    6        8.600532   0.000000
    7        8.803046   0.000000
    8       10.190107   0.000000
 
  0.2083333E+00  0.4166667E-01  0.4166667E-01  0.3472222E-02
    1       -5.688989   1.000000
    2        3.188547   1.000000
    3        5.015059   1.000000
    4        5.487469   0.999998
    5        8.301119   0.000000
    6        8.993476   0.000000
    7        9.298681   0.000000
    8       11.518182   0.000000
 
  0.2916667E+00  0.4166667E-01  0.4166667E-01  0.3472222E-02
    1       -5.224161   1.000000
    2        1.665622   1.000000
    3        4.717638   1.000000
    4        5.167928   1.000000
    5        7.991616   0.000000
    6        9.284903   0.000000
    7        9.542987   0.000000
    8       12.642173   0.000000
 
  0.3750000E+00  0.4166667E-01  0.4166667E-01  0.3472222E-02
    1       -4.629607   1.000000
    2        0.295768   1.000000
    3        4.521680   1.000000
    4        4.892934   1.000000
    5        7.746391   0.000000
    6        9.322908   0.000000
    7        9.458902   0.000000
    8       13.522687   0.000000
 
  0.4583333E+00  0.4166667E-01  0.4166667E-01  0.3472222E-02
    1       -4.022467   1.000000
    2       -0.764076   1.000000
    3        4.440382   1.000000
    4        4.696304   1.000000
    5        7.600408   0.000000
    6        9.280235   0.000000
    7        9.285030   0.000000
    8       13.702366   0.000000
 
 -0.4583333E+00  0.4166667E-01  0.4166667E-01  0.3472222E-02
    1       -3.789100   1.000000
    2       -1.111551   1.000000
    3        4.469658   1.000000
    4        4.594261   1.000000
    5        7.564254   0.000000
    6        9.179430   0.000000
    7        9.316913   0.000000
    8       13.667587   0.000000
 
 -0.3750000E+00  0.4166667E-01  0.4166667E-01  0.3472222E-02
    1       -4.210748   1.000000
    2       -0.462686   1.000000
    3        4.597795   1.000000
    4        4.602827   1.000000
    5        7.639824   0.000000
    6        9.188858   0.000000
    7        9.447155   0.000000
    8       13.616528   0.000000
 
 -0.2916667E+00  0.4166667E-01  0.4166667E-01  0.3472222E-02
    1       -4.837815   1.000000
    2        0.727651   1.000000
    3        4.712178   1.000000
    4        4.830965   1.000000
    5        7.823502   0.000000
    6        9.239097   0.000000
    7        9.613946   0.000000
    8       12.869258   0.000000
 
 -0.2083333E+00  0.4166667E-01  0.4166667E-01  0.3472222E-02
    1       -5.395992   1.000000
    2        2.161950   1.000000
    3        4.932997   1.000000
    4        5.132226   1.000000
    5        8.091958   0.000000
    6        9.135290   0.000000
    7        9.610934   0.000000
    8       12.071310   0.000000
 
 -0.1250000E+00  0.4166667E-01  0.4166667E-01  0.3472222E-02
    1       -5.807887   1.000000
    2        3.712909   1.000000
    3        5.243709   1.000000
    4        5.460698   0.999999
    5        8.372263   0.000000
    6        8.796844   0.000000
    7        9.272444   0.000000
    8       11.039568   0.000000
 
 -0.4166667E-01  0.4166667E-01  0.4166667E-01  0.3472222E-02
    1       -6.048711   1.000000
    2        5.173013   1.000000
    3        5.584545   0.999964
    4        5.690212   0.999370
    5        8.342994   0.000000
    6        8.687640   0.000000
    7        8.782605   0.000000
    8        9.757236   0.000000
 
  0.1250000E+00  0.1250000E+00  0.4166667E-01  0.3472222E-02
    1       -5.927450   1.000000
    2        4.623061   1.000000
    3        5.235258   1.000000
    4        5.342229   1.000000
    5        8.101526   0.000000
    6        9.123509   0.000000
    7        9.276301   0.000000
    8       10.250195   0.000000
 
  0.2083333E+00  0.1250000E+00  0.4166667E-01  0.6944444E-02
    1       -5.687083   1.000000
    2        3.577977   1.000000
    3        4.640907   1.000000
    4        5.196564   1.000000
    5        8.116797   0.000000
    6        9.315482   0.000000
    7        9.786773   0.000000
    8       10.822811   0.000000
 
  0.2916667E+00  0.1250000E+00  0.4166667E-01  0.6944444E-02
    1       -5.275938   1.000000
    2        2.146647   1.000000
    3        4.257122   1.000000
    4        4.902437   1.000000
    5        8.322209   0.000000
    6        9.265644   0.000000
    7       10.170872   0.000000
    8       11.017665   0.000000
 
  0.3750000E+00  0.1250000E+00  0.4166667E-01  0.6944444E-02
    1       -4.718581   1.000000
    2        0.759321   1.000000
    3        3.995319   1.000000
    4        4.594673   1.000000
    5        8.275283   0.000000
    6        9.256134   0.000000
    7       10.170034   0.000000
    8       11.621915   0.000000
 
  0.4583333E+00  0.1250000E+00  0.4166667E-01  0.6944444E-02
    1       -4.090997   1.000000
    2       -0.410145   1.000000
    3        3.815993   1.000000
    4        4.398093   1.000000
    5        8.167449   0.000000
    6        9.164316   0.000000
    7        9.995283   0.000000
    8       12.762786   0.000000
 
 -0.4583333E+00  0.1250000E+00  0.4166667E-01  0.6944444E-02
    1       -3.667837   1.000000
    2       -1.052919   1.000000
    3        3.692047   1.000000
    4        4.372984   1.000000
    5        8.133965   0.000000
    6        9.112843   0.000000
    7        9.856209   0.000000
    8       13.885531   0.000000
 
 -0.3750000E+00  0.1250000E+00  0.4166667E-01  0.6944444E-02
    1       -3.903761   1.000000
    2       -0.705591   1.000000
    3        3.642064   1.000000
    4        4.509837   1.000000
    5        8.198200   0.000000
    6        9.153753   0.000000
    7        9.834597   0.000000
    8       13.593088   0.000000
 
 -0.2916667E+00  0.1250000E+00  0.4166667E-01  0.6944444E-02
    1       -4.511966   1.000000
    2        0.340286   1.000000
    3        3.701810   1.000000
    4        4.768937   1.000000
    5        8.352579   0.000000
    6        9.240730   0.000000
    7        9.915060   0.000000
    8       12.428704   0.000000
 
 -0.2083333E+00  0.1250000E+00  0.4166667E-01  0.6944444E-02
    1       -5.105689   1.000000
    2        1.669488   1.000000
    3        3.899338   1.000000
    4        5.099474   1.000000
    5        8.562575   0.000000
    6        9.191627   0.000000
    7        9.938401   0.000000
    8       11.571878   0.000000
 
 -0.1250000E+00  0.1250000E+00  0.4166667E-01  0.6944444E-02
    1       -5.569155   1.000000
    2        3.072905   1.000000
    3        4.284900   1.000000
    4        5.420339   1.000000
    5        8.615202   0.000000
    6        9.017597   0.000000
    7        9.609035   0.000000
    8       11.239091   0.000000
 
 -0.4166667E-01  0.1250000E+00  0.4166667E-01  0.6944444E-02
    1       -5.867517   1.000000
    2        4.156067   1.000000
    3        5.035046   1.000000
    4        5.576369   0.999972
    5        8.390908   0.000000
    6        8.864742   0.000000
    7        9.196900   0.000000
    8       10.693484   0.000000
 
  0.2083333E+00  0.2083333E+00  0.4166667E-01  0.3472222E-02
    1       -5.505577   1.000000
    2        3.326193   1.000000
    3        4.471418   1.000000
    4        4.486975   1.000000
    5        7.501371   0.000000
    6        9.930099   0.000000
    7       10.507552   0.000000
    8       10.541059   0.000000
 
  0.2916667E+00  0.2083333E+00  0.4166667E-01  0.6944444E-02
    1       -5.150397   1.000000
    2        2.357868   1.000000
    3        3.881455   1.000000
    4        4.304216   1.000000
    5        7.537828   0.000000
    6        9.554001   0.000000
    7       10.716187   0.000000
    8       11.155578   0.000000
 
  0.3750000E+00  0.2083333E+00  0.4166667E-01  0.6944444E-02
    1       -4.638474   1.000000
    2        1.143117   1.000000
    3        3.425865   1.000000
    4        4.036297   1.000000
    5        7.799902   0.000000
    6        9.775258   0.000000
    7       10.517028   0.000000
    8       11.358793   0.000000
 
  0.4583333E+00  0.2083333E+00  0.4166667E-01  0.6944444E-02
    1       -4.018898   1.000000
    2       -0.017553   1.000000
    3        3.031569   1.000000
    4        3.896411   1.000000
    5        7.873340   0.000000
    6       10.245666   0.000000
    7       10.781723   0.000000
    8       11.227702   0.000000
 
 -0.4583333E+00  0.2083333E+00  0.4166667E-01  0.6944444E-02
    1       -3.471203   1.000000
    2       -0.848266   1.000000
    3        2.720037   1.000000
    4        3.932806   1.000000
    5        7.948792   0.000000
    6       10.019082   0.000000
    7       11.032831   0.000000
    8       12.225164   0.000000
 
 -0.3750000E+00  0.2083333E+00  0.4166667E-01  0.6944444E-02
    1       -3.481819   1.000000
    2       -0.829609   1.000000
    3        2.536485   1.000000
    4        4.125109   1.000000
    5        8.149456   0.000000
    6        9.872038   0.000000
    7       10.899965   0.000000
    8       13.580018   0.000000
 
 -0.2916667E+00  0.2083333E+00  0.4166667E-01  0.6944444E-02
    1       -4.035599   1.000000
    2        0.014155   1.000000
    3        2.524916   1.000000
    4        4.439175   1.000000
    5        8.465629   0.000000
    6        9.784819   0.000000
    7       10.817255   0.000000
    8       12.204569   0.000000
 
 -0.2083333E+00  0.2083333E+00  0.4166667E-01  0.6944444E-02
    1       -4.652394   1.000000
    2        1.117908   1.000000
    3        2.771508   1.000000
    4        4.821106   1.000000
    5        8.829567   0.000000
    6        9.557100   0.000000
    7       10.635406   0.000000
    8       11.267859   0.000000
 
 -0.1250000E+00  0.2083333E+00  0.4166667E-01  0.6944444E-02
    1       -5.160180   1.000000
    2        2.047043   1.000000
    3        3.501337   1.000000
    4        5.166496   1.000000
    5        8.920074   0.000000
    6        9.130396   0.000000
    7       10.078497   0.000000
    8       11.191117   0.000000
 
 -0.4166667E-01  0.2083333E+00  0.4166667E-01  0.6944444E-02
    1       -5.511291   1.000000
    2        2.661562   1.000000
    3        4.650636   1.000000
    4        5.293880   1.000000
    5        8.393588   0.000000
    6        8.994581   0.000000
    7        9.666028   0.000000
    8       11.550366   0.000000
 
  0.2916667E+00  0.2916667E+00  0.4166667E-01  0.3472222E-02
    1       -4.850868   1.000000
    2        1.897909   1.000000
    3        3.756850   1.000000
    4        3.810150   1.000000
    5        6.960613   0.000000
    6        8.754280   0.000000
    7       11.890031   0.000000
    8       11.962077   0.000000
 
  0.3750000E+00  0.2916667E+00  0.4166667E-01  0.6944444E-02
    1       -4.388808   1.000000
    2        1.047475   1.000000
    3        3.259164   1.000000
    4        3.579383   1.000000
    5        7.077808   0.000000
    6        8.435508   0.000000
    7       12.038921   0.000000
    8       12.652937   0.000000
 
  0.4583333E+00  0.2916667E+00  0.4166667E-01  0.6944444E-02
    1       -3.795613   1.000000
    2        0.104309   1.000000
    3        2.622823   1.000000
    4        3.449445   1.000000
    5        7.318862   0.000000
    6        8.978426   0.000000
    7       11.815674   0.000000
    8       12.735591   0.000000
 
 -0.4583333E+00  0.2916667E+00  0.4166667E-01  0.6944444E-02
    1       -3.183611   1.000000
    2       -0.723573   1.000000
    3        2.071923   1.000000
    4        3.489897   1.000000
    5        7.432599   0.000000
    6       10.244104   0.000000
    7       11.547674   0.000000
    8       12.565967   0.000000
 
 -0.3750000E+00  0.2916667E+00  0.4166667E-01  0.6944444E-02
    1       -2.977211   1.000000
    2       -0.966956   1.000000
    3        1.730976   1.000000
    4        3.686225   1.000000
    5        7.652626   0.000000
    6       11.192659   0.000000
    7       11.924472   0.000000
    8       12.404543   0.000000
 
 -0.2916667E+00  0.2916667E+00  0.4166667E-01  0.6944444E-02
    1       -3.445980   1.000000
    2       -0.391047   1.000000
    3        1.693239   1.000000
    4        4.012450   1.000000
    5        8.015353   0.000000
    6       10.951862   0.000000
    7       12.027383   0.000000
    8       12.250308   0.000000
 
 -0.2083333E+00  0.2916667E+00  0.4166667E-01  0.6944444E-02
    1       -4.067266   1.000000
    2        0.301780   1.000000
    3        2.151162   1.000000
    4        4.421145   1.000000
    5        8.462331   0.000000
    6       10.193221   0.000000
    7       11.295193   0.000000
    8       11.639572   0.000000
 
 -0.1250000E+00  0.2916667E+00  0.4166667E-01  0.6944444E-02
    1       -4.604838   1.000000
    2        0.777893   1.000000
    3        3.168625   1.000000
    4        4.805413   1.000000
    5        8.686482   0.000000
    6        9.367884   0.000000
    7       10.280887   0.000000
    8       11.761314   0.000000
 
 -0.4166667E-01  0.2916667E+00  0.4166667E-01  0.6944444E-02
    1       -4.997591   1.000000
    2        1.195680   1.000000
    3        4.380689   1.000000
    4        4.970293   1.000000
    5        8.149574   0.000000
    6        9.197738   0.000000
    7        9.780279   0.000000
    8       12.163966   0.000000
 
  0.3750000E+00  0.3750000E+00  0.4166667E-01  0.3472222E-02
    1       -3.975977   1.000000
    2        0.438929   1.000000
    3        3.238175   1.000000
    4        3.329855   1.000000
    5        6.611592   0.000500
    6        7.694888   0.000000
    7       13.432086   0.000000
    8       13.464586   0.000000
 
  0.4583333E+00  0.3750000E+00  0.4166667E-01  0.6944444E-02
    1       -3.419761   1.000000
    2       -0.312378   1.000000
    3        2.835038   1.000000
    4        3.127615   1.000000
    5        6.824157   0.000001
    6        7.599873   0.000000
    7       13.470864   0.000000
    8       14.220752   0.000000
 
 -0.4583333E+00  0.3750000E+00  0.4166667E-01  0.6944444E-02
    1       -2.786907   1.000000
    2       -1.020544   1.000000
    3        2.116754   1.000000
    4        3.144268   1.000000
    5        7.015320   0.000000
    6        8.529446   0.000000
    7       13.207482   0.000000
    8       14.233811   0.000000
 
 -0.3750000E+00  0.3750000E+00  0.4166667E-01  0.6944444E-02
    1       -2.437809   1.000000
    2       -1.351253   1.000000
    3        1.567077   1.000000
    4        3.320765   1.000000
    5        7.225061   0.000000
    6       10.029728   0.000000
    7       12.869709   0.000000
    8       13.717655   0.000000
 
 -0.2916667E+00  0.3750000E+00  0.4166667E-01  0.6944444E-02
    1       -2.863999   1.000000
    2       -0.948631   1.000000
    3        1.468987   1.000000
    4        3.635885   1.000000
    5        7.585682   0.000000
    6       11.583754   0.000000
    7       12.073430   0.000000
    8       12.840784   0.000000
 
 -0.2083333E+00  0.3750000E+00  0.4166667E-01  0.6944444E-02
    1       -3.454022   1.000000
    2       -0.587858   1.000000
    3        2.023749   1.000000
    4        4.050522   1.000000
    5        8.063318   0.000000
    6       10.434903   0.000000
    7       11.518016   0.000000
    8       12.837017   0.000000
 
 -0.1250000E+00  0.3750000E+00  0.4166667E-01  0.6944444E-02
    1       -3.977340   1.000000
    2       -0.359919   1.000000
    3        3.065644   1.000000
    4        4.470898   1.000000
    5        8.419505   0.000000
    6        9.368307   0.000000
    7       10.289854   0.000000
    8       12.919093   0.000000
 
 -0.4166667E-01  0.3750000E+00  0.4166667E-01  0.6944444E-02
    1       -4.377977   1.000000
    2       -0.086316   1.000000
    3        4.222215   1.000000
    4        4.703937   1.000000
    5        7.946881   0.000000
    6        9.187178   0.000000
    7        9.642048   0.000000
    8       13.138567   0.000000
 
  0.4583333E+00  0.4583333E+00  0.4166667E-01  0.3472222E-02
    1       -2.900426   1.000000
    2       -0.979378   1.000000
    3        2.947723   1.000000
    4        3.056810   1.000000
    5        6.514608   0.004599
    6        6.977684   0.000000
    7       14.996068   0.000000
    8       15.015032   0.000000
 
 -0.4583333E+00  0.4583333E+00  0.4166667E-01  0.6944444E-02
    1       -2.272836   1.000000
    2       -1.640387   1.000000
    3        2.647691   1.000000
    4        2.938973   1.000000
    5        6.774917   0.000004
    6        7.170279   0.000000
    7       14.955294   0.000000
    8       15.506360   0.000000
 
 -0.3750000E+00  0.4583333E+00  0.4166667E-01  0.6944444E-02
    1       -2.263773   1.000000
    2       -1.570379   1.000000
    3        2.014162   1.000000
    4        3.084643   1.000000
    5        6.954185   0.000000
    6        8.438757   0.000000
    7       13.914342   0.000000
    8       14.651976   0.000000
 
 -0.2916667E+00  0.4583333E+00  0.4166667E-01  0.6944444E-02
    1       -2.763475   1.000000
    2       -1.069409   1.000000
    3        1.741920   1.000000
    4        3.376865   1.000000
    5        7.294877   0.000000
    6       10.103006   0.000000
    7       12.213438   0.000000
    8       13.288702   0.000000
 
 -0.2083333E+00  0.4583333E+00  0.4166667E-01  0.6944444E-02
    1       -3.190211   1.000000
    2       -0.946568   1.000000
    3        2.176117   1.000000
    4        3.785036   1.000000
    5        7.779551   0.000000
    6       10.603968   0.000000
    7       11.659133   0.000000
    8       12.075440   0.000000
 
 -0.1250000E+00  0.4583333E+00  0.4166667E-01  0.6944444E-02
    1       -3.548631   1.000000
    2       -1.002659   1.000000
    3        3.119751   1.000000
    4        4.232776   1.000000
    5        8.220177   0.000000
    6        9.383220   0.000000
    7       10.330641   0.000000
    8       13.915741   0.000000
 
 -0.4166667E-01  0.4583333E+00  0.4166667E-01  0.6944444E-02
    1       -3.833285   1.000000
    2       -0.968527   1.000000
    3        4.159156   1.000000
    4        4.548346   1.000000
    5        7.839081   0.000000
    6        9.137165   0.000000
    7        9.503122   0.000000
    8       13.782931   0.000000
 
 -0.4583333E+00 -0.4583333E+00  0.4166667E-01  0.3472222E-02
    1       -2.296546   1.000000
    2       -1.654130   1.000000
    3        2.889328   1.000000
    4        3.001830   1.000000
    5        6.561943   0.001645
    6        6.761862   0.000007
    7       15.683878   0.000000
    8       15.735767   0.000000
 
 -0.3750000E+00 -0.4583333E+00  0.4166667E-01  0.6944444E-02
    1       -2.865910   1.000000
    2       -0.985836   1.000000
    3        2.710273   1.000000
    4        3.001682   1.000000
    5        6.780295   0.000004
    6        7.325754   0.000000
    7       14.216083   0.000000
    8       14.999228   0.000000
 
 -0.2916667E+00 -0.4583333E+00  0.4166667E-01  0.6944444E-02
    1       -3.308034   1.000000
    2       -0.450179   1.000000
    3        2.321326   1.000000
    4        3.264394   1.000000
    5        7.138343   0.000000
    6        8.707150   0.000000
    7       12.497824   0.000000
    8       13.480534   0.000000
 
 -0.2083333E+00 -0.4583333E+00  0.4166667E-01  0.6944444E-02
    1       -3.611861   1.000000
    2       -0.373671   1.000000
    3        2.519707   1.000000
    4        3.660586   1.000000
    5        7.628837   0.000000
    6       10.447381   0.000000
    7       10.910997   0.000000
    8       11.867618   0.000000
 
 -0.1250000E+00 -0.4583333E+00  0.4166667E-01  0.6944444E-02
    1       -3.781776   1.000000
    2       -0.666841   1.000000
    3        3.292200   1.000000
    4        4.134292   1.000000
    5        8.124841   0.000000
    6        9.494740   0.000000
    7       10.465801   0.000000
    8       12.459830   0.000000
 
 -0.3750000E+00 -0.3750000E+00  0.4166667E-01  0.3472222E-02
    1       -3.461667   1.000000
    2       -0.279363   1.000000
    3        3.064173   1.000000
    4        3.166114   1.000000
    5        6.528660   0.003426
    6        7.291331   0.000000
    7       14.222025   0.000000
    8       14.229664   0.000000
 
 -0.2916667E+00 -0.3750000E+00  0.4166667E-01  0.6944444E-02
    1       -3.928860   1.000000
    2        0.368844   1.000000
    3        3.019191   1.000000
    4        3.319012   1.000000
    5        6.921359   0.000000
    6        7.971858   0.000000
    7       12.743185   0.000000
    8       13.430060   0.000000
 
 -0.2083333E+00 -0.3750000E+00  0.4166667E-01  0.6944444E-02
    1       -4.241104   1.000000
    2        0.634063   1.000000
    3        3.002895   1.000000
    4        3.702816   1.000000
    5        7.542096   0.000000
    6        9.338920   0.000000
    7       11.150416   0.000000
    8       12.025617   0.000000
 
 -0.1250000E+00 -0.3750000E+00  0.4166667E-01  0.6944444E-02
    1       -4.390638   1.000000
    2        0.356675   1.000000
    3        3.543503   1.000000
    4        4.208165   1.000000
    5        8.125072   0.000000
    6        9.680360   0.000000
    7       10.647724   0.000000
    8       11.163627   0.000000
 
 -0.2916667E+00 -0.2916667E+00  0.4166667E-01  0.3472222E-02
    1       -4.439917   1.000000
    2        1.167425   1.000000
    3        3.469038   1.000000
    4        3.545565   1.000000
    5        6.757144   0.000008
    6        8.185614   0.000000
    7       12.652623   0.000000
    8       12.701982   0.000000
 
 -0.2083333E+00 -0.2916667E+00  0.4166667E-01  0.6944444E-02
    1       -4.796823   1.000000
    2        1.712645   1.000000
    3        3.548432   1.000000
    4        3.908826   1.000000
    5        7.284498   0.000000
    6        8.977066   0.000000
    7       11.354738   0.000000
    8       11.893989   0.000000
 
 -0.1250000E+00 -0.2916667E+00  0.4166667E-01  0.6944444E-02
    1       -4.984343   1.000000
    2        1.643127   1.000000
    3        3.849019   1.000000
    4        4.450083   1.000000
    5        8.074887   0.000000
    6        9.777848   0.000000
    7       10.422968   0.000000
    8       10.752468   0.000000
 
 -0.2083333E+00 -0.2083333E+00  0.4166667E-01  0.3472222E-02
    1       -5.206650   1.000000
    2        2.620505   1.000000
    3        4.097059   1.000000
    4        4.120592   1.000000
    5        7.212755   0.000000
    6        9.372636   0.000000
    7       11.159157   0.000000
    8       11.241947   0.000000
 
 -0.1250000E+00 -0.2083333E+00  0.4166667E-01  0.6944444E-02
    1       -5.447658   1.000000
    2        2.979081   1.000000
    3        4.249115   1.000000
    4        4.746831   1.000000
    5        7.821119   0.000000
    6        9.780983   0.000000
    7       10.447462   0.000000
    8       10.481831   0.000000
 
 -0.1250000E+00 -0.1250000E+00  0.4166667E-01  0.3472222E-02
    1       -5.746165   1.000000
    2        3.999342   1.000000
    3        4.849888   1.000000
    4        4.913315   1.000000
    5        7.806749   0.000000
    6        9.683304   0.000000
    7        9.875695   0.000000
    8       10.464591   0.000000
 
  0.1250000E+00  0.1250000E+00  0.1250000E+00  0.1157407E-02
    1       -5.928058   1.000000
    2        4.246163   1.000000
    3        5.559719   0.999983
    4        5.559719   0.999983
    5        8.359216   0.000000
    6        8.852026   0.000000
    7        8.852026   0.000000
    8       10.557868   0.000000
 
  0.2083333E+00  0.1250000E+00  0.1250000E+00  0.3472222E-02
    1       -5.747878   1.000000
    2        3.621470   1.000000
    3        4.680456   1.000000
    4        5.635468   0.999848
    5        8.711850   0.000000
    6        8.837598   0.000000
    7        9.128669   0.000000
    8       11.179198   0.000000
 
  0.2916667E+00  0.1250000E+00  0.1250000E+00  0.3472222E-02
    1       -5.393158   1.000000
    2        2.557313   1.000000
    3        3.888547   1.000000
    4        5.419180   1.000000
    5        8.847035   0.000000
    6        9.194808   0.000000
    7        9.499045   0.000000
    8       11.570101   0.000000
 
  0.3750000E+00  0.1250000E+00  0.1250000E+00  0.3472222E-02
    1       -4.881181   1.000000
    2        1.210213   1.000000
    3        3.528852   1.000000
    4        5.070100   1.000000
    5        8.581661   0.000000
    6        9.549853   0.000000
    7        9.736132   0.000000
    8       12.172344   0.000000
 
  0.4583333E+00  0.1250000E+00  0.1250000E+00  0.3472222E-02
    1       -4.262088   1.000000
    2       -0.035853   1.000000
    3        3.387204   1.000000
    4        4.725286   1.000000
    5        8.327525   0.000000
    6        9.592531   0.000000
    7        9.707050   0.000000
    8       13.253561   0.000000
 
 -0.4583333E+00  0.1250000E+00  0.1250000E+00  0.3472222E-02
    1       -3.714725   1.000000
    2       -0.910670   1.000000
    3        3.404834   1.000000
    4        4.449388   1.000000
    5        8.142349   0.000000
    6        9.433951   0.000000
    7        9.813223   0.000000
    8       14.114729   0.000000
 
 -0.3750000E+00  0.1250000E+00  0.1250000E+00  0.3472222E-02
    1       -3.711863   1.000000
    2       -0.916202   1.000000
    3        3.559425   1.000000
    4        4.277385   1.000000
    5        8.055960   0.000000
    6        9.390253   0.000000
    7        9.989218   0.000000
    8       13.263768   0.000000
 
 -0.2916667E+00  0.1250000E+00  0.1250000E+00  0.3472222E-02
    1       -4.257484   1.000000
    2       -0.047016   1.000000
    3        3.832837   1.000000
    4        4.228653   1.000000
    5        8.077729   0.000000
    6        9.459312   0.000000
    7       10.235126   0.000000
    8       11.927130   0.000000
 
 -0.2083333E+00  0.1250000E+00  0.1250000E+00  0.3472222E-02
    1       -4.877080   1.000000
    2        1.205363   1.000000
    3        4.198494   1.000000
    4        4.312226   1.000000
    5        8.133024   0.000000
    6        9.551769   0.000000
    7       10.426089   0.000000
    8       10.933874   0.000000
 
 -0.1250000E+00  0.1250000E+00  0.1250000E+00  0.3472222E-02
    1       -5.390292   1.000000
    2        2.614002   1.000000
    3        4.526146   1.000000
    4        4.602071   1.000000
    5        8.011205   0.000000
    6        9.570473   0.000000
    7       10.347424   0.000000
    8       10.642482   0.000000
 
  0.2083333E+00  0.2083333E+00  0.1250000E+00  0.3472222E-02
    1       -5.628369   1.000000
    2        3.165024   1.000000
    3        4.884564   1.000000
    4        5.094812   1.000000
    5        8.273089   0.000000
    6        9.050783   0.000000
    7        9.784056   0.000000
    8       11.105702   0.000000
 
  0.2916667E+00  0.2083333E+00  0.1250000E+00  0.6944444E-02
    1       -5.332235   1.000000
    2        2.523538   1.000000
    3        3.893304   1.000000
    4        5.020265   1.000000
    5        8.354662   0.000000
    6        9.405039   0.000000
    7       10.284262   0.000000
    8       10.733814   0.000000
 
  0.3750000E+00  0.2083333E+00  0.1250000E+00  0.6944444E-02
    1       -4.871772   1.000000
    2        1.546471   1.000000
    3        3.145769   1.000000
    4        4.742352   1.000000
    5        8.763443   0.000000
    6        9.354987   0.000000
    7       10.576113   0.000000
    8       10.860121   0.000000
 
  0.4583333E+00  0.2083333E+00  0.1250000E+00  0.6944444E-02
    1       -4.280218   1.000000
    2        0.373443   1.000000
    3        2.828841   1.000000
    4        4.384700   1.000000
    5        8.866979   0.000000
    6        9.179308   0.000000
    7       10.966471   0.000000
    8       11.351955   0.000000
 
 -0.4583333E+00  0.2083333E+00  0.1250000E+00  0.6944444E-02
    1       -3.669764   1.000000
    2       -0.623508   1.000000
    3        2.738635   1.000000
    4        4.094988   1.000000
    5        8.673795   0.000000
    6        9.125371   0.000000
    7       11.020377   0.000000
    8       12.600464   0.000000
 
 -0.3750000E+00  0.2083333E+00  0.1250000E+00  0.6944444E-02
    1       -3.428003   1.000000
    2       -0.968072   1.000000
    3        2.782324   1.000000
    4        3.953567   1.000000
    5        8.476104   0.000000
    6        9.236672   0.000000
    7       11.047832   0.000000
    8       13.158582   0.000000
 
 -0.2916667E+00  0.2083333E+00  0.1250000E+00  0.6944444E-02
    1       -3.854774   1.000000
    2       -0.344546   1.000000
    3        2.916577   1.000000
    4        4.002875   1.000000
    5        8.372588   0.000000
    6        9.470423   0.000000
    7       11.123398   0.000000
    8       11.663021   0.000000
 
 -0.2083333E+00  0.2083333E+00  0.1250000E+00  0.6944444E-02
    1       -4.482925   1.000000
    2        0.757265   1.000000
    3        3.142160   1.000000
    4        4.232268   1.000000
    5        8.315235   0.000000
    6        9.763818   0.000000
    7       10.468601   0.000000
    8       11.222404   0.000000
 
 -0.1250000E+00  0.2083333E+00  0.1250000E+00  0.6944444E-02
    1       -5.038400   1.000000
    2        1.971223   1.000000
    3        3.531452   1.000000
    4        4.547824   1.000000
    5        8.086608   0.000000
    6        9.772530   0.000000
    7       10.246857   0.000000
    8       11.024949   0.000000
 