 vasp.5.4.4.18Apr17-6-g9f103f2a35 (build Dec 09 2018 21:25:21) complex          
  
 executed on IFC18.0.1.163_CrayMP date 2019.03.18  04:52:57
 running on    8 total cores
 distrk:  each k-point on    8 cores,    1 groups
 distr:  one band on NCORES_PER_BAND=   1 cores,    8 groups


--------------------------------------------------------------------------------------------------------


 INCAR:
 POTCAR:   PAW_PBE Si 05Jan2001                   

 ----------------------------------------------------------------------------- 
|                                                                             |
|           W    W    AA    RRRRR   N    N  II  N    N   GGGG   !!!           |
|           W    W   A  A   R    R  NN   N  II  NN   N  G    G  !!!           |
|           W    W  A    A  R    R  N N  N  II  N N  N  G       !!!           |
|           W WW W  AAAAAA  RRRRR   N  N N  II  N  N N  G  GGG   !            |
|           WW  WW  A    A  R   R   N   NN  II  N   NN  G    G                |
|           W    W  A    A  R    R  N    N  II  N    N   GGGG   !!!           |
|                                                                             |
|      For optimal performance we recommend to set                            |
|        NCORE= 4 - approx SQRT( number of cores)                             |
|      NCORE specifies how many cores store one orbital (NPAR=cpu/NCORE).     |
|      This setting can  greatly improve the performance of VASP for DFT.     |
|      The default,   NCORE=1            might be grossly inefficient         |
|      on modern multi-core architectures or massively parallel machines.     |
|      Do your own testing !!!!                                               |
|      Unfortunately you need to use the default for GW and RPA calculations. |
|      (for HF NCORE is supported but not extensively tested yet)             |
|                                                                             |
 ----------------------------------------------------------------------------- 

 POTCAR:   PAW_PBE Si 05Jan2001                   
   VRHFIN =Si: s2p2                                                             
   LEXCH  = PE                                                                  
   EATOM  =   103.0669 eV,    7.5752 Ry                                         
                                                                                
   TITEL  = PAW_PBE Si 05Jan2001                                                
   LULTRA =        F    use ultrasoft PP ?                                      
   IUNSCR =        1    unscreen: 0-lin 1-nonlin 2-no                           
   RPACOR =    1.500    partial core radius                                     
   POMASS =   28.085; ZVAL   =    4.000    mass and valenz                      
   RCORE  =    1.900    outmost cutoff radius                                   
   RWIGS  =    2.480; RWIGS  =    1.312    wigner-seitz radius (au A)           
   ENMAX  =  245.345; ENMIN  =  184.009 eV                                      
   ICORE  =        2    local potential                                         
   LCOR   =        T    correct aug charges                                     
   LPAW   =        T    paw PP                                                  
   EAUG   =  322.069                                                            
   DEXC   =    -.007                                                            
   RMAX   =    2.944    core radius for proj-oper                               
   RAUG   =    1.300    factor for augmentation sphere                          
   RDEP   =    1.993    radius for radial grids                                 
   QCUT   =   -4.246; QGAM   =    8.493    optimization parameters              
                                                                                
   Description                                                                  
     l     E      TYP  RCUT    TYP  RCUT                                        
     0   .000     23  1.900                                                     
     0   .000     23  1.900                                                     
     1   .000     23  1.900                                                     
     1   .000     23  1.900                                                     
     2   .000      7  1.900                                                     
  local pseudopotential read in
  partial core-charges read in
  atomic valenz-charges read in
  non local Contribution for L=           0  read in
    real space projection operators read in
  non local Contribution for L=           0  read in
    real space projection operators read in
  non local Contribution for L=           1  read in
    real space projection operators read in
  non local Contribution for L=           1  read in
    real space projection operators read in
    PAW grid and wavefunctions read in
 
   number of l-projection  operators is LMAX  =           4
   number of lm-projection operators is LMMAX =           8
 
 PAW_PBE Si 05Jan2001                   :
 energy of atom  1       EATOM= -103.0669
 kinetic energy error for atom=    0.0107 (will be added to EATOM!!)
 
 
 POSCAR: Si2                                     
  positions in direct lattice
  No initial velocities read in
 exchange correlation table for  LEXCH =        8
   RHO(1)=    0.500       N(1)  =     2000
   RHO(2)=  100.500       N(2)  =     4000
 


--------------------------------------------------------------------------------------------------------


 ion  position               nearest neighbor table
   1  0.500  0.500  0.500-   2 2.35   2 2.35   2 2.35   2 2.35
   2  0.750  0.750  0.750-   1 2.35   1 2.35   1 2.35   1 2.35
 
  LATTYP: Found a face centered cubic cell.
 ALAT       =     5.4300000000
  
  Lattice vectors:
  
 A1 = (   0.0000000000,   2.7150000000,   2.7150000000)
 A2 = (   2.7150000000,   0.0000000000,   2.7150000000)
 A3 = (   2.7150000000,   2.7150000000,   0.0000000000)


Analysis of symmetry for initial positions (statically):
=====================================================================
 Subroutine PRICEL returns:
 Original cell was already a primitive cell.
 

 Routine SETGRP: Setting up the symmetry group for a 
 face centered cubic supercell.


 Subroutine GETGRP returns: Found 48 space group operations
 (whereof 24 operations were pure point group operations)
 out of a pool of 48 trial point group operations.


The static configuration has the point symmetry T_d .
 The point group associated with its full space group is O_h .


Analysis of symmetry for dynamics (positions and initial velocities):
=====================================================================
 Subroutine PRICEL returns:
 Original cell was already a primitive cell.
 

 Routine SETGRP: Setting up the symmetry group for a 
 face centered cubic supercell.


 Subroutine GETGRP returns: Found 48 space group operations
 (whereof 24 operations were pure point group operations)
 out of a pool of 48 trial point group operations.


The dynamic configuration has the point symmetry T_d .
 The point group associated with its full space group is O_h .


 Subroutine INISYM returns: Found 48 space group operations
 (whereof 24 operations are pure point group operations),
 and found     1 'primitive' translations

 
 
 KPOINTS: Automatic kpoint scheme                 

Automatic generation of k-mesh.
Space group operators:
 irot       det(A)        alpha          n_x          n_y          n_z        tau_x        tau_y        tau_z
    1     1.000000     0.000001     1.000000     0.000000     0.000000     0.000000     0.000000     0.000000
    2     1.000000   120.000000    -0.577350    -0.577350    -0.577350     0.000000     0.000000     0.000000
    3     1.000000   120.000000     0.577350     0.577350     0.577350     0.000000     0.000000     0.000000
    4    -1.000000    90.000000    -0.000000    -0.000000    -1.000000     0.000000     0.000000     0.000000
    5    -1.000000   180.000000    -0.000000     0.707107     0.707107     0.000000     0.000000     0.000000
    6    -1.000000    90.000000    -0.000000     1.000000    -0.000000     0.000000     0.000000     0.000000
    7     1.000000   180.000000     0.000000     0.000000    -1.000000     0.000000     0.000000     0.000000
    8     1.000000   120.000000    -0.577350     0.577350     0.577350     0.000000     0.000000     0.000000
    9     1.000000   120.000000    -0.577350     0.577350    -0.577350     0.000000     0.000000     0.000000
   10    -1.000000    90.000000     0.000000     0.000000     1.000000     0.000000     0.000000     0.000000
   11    -1.000000    90.000000    -1.000000     0.000000    -0.000000     0.000000     0.000000     0.000000
   12    -1.000000   180.000000     0.707107     0.000000     0.707107     0.000000     0.000000     0.000000
   13     1.000000   120.000000     0.577350    -0.577350     0.577350     0.000000     0.000000     0.000000
   14     1.000000   120.000000    -0.577350    -0.577350     0.577350     0.000000     0.000000     0.000000
   15     1.000000   180.000000     1.000000     0.000000     0.000000     0.000000     0.000000     0.000000
   16    -1.000000    90.000000     0.000000    -1.000000     0.000000     0.000000     0.000000     0.000000
   17    -1.000000   180.000000     0.707107     0.707107    -0.000000     0.000000     0.000000     0.000000
   18    -1.000000    90.000000     1.000000     0.000000     0.000000     0.000000     0.000000     0.000000
   19     1.000000   120.000000     0.577350    -0.577350    -0.577350     0.000000     0.000000     0.000000
   20     1.000000   180.000000     0.000000    -1.000000     0.000000     0.000000     0.000000     0.000000
   21     1.000000   120.000000     0.577350     0.577350    -0.577350     0.000000     0.000000     0.000000
   22    -1.000000   180.000000    -0.000000    -0.707107     0.707107     0.000000     0.000000     0.000000
   23    -1.000000   180.000000     0.707107    -0.707107    -0.000000     0.000000     0.000000     0.000000
   24    -1.000000   180.000000    -0.707107     0.000000     0.707107     0.000000     0.000000     0.000000
   25    -1.000000     0.000001     1.000000     0.000000     0.000000     0.250000     0.250000     0.250000
   26    -1.000000   120.000000    -0.577350    -0.577350    -0.577350     0.250000     0.250000     0.250000
   27    -1.000000   120.000000     0.577350     0.577350     0.577350     0.250000     0.250000     0.250000
   28     1.000000    90.000000    -0.000000    -0.000000    -1.000000     0.250000     0.250000     0.250000
   29     1.000000   180.000000    -0.000000     0.707107     0.707107     0.250000     0.250000     0.250000
   30     1.000000    90.000000    -0.000000     1.000000    -0.000000     0.250000     0.250000     0.250000
   31    -1.000000   180.000000     0.000000     0.000000    -1.000000     0.250000     0.250000     0.250000
   32    -1.000000   120.000000    -0.577350     0.577350     0.577350     0.250000     0.250000     0.250000
   33    -1.000000   120.000000    -0.577350     0.577350    -0.577350     0.250000     0.250000     0.250000
   34     1.000000    90.000000     0.000000     0.000000     1.000000     0.250000     0.250000     0.250000
   35     1.000000    90.000000    -1.000000     0.000000    -0.000000     0.250000     0.250000     0.250000
   36     1.000000   180.000000     0.707107     0.000000     0.707107     0.250000     0.250000     0.250000
   37    -1.000000   120.000000     0.577350    -0.577350     0.577350     0.250000     0.250000     0.250000
   38    -1.000000   120.000000    -0.577350    -0.577350     0.577350     0.250000     0.250000     0.250000
   39    -1.000000   180.000000     1.000000     0.000000     0.000000     0.250000     0.250000     0.250000
   40     1.000000    90.000000     0.000000    -1.000000     0.000000     0.250000     0.250000     0.250000
   41     1.000000   180.000000     0.707107     0.707107    -0.000000     0.250000     0.250000     0.250000
   42     1.000000    90.000000     1.000000     0.000000     0.000000     0.250000     0.250000     0.250000
   43    -1.000000   120.000000     0.577350    -0.577350    -0.577350     0.250000     0.250000     0.250000
   44    -1.000000   180.000000     0.000000    -1.000000     0.000000     0.250000     0.250000     0.250000
   45    -1.000000   120.000000     0.577350     0.577350    -0.577350     0.250000     0.250000     0.250000
   46     1.000000   180.000000    -0.000000    -0.707107     0.707107     0.250000     0.250000     0.250000
   47     1.000000   180.000000     0.707107    -0.707107    -0.000000     0.250000     0.250000     0.250000
   48     1.000000   180.000000    -0.707107     0.000000     0.707107     0.250000     0.250000     0.250000
 
 Subroutine IBZKPT returns following result:
 ===========================================
 
 Found    182 irreducible k-points:
 
 Following reciprocal coordinates:
            Coordinates               Weight
  0.041667  0.041667  0.041667     96.000000
  0.125000  0.041667  0.041667    288.000000
  0.208333  0.041667  0.041667    288.000000
  0.291667  0.041667  0.041667    288.000000
  0.375000  0.041667  0.041667    288.000000
  0.458333  0.041667  0.041667    288.000000
 -0.458333  0.041667  0.041667    288.000000
 -0.375000  0.041667  0.041667    288.000000
 -0.291667  0.041667  0.041667    288.000000
 -0.208333  0.041667  0.041667    288.000000
 -0.125000  0.041667  0.041667    288.000000
 -0.041667  0.041667  0.041667    288.000000
  0.125000  0.125000  0.041667    288.000000
  0.208333  0.125000  0.041667    576.000000
  0.291667  0.125000  0.041667    576.000000
  0.375000  0.125000  0.041667    576.000000
  0.458333  0.125000  0.041667    576.000000
 -0.458333  0.125000  0.041667    576.000000
 -0.375000  0.125000  0.041667    576.000000
 -0.291667  0.125000  0.041667    576.000000
 -0.208333  0.125000  0.041667    576.000000
 -0.125000  0.125000  0.041667    576.000000
 -0.041667  0.125000  0.041667    576.000000
  0.208333  0.208333  0.041667    288.000000
  0.291667  0.208333  0.041667    576.000000
  0.375000  0.208333  0.041667    576.000000
  0.458333  0.208333  0.041667    576.000000
 -0.458333  0.208333  0.041667    576.000000
 -0.375000  0.208333  0.041667    576.000000
 -0.291667  0.208333  0.041667    576.000000
 -0.208333  0.208333  0.041667    576.000000
 -0.125000  0.208333  0.041667    576.000000
 -0.041667  0.208333  0.041667    576.000000
  0.291667  0.291667  0.041667    288.000000
  0.375000  0.291667  0.041667    576.000000
  0.458333  0.291667  0.041667    576.000000
 -0.458333  0.291667  0.041667    576.000000
 -0.375000  0.291667  0.041667    576.000000
 -0.291667  0.291667  0.041667    576.000000
 -0.208333  0.291667  0.041667    576.000000
 -0.125000  0.291667  0.041667    576.000000
 -0.041667  0.291667  0.041667    576.000000
  0.375000  0.375000  0.041667    288.000000
  0.458333  0.375000  0.041667    576.000000
 -0.458333  0.375000  0.041667    576.000000
 -0.375000  0.375000  0.041667    576.000000
 -0.291667  0.375000  0.041667    576.000000
 -0.208333  0.375000  0.041667    576.000000
 -0.125000  0.375000  0.041667    576.000000
 -0.041667  0.375000  0.041667    576.000000
  0.458333  0.458333  0.041667    288.000000
 -0.458333  0.458333  0.041667    576.000000
 -0.375000  0.458333  0.041667    576.000000
 -0.291667  0.458333  0.041667    576.000000
 -0.208333  0.458333  0.041667    576.000000
 -0.125000  0.458333  0.041667    576.000000
 -0.041667  0.458333  0.041667    576.000000
 -0.458333 -0.458333  0.041667    288.000000
 -0.375000 -0.458333  0.041667    576.000000
 -0.291667 -0.458333  0.041667    576.000000
 -0.208333 -0.458333  0.041667    576.000000
 -0.125000 -0.458333  0.041667    576.000000
 -0.375000 -0.375000  0.041667    288.000000
 -0.291667 -0.375000  0.041667    576.000000
 -0.208333 -0.375000  0.041667    576.000000
 -0.125000 -0.375000  0.041667    576.000000
 -0.291667 -0.291667  0.041667    288.000000
 -0.208333 -0.291667  0.041667    576.000000
 -0.125000 -0.291667  0.041667    576.000000
 -0.208333 -0.208333  0.041667    288.000000
 -0.125000 -0.208333  0.041667    576.000000
 -0.125000 -0.125000  0.041667    288.000000
  0.125000  0.125000  0.125000     96.000000
  0.208333  0.125000  0.125000    288.000000
  0.291667  0.125000  0.125000    288.000000
  0.375000  0.125000  0.125000    288.000000
  0.458333  0.125000  0.125000    288.000000
 -0.458333  0.125000  0.125000    288.000000
 -0.375000  0.125000  0.125000    288.000000
 -0.291667  0.125000  0.125000    288.000000
 -0.208333  0.125000  0.125000    288.000000
 -0.125000  0.125000  0.125000    288.000000
  0.208333  0.208333  0.125000    288.000000
  0.291667  0.208333  0.125000    576.000000
  0.375000  0.208333  0.125000    576.000000
  0.458333  0.208333  0.125000    576.000000
 -0.458333  0.208333  0.125000    576.000000
 -0.375000  0.208333  0.125000    576.000000
 -0.291667  0.208333  0.125000    576.000000
 -0.208333  0.208333  0.125000    576.000000
 -0.125000  0.208333  0.125000    576.000000
  0.291667  0.291667  0.125000    288.000000
  0.375000  0.291667  0.125000    576.000000
  0.458333  0.291667  0.125000    576.000000
 -0.458333  0.291667  0.125000    576.000000
 -0.375000  0.291667  0.125000    576.000000
 -0.291667  0.291667  0.125000    576.000000
 -0.208333  0.291667  0.125000    576.000000
 -0.125000  0.291667  0.125000    576.000000
  0.375000  0.375000  0.125000    288.000000
  0.458333  0.375000  0.125000    576.000000
 -0.458333  0.375000  0.125000    576.000000
 -0.375000  0.375000  0.125000    576.000000
 -0.291667  0.375000  0.125000    576.000000
 -0.208333  0.375000  0.125000    576.000000
 -0.125000  0.375000  0.125000    576.000000
  0.458333  0.458333  0.125000    288.000000
 -0.458333  0.458333  0.125000    576.000000
 -0.375000  0.458333  0.125000    576.000000
 -0.291667  0.458333  0.125000    576.000000
 -0.208333  0.458333  0.125000    576.000000
 -0.125000  0.458333  0.125000    576.000000
 -0.458333 -0.458333  0.125000    288.000000
 -0.375000 -0.458333  0.125000    576.000000
 -0.291667 -0.458333  0.125000    576.000000
 -0.208333 -0.458333  0.125000    576.000000
 -0.375000 -0.375000  0.125000    288.000000
 -0.291667 -0.375000  0.125000    576.000000
 -0.208333 -0.375000  0.125000    576.000000
 -0.291667 -0.291667  0.125000    288.000000
 -0.208333 -0.291667  0.125000    576.000000
 -0.208333 -0.208333  0.125000    288.000000
  0.208333  0.208333  0.208333     96.000000
  0.291667  0.208333  0.208333    288.000000
  0.375000  0.208333  0.208333    288.000000
  0.458333  0.208333  0.208333    288.000000
 -0.458333  0.208333  0.208333    288.000000
 -0.375000  0.208333  0.208333    288.000000
 -0.291667  0.208333  0.208333    288.000000
 -0.208333  0.208333  0.208333    288.000000
  0.291667  0.291667  0.208333    288.000000
  0.375000  0.291667  0.208333    576.000000
  0.458333  0.291667  0.208333    576.000000
 -0.458333  0.291667  0.208333    576.000000
 -0.375000  0.291667  0.208333    576.000000
 -0.291667  0.291667  0.208333    576.000000
 -0.208333  0.291667  0.208333    576.000000
  0.375000  0.375000  0.208333    288.000000
  0.458333  0.375000  0.208333    576.000000
 -0.458333  0.375000  0.208333    576.000000
 -0.375000  0.375000  0.208333    576.000000
 -0.291667  0.375000  0.208333    576.000000
 -0.208333  0.375000  0.208333    576.000000
  0.458333  0.458333  0.208333    288.000000
 -0.458333  0.458333  0.208333    576.000000
 -0.375000  0.458333  0.208333    576.000000
 -0.291667  0.458333  0.208333    576.000000
 -0.208333  0.458333  0.208333    576.000000
 -0.458333 -0.458333  0.208333    288.000000
 -0.375000 -0.458333  0.208333    576.000000
 -0.291667 -0.458333  0.208333    576.000000
 -0.375000 -0.375000  0.208333    288.000000
 -0.291667 -0.375000  0.208333    576.000000
 -0.291667 -0.291667  0.208333    288.000000
  0.291667  0.291667  0.291667     96.000000
  0.375000  0.291667  0.291667    288.000000
  0.458333  0.291667  0.291667    288.000000
 -0.458333  0.291667  0.291667    288.000000
 -0.375000  0.291667  0.291667    288.000000
 -0.291667  0.291667  0.291667    288.000000
  0.375000  0.375000  0.291667    288.000000
  0.458333  0.375000  0.291667    576.000000
 -0.458333  0.375000  0.291667    576.000000
 -0.375000  0.375000  0.291667    576.000000
 -0.291667  0.375000  0.291667    576.000000
  0.458333  0.458333  0.291667    288.000000
 -0.458333  0.458333  0.291667    576.000000
 -0.375000  0.458333  0.291667    576.000000
 -0.291667  0.458333  0.291667    576.000000
 -0.458333 -0.458333  0.291667    288.000000
 -0.375000 -0.458333  0.291667    576.000000
 -0.375000 -0.375000  0.291667    288.000000
  0.375000  0.375000  0.375000     96.000000
  0.458333  0.375000  0.375000    288.000000
 -0.458333  0.375000  0.375000    288.000000
 -0.375000  0.375000  0.375000    288.000000
  0.458333  0.458333  0.375000    288.000000
 -0.458333  0.458333  0.375000    576.000000
 -0.375000  0.458333  0.375000    576.000000
 -0.458333 -0.458333  0.375000    288.000000
  0.458333  0.458333  0.458333     96.000000
 -0.458333  0.458333  0.458333    288.000000
 
 Following cartesian coordinates:
            Coordinates               Weight
  0.007673  0.007673  0.007673     96.000000
 -0.007673  0.023020  0.023020    288.000000
 -0.023020  0.038367  0.038367    288.000000
 -0.038367  0.053714  0.053714    288.000000
 -0.053714  0.069061  0.069061    288.000000
 -0.069061  0.084408  0.084408    288.000000
  0.099754 -0.084408 -0.084408    288.000000
  0.084408 -0.069061 -0.069061    288.000000
  0.069061 -0.053714 -0.053714    288.000000
  0.053714 -0.038367 -0.038367    288.000000
  0.038367 -0.023020 -0.023020    288.000000
  0.023020 -0.007673 -0.007673    288.000000
  0.007673  0.007673  0.038367    288.000000
 -0.007673  0.023020  0.053714    576.000000
 -0.023020  0.038367  0.069061    576.000000
 -0.038367  0.053714  0.084408    576.000000
 -0.053714  0.069061  0.099754    576.000000
  0.115101 -0.099754 -0.069061    576.000000
  0.099754 -0.084408 -0.053714    576.000000
  0.084408 -0.069061 -0.038367    576.000000
  0.069061 -0.053714 -0.023020    576.000000
  0.053714 -0.038367 -0.007673    576.000000
  0.038367 -0.023020  0.007673    576.000000
  0.007673  0.007673  0.069061    288.000000
 -0.007673  0.023020  0.084408    576.000000
 -0.023020  0.038367  0.099754    576.000000
 -0.038367  0.053714  0.115101    576.000000
  0.130448 -0.115101 -0.053714    576.000000
  0.115101 -0.099754 -0.038367    576.000000
  0.099754 -0.084408 -0.023020    576.000000
  0.084408 -0.069061 -0.007673    576.000000
  0.069061 -0.053714  0.007673    576.000000
  0.053714 -0.038367  0.023020    576.000000
  0.007673  0.007673  0.099754    288.000000
 -0.007673  0.023020  0.115101    576.000000
 -0.023020  0.038367  0.130448    576.000000
  0.145795 -0.130448 -0.038367    576.000000
  0.130448 -0.115101 -0.023020    576.000000
  0.115101 -0.099754 -0.007673    576.000000
  0.099754 -0.084408  0.007673    576.000000
  0.084408 -0.069061  0.023020    576.000000
  0.069061 -0.053714  0.038367    576.000000
  0.007673  0.007673  0.130448    288.000000
 -0.007673  0.023020  0.145795    576.000000
  0.161142 -0.145795 -0.023020    576.000000
  0.145795 -0.130448 -0.007673    576.000000
  0.130448 -0.115101  0.007673    576.000000
  0.115101 -0.099754  0.023020    576.000000
  0.099754 -0.084408  0.038367    576.000000
  0.084408 -0.069061  0.053714    576.000000
  0.007673  0.007673  0.161142    288.000000
  0.176489 -0.161142 -0.007673    576.000000
  0.161142 -0.145795  0.007673    576.000000
  0.145795 -0.130448  0.023020    576.000000
  0.130448 -0.115101  0.038367    576.000000
  0.115101 -0.099754  0.053714    576.000000
  0.099754 -0.084408  0.069061    576.000000
  0.007673  0.007673 -0.176489    288.000000
 -0.007673  0.023020 -0.161142    576.000000
 -0.023020  0.038367 -0.145795    576.000000
 -0.038367  0.053714 -0.130448    576.000000
 -0.053714  0.069061 -0.115101    576.000000
  0.007673  0.007673 -0.145795    288.000000
 -0.007673  0.023020 -0.130448    576.000000
 -0.023020  0.038367 -0.115101    576.000000
 -0.038367  0.053714 -0.099754    576.000000
  0.007673  0.007673 -0.115101    288.000000
 -0.007673  0.023020 -0.099754    576.000000
 -0.023020  0.038367 -0.084408    576.000000
  0.007673  0.007673 -0.084408    288.000000
 -0.007673  0.023020 -0.069061    576.000000
  0.007673  0.007673 -0.053714    288.000000
  0.023020  0.023020  0.023020     96.000000
  0.007673  0.038367  0.038367    288.000000
 -0.007673  0.053714  0.053714    288.000000
 -0.023020  0.069061  0.069061    288.000000
 -0.038367  0.084408  0.084408    288.000000
  0.130448 -0.084408 -0.084408    288.000000
  0.115101 -0.069061 -0.069061    288.000000
  0.099754 -0.053714 -0.053714    288.000000
  0.084408 -0.038367 -0.038367    288.000000
  0.069061 -0.023020 -0.023020    288.000000
  0.023020  0.023020  0.053714    288.000000
  0.007673  0.038367  0.069061    576.000000
 -0.007673  0.053714  0.084408    576.000000
 -0.023020  0.069061  0.099754    576.000000
  0.145795 -0.099754 -0.069061    576.000000
  0.130448 -0.084408 -0.053714    576.000000
  0.115101 -0.069061 -0.038367    576.000000
  0.099754 -0.053714 -0.023020    576.000000
  0.084408 -0.038367 -0.007673    576.000000
  0.023020  0.023020  0.084408    288.000000
  0.007673  0.038367  0.099754    576.000000
 -0.007673  0.053714  0.115101    576.000000
  0.161142 -0.115101 -0.053714    576.000000
  0.145795 -0.099754 -0.038367    576.000000
  0.130448 -0.084408 -0.023020    576.000000
  0.115101 -0.069061 -0.007673    576.000000
  0.099754 -0.053714  0.007673    576.000000
  0.023020  0.023020  0.115101    288.000000
  0.007673  0.038367  0.130448    576.000000
  0.176489 -0.130448 -0.038367    576.000000
  0.161142 -0.115101 -0.023020    576.000000
  0.145795 -0.099754 -0.007673    576.000000
  0.130448 -0.084408  0.007673    576.000000
  0.115101 -0.069061  0.023020    576.000000
  0.023020  0.023020  0.145795    288.000000
  0.191835 -0.145795 -0.023020    576.000000
  0.176489 -0.130448 -0.007673    576.000000
  0.161142 -0.115101  0.007673    576.000000
  0.145795 -0.099754  0.023020    576.000000
  0.130448 -0.084408  0.038367    576.000000
  0.023020  0.023020 -0.191835    288.000000
  0.007673  0.038367 -0.176489    576.000000
 -0.007673  0.053714 -0.161142    576.000000
 -0.023020  0.069061 -0.145795    576.000000
  0.023020  0.023020 -0.161142    288.000000
  0.007673  0.038367 -0.145795    576.000000
 -0.007673  0.053714 -0.130448    576.000000
  0.023020  0.023020 -0.130448    288.000000
  0.007673  0.038367 -0.115101    576.000000
  0.023020  0.023020 -0.099754    288.000000
  0.038367  0.038367  0.038367     96.000000
  0.023020  0.053714  0.053714    288.000000
  0.007673  0.069061  0.069061    288.000000
 -0.007673  0.084408  0.084408    288.000000
  0.161142 -0.084408 -0.084408    288.000000
  0.145795 -0.069061 -0.069061    288.000000
  0.130448 -0.053714 -0.053714    288.000000
  0.115101 -0.038367 -0.038367    288.000000
  0.038367  0.038367  0.069061    288.000000
  0.023020  0.053714  0.084408    576.000000
  0.007673  0.069061  0.099754    576.000000
  0.176489 -0.099754 -0.069061    576.000000
  0.161142 -0.084408 -0.053714    576.000000
  0.145795 -0.069061 -0.038367    576.000000
  0.130448 -0.053714 -0.023020    576.000000
  0.038367  0.038367  0.099754    288.000000
  0.023020  0.053714  0.115101    576.000000
  0.191835 -0.115101 -0.053714    576.000000
  0.176489 -0.099754 -0.038367    576.000000
  0.161142 -0.084408 -0.023020    576.000000
  0.145795 -0.069061 -0.007673    576.000000
  0.038367  0.038367  0.130448    288.000000
  0.207182 -0.130448 -0.038367    576.000000
  0.191835 -0.115101 -0.023020    576.000000
  0.176489 -0.099754 -0.007673    576.000000
  0.161142 -0.084408  0.007673    576.000000
  0.038367  0.038367 -0.207182    288.000000
  0.023020  0.053714 -0.191835    576.000000
  0.007673  0.069061 -0.176489    576.000000
  0.038367  0.038367 -0.176489    288.000000
  0.023020  0.053714 -0.161142    576.000000
  0.038367  0.038367 -0.145795    288.000000
  0.053714  0.053714  0.053714     96.000000
  0.038367  0.069061  0.069061    288.000000
  0.023020  0.084408  0.084408    288.000000
  0.191835 -0.084408 -0.084408    288.000000
  0.176489 -0.069061 -0.069061    288.000000
  0.161142 -0.053714 -0.053714    288.000000
  0.053714  0.053714  0.084408    288.000000
  0.038367  0.069061  0.099754    576.000000
  0.207182 -0.099754 -0.069061    576.000000
  0.191835 -0.084408 -0.053714    576.000000
  0.176489 -0.069061 -0.038367    576.000000
  0.053714  0.053714  0.115101    288.000000
  0.222529 -0.115101 -0.053714    576.000000
  0.207182 -0.099754 -0.038367    576.000000
  0.191835 -0.084408 -0.023020    576.000000
  0.053714  0.053714 -0.222529    288.000000
  0.038367  0.069061 -0.207182    576.000000
  0.053714  0.053714 -0.191835    288.000000
  0.069061  0.069061  0.069061     96.000000
  0.053714  0.084408  0.084408    288.000000
  0.222529 -0.084408 -0.084408    288.000000
  0.207182 -0.069061 -0.069061    288.000000
  0.069061  0.069061  0.099754    288.000000
  0.237876 -0.099754 -0.069061    576.000000
  0.222529 -0.084408 -0.053714    576.000000
  0.069061  0.069061 -0.237876    288.000000
  0.084408  0.084408  0.084408     96.000000
  0.253223 -0.084408 -0.084408    288.000000
 


--------------------------------------------------------------------------------------------------------




 Dimension of arrays:
   k-points           NKPTS =    182   k-points in BZ     NKDIM =    182   number of bands    NBANDS=      8
   number of dos      NEDOS =    301   number of ions     NIONS =      2
   non local maximal  LDIM  =      4   non local SUM 2l+1 LMDIM =      8
   total plane-waves  NPLWV =   2744
   max r-space proj   IRMAX =      1   max aug-charges    IRDMAX=   2491
   dimension x,y,z NGX =    14 NGY =   14 NGZ =   14
   dimension x,y,z NGXF=    28 NGYF=   28 NGZF=   28
   support grid    NGXF=    28 NGYF=   28 NGZF=   28
   ions per type =               2
   NGX,Y,Z   is equivalent  to a cutoff of   6.06,  6.06,  6.06 a.u.
   NGXF,Y,Z  is equivalent  to a cutoff of  12.12, 12.12, 12.12 a.u.

 SYSTEM =  unknown system                          
 POSCAR =  Si2                                     

 Startparameter for this run:
   NWRITE =      2    write-flag & timer
   PREC   = normal    normal or accurate (medium, high low for compatibility)
   ISTART =      0    job   : 0-new  1-cont  2-samecut
   ICHARG =      2    charge: 1-file 2-atom 10-const
   ISPIN  =      1    spin polarized calculation?
   LNONCOLLINEAR =      F non collinear calculations
   LSORBIT =      F    spin-orbit coupling
   INIWAV =      1    electr: 0-lowe 1-rand  2-diag
   LASPH  =      F    aspherical Exc in radial PAW
   METAGGA=      F    non-selfconsistent MetaGGA calc.

 Electronic Relaxation 1
   ENCUT  =  200.0 eV  14.70 Ry    3.83 a.u.   4.43  4.43  4.43*2*pi/ulx,y,z
   ENINI  =  200.0     initial cutoff
   ENAUG  =  322.1 eV  augmentation charge cutoff
   NELM   =     60;   NELMIN=  2; NELMDL= -5     # of ELM steps 
   EDIFF  = 0.4E-03   stopping-criterion for ELM
   LREAL  =      F    real-space projection
   NLSPLINE    = F    spline interpolate recip. space projectors
   LCOMPAT=      F    compatible to vasp.4.4
   GGA_COMPAT  = T    GGA compatible to vasp.4.4-vasp.4.6
   LMAXPAW     = -100 max onsite density
   LMAXMIX     =    2 max onsite mixed and CHGCAR
   VOSKOWN=      0    Vosko Wilk Nusair interpolation
   ROPT   =    0.00000
 Ionic relaxation
   EDIFFG = -.1E-01   stopping-criterion for IOM
   NSW    =     15    number of steps for IOM
   NBLOCK =      1;   KBLOCK =     15    inner block; outer block 
   IBRION =      2    ionic relax: 0-MD 1-quasi-New 2-CG
   NFREE  =      1    steps in history (QN), initial steepest desc. (CG)
   ISIF   =      2    stress and relaxation
   IWAVPR =     11    prediction:  0-non 1-charg 2-wave 3-comb
   ISYM   =      2    0-nonsym 1-usesym 2-fastsym
   LCORR  =      T    Harris-Foulkes like correction to forces

   POTIM  = 0.5000    time-step for ionic-motion
   TEIN   =    0.0    initial temperature
   TEBEG  =    0.0;   TEEND  =   0.0 temperature during run
   SMASS  =  -3.00    Nose mass-parameter (am)
   estimated Nose-frequenzy (Omega)   =  0.10E-29 period in steps =****** mass=  -0.337E-27a.u.
   SCALEE = 1.0000    scale energy and forces
   NPACO  =    256;   APACO  = 16.0  distance and # of slots for P.C.
   PSTRESS=    0.0 pullay stress

  Mass of Ions in am
   POMASS =  28.09
  Ionic Valenz
   ZVAL   =   4.00
  Atomic Wigner-Seitz radii
   RWIGS  =  -1.00
  virtual crystal weights 
   VCA    =   1.00
   NELECT =       8.0000    total number of electrons
   NUPDOWN=      -1.0000    fix difference up-down

 DOS related values:
   EMIN   =  10.00;   EMAX   =-10.00  energy-range for DOS
   EFERMI =   0.00
   ISMEAR =     0;   SIGMA  =   0.20  broadening in eV -4-tet -1-fermi 0-gaus

 Electronic relaxation 2 (details)
   IALGO  =     38    algorithm
   LDIAG  =      T    sub-space diagonalisation (order eigenvalues)
   LSUBROT=      F    optimize rotation matrix (better conditioning)
   TURBO    =      0    0=normal 1=particle mesh
   IRESTART =      0    0=no restart 2=restart with 2 vectors
   NREBOOT  =      0    no. of reboots
   NMIN     =      0    reboot dimension
   EREF     =   0.00    reference energy to select bands
   IMIX   =      4    mixing-type and parameters
     AMIX     =   0.40;   BMIX     =  1.00
     AMIX_MAG =   1.60;   BMIX_MAG =  1.00
     AMIN     =   0.10
     WC   =   100.;   INIMIX=   1;  MIXPRE=   1;  MAXMIX= -45

 Intra band minimization:
   WEIMIN = 0.0010     energy-eigenvalue tresh-hold
   EBREAK =  0.13E-04  absolut break condition
   DEPER  =   0.30     relativ break condition  

   TIME   =   0.40     timestep for ELM

  volume/ion in A,a.u.               =      20.01       135.05
  Fermi-wavevector in a.u.,A,eV,Ry     =   0.957176  1.808800 12.465458  0.916185
  Thomas-Fermi vector in A             =   2.086170
 
 Write flags
   LWAVE        =      T    write WAVECAR
   LDOWNSAMPLE  =      F    k-point downsampling of WAVECAR
   LCHARG       =      T    write CHGCAR
   LVTOT        =      F    write LOCPOT, total local potential
   LVHAR        =      F    write LOCPOT, Hartree potential only
   LELF         =      F    write electronic localiz. function (ELF)
   LORBIT       =      0    0 simple, 1 ext, 2 COOP (PROOUT), +10 PAW based schemes


 Dipole corrections
   LMONO  =      F    monopole corrections only (constant potential shift)
   LDIPOL =      F    correct potential (dipole corrections)
   IDIPOL =      0    1-x, 2-y, 3-z, 4-all directions 
   EPSILON=  1.0000000 bulk dielectric constant

 Exchange correlation treatment:
   GGA     =    --    GGA type
   LEXCH   =     8    internal setting for exchange type
   VOSKOWN=      0    Vosko Wilk Nusair interpolation
   LHFCALC =     F    Hartree Fock is set to
   LHFONE  =     F    Hartree Fock one center treatment
   AEXX    =    0.0000 exact exchange contribution

 Linear response parameters
   LEPSILON=     F    determine dielectric tensor
   LRPA    =     F    only Hartree local field effects (RPA)
   LNABLA  =     F    use nabla operator in PAW spheres
   LVEL    =     F    velocity operator in full k-point grid
   LINTERFAST=   F  fast interpolation
   KINTER  =     0    interpolate to denser k-point grid
   CSHIFT  =0.1000    complex shift for real part using Kramers Kronig
   OMEGAMAX=  -1.0    maximum frequency
   DEG_THRESHOLD= 0.2000000E-02 threshold for treating states as degnerate
   RTIME   =   -0.100 relaxation time in fs
  (WPLASMAI=    0.000 imaginary part of plasma frequency in eV, 0.658/RTIME)
   DFIELD  = 0.0000000 0.0000000 0.0000000 field for delta impulse in time
 
 Orbital magnetization related:
   ORBITALMAG=     F  switch on orbital magnetization
   LCHIMAG   =     F  perturbation theory with respect to B field
   DQ        =  0.001000  dq finite difference perturbation B field
   LLRAUG    =     F  two centre corrections for induced B field



--------------------------------------------------------------------------------------------------------


 conjugate gradient relaxation of ions
 charge density and potential will be updated during run
 non-spin polarized calculation
 Variant of blocked Davidson
 Davidson routine will perform the subspace rotation
 perform sub-space diagonalisation
    after iterative eigenvector-optimisation
 modified Broyden-mixing scheme, WC =      100.0
 initial mixing is a Kerker type mixing with AMIX =  0.4000 and BMIX =      1.0000
 Hartree-type preconditioning will be used
 using additional bands            4
 reciprocal scheme for non local part
 use partial core corrections
 calculate Harris-corrections to forces 
   (improved forces if not selfconsistent)
 use gradient corrections 
 use of overlap-Matrix (Vanderbilt PP)
 Gauss-broadening in eV      SIGMA  =   0.20


--------------------------------------------------------------------------------------------------------


  energy-cutoff  :      200.00
  volume of cell :       40.03
      direct lattice vectors                 reciprocal lattice vectors
     0.000000000  2.715000000  2.715000000    -0.184162063  0.184162063  0.184162063
     2.715000000  0.000000000  2.715000000     0.184162063 -0.184162063  0.184162063
     2.715000000  2.715000000  0.000000000     0.184162063  0.184162063 -0.184162063

  length of vectors
     3.839589822  3.839589822  3.839589822     0.318978049  0.318978049  0.318978049


 
 k-points in units of 2pi/SCALE and weight: Automatic kpoint scheme                 
   0.00767342  0.00767342  0.00767342       0.001
  -0.00767342  0.02302026  0.02302026       0.003
  -0.02302026  0.03836710  0.03836710       0.003
  -0.03836710  0.05371393  0.05371393       0.003
  -0.05371393  0.06906077  0.06906077       0.003
  -0.06906077  0.08440761  0.08440761       0.003
   0.09975445 -0.08440761 -0.08440761       0.003
   0.08440761 -0.06906077 -0.06906077       0.003
   0.06906077 -0.05371393 -0.05371393       0.003
   0.05371393 -0.03836710 -0.03836710       0.003
   0.03836710 -0.02302026 -0.02302026       0.003
   0.02302026 -0.00767342 -0.00767342       0.003
   0.00767342  0.00767342  0.03836710       0.003
  -0.00767342  0.02302026  0.05371393       0.007
  -0.02302026  0.03836710  0.06906077       0.007
  -0.03836710  0.05371393  0.08440761       0.007
  -0.05371393  0.06906077  0.09975445       0.007
   0.11510129 -0.09975445 -0.06906077       0.007
   0.09975445 -0.08440761 -0.05371393       0.007
   0.08440761 -0.06906077 -0.03836710       0.007
   0.06906077 -0.05371393 -0.02302026       0.007
   0.05371393 -0.03836710 -0.00767342       0.007
   0.03836710 -0.02302026  0.00767342       0.007
   0.00767342  0.00767342  0.06906077       0.003
  -0.00767342  0.02302026  0.08440761       0.007
  -0.02302026  0.03836710  0.09975445       0.007
  -0.03836710  0.05371393  0.11510129       0.007
   0.13044813 -0.11510129 -0.05371393       0.007
   0.11510129 -0.09975445 -0.03836710       0.007
   0.09975445 -0.08440761 -0.02302026       0.007
   0.08440761 -0.06906077 -0.00767342       0.007
   0.06906077 -0.05371393  0.00767342       0.007
   0.05371393 -0.03836710  0.02302026       0.007
   0.00767342  0.00767342  0.09975445       0.003
  -0.00767342  0.02302026  0.11510129       0.007
  -0.02302026  0.03836710  0.13044813       0.007
   0.14579497 -0.13044813 -0.03836710       0.007
   0.13044813 -0.11510129 -0.02302026       0.007
   0.11510129 -0.09975445 -0.00767342       0.007
   0.09975445 -0.08440761  0.00767342       0.007
   0.08440761 -0.06906077  0.02302026       0.007
   0.06906077 -0.05371393  0.03836710       0.007
   0.00767342  0.00767342  0.13044813       0.003
  -0.00767342  0.02302026  0.14579497       0.007
   0.16114180 -0.14579497 -0.02302026       0.007
   0.14579497 -0.13044813 -0.00767342       0.007
   0.13044813 -0.11510129  0.00767342       0.007
   0.11510129 -0.09975445  0.02302026       0.007
   0.09975445 -0.08440761  0.03836710       0.007
   0.08440761 -0.06906077  0.05371393       0.007
   0.00767342  0.00767342  0.16114180       0.003
   0.17648864 -0.16114180 -0.00767342       0.007
   0.16114180 -0.14579497  0.00767342       0.007
   0.14579497 -0.13044813  0.02302026       0.007
   0.13044813 -0.11510129  0.03836710       0.007
   0.11510129 -0.09975445  0.05371393       0.007
   0.09975445 -0.08440761  0.06906077       0.007
   0.00767342  0.00767342 -0.17648864       0.003
  -0.00767342  0.02302026 -0.16114180       0.007
  -0.02302026  0.03836710 -0.14579497       0.007
  -0.03836710  0.05371393 -0.13044813       0.007
  -0.05371393  0.06906077 -0.11510129       0.007
   0.00767342  0.00767342 -0.14579497       0.003
  -0.00767342  0.02302026 -0.13044813       0.007
  -0.02302026  0.03836710 -0.11510129       0.007
  -0.03836710  0.05371393 -0.09975445       0.007
   0.00767342  0.00767342 -0.11510129       0.003
  -0.00767342  0.02302026 -0.09975445       0.007
  -0.02302026  0.03836710 -0.08440761       0.007
   0.00767342  0.00767342 -0.08440761       0.003
  -0.00767342  0.02302026 -0.06906077       0.007
   0.00767342  0.00767342 -0.05371393       0.003
   0.02302026  0.02302026  0.02302026       0.001
   0.00767342  0.03836710  0.03836710       0.003
  -0.00767342  0.05371393  0.05371393       0.003
  -0.02302026  0.06906077  0.06906077       0.003
  -0.03836710  0.08440761  0.08440761       0.003
   0.13044813 -0.08440761 -0.08440761       0.003
   0.11510129 -0.06906077 -0.06906077       0.003
   0.09975445 -0.05371393 -0.05371393       0.003
   0.08440761 -0.03836710 -0.03836710       0.003
   0.06906077 -0.02302026 -0.02302026       0.003
   0.02302026  0.02302026  0.05371393       0.003
   0.00767342  0.03836710  0.06906077       0.007
  -0.00767342  0.05371393  0.08440761       0.007
  -0.02302026  0.06906077  0.09975445       0.007
   0.14579497 -0.09975445 -0.06906077       0.007
   0.13044813 -0.08440761 -0.05371393       0.007
   0.11510129 -0.06906077 -0.03836710       0.007
   0.09975445 -0.05371393 -0.02302026       0.007
   0.08440761 -0.03836710 -0.00767342       0.007
   0.02302026  0.02302026  0.08440761       0.003
   0.00767342  0.03836710  0.09975445       0.007
  -0.00767342  0.05371393  0.11510129       0.007
   0.16114180 -0.11510129 -0.05371393       0.007
   0.14579497 -0.09975445 -0.03836710       0.007
   0.13044813 -0.08440761 -0.02302026       0.007
   0.11510129 -0.06906077 -0.00767342       0.007
   0.09975445 -0.05371393  0.00767342       0.007
   0.02302026  0.02302026  0.11510129       0.003
   0.00767342  0.03836710  0.13044813       0.007
   0.17648864 -0.13044813 -0.03836710       0.007
   0.16114180 -0.11510129 -0.02302026       0.007
   0.14579497 -0.09975445 -0.00767342       0.007
   0.13044813 -0.08440761  0.00767342       0.007
   0.11510129 -0.06906077  0.02302026       0.007
   0.02302026  0.02302026  0.14579497       0.003
   0.19183548 -0.14579497 -0.02302026       0.007
   0.17648864 -0.13044813 -0.00767342       0.007
   0.16114180 -0.11510129  0.00767342       0.007
   0.14579497 -0.09975445  0.02302026       0.007
   0.13044813 -0.08440761  0.03836710       0.007
   0.02302026  0.02302026 -0.19183548       0.003
   0.00767342  0.03836710 -0.17648864       0.007
  -0.00767342  0.05371393 -0.16114180       0.007
  -0.02302026  0.06906077 -0.14579497       0.007
   0.02302026  0.02302026 -0.16114180       0.003
   0.00767342  0.03836710 -0.14579497       0.007
  -0.00767342  0.05371393 -0.13044813       0.007
   0.02302026  0.02302026 -0.13044813       0.003
   0.00767342  0.03836710 -0.11510129       0.007
   0.02302026  0.02302026 -0.09975445       0.003
   0.03836710  0.03836710  0.03836710       0.001
   0.02302026  0.05371393  0.05371393       0.003
   0.00767342  0.06906077  0.06906077       0.003
  -0.00767342  0.08440761  0.08440761       0.003
   0.16114180 -0.08440761 -0.08440761       0.003
   0.14579497 -0.06906077 -0.06906077       0.003
   0.13044813 -0.05371393 -0.05371393       0.003
   0.11510129 -0.03836710 -0.03836710       0.003
   0.03836710  0.03836710  0.06906077       0.003
   0.02302026  0.05371393  0.08440761       0.007
   0.00767342  0.06906077  0.09975445       0.007
   0.17648864 -0.09975445 -0.06906077       0.007
   0.16114180 -0.08440761 -0.05371393       0.007
   0.14579497 -0.06906077 -0.03836710       0.007
   0.13044813 -0.05371393 -0.02302026       0.007
   0.03836710  0.03836710  0.09975445       0.003
   0.02302026  0.05371393  0.11510129       0.007
   0.19183548 -0.11510129 -0.05371393       0.007
   0.17648864 -0.09975445 -0.03836710       0.007
   0.16114180 -0.08440761 -0.02302026       0.007
   0.14579497 -0.06906077 -0.00767342       0.007
   0.03836710  0.03836710  0.13044813       0.003
   0.20718232 -0.13044813 -0.03836710       0.007
   0.19183548 -0.11510129 -0.02302026       0.007
   0.17648864 -0.09975445 -0.00767342       0.007
   0.16114180 -0.08440761  0.00767342       0.007
   0.03836710  0.03836710 -0.20718232       0.003
   0.02302026  0.05371393 -0.19183548       0.007
   0.00767342  0.06906077 -0.17648864       0.007
   0.03836710  0.03836710 -0.17648864       0.003
   0.02302026  0.05371393 -0.16114180       0.007
   0.03836710  0.03836710 -0.14579497       0.003
   0.05371393  0.05371393  0.05371393       0.001
   0.03836710  0.06906077  0.06906077       0.003
   0.02302026  0.08440761  0.08440761       0.003
   0.19183548 -0.08440761 -0.08440761       0.003
   0.17648864 -0.06906077 -0.06906077       0.003
   0.16114180 -0.05371393 -0.05371393       0.003
   0.05371393  0.05371393  0.08440761       0.003
   0.03836710  0.06906077  0.09975445       0.007
   0.20718232 -0.09975445 -0.06906077       0.007
   0.19183548 -0.08440761 -0.05371393       0.007
   0.17648864 -0.06906077 -0.03836710       0.007
   0.05371393  0.05371393  0.11510129       0.003
   0.22252916 -0.11510129 -0.05371393       0.007
   0.20718232 -0.09975445 -0.03836710       0.007
   0.19183548 -0.08440761 -0.02302026       0.007
   0.05371393  0.05371393 -0.22252916       0.003
   0.03836710  0.06906077 -0.20718232       0.007
   0.05371393  0.05371393 -0.19183548       0.003
   0.06906077  0.06906077  0.06906077       0.001
   0.05371393  0.08440761  0.08440761       0.003
   0.22252916 -0.08440761 -0.08440761       0.003
   0.20718232 -0.06906077 -0.06906077       0.003
   0.06906077  0.06906077  0.09975445       0.003
   0.23787600 -0.09975445 -0.06906077       0.007
   0.22252916 -0.08440761 -0.05371393       0.007
   0.06906077  0.06906077 -0.23787600       0.003
   0.08440761  0.08440761  0.08440761       0.001
   0.25322284 -0.08440761 -0.08440761       0.003
 
 k-points in reciprocal lattice and weights: Automatic kpoint scheme                 
   0.04166667  0.04166667  0.04166667       0.001
   0.12500000  0.04166667  0.04166667       0.003
   0.20833333  0.04166667  0.04166667       0.003
   0.29166667  0.04166667  0.04166667       0.003
   0.37500000  0.04166667  0.04166667       0.003
   0.45833333  0.04166667  0.04166667       0.003
  -0.45833333  0.04166667  0.04166667       0.003
  -0.37500000  0.04166667  0.04166667       0.003
  -0.29166667  0.04166667  0.04166667       0.003
  -0.20833333  0.04166667  0.04166667       0.003
  -0.12500000  0.04166667  0.04166667       0.003
  -0.04166667  0.04166667  0.04166667       0.003
   0.12500000  0.12500000  0.04166667       0.003
   0.20833333  0.12500000  0.04166667       0.007
   0.29166667  0.12500000  0.04166667       0.007
   0.37500000  0.12500000  0.04166667       0.007
   0.45833333  0.12500000  0.04166667       0.007
  -0.45833333  0.12500000  0.04166667       0.007
  -0.37500000  0.12500000  0.04166667       0.007
  -0.29166667  0.12500000  0.04166667       0.007
  -0.20833333  0.12500000  0.04166667       0.007
  -0.12500000  0.12500000  0.04166667       0.007
  -0.04166667  0.12500000  0.04166667       0.007
   0.20833333  0.20833333  0.04166667       0.003
   0.29166667  0.20833333  0.04166667       0.007
   0.37500000  0.20833333  0.04166667       0.007
   0.45833333  0.20833333  0.04166667       0.007
  -0.45833333  0.20833333  0.04166667       0.007
  -0.37500000  0.20833333  0.04166667       0.007
  -0.29166667  0.20833333  0.04166667       0.007
  -0.20833333  0.20833333  0.04166667       0.007
  -0.12500000  0.20833333  0.04166667       0.007
  -0.04166667  0.20833333  0.04166667       0.007
   0.29166667  0.29166667  0.04166667       0.003
   0.37500000  0.29166667  0.04166667       0.007
   0.45833333  0.29166667  0.04166667       0.007
  -0.45833333  0.29166667  0.04166667       0.007
  -0.37500000  0.29166667  0.04166667       0.007
  -0.29166667  0.29166667  0.04166667       0.007
  -0.20833333  0.29166667  0.04166667       0.007
  -0.12500000  0.29166667  0.04166667       0.007
  -0.04166667  0.29166667  0.04166667       0.007
   0.37500000  0.37500000  0.04166667       0.003
   0.45833333  0.37500000  0.04166667       0.007
  -0.45833333  0.37500000  0.04166667       0.007
  -0.37500000  0.37500000  0.04166667       0.007
  -0.29166667  0.37500000  0.04166667       0.007
  -0.20833333  0.37500000  0.04166667       0.007
  -0.12500000  0.37500000  0.04166667       0.007
  -0.04166667  0.37500000  0.04166667       0.007
   0.45833333  0.45833333  0.04166667       0.003
  -0.45833333  0.45833333  0.04166667       0.007
  -0.37500000  0.45833333  0.04166667       0.007
  -0.29166667  0.45833333  0.04166667       0.007
  -0.20833333  0.45833333  0.04166667       0.007
  -0.12500000  0.45833333  0.04166667       0.007
  -0.04166667  0.45833333  0.04166667       0.007
  -0.45833333 -0.45833333  0.04166667       0.003
  -0.37500000 -0.45833333  0.04166667       0.007
  -0.29166667 -0.45833333  0.04166667       0.007
  -0.20833333 -0.45833333  0.04166667       0.007
  -0.12500000 -0.45833333  0.04166667       0.007
  -0.37500000 -0.37500000  0.04166667       0.003
  -0.29166667 -0.37500000  0.04166667       0.007
  -0.20833333 -0.37500000  0.04166667       0.007
  -0.12500000 -0.37500000  0.04166667       0.007
  -0.29166667 -0.29166667  0.04166667       0.003
  -0.20833333 -0.29166667  0.04166667       0.007
  -0.12500000 -0.29166667  0.04166667       0.007
  -0.20833333 -0.20833333  0.04166667       0.003
  -0.12500000 -0.20833333  0.04166667       0.007
  -0.12500000 -0.12500000  0.04166667       0.003
   0.12500000  0.12500000  0.12500000       0.001
   0.20833333  0.12500000  0.12500000       0.003
   0.29166667  0.12500000  0.12500000       0.003
   0.37500000  0.12500000  0.12500000       0.003
   0.45833333  0.12500000  0.12500000       0.003
  -0.45833333  0.12500000  0.12500000       0.003
  -0.37500000  0.12500000  0.12500000       0.003
  -0.29166667  0.12500000  0.12500000       0.003
  -0.20833333  0.12500000  0.12500000       0.003
  -0.12500000  0.12500000  0.12500000       0.003
   0.20833333  0.20833333  0.12500000       0.003
   0.29166667  0.20833333  0.12500000       0.007
   0.37500000  0.20833333  0.12500000       0.007
   0.45833333  0.20833333  0.12500000       0.007
  -0.45833333  0.20833333  0.12500000       0.007
  -0.37500000  0.20833333  0.12500000       0.007
  -0.29166667  0.20833333  0.12500000       0.007
  -0.20833333  0.20833333  0.12500000       0.007
  -0.12500000  0.20833333  0.12500000       0.007
   0.29166667  0.29166667  0.12500000       0.003
   0.37500000  0.29166667  0.12500000       0.007
   0.45833333  0.29166667  0.12500000       0.007
  -0.45833333  0.29166667  0.12500000       0.007
  -0.37500000  0.29166667  0.12500000       0.007
  -0.29166667  0.29166667  0.12500000       0.007
  -0.20833333  0.29166667  0.12500000       0.007
  -0.12500000  0.29166667  0.12500000       0.007
   0.37500000  0.37500000  0.12500000       0.003
   0.45833333  0.37500000  0.12500000       0.007
  -0.45833333  0.37500000  0.12500000       0.007
  -0.37500000  0.37500000  0.12500000       0.007
  -0.29166667  0.37500000  0.12500000       0.007
  -0.20833333  0.37500000  0.12500000       0.007
  -0.12500000  0.37500000  0.12500000       0.007
   0.45833333  0.45833333  0.12500000       0.003
  -0.45833333  0.45833333  0.12500000       0.007
  -0.37500000  0.45833333  0.12500000       0.007
  -0.29166667  0.45833333  0.12500000       0.007
  -0.20833333  0.45833333  0.12500000       0.007
  -0.12500000  0.45833333  0.12500000       0.007
  -0.45833333 -0.45833333  0.12500000       0.003
  -0.37500000 -0.45833333  0.12500000       0.007
  -0.29166667 -0.45833333  0.12500000       0.007
  -0.20833333 -0.45833333  0.12500000       0.007
  -0.37500000 -0.37500000  0.12500000       0.003
  -0.29166667 -0.37500000  0.12500000       0.007
  -0.20833333 -0.37500000  0.12500000       0.007
  -0.29166667 -0.29166667  0.12500000       0.003
  -0.20833333 -0.29166667  0.12500000       0.007
  -0.20833333 -0.20833333  0.12500000       0.003
   0.20833333  0.20833333  0.20833333       0.001
   0.29166667  0.20833333  0.20833333       0.003
   0.37500000  0.20833333  0.20833333       0.003
   0.45833333  0.20833333  0.20833333       0.003
  -0.45833333  0.20833333  0.20833333       0.003
  -0.37500000  0.20833333  0.20833333       0.003
  -0.29166667  0.20833333  0.20833333       0.003
  -0.20833333  0.20833333  0.20833333       0.003
   0.29166667  0.29166667  0.20833333       0.003
   0.37500000  0.29166667  0.20833333       0.007
   0.45833333  0.29166667  0.20833333       0.007
  -0.45833333  0.29166667  0.20833333       0.007
  -0.37500000  0.29166667  0.20833333       0.007
  -0.29166667  0.29166667  0.20833333       0.007
  -0.20833333  0.29166667  0.20833333       0.007
   0.37500000  0.37500000  0.20833333       0.003
   0.45833333  0.37500000  0.20833333       0.007
  -0.45833333  0.37500000  0.20833333       0.007
  -0.37500000  0.37500000  0.20833333       0.007
  -0.29166667  0.37500000  0.20833333       0.007
  -0.20833333  0.37500000  0.20833333       0.007
   0.45833333  0.45833333  0.20833333       0.003
  -0.45833333  0.45833333  0.20833333       0.007
  -0.37500000  0.45833333  0.20833333       0.007
  -0.29166667  0.45833333  0.20833333       0.007
  -0.20833333  0.45833333  0.20833333       0.007
  -0.45833333 -0.45833333  0.20833333       0.003
  -0.37500000 -0.45833333  0.20833333       0.007
  -0.29166667 -0.45833333  0.20833333       0.007
  -0.37500000 -0.37500000  0.20833333       0.003
  -0.29166667 -0.37500000  0.20833333       0.007
  -0.29166667 -0.29166667  0.20833333       0.003
   0.29166667  0.29166667  0.29166667       0.001
   0.37500000  0.29166667  0.29166667       0.003
   0.45833333  0.29166667  0.29166667       0.003
  -0.45833333  0.29166667  0.29166667       0.003
  -0.37500000  0.29166667  0.29166667       0.003
  -0.29166667  0.29166667  0.29166667       0.003
   0.37500000  0.37500000  0.29166667       0.003
   0.45833333  0.37500000  0.29166667       0.007
  -0.45833333  0.37500000  0.29166667       0.007
  -0.37500000  0.37500000  0.29166667       0.007
  -0.29166667  0.37500000  0.29166667       0.007
   0.45833333  0.45833333  0.29166667       0.003
  -0.45833333  0.45833333  0.29166667       0.007
  -0.37500000  0.45833333  0.29166667       0.007
  -0.29166667  0.45833333  0.29166667       0.007
  -0.45833333 -0.45833333  0.29166667       0.003
  -0.37500000 -0.45833333  0.29166667       0.007
  -0.37500000 -0.37500000  0.29166667       0.003
   0.37500000  0.37500000  0.37500000       0.001
   0.45833333  0.37500000  0.37500000       0.003
  -0.45833333  0.37500000  0.37500000       0.003
  -0.37500000  0.37500000  0.37500000       0.003
   0.45833333  0.45833333  0.37500000       0.003
  -0.45833333  0.45833333  0.37500000       0.007
  -0.37500000  0.45833333  0.37500000       0.007
  -0.45833333 -0.45833333  0.37500000       0.003
   0.45833333  0.45833333  0.45833333       0.001
  -0.45833333  0.45833333  0.45833333       0.003
 
 position of ions in fractional coordinates (direct lattice) 
   0.50000000  0.50000000  0.50000000
   0.75000000  0.75000000  0.75000000
 
 position of ions in cartesian coordinates  (Angst):
   2.71500000  2.71500000  2.71500000
   4.07250000  4.07250000  4.07250000
 


--------------------------------------------------------------------------------------------------------


 k-point  1 :   0.0417 0.0417 0.0417  plane waves:     259
 k-point  2 :   0.1250 0.0417 0.0417  plane waves:     269
 k-point  3 :   0.2083 0.0417 0.0417  plane waves:     268
 k-point  4 :   0.2917 0.0417 0.0417  plane waves:     262
 k-point  5 :   0.3750 0.0417 0.0417  plane waves:     258
 k-point  6 :   0.4583 0.0417 0.0417  plane waves:     258
 k-point  7 :  -0.4583 0.0417 0.0417  plane waves:     258
 k-point  8 :  -0.3750 0.0417 0.0417  plane waves:     261
 k-point  9 :  -0.2917 0.0417 0.0417  plane waves:     256
 k-point 10 :  -0.2083 0.0417 0.0417  plane waves:     265
 k-point 11 :  -0.1250 0.0417 0.0417  plane waves:     267
 k-point 12 :  -0.0417 0.0417 0.0417  plane waves:     265
 k-point 13 :   0.1250 0.1250 0.0417  plane waves:     265
 k-point 14 :   0.2083 0.1250 0.0417  plane waves:     265
 k-point 15 :   0.2917 0.1250 0.0417  plane waves:     262
 k-point 16 :   0.3750 0.1250 0.0417  plane waves:     261
 k-point 17 :   0.4583 0.1250 0.0417  plane waves:     258
 k-point 18 :  -0.4583 0.1250 0.0417  plane waves:     255
 k-point 19 :  -0.3750 0.1250 0.0417  plane waves:     256
 k-point 20 :  -0.2917 0.1250 0.0417  plane waves:     257
 k-point 21 :  -0.2083 0.1250 0.0417  plane waves:     263
 k-point 22 :  -0.1250 0.1250 0.0417  plane waves:     264
 k-point 23 :  -0.0417 0.1250 0.0417  plane waves:     268
 k-point 24 :   0.2083 0.2083 0.0417  plane waves:     261
 k-point 25 :   0.2917 0.2083 0.0417  plane waves:     261
 k-point 26 :   0.3750 0.2083 0.0417  plane waves:     258
 k-point 27 :   0.4583 0.2083 0.0417  plane waves:     256
 k-point 28 :  -0.4583 0.2083 0.0417  plane waves:     255
 k-point 29 :  -0.3750 0.2083 0.0417  plane waves:     254
 k-point 30 :  -0.2917 0.2083 0.0417  plane waves:     257
 k-point 31 :  -0.2083 0.2083 0.0417  plane waves:     262
 k-point 32 :  -0.1250 0.2083 0.0417  plane waves:     263
 k-point 33 :  -0.0417 0.2083 0.0417  plane waves:     264
 k-point 34 :   0.2917 0.2917 0.0417  plane waves:     258
 k-point 35 :   0.3750 0.2917 0.0417  plane waves:     256
 k-point 36 :   0.4583 0.2917 0.0417  plane waves:     253
 k-point 37 :  -0.4583 0.2917 0.0417  plane waves:     254
 k-point 38 :  -0.3750 0.2917 0.0417  plane waves:     253
 k-point 39 :  -0.2917 0.2917 0.0417  plane waves:     257
 k-point 40 :  -0.2083 0.2917 0.0417  plane waves:     257
 k-point 41 :  -0.1250 0.2917 0.0417  plane waves:     258
 k-point 42 :  -0.0417 0.2917 0.0417  plane waves:     261
 k-point 43 :   0.3750 0.3750 0.0417  plane waves:     251
 k-point 44 :   0.4583 0.3750 0.0417  plane waves:     252
 k-point 45 :  -0.4583 0.3750 0.0417  plane waves:     254
 k-point 46 :  -0.3750 0.3750 0.0417  plane waves:     256
 k-point 47 :  -0.2917 0.3750 0.0417  plane waves:     258
 k-point 48 :  -0.2083 0.3750 0.0417  plane waves:     256
 k-point 49 :  -0.1250 0.3750 0.0417  plane waves:     256
 k-point 50 :  -0.0417 0.3750 0.0417  plane waves:     258
 k-point 51 :   0.4583 0.4583 0.0417  plane waves:     250
 k-point 52 :  -0.4583 0.4583 0.0417  plane waves:     251
 k-point 53 :  -0.3750 0.4583 0.0417  plane waves:     254
 k-point 54 :  -0.2917 0.4583 0.0417  plane waves:     254
 k-point 55 :  -0.2083 0.4583 0.0417  plane waves:     252
 k-point 56 :  -0.1250 0.4583 0.0417  plane waves:     253
 k-point 57 :  -0.0417 0.4583 0.0417  plane waves:     257
 k-point 58 :  -0.4583-0.4583 0.0417  plane waves:     254
 k-point 59 :  -0.3750-0.4583 0.0417  plane waves:     251
 k-point 60 :  -0.2917-0.4583 0.0417  plane waves:     256
 k-point 61 :  -0.2083-0.4583 0.0417  plane waves:     256
 k-point 62 :  -0.1250-0.4583 0.0417  plane waves:     255
 k-point 63 :  -0.3750-0.3750 0.0417  plane waves:     251
 k-point 64 :  -0.2917-0.3750 0.0417  plane waves:     257
 k-point 65 :  -0.2083-0.3750 0.0417  plane waves:     256
 k-point 66 :  -0.1250-0.3750 0.0417  plane waves:     259
 k-point 67 :  -0.2917-0.2917 0.0417  plane waves:     255
 k-point 68 :  -0.2083-0.2917 0.0417  plane waves:     258
 k-point 69 :  -0.1250-0.2917 0.0417  plane waves:     262
 k-point 70 :  -0.2083-0.2083 0.0417  plane waves:     258
 k-point 71 :  -0.1250-0.2083 0.0417  plane waves:     264
 k-point 72 :  -0.1250-0.1250 0.0417  plane waves:     264
 k-point 73 :   0.1250 0.1250 0.1250  plane waves:     271
 k-point 74 :   0.2083 0.1250 0.1250  plane waves:     267
 k-point 75 :   0.2917 0.1250 0.1250  plane waves:     261
 k-point 76 :   0.3750 0.1250 0.1250  plane waves:     262
 k-point 77 :   0.4583 0.1250 0.1250  plane waves:     254
 k-point 78 :  -0.4583 0.1250 0.1250  plane waves:     254
 k-point 79 :  -0.3750 0.1250 0.1250  plane waves:     259
 k-point 80 :  -0.2917 0.1250 0.1250  plane waves:     261
 k-point 81 :  -0.2083 0.1250 0.1250  plane waves:     263
 k-point 82 :  -0.1250 0.1250 0.1250  plane waves:     263
 k-point 83 :   0.2083 0.2083 0.1250  plane waves:     266
 k-point 84 :   0.2917 0.2083 0.1250  plane waves:     265
 k-point 85 :   0.3750 0.2083 0.1250  plane waves:     263
 k-point 86 :   0.4583 0.2083 0.1250  plane waves:     258
 k-point 87 :  -0.4583 0.2083 0.1250  plane waves:     254
 k-point 88 :  -0.3750 0.2083 0.1250  plane waves:     252
 k-point 89 :  -0.2917 0.2083 0.1250  plane waves:     255
 k-point 90 :  -0.2083 0.2083 0.1250  plane waves:     257
 k-point 91 :  -0.1250 0.2083 0.1250  plane waves:     261
 k-point 92 :   0.2917 0.2917 0.1250  plane waves:     259
 k-point 93 :   0.3750 0.2917 0.1250  plane waves:     259
 k-point 94 :   0.4583 0.2917 0.1250  plane waves:     256
 k-point 95 :  -0.4583 0.2917 0.1250  plane waves:     255
 k-point 96 :  -0.3750 0.2917 0.1250  plane waves:     254
 k-point 97 :  -0.2917 0.2917 0.1250  plane waves:     254
 k-point 98 :  -0.2083 0.2917 0.1250  plane waves:     256
 k-point 99 :  -0.1250 0.2917 0.1250  plane waves:     261
 k-point ** :   0.3750 0.3750 0.1250  plane waves:     257
 k-point ** :   0.4583 0.3750 0.1250  plane waves:     255
 k-point ** :  -0.4583 0.3750 0.1250  plane waves:     252
 k-point ** :  -0.3750 0.3750 0.1250  plane waves:     258
 k-point ** :  -0.2917 0.3750 0.1250  plane waves:     258
 k-point ** :  -0.2083 0.3750 0.1250  plane waves:     256
 k-point ** :  -0.1250 0.3750 0.1250  plane waves:     258
 k-point ** :   0.4583 0.4583 0.1250  plane waves:     251
 k-point ** :  -0.4583 0.4583 0.1250  plane waves:     251
 k-point ** :  -0.3750 0.4583 0.1250  plane waves:     254
 k-point ** :  -0.2917 0.4583 0.1250  plane waves:     259
 k-point ** :  -0.2083 0.4583 0.1250  plane waves:     256
 k-point ** :  -0.1250 0.4583 0.1250  plane waves:     254
 k-point ** :  -0.4583-0.4583 0.1250  plane waves:     255
 k-point ** :  -0.3750-0.4583 0.1250  plane waves:     252
 k-point ** :  -0.2917-0.4583 0.1250  plane waves:     254
 k-point ** :  -0.2083-0.4583 0.1250  plane waves:     255
 k-point ** :  -0.3750-0.3750 0.1250  plane waves:     252
 k-point ** :  -0.2917-0.3750 0.1250  plane waves:     254
 k-point ** :  -0.2083-0.3750 0.1250  plane waves:     255
 k-point ** :  -0.2917-0.2917 0.1250  plane waves:     257
 k-point ** :  -0.2083-0.2917 0.1250  plane waves:     259
 k-point ** :  -0.2083-0.2083 0.1250  plane waves:     256
 k-point ** :   0.2083 0.2083 0.2083  plane waves:     271
 k-point ** :   0.2917 0.2083 0.2083  plane waves:     262
 k-point ** :   0.3750 0.2083 0.2083  plane waves:     263
 k-point ** :   0.4583 0.2083 0.2083  plane waves:     260
 k-point ** :  -0.4583 0.2083 0.2083  plane waves:     258
 k-point ** :  -0.3750 0.2083 0.2083  plane waves:     254
 k-point ** :  -0.2917 0.2083 0.2083  plane waves:     255
 k-point ** :  -0.2083 0.2083 0.2083  plane waves:     260
 k-point ** :   0.2917 0.2917 0.2083  plane waves:     259
 k-point ** :   0.3750 0.2917 0.2083  plane waves:     258
 k-point ** :   0.4583 0.2917 0.2083  plane waves:     259
 k-point ** :  -0.4583 0.2917 0.2083  plane waves:     258
 k-point ** :  -0.3750 0.2917 0.2083  plane waves:     253
 k-point ** :  -0.2917 0.2917 0.2083  plane waves:     251
 k-point ** :  -0.2083 0.2917 0.2083  plane waves:     255
 k-point ** :   0.3750 0.3750 0.2083  plane waves:     259
 k-point ** :   0.4583 0.3750 0.2083  plane waves:     254
 k-point ** :  -0.4583 0.3750 0.2083  plane waves:     256
 k-point ** :  -0.3750 0.3750 0.2083  plane waves:     254
 k-point ** :  -0.2917 0.3750 0.2083  plane waves:     259
 k-point ** :  -0.2083 0.3750 0.2083  plane waves:     253
 k-point ** :   0.4583 0.4583 0.2083  plane waves:     255
 k-point ** :  -0.4583 0.4583 0.2083  plane waves:     255
 k-point ** :  -0.3750 0.4583 0.2083  plane waves:     253
 k-point ** :  -0.2917 0.4583 0.2083  plane waves:     258
 k-point ** :  -0.2083 0.4583 0.2083  plane waves:     259
 k-point ** :  -0.4583-0.4583 0.2083  plane waves:     253
 k-point ** :  -0.3750-0.4583 0.2083  plane waves:     257
 k-point ** :  -0.2917-0.4583 0.2083  plane waves:     257
 k-point ** :  -0.3750-0.3750 0.2083  plane waves:     253
 k-point ** :  -0.2917-0.3750 0.2083  plane waves:     256
 k-point ** :  -0.2917-0.2917 0.2083  plane waves:     254
 k-point ** :   0.2917 0.2917 0.2917  plane waves:     256
 k-point ** :   0.3750 0.2917 0.2917  plane waves:     261
 k-point ** :   0.4583 0.2917 0.2917  plane waves:     256
 k-point ** :  -0.4583 0.2917 0.2917  plane waves:     256
 k-point ** :  -0.3750 0.2917 0.2917  plane waves:     257
 k-point ** :  -0.2917 0.2917 0.2917  plane waves:     257
 k-point ** :   0.3750 0.3750 0.2917  plane waves:     262
 k-point ** :   0.4583 0.3750 0.2917  plane waves:     259
 k-point ** :  -0.4583 0.3750 0.2917  plane waves:     257
 k-point ** :  -0.3750 0.3750 0.2917  plane waves:     255
 k-point ** :  -0.2917 0.3750 0.2917  plane waves:     259
 k-point ** :   0.4583 0.4583 0.2917  plane waves:     256
 k-point ** :  -0.4583 0.4583 0.2917  plane waves:     255
 k-point ** :  -0.3750 0.4583 0.2917  plane waves:     256
 k-point ** :  -0.2917 0.4583 0.2917  plane waves:     257
 k-point ** :  -0.4583-0.4583 0.2917  plane waves:     253
 k-point ** :  -0.3750-0.4583 0.2917  plane waves:     256
 k-point ** :  -0.3750-0.3750 0.2917  plane waves:     259
 k-point ** :   0.3750 0.3750 0.3750  plane waves:     256
 k-point ** :   0.4583 0.3750 0.3750  plane waves:     256
 k-point ** :  -0.4583 0.3750 0.3750  plane waves:     255
 k-point ** :  -0.3750 0.3750 0.3750  plane waves:     253
 k-point ** :   0.4583 0.4583 0.3750  plane waves:     257
 k-point ** :  -0.4583 0.4583 0.3750  plane waves:     254
 k-point ** :  -0.3750 0.4583 0.3750  plane waves:     254
 k-point ** :  -0.4583-0.4583 0.3750  plane waves:     255
 k-point ** :   0.4583 0.4583 0.4583  plane waves:     266
 k-point ** :  -0.4583 0.4583 0.4583  plane waves:     256

 maximum and minimum number of plane-waves per node :       271      250

 maximum number of plane-waves:       271
 maximum index in each direction: 
   IXMAX=    4   IYMAX=    4   IZMAX=    4
   IXMIN=   -4   IYMIN=   -4   IZMIN=   -4


 serial   3D FFT for wavefunctions
 parallel 3D FFT for charge:
    minimum data exchange during FFTs selected (reduces bandwidth)


 total amount of memory used by VASP MPI-rank0    34409. kBytes
=======================================================================

   base      :      30000. kBytes
   nonl-proj :       3176. kBytes
   fftplans  :        119. kBytes
   grid      :        270. kBytes
   one-center:          6. kBytes
   wavefun   :        838. kBytes
 
     INWAV:  cpu time    0.0000: real time    0.0005
 Broyden mixing: mesh for mixing (old mesh)
   NGX =  9   NGY =  9   NGZ =  9
  (NGX  = 28   NGY  = 28   NGZ  = 28)
  gives a total of    729 points

 initial charge density was supplied:
 charge density of overlapping atoms calculated
 number of electron       8.0000000 magnetization 
 keeping initial charge density in first step


--------------------------------------------------------------------------------------------------------


 Maximum index for augmentation-charges          361 (set IRDMAX)


--------------------------------------------------------------------------------------------------------


 First call to EWALD:  gamma=   0.518
 Maximum number of real-space cells 3x 3x 3
 Maximum number of reciprocal cells 3x 3x 3

    FEWALD:  cpu time    0.0080: real time    0.0071


--------------------------------------- Iteration      1(   1)  ---------------------------------------


    POTLOK:  cpu time    0.0280: real time    0.0312
    SETDIJ:  cpu time    0.0040: real time    0.0059
     EDDAV:  cpu time    1.3600: real time    1.3672
       DOS:  cpu time    0.0040: real time    0.0072
    --------------------------------------------
      LOOP:  cpu time    1.4000: real time    1.4121

 eigenvalue-minimisations  :  3080
 total energy-change (2. order) :-0.1449937E+01  (-0.2070936E+03)
 number of electron       8.0000000 magnetization 
 augmentation part        8.0000000 magnetization 

 Free energy of the ion-electron system (eV)
  ---------------------------------------------------
  alpha Z        PSCENC =         3.36414203
  Ewald energy   TEWEN  =      -228.56352493
  -Hartree energ DENC   =       -11.00108243
  -exchange      EXHF   =         0.00000000
  -V(xc)+E(xc)   XCENC  =       -18.60172597
  PAW double counting   =        65.95520812      -30.76852678
  entropy T*S    EENTRO =        -0.01300111
  eigenvalues    EBANDS =        12.06610170
  atomic energy  EATOM  =       206.11247263
  Solvation  Ediel_sol  =         0.00000000
  ---------------------------------------------------
  free energy    TOTEN  =        -1.44993675 eV

  energy without entropy =       -1.43693564  energy(sigma->0) =       -1.44343620


--------------------------------------------------------------------------------------------------------




--------------------------------------- Iteration      1(   2)  ---------------------------------------


     EDDAV:  cpu time    2.1560: real time    2.1640
       DOS:  cpu time    0.0080: real time    0.0067
    --------------------------------------------
      LOOP:  cpu time    2.1600: real time    2.1707

 eigenvalue-minimisations  :  4632
 total energy-change (2. order) :-0.9437807E+01  (-0.9032897E+01)
 number of electron       8.0000000 magnetization 
 augmentation part        8.0000000 magnetization 

 Free energy of the ion-electron system (eV)
  ---------------------------------------------------
  alpha Z        PSCENC =         3.36414203
  Ewald energy   TEWEN  =      -228.56352493
  -Hartree energ DENC   =       -11.00108243
  -exchange      EXHF   =         0.00000000
  -V(xc)+E(xc)   XCENC  =       -18.60172597
  PAW double counting   =        65.95520812      -30.76852678
  entropy T*S    EENTRO =        -0.00000211
  eigenvalues    EBANDS =         2.61529580
  atomic energy  EATOM  =       206.11247263
  Solvation  Ediel_sol  =         0.00000000
  ---------------------------------------------------
  free energy    TOTEN  =       -10.88774364 eV

  energy without entropy =      -10.88774153  energy(sigma->0) =      -10.88774259


--------------------------------------------------------------------------------------------------------




--------------------------------------- Iteration      1(   3)  ---------------------------------------


     EDDAV:  cpu time    1.6160: real time    1.6256
       DOS:  cpu time    0.0080: real time    0.0069
    --------------------------------------------
      LOOP:  cpu time    1.6240: real time    1.6324

 eigenvalue-minimisations  :  3576
 total energy-change (2. order) :-0.8889181E-01  (-0.8889180E-01)
 number of electron       8.0000000 magnetization 
 augmentation part        8.0000000 magnetization 

 Free energy of the ion-electron system (eV)
  ---------------------------------------------------
  alpha Z        PSCENC =         3.36414203
  Ewald energy   TEWEN  =      -228.56352493
  -Hartree energ DENC   =       -11.00108243
  -exchange      EXHF   =         0.00000000
  -V(xc)+E(xc)   XCENC  =       -18.60172597
  PAW double counting   =        65.95520812      -30.76852678
  entropy T*S    EENTRO =        -0.00000208
  eigenvalues    EBANDS =         2.52640396
  atomic energy  EATOM  =       206.11247263
  Solvation  Ediel_sol  =         0.00000000
  ---------------------------------------------------
  free energy    TOTEN  =       -10.97663545 eV

  energy without entropy =      -10.97663337  energy(sigma->0) =      -10.97663441


--------------------------------------------------------------------------------------------------------




--------------------------------------- Iteration      1(   4)  ---------------------------------------


     EDDAV:  cpu time    2.1960: real time    2.2404
       DOS:  cpu time    0.0040: real time    0.0068
    --------------------------------------------
      LOOP:  cpu time    2.2000: real time    2.2477

 eigenvalue-minimisations  :  4688
 total energy-change (2. order) :-0.2045596E-03  (-0.2045600E-03)
 number of electron       8.0000000 magnetization 
 augmentation part        8.0000000 magnetization 

 Free energy of the ion-electron system (eV)
  ---------------------------------------------------
  alpha Z        PSCENC =         3.36414203
  Ewald energy   TEWEN  =      -228.56352493
  -Hartree energ DENC   =       -11.00108243
  -exchange      EXHF   =         0.00000000
  -V(xc)+E(xc)   XCENC  =       -18.60172597
  PAW double counting   =        65.95520812      -30.76852678
  entropy T*S    EENTRO =        -0.00000208
  eigenvalues    EBANDS =         2.52619941
  atomic energy  EATOM  =       206.11247263
  Solvation  Ediel_sol  =         0.00000000
  ---------------------------------------------------
  free energy    TOTEN  =       -10.97684001 eV

  energy without entropy =      -10.97683793  energy(sigma->0) =      -10.97683897


--------------------------------------------------------------------------------------------------------




--------------------------------------- Iteration      1(   5)  ---------------------------------------


     EDDAV:  cpu time    1.5640: real time    1.5821
       DOS:  cpu time    0.0040: real time    0.0070
    CHARGE:  cpu time    0.0360: real time    0.0368
    MIXING:  cpu time    0.0040: real time    0.0016
    --------------------------------------------
      LOOP:  cpu time    1.6080: real time    1.6270

 eigenvalue-minimisations  :  3440
 total energy-change (2. order) :-0.7705975E-07  (-0.7728271E-07)
 number of electron       8.0000014 magnetization 
 augmentation part       -0.4670486 magnetization 

 Broyden mixing:
  rms(total) = 0.29906E+00    rms(broyden)= 0.29904E+00
  rms(prec ) = 0.86763E+00
  weight for this iteration     100.00

 Free energy of the ion-electron system (eV)
  ---------------------------------------------------
  alpha Z        PSCENC =         3.36414203
  Ewald energy   TEWEN  =      -228.56352493
  -Hartree energ DENC   =       -11.00108243
  -exchange      EXHF   =         0.00000000
  -V(xc)+E(xc)   XCENC  =       -18.60172597
  PAW double counting   =        65.95520812      -30.76852678
  entropy T*S    EENTRO =        -0.00000208
  eigenvalues    EBANDS =         2.52619933
  atomic energy  EATOM  =       206.11247263
  Solvation  Ediel_sol  =         0.00000000
  ---------------------------------------------------
  free energy    TOTEN  =       -10.97684009 eV

  energy without entropy =      -10.97683801  energy(sigma->0) =      -10.97683905


--------------------------------------------------------------------------------------------------------




--------------------------------------- Iteration      1(   6)  ---------------------------------------


    POTLOK:  cpu time    0.0160: real time    0.0227
    SETDIJ:  cpu time    0.0040: real time    0.0055
     EDDAV:  cpu time    1.5160: real time    1.5138
       DOS:  cpu time    0.0040: real time    0.0070
    CHARGE:  cpu time    0.0360: real time    0.0362
    MIXING:  cpu time    0.0040: real time    0.0014
    --------------------------------------------
      LOOP:  cpu time    1.5800: real time    1.5868

 eigenvalue-minimisations  :  3408
 total energy-change (2. order) : 0.1239558E+00  (-0.8049136E-02)
 number of electron       8.0000014 magnetization 
 augmentation part       -0.4612926 magnetization 

 Broyden mixing:
  rms(total) = 0.17712E+00    rms(broyden)= 0.17712E+00
  rms(prec ) = 0.51068E+00
  weight for this iteration     100.00

 eigenvalues of (default mixing * dielectric matrix)
  average eigenvalue GAMMA=   2.4324
  2.4324

 Free energy of the ion-electron system (eV)
  ---------------------------------------------------
  alpha Z        PSCENC =         3.36414203
  Ewald energy   TEWEN  =      -228.56352493
  -Hartree energ DENC   =       -12.49086703
  -exchange      EXHF   =         0.00000000
  -V(xc)+E(xc)   XCENC  =       -18.35538800
  PAW double counting   =        70.55333240      -35.48201613
  entropy T*S    EENTRO =        -0.00001164
  eigenvalues    EBANDS =         4.00897643
  atomic energy  EATOM  =       206.11247263
  Solvation  Ediel_sol  =         0.00000000
  ---------------------------------------------------
  free energy    TOTEN  =       -10.85288426 eV

  energy without entropy =      -10.85287262  energy(sigma->0) =      -10.85287844


--------------------------------------------------------------------------------------------------------




--------------------------------------- Iteration      1(   7)  ---------------------------------------


    POTLOK:  cpu time    0.0160: real time    0.0823
    SETDIJ:  cpu time    0.0040: real time    0.0057
     EDDAV:  cpu time    1.6840: real time    1.6827
       DOS:  cpu time    0.0080: real time    0.0070
    CHARGE:  cpu time    0.0360: real time    0.0364
    MIXING:  cpu time    0.0000: real time    0.0013
    --------------------------------------------
      LOOP:  cpu time    1.7480: real time    1.8154

 eigenvalue-minimisations  :  3760
 total energy-change (2. order) : 0.5658430E-01  (-0.1479821E-01)
 number of electron       8.0000014 magnetization 
 augmentation part       -0.4544478 magnetization 

 Broyden mixing:
  rms(total) = 0.15112E-01    rms(broyden)= 0.15111E-01
  rms(prec ) = 0.39511E-01
  weight for this iteration     100.00

 eigenvalues of (default mixing * dielectric matrix)
  average eigenvalue GAMMA=   2.4600
  2.4600  2.4600

 Free energy of the ion-electron system (eV)
  ---------------------------------------------------
  alpha Z        PSCENC =         3.36414203
  Ewald energy   TEWEN  =      -228.56352493
  -Hartree energ DENC   =       -14.88492024
  -exchange      EXHF   =         0.00000000
  -V(xc)+E(xc)   XCENC  =       -17.95607284
  PAW double counting   =        76.78277268      -41.86057148
  entropy T*S    EENTRO =        -0.00007465
  eigenvalues    EBANDS =         6.20947685
  atomic energy  EATOM  =       206.11247263
  Solvation  Ediel_sol  =         0.00000000
  ---------------------------------------------------
  free energy    TOTEN  =       -10.79629997 eV

  energy without entropy =      -10.79622532  energy(sigma->0) =      -10.79626264


--------------------------------------------------------------------------------------------------------




--------------------------------------- Iteration      1(   8)  ---------------------------------------


    POTLOK:  cpu time    0.0160: real time    0.0228
[...]
      4       2.2249      2.00000
      5       9.6078      0.00000
      6      10.1905      0.00000
      7      10.8692      0.00000
      8      11.4956      0.00000

 k-point   148 :      -0.2083    0.4583    0.2083
  band No.  band energies     occupation 
      1      -2.4889      2.00000
      2      -1.1963      2.00000
      3       1.7319      2.00000
      4       2.5306      2.00000
      5       9.6212      0.00000
      6       9.9542      0.00000
      7      10.5942      0.00000
      8      12.2379      0.00000

 k-point   149 :      -0.4583   -0.4583    0.2083
  band No.  band energies     occupation 
      1      -2.7694      2.00000
      2      -1.0475      2.00000
      3       1.8792      2.00000
      4       3.3423      2.00000
      5       6.9992      0.00000
      6       9.2767      0.00000
      7      13.2014      0.00000
      8      13.2906      0.00000

 k-point   150 :      -0.3750   -0.4583    0.2083
  band No.  band energies     occupation 
      1      -2.2760      2.00000
      2      -1.4996      2.00000
      3       1.7877      2.00000
      4       2.9427      2.00000
      5       7.4800      0.00000
      6       9.2450      0.00000
      7      12.8448      0.00000
      8      13.6570      0.00000

 k-point   151 :      -0.2917   -0.4583    0.2083
  band No.  band energies     occupation 
      1      -2.1279      2.00000
      2      -1.5694      2.00000
      3       1.9186      2.00000
      4       2.3328      2.00000
      5       8.7419      0.00000
      6       9.3924      0.00000
      7      11.7704      0.00000
      8      12.5053      0.00000

 k-point   152 :      -0.3750   -0.3750    0.2083
  band No.  band energies     occupation 
      1      -2.3325      2.00000
      2      -1.4802      2.00000
      3       1.7393      2.00000
      4       3.2902      2.00000
      5       6.9263      0.00000
      6       9.1963      0.00000
      7      13.7739      0.00000
      8      14.1006      0.00000

 k-point   153 :      -0.2917   -0.3750    0.2083
  band No.  band energies     occupation 
      1      -2.7227      2.00000
      2      -1.0574      2.00000
      3       1.9044      2.00000
      4       3.0218      2.00000
      5       7.5419      0.00000
      6       9.3265      0.00000
      7      12.1542      0.00000
      8      14.1713      0.00000

 k-point   154 :      -0.2917   -0.2917    0.2083
  band No.  band energies     occupation 
      1      -3.2530      2.00000
      2      -0.5730      2.00000
      3       2.1554      2.00000
      4       3.4445      2.00000
      5       7.1393      0.00000
      6       9.4342      0.00000
      7      12.4891      0.00000
      8      12.5705      0.00000

 k-point   155 :       0.2917    0.2917    0.2917
  band No.  band energies     occupation 
      1      -5.0572      2.00000
      2       1.1804      2.00000
      3       4.9540      2.00000
      4       4.9540      2.00000
      5       7.7429      0.00000
      6       9.4143      0.00000
      7       9.4143      0.00000
      8      13.3906      0.00000

 k-point   156 :       0.3750    0.2917    0.2917
  band No.  band energies     occupation 
      1      -4.7792      2.00000
      2       0.7483      2.00000
      3       4.0537      2.00000
      4       4.9992      2.00000
      5       8.1706      0.00000
      6       9.4059      0.00000
      7       9.5697      0.00000
      8      12.8730      0.00000

 k-point   157 :       0.4583    0.2917    0.2917
  band No.  band energies     occupation 
      1      -4.3415      2.00000
      2       0.3791      2.00000
      3       2.8322      2.00000
      4       4.7239      2.00000
      5       8.4820      0.00000
      6      10.0192      0.00000
      7      10.0456      0.00000
      8      12.5437      0.00000

 k-point   158 :      -0.4583    0.2917    0.2917
  band No.  band energies     occupation 
      1      -3.7730      2.00000
      2      -0.0544      2.00000
      3       1.8872      2.00000
      4       4.3102      2.00000
      5       8.0992      0.00000
      6      10.9879      0.00000
      7      11.2639      0.00000
      8      12.4296      0.00000

 k-point   159 :      -0.3750    0.2917    0.2917
  band No.  band energies     occupation 
      1      -3.1592      2.00000
      2      -0.6814      2.00000
      3       1.5345      2.00000
      4       3.9143      2.00000
      5       7.6522      0.00000
      6      11.8190      0.00000
      7      11.9895      0.00000
      8      12.8472      0.00000

 k-point   160 :      -0.2917    0.2917    0.2917
  band No.  band energies     occupation 
      1      -2.8462      2.00000
      2      -1.0481      2.00000
      3       1.6867      2.00000
      4       3.6138      2.00000
      5       7.3174      0.00000
      6      10.9349      0.00000
      7      12.2400      0.00000
      8      12.3528      0.00000

 k-point   161 :       0.3750    0.3750    0.2917
  band No.  band energies     occupation 
      1      -4.5695      2.00000
      2       0.3170      2.00000
      3       4.4034      2.00000
      4       4.4639      2.00000
      5       8.0643      0.00000
      6       9.1627      0.00000
      7       9.8832      0.00000
      8      12.3549      0.00000

 k-point   162 :       0.4583    0.3750    0.2917
  band No.  band energies     occupation 
      1      -4.2011      2.00000
      2      -0.0242      2.00000
      3       3.3258      2.00000
      4       4.3928      2.00000
      5       8.4962      0.00000
      6       9.1668      0.00000
      7      10.4692      0.00000
      8      12.0025      0.00000

 k-point   163 :      -0.4583    0.3750    0.2917
  band No.  band energies     occupation 
      1      -3.6946      2.00000
      2      -0.3164      2.00000
      3       2.2554      2.00000
      4       4.0133      2.00000
      5       8.6604      0.00000
      6       9.5570      0.00000
      7      11.6065      0.00000
      8      11.9157      0.00000

 k-point   164 :      -0.3750    0.3750    0.2917
  band No.  band energies     occupation 
      1      -3.0965      2.00000
      2      -0.7084      2.00000
      3       1.5812      2.00000
      4       3.5743      2.00000
      5       8.1879      0.00000
      6      10.8195      0.00000
      7      11.8710      0.00000
      8      12.7894      0.00000

 k-point   165 :      -0.2917    0.3750    0.2917
  band No.  band energies     occupation 
      1      -2.5763      2.00000
      2      -1.1914      2.00000
      3       1.5090      2.00000
      4       3.2231      2.00000
      5       7.7929      0.00000
      6      10.8777      0.00000
      7      11.8844      0.00000
      8      12.7157      0.00000

 k-point   166 :       0.4583    0.4583    0.2917
  band No.  band energies     occupation 
      1      -3.9097      2.00000
      2      -0.3641      2.00000
      3       3.2200      2.00000
      4       4.0194      2.00000
      5       7.8813      0.00000
      6      10.0539      0.00000
      7      10.6508      0.00000
      8      11.5879      0.00000

 k-point   167 :      -0.4583    0.4583    0.2917
  band No.  band energies     occupation 
      1      -3.4861      2.00000
      2      -0.6224      2.00000
      3       2.4775      2.00000
      4       3.6780      2.00000
      5       8.1661      0.00000
      6       9.9447      0.00000
      7      11.3947      0.00000
      8      11.8464      0.00000

 k-point   168 :      -0.3750    0.4583    0.2917
  band No.  band energies     occupation 
      1      -2.9617      2.00000
      2      -0.8858      2.00000
      3       1.8477      2.00000
      4       3.1094      2.00000
      5       9.1843      0.00000
      6       9.5036      0.00000
      7      11.3595      0.00000
      8      13.1016      0.00000

 k-point   169 :      -0.2917    0.4583    0.2917
  band No.  band energies     occupation 
      1      -2.3899      2.00000
      2      -1.3014      2.00000
      3       1.6456      2.00000
      4       2.6088      2.00000
      5       9.0367      0.00000
      6      10.5536      0.00000
      7      11.2161      0.00000
      8      11.6170      0.00000

 k-point   170 :      -0.4583   -0.4583    0.2917
  band No.  band energies     occupation 
      1      -3.1715      2.00000
      2      -0.8636      2.00000
      3       2.0942      2.00000
      4       3.7068      2.00000
      5       7.4584      0.00000
      6      11.0302      0.00000
      7      11.6114      0.00000
      8      11.6691      0.00000

 k-point   171 :      -0.3750   -0.4583    0.2917
  band No.  band energies     occupation 
      1      -2.7888      2.00000
      2      -1.0609      2.00000
      3       1.7051      2.00000
      4       3.2950      2.00000
      5       7.8571      0.00000
      6      10.8465      0.00000
      7      11.3486      0.00000
      8      13.2552      0.00000

 k-point   172 :      -0.3750   -0.3750    0.2917
  band No.  band energies     occupation 
      1      -2.6391      2.00000
      2      -1.1651      2.00000
      3       1.4609      2.00000
      4       3.5664      2.00000
      5       7.2469      0.00000
      6      10.8731      0.00000
      7      12.7559      0.00000
      8      13.1298      0.00000

 k-point   173 :       0.3750    0.3750    0.3750
  band No.  band energies     occupation 
      1      -4.4374      2.00000
      2      -0.1136      2.00000
      3       4.7558      2.00000
      4       4.7558      2.00000
      5       7.5227      0.00000
      6       9.3342      0.00000
      7       9.3342      0.00000
      8      13.7329      0.00000

 k-point   174 :       0.4583    0.3750    0.3750
  band No.  band energies     occupation 
      1      -4.1518      2.00000
      2      -0.4325      2.00000
      3       3.9607      2.00000
      4       4.7182      2.00000
      5       7.9900      0.00000
      6       9.3646      0.00000
      7       9.4468      0.00000
      8      13.7312      0.00000

 k-point   175 :      -0.4583    0.3750    0.3750
  band No.  band energies     occupation 
      1      -3.7314      2.00000
      2      -0.6332      2.00000
      3       2.7975      2.00000
      4       4.3843      2.00000
      5       8.1737      0.00000
      6       9.9623      0.00000
      7      10.1975      0.00000
      8      13.8250      0.00000

 k-point   176 :      -0.3750    0.3750    0.3750
  band No.  band energies     occupation 
      1      -3.2075      2.00000
      2      -0.8080      2.00000
      3       1.8426      2.00000
      4       3.9538      2.00000
      5       7.7119      0.00000
      6      11.3567      0.00000
      7      11.3748      0.00000
      8      12.8550      0.00000

 k-point   177 :       0.4583    0.4583    0.3750
  band No.  band energies     occupation 
      1      -3.9621      2.00000
      2      -0.7356      2.00000
      3       4.1487      2.00000
      4       4.4339      2.00000
      5       7.9361      0.00000
      6       9.1323      0.00000
      7       9.6736      0.00000
      8      13.4502      0.00000

 k-point   178 :      -0.4583    0.4583    0.3750
  band No.  band energies     occupation 
      1      -3.6536      2.00000
      2      -0.8897      2.00000
      3       3.2492      2.00000
      4       4.2165      2.00000
      5       8.4538      0.00000
      6       9.0184      0.00000
      7      10.3939      0.00000
      8      13.3628      0.00000

 k-point   179 :      -0.3750    0.4583    0.3750
  band No.  band energies     occupation 
      1      -3.2543      2.00000
      2      -0.9348      2.00000
      3       2.2893      2.00000
      4       3.7599      2.00000
      5       8.3508      0.00000
      6       9.7089      0.00000
      7      11.7459      0.00000
      8      12.9698      0.00000

 k-point   180 :      -0.4583   -0.4583    0.3750
  band No.  band energies     occupation 
      1      -3.4869      2.00000
      2      -0.9870      2.00000
      3       2.9367      2.00000
      4       4.1401      2.00000
      5       7.9642      0.00000
      6       9.9543      0.00000
      7      10.3917      0.00000
      8      13.0897      0.00000

 k-point   181 :       0.4583    0.4583    0.4583
  band No.  band energies     occupation 
      1      -3.8937      2.00000
      2      -0.9999      2.00000
      3       4.6533      2.00000
      4       4.6533      2.00000
      5       7.4072      0.00000
      6       9.2292      0.00000
      7       9.2292      0.00000
      8      13.5991      0.00000

 k-point   182 :      -0.4583    0.4583    0.4583
  band No.  band energies     occupation 
      1      -3.7286      2.00000
      2      -1.0806      2.00000
      3       3.9962      2.00000
      4       4.5229      2.00000
      5       7.9089      0.00000
      6       9.1889      0.00000
      7       9.5129      0.00000
      8      13.8946      0.00000


--------------------------------------------------------------------------------------------------------


 soft charge-density along one line, spin component           1
         0         1         2         3         4         5         6         7         8         9
 total charge-density along one line
 
 pseudopotential strength for first ion, spin component:           1
 18.418  -0.001  -0.000  -0.000  -0.000   0.000   0.000   0.000
 -0.001   0.006   0.000   0.000   0.000  -0.000  -0.000  -0.000
 -0.000   0.000   4.180  -0.000  -0.000  -0.005   0.000   0.000
 -0.000   0.000  -0.000   4.180  -0.000   0.000  -0.005   0.000
 -0.000   0.000  -0.000  -0.000   4.180   0.000   0.000  -0.005
  0.000  -0.000  -0.005   0.000   0.000   0.005  -0.000  -0.000
  0.000  -0.000   0.000  -0.005   0.000  -0.000   0.005  -0.000
  0.000  -0.000   0.000   0.000  -0.005  -0.000  -0.000   0.005
 total augmentation occupancy for first ion, spin component:           1
  1.490  -0.982  -0.000  -0.000   0.000   0.000   0.000   0.000
 -0.982   1.032  -0.000  -0.000  -0.000   0.000   0.000   0.000
 -0.000  -0.000   1.023  -0.000   0.000  -0.769   0.000  -0.000
 -0.000  -0.000  -0.000   1.023   0.000   0.000  -0.769  -0.000
  0.000  -0.000   0.000   0.000   1.023  -0.000  -0.000  -0.769
  0.000   0.000  -0.769   0.000  -0.000   0.630  -0.000   0.000
  0.000   0.000   0.000  -0.769  -0.000  -0.000   0.630   0.000
  0.000   0.000  -0.000  -0.000  -0.769   0.000   0.000   0.630


------------------------ aborting loop because EDIFF is reached ----------------------------------------


    CHARGE:  cpu time    0.0360: real time    0.0360
    FORLOC:  cpu time    0.0000: real time    0.0005
    FORNL :  cpu time    0.0240: real time    0.0271
    STRESS:  cpu time    0.3480: real time    0.3475
    FORCOR:  cpu time    0.0080: real time    0.0111
    FORHAR:  cpu time    0.0040: real time    0.0029
    MIXING:  cpu time    0.0000: real time    0.0009
    OFIELD:  cpu time    0.0000: real time    0.0005

  FORCE on cell =-STRESS in cart. coord.  units (eV):
  Direction    XX          YY          ZZ          XY          YZ          ZX
  --------------------------------------------------------------------------------------
  Alpha Z     3.36414     3.36414     3.36414
  Ewald     -76.18788   -76.18788   -76.18788    -0.00000    -0.00000     0.00000
  Hartree     4.96722     4.96722     4.96722    -0.00000    -0.00000    -0.00000
  E(xc)     -25.40008   -25.40008   -25.40008    -0.00000    -0.00000    -0.00000
  Local     -29.44900   -29.44900   -29.44900     0.00008     0.00008     0.00008
  n-local    78.20547    80.62461    75.66697     1.07755    -1.09726     0.01714
  augment   -11.56488   -11.56488   -11.56488    -0.00008    -0.00008    -0.00008
  Kinetic    58.21419    55.88315    55.61849     0.86539    -0.88511     0.01736
  Fock        0.00000     0.00000     0.00000     0.00000     0.00000     0.00000
  -------------------------------------------------------------------------------------
  Total       0.46716     0.46716     0.46716     0.00000     0.00000    -0.00000
  in kB      18.69974    18.69974    18.69974     0.00000     0.00000    -0.00000
  external pressure =       18.70 kB  Pullay stress =        0.00 kB


 VOLUME and BASIS-vectors are now :
 -----------------------------------------------------------------------------
  energy-cutoff  :      200.00
  volume of cell :       40.03
      direct lattice vectors                 reciprocal lattice vectors
     0.000000000  2.715000000  2.715000000    -0.184162063  0.184162063  0.184162063
     2.715000000  0.000000000  2.715000000     0.184162063 -0.184162063  0.184162063
     2.715000000  2.715000000  0.000000000     0.184162063  0.184162063 -0.184162063

  length of vectors
     3.839589822  3.839589822  3.839589822     0.318978049  0.318978049  0.318978049


 FORCES acting on ions
    electron-ion (+dipol)            ewald-force                    non-local-force                 convergence-correction
 -----------------------------------------------------------------------------------------------
   0.782E-05 0.782E-05 0.832E-05   -.476E-15 -.149E-14 0.391E-14   -.246E-16 -.318E-18 -.161E-16   -.972E-06 -.972E-06 -.973E-06
   -.782E-05 -.782E-05 -.832E-05   0.623E-15 0.106E-14 -.375E-14   0.260E-16 0.171E-17 0.191E-16   0.972E-06 0.972E-06 0.973E-06
 -----------------------------------------------------------------------------------------------
   -.359E-13 -.163E-13 -.675E-13   0.147E-15 -.426E-15 0.164E-15   0.139E-17 0.139E-17 0.298E-17   -.551E-14 -.474E-15 0.552E-14
 
 
 POSITION                                       TOTAL-FORCE (eV/Angst)
 -----------------------------------------------------------------------------------
      2.71500      2.71500      2.71500         0.000000      0.000000      0.000000
      4.07250      4.07250      4.07250        -0.000000     -0.000000     -0.000000
 -----------------------------------------------------------------------------------
    total drift:                               -0.000000     -0.000000     -0.000000


--------------------------------------------------------------------------------------------------------



  FREE ENERGIE OF THE ION-ELECTRON SYSTEM (eV)
  ---------------------------------------------------
  free  energy   TOTEN  =       -10.79767501 eV

  energy  without entropy=      -10.79761539  energy(sigma->0) =      -10.79764520
 


--------------------------------------------------------------------------------------------------------


    POTLOK:  cpu time    0.0280: real time    0.0379


--------------------------------------------------------------------------------------------------------




--------------------------------------------------------------------------------------------------------


  
 reached required accuracy - stopping structural energy minimisation
 writing wavefunctions
     LOOP+:  cpu time   16.4120: real time   17.3692
    4ORBIT:  cpu time    0.0000: real time    0.0000

 total amount of memory used by VASP MPI-rank0    34409. kBytes
=======================================================================

   base      :      30000. kBytes
   nonl-proj :       3176. kBytes
   fftplans  :        119. kBytes
   grid      :        270. kBytes
   one-center:          6. kBytes
   wavefun   :        838. kBytes
 
  
  
 General timing and accounting informations for this job:
 ========================================================
  
                  Total CPU time used (sec):       23.956
                            User time (sec):       22.040
                          System time (sec):        1.916
                         Elapsed time (sec):       26.232
  
                   Maximum memory used (kb):        9652.
                   Average memory used (kb):           0.
  
                          Minor page faults:        38108
                          Major page faults:           18
                 Voluntary context switches:        36327
