 running on    8 total cores
 distrk:  each k-point on    8 cores,    1 groups
 distr:  one band on    1 cores,    8 groups
 using from now: INCAR     
 vasp.5.4.4.18Apr17-6-g9f103f2a35 (build Dec 09 2018 21:25:21) complex          
  
 POSCAR found type information on POSCAR  Si
 POSCAR found :  1 types and       2 ions
 scaLAPACK will be used

 ----------------------------------------------------------------------------- 
|                                                                             |
|           W    W    AA    RRRRR   N    N  II  N    N   GGGG   !!!           |
|           W    W   A  A   R    R  NN   N  II  NN   N  G    G  !!!           |
|           W    W  A    A  R    R  N N  N  II  N N  N  G       !!!           |
|           W WW W  AAAAAA  RRRRR   N  N N  II  N  N N  G  GGG   !            |
|           WW  WW  A    A  R   R   N   NN  II  N   NN  G    G                |
|           W    W  A    A  R    R  N    N  II  N    N   GGGG   !!!           |
|                                                                             |
|      For optimal performance we recommend to set                            |
|        NCORE= 4 - approx SQRT( number of cores)                             |
|      NCORE specifies how many cores store one orbital (NPAR=cpu/NCORE).     |
|      This setting can  greatly improve the performance of VASP for DFT.     |
|      The default,   NCORE=1            might be grossly inefficient         |
|      on modern multi-core architectures or massively parallel machines.     |
|      Do your own testing !!!!                                               |
|      Unfortunately you need to use the default for GW and RPA calculations. |
|      (for HF NCORE is supported but not extensively tested yet)             |
|                                                                             |
 ----------------------------------------------------------------------------- 

 LDA part: xc-table for Pade appr. of Perdew
 POSCAR, INCAR and KPOINTS ok, starting setup
 FFT: planning ...
 WAVECAR not read
 entering main loop
       N       E                     dE             d eps       ncg     rms          rms(c)
DAV:   1    -0.144993675300E+01   -0.14499E+01   -0.20709E+03  3080   0.377E+02
DAV:   2    -0.108877436408E+02   -0.94378E+01   -0.90329E+01  4632   0.553E+01
DAV:   3    -0.109766354546E+02   -0.88892E-01   -0.88892E-01  3576   0.662E+00
DAV:   4    -0.109768400142E+02   -0.20456E-03   -0.20456E-03  4688   0.330E-01
DAV:   5    -0.109768400913E+02   -0.77060E-07   -0.77283E-07  3440   0.533E-03    0.299E+00
DAV:   6    -0.108528842649E+02    0.12396E+00   -0.80491E-02  3408   0.147E+00    0.177E+00
DAV:   7    -0.107962999657E+02    0.56584E-01   -0.14798E-01  3760   0.212E+00    0.151E-01
DAV:   8    -0.107975820609E+02   -0.12821E-02   -0.36353E-03  3264   0.436E-01    0.246E-02
DAV:   9    -0.107976750084E+02   -0.92947E-04   -0.87083E-05  2312   0.740E-02
   1 F= -.10797675E+02 E0= -.10797645E+02  d E =-.107977E+02
 curvature:   0.00 expect dE= 0.000E+00 dE for cont linesearch  0.000E+00
 trial: gam= 0.00000 g(F)=  0.441E-43 g(S)=  0.000E+00 ort = 0.000E+00 (trialstep = 0.100E+01)
 search vector abs. value=  0.100E-09
 reached required accuracy - stopping structural energy minimisation
 writing wavefunctions
