<?xml version="1.0" encoding="ISO-8859-1"?>
<modeling>
 <generator>
  <i name="program" type="string">vasp </i>
  <i name="version" type="string">5.4.4.18Apr17-6-g9f103f2a35  </i>
  <i name="subversion" type="string">(build Dec 09 2018 21:25:21) complex            parallel </i>
  <i name="platform" type="string">IFC18.0.1.163_CrayMPICH7.7.0_MKL18.0.1.163 </i>
  <i name="date" type="string">2019 03 18 </i>
  <i name="time" type="string">04:52:57 </i>
 </generator>
 <incar>
  <i type="string" name="PREC">normal</i>
  <i type="int" name="IBRION">     2</i>
  <i name="EDIFF">      0.00040000</i>
  <i name="EDIFFG">     -0.01000000</i>
  <i type="int" name="NSW">    15</i>
  <i type="int" name="ISIF">     2</i>
  <i name="ENCUT">    200.00000000</i>
  <i type="int" name="NBANDS">     8</i>
  <i type="logical" name="LREAL"> F  </i>
  <i type="int" name="ISMEAR">     0</i>
  <i name="SIGMA">      0.20000000</i>
  <v type="int" name="KPOINT_BSE">    -1     0     0     0</v>
 </incar>
 <structure name="primitive_cell" >
  <crystal>
   <varray name="basis" >
    <v>       0.00000000       2.71500000       2.71500000 </v>
    <v>       2.71500000       0.00000000       2.71500000 </v>
    <v>       2.71500000       2.71500000       0.00000000 </v>
   </varray>
   <i name="volume">     40.02575175 </i>
   <varray name="rec_basis" >
    <v>      -0.18416206       0.18416206       0.18416206 </v>
    <v>       0.18416206      -0.18416206       0.18416206 </v>
    <v>       0.18416206       0.18416206      -0.18416206 </v>
   </varray>
  </crystal>
  <varray name="positions" >
   <v>      -0.50000000      -0.50000000      -0.50000000 </v>
   <v>      -0.25000000      -0.25000000      -0.25000000 </v>
  </varray>
 </structure>
 <varray name="primitive_index" >
  <v type="int" >        1 </v>
  <v type="int" >        2 </v>
 </varray>
 <kpoints>
  <generation param="Monkhorst-Pack">
   <v type="int" name="divisions">      12       12       12 </v>
   <v name="usershift">      0.00000000       0.00000000       0.00000000 </v>
   <v name="genvec1">      0.08333333      -0.00000000       0.00000000 </v>
   <v name="genvec2">     -0.00000000       0.08333333      -0.00000000 </v>
   <v name="genvec3">      0.00000000       0.00000000       0.08333333 </v>
   <v name="shift">      0.50000000       0.50000000       0.50000000 </v>
  </generation>
  <varray name="kpointlist" >
   <v>       0.04166667       0.04166667       0.04166667 </v>
   <v>       0.12500000       0.04166667       0.04166667 </v>
   <v>       0.20833333       0.04166667       0.04166667 </v>
   <v>       0.29166667       0.04166667       0.04166667 </v>
   <v>       0.37500000       0.04166667       0.04166667 </v>
   <v>       0.45833333       0.04166667       0.04166667 </v>
   <v>      -0.45833333       0.04166667       0.04166667 </v>
   <v>      -0.37500000       0.04166667       0.04166667 </v>
   <v>      -0.29166667       0.04166667       0.04166667 </v>
   <v>      -0.20833333       0.04166667       0.04166667 </v>
   <v>      -0.12500000       0.04166667       0.04166667 </v>
   <v>      -0.04166667       0.04166667       0.04166667 </v>
   <v>       0.12500000       0.12500000       0.04166667 </v>
   <v>       0.20833333       0.12500000       0.04166667 </v>
   <v>       0.29166667       0.12500000       0.04166667 </v>
   <v>       0.37500000       0.12500000       0.04166667 </v>
   <v>       0.45833333       0.12500000       0.04166667 </v>
   <v>      -0.45833333       0.12500000       0.04166667 </v>
   <v>      -0.37500000       0.12500000       0.04166667 </v>
   <v>      -0.29166667       0.12500000       0.04166667 </v>
   <v>      -0.20833333       0.12500000       0.04166667 </v>
   <v>      -0.12500000       0.12500000       0.04166667 </v>
   <v>      -0.04166667       0.12500000       0.04166667 </v>
   <v>       0.20833333       0.20833333       0.04166667 </v>
   <v>       0.29166667       0.20833333       0.04166667 </v>
   <v>       0.37500000       0.20833333       0.04166667 </v>
   <v>       0.45833333       0.20833333       0.04166667 </v>
   <v>      -0.45833333       0.20833333       0.04166667 </v>
   <v>      -0.37500000       0.20833333       0.04166667 </v>
   <v>      -0.29166667       0.20833333       0.04166667 </v>
   <v>      -0.20833333       0.20833333       0.04166667 </v>
   <v>      -0.12500000       0.20833333       0.04166667 </v>
   <v>      -0.04166667       0.20833333       0.04166667 </v>
   <v>       0.29166667       0.29166667       0.04166667 </v>
   <v>       0.37500000       0.29166667       0.04166667 </v>
   <v>       0.45833333       0.29166667       0.04166667 </v>
   <v>      -0.45833333       0.29166667       0.04166667 </v>
   <v>      -0.37500000       0.29166667       0.04166667 </v>
   <v>      -0.29166667       0.29166667       0.04166667 </v>
   <v>      -0.20833333       0.29166667       0.04166667 </v>
   <v>      -0.12500000       0.29166667       0.04166667 </v>
   <v>      -0.04166667       0.29166667       0.04166667 </v>
   <v>       0.37500000       0.37500000       0.04166667 </v>
   <v>       0.45833333       0.37500000       0.04166667 </v>
   <v>      -0.45833333       0.37500000       0.04166667 </v>
   <v>      -0.37500000       0.37500000       0.04166667 </v>
   <v>      -0.29166667       0.37500000       0.04166667 </v>
   <v>      -0.20833333       0.37500000       0.04166667 </v>
   <v>      -0.12500000       0.37500000       0.04166667 </v>
   <v>      -0.04166667       0.37500000       0.04166667 </v>
   <v>       0.45833333       0.45833333       0.04166667 </v>
   <v>      -0.45833333       0.45833333       0.04166667 </v>
   <v>      -0.37500000       0.45833333       0.04166667 </v>
   <v>      -0.29166667       0.45833333       0.04166667 </v>
   <v>      -0.20833333       0.45833333       0.04166667 </v>
   <v>      -0.12500000       0.45833333       0.04166667 </v>
   <v>      -0.04166667       0.45833333       0.04166667 </v>
   <v>      -0.45833333      -0.45833333       0.04166667 </v>
   <v>      -0.37500000      -0.45833333       0.04166667 </v>
   <v>      -0.29166667      -0.45833333       0.04166667 </v>
   <v>      -0.20833333      -0.45833333       0.04166667 </v>
   <v>      -0.12500000      -0.45833333       0.04166667 </v>
   <v>      -0.37500000      -0.37500000       0.04166667 </v>
   <v>      -0.29166667      -0.37500000       0.04166667 </v>
   <v>      -0.20833333      -0.37500000       0.04166667 </v>
   <v>      -0.12500000      -0.37500000       0.04166667 </v>
   <v>      -0.29166667      -0.29166667       0.04166667 </v>
   <v>      -0.20833333      -0.29166667       0.04166667 </v>
   <v>      -0.12500000      -0.29166667       0.04166667 </v>
   <v>      -0.20833333      -0.20833333       0.04166667 </v>
   <v>      -0.12500000      -0.20833333       0.04166667 </v>
   <v>      -0.12500000      -0.12500000       0.04166667 </v>
   <v>       0.12500000       0.12500000       0.12500000 </v>
   <v>       0.20833333       0.12500000       0.12500000 </v>
   <v>       0.29166667       0.12500000       0.12500000 </v>
   <v>       0.37500000       0.12500000       0.12500000 </v>
   <v>       0.45833333       0.12500000       0.12500000 </v>
   <v>      -0.45833333       0.12500000       0.12500000 </v>
   <v>      -0.37500000       0.12500000       0.12500000 </v>
   <v>      -0.29166667       0.12500000       0.12500000 </v>
   <v>      -0.20833333       0.12500000       0.12500000 </v>
   <v>      -0.12500000       0.12500000       0.12500000 </v>
   <v>       0.20833333       0.20833333       0.12500000 </v>
   <v>       0.29166667       0.20833333       0.12500000 </v>
   <v>       0.37500000       0.20833333       0.12500000 </v>
   <v>       0.45833333       0.20833333       0.12500000 </v>
   <v>      -0.45833333       0.20833333       0.12500000 </v>
   <v>      -0.37500000       0.20833333       0.12500000 </v>
   <v>      -0.29166667       0.20833333       0.12500000 </v>
   <v>      -0.20833333       0.20833333       0.12500000 </v>
   <v>      -0.12500000       0.20833333       0.12500000 </v>
   <v>       0.29166667       0.29166667       0.12500000 </v>
   <v>       0.37500000       0.29166667       0.12500000 </v>
   <v>       0.45833333       0.29166667       0.12500000 </v>
   <v>      -0.45833333       0.29166667       0.12500000 </v>
   <v>      -0.37500000       0.29166667       0.12500000 </v>
   <v>      -0.29166667       0.29166667       0.12500000 </v>
   <v>      -0.20833333       0.29166667       0.12500000 </v>
   <v>      -0.12500000       0.29166667       0.12500000 </v>
   <v>       0.37500000       0.37500000       0.12500000 </v>
   <v>       0.45833333       0.37500000       0.12500000 </v>
   <v>      -0.45833333       0.37500000       0.12500000 </v>
   <v>      -0.37500000       0.37500000       0.12500000 </v>
   <v>      -0.29166667       0.37500000       0.12500000 </v>
   <v>      -0.20833333       0.37500000       0.12500000 </v>
   <v>      -0.12500000       0.37500000       0.12500000 </v>
   <v>       0.45833333       0.45833333       0.12500000 </v>
   <v>      -0.45833333       0.45833333       0.12500000 </v>
   <v>      -0.37500000       0.45833333       0.12500000 </v>
   <v>      -0.29166667       0.45833333       0.12500000 </v>
   <v>      -0.20833333       0.45833333       0.12500000 </v>
   <v>      -0.12500000       0.45833333       0.12500000 </v>
   <v>      -0.45833333      -0.45833333       0.12500000 </v>
   <v>      -0.37500000      -0.45833333       0.12500000 </v>
   <v>      -0.29166667      -0.45833333       0.12500000 </v>
   <v>      -0.20833333      -0.45833333       0.12500000 </v>
   <v>      -0.37500000      -0.37500000       0.12500000 </v>
   <v>      -0.29166667      -0.37500000       0.12500000 </v>
   <v>      -0.20833333      -0.37500000       0.12500000 </v>
   <v>      -0.29166667      -0.29166667       0.12500000 </v>
   <v>      -0.20833333      -0.29166667       0.12500000 </v>
   <v>      -0.20833333      -0.20833333       0.12500000 </v>
   <v>       0.20833333       0.20833333       0.20833333 </v>
   <v>       0.29166667       0.20833333       0.20833333 </v>
   <v>       0.37500000       0.20833333       0.20833333 </v>
   <v>       0.45833333       0.20833333       0.20833333 </v>
   <v>      -0.45833333       0.20833333       0.20833333 </v>
   <v>      -0.37500000       0.20833333       0.20833333 </v>
   <v>      -0.29166667       0.20833333       0.20833333 </v>
   <v>      -0.20833333       0.20833333       0.20833333 </v>
   <v>       0.29166667       0.29166667       0.20833333 </v>
   <v>       0.37500000       0.29166667       0.20833333 </v>
   <v>       0.45833333       0.29166667       0.20833333 </v>
   <v>      -0.45833333       0.29166667       0.20833333 </v>
   <v>      -0.37500000       0.29166667       0.20833333 </v>
   <v>      -0.29166667       0.29166667       0.20833333 </v>
   <v>      -0.20833333       0.29166667       0.20833333 </v>
   <v>       0.37500000       0.37500000       0.20833333 </v>
   <v>       0.45833333       0.37500000       0.20833333 </v>
   <v>      -0.45833333       0.37500000       0.20833333 </v>
   <v>      -0.37500000       0.37500000       0.20833333 </v>
   <v>      -0.29166667       0.37500000       0.20833333 </v>
   <v>      -0.20833333       0.37500000       0.20833333 </v>
   <v>       0.45833333       0.45833333       0.20833333 </v>
   <v>      -0.45833333       0.45833333       0.20833333 </v>
   <v>      -0.37500000       0.45833333       0.20833333 </v>
   <v>      -0.29166667       0.45833333       0.20833333 </v>
   <v>      -0.20833333       0.45833333       0.20833333 </v>
   <v>      -0.45833333      -0.45833333       0.20833333 </v>
   <v>      -0.37500000      -0.45833333       0.20833333 </v>
   <v>      -0.29166667      -0.45833333       0.20833333 </v>
   <v>      -0.37500000      -0.37500000       0.20833333 </v>
   <v>      -0.29166667      -0.37500000       0.20833333 </v>
   <v>      -0.29166667      -0.29166667       0.20833333 </v>
   <v>       0.29166667       0.29166667       0.29166667 </v>
   <v>       0.37500000       0.29166667       0.29166667 </v>
   <v>       0.45833333       0.29166667       0.29166667 </v>
   <v>      -0.45833333       0.29166667       0.29166667 </v>
   <v>      -0.37500000       0.29166667       0.29166667 </v>
   <v>      -0.29166667       0.29166667       0.29166667 </v>
   <v>       0.37500000       0.37500000       0.29166667 </v>
   <v>       0.45833333       0.37500000       0.29166667 </v>
   <v>      -0.45833333       0.37500000       0.29166667 </v>
   <v>      -0.37500000       0.37500000       0.29166667 </v>
   <v>      -0.29166667       0.37500000       0.29166667 </v>
   <v>       0.45833333       0.45833333       0.29166667 </v>
   <v>      -0.45833333       0.45833333       0.29166667 </v>
   <v>      -0.37500000       0.45833333       0.29166667 </v>
   <v>      -0.29166667       0.45833333       0.29166667 </v>
   <v>      -0.45833333      -0.45833333       0.29166667 </v>
   <v>      -0.37500000      -0.45833333       0.29166667 </v>
   <v>      -0.37500000      -0.37500000       0.29166667 </v>
   <v>       0.37500000       0.37500000       0.37500000 </v>
   <v>       0.45833333       0.37500000       0.37500000 </v>
   <v>      -0.45833333       0.37500000       0.37500000 </v>
   <v>      -0.37500000       0.37500000       0.37500000 </v>
   <v>       0.45833333       0.45833333       0.37500000 </v>
   <v>      -0.45833333       0.45833333       0.37500000 </v>
   <v>      -0.37500000       0.45833333       0.37500000 </v>
   <v>      -0.45833333      -0.45833333       0.37500000 </v>
   <v>       0.45833333       0.45833333       0.45833333 </v>
   <v>      -0.45833333       0.45833333       0.45833333 </v>
  </varray>
  <varray name="weights" >
   <v>       0.00115741 </v>
   <v>       0.00347222 </v>
   <v>       0.00347222 </v>
   <v>       0.00347222 </v>
   <v>       0.00347222 </v>
   <v>       0.00347222 </v>
   <v>       0.00347222 </v>
   <v>       0.00347222 </v>
   <v>       0.00347222 </v>
   <v>       0.00347222 </v>
   <v>       0.00347222 </v>
   <v>       0.00347222 </v>
   <v>       0.00347222 </v>
   <v>       0.00694444 </v>
   <v>       0.00694444 </v>
   <v>       0.00694444 </v>
   <v>       0.00694444 </v>
   <v>       0.00694444 </v>
   <v>       0.00694444 </v>
   <v>       0.00694444 </v>
   <v>       0.00694444 </v>
   <v>       0.00694444 </v>
   <v>       0.00694444 </v>
   <v>       0.00347222 </v>
   <v>       0.00694444 </v>
   <v>       0.00694444 </v>
   <v>       0.00694444 </v>
   <v>       0.00694444 </v>
   <v>       0.00694444 </v>
   <v>       0.00694444 </v>
   <v>       0.00694444 </v>
   <v>       0.00694444 </v>
   <v>       0.00694444 </v>
   <v>       0.00347222 </v>
   <v>       0.00694444 </v>
   <v>       0.00694444 </v>
   <v>       0.00694444 </v>
   <v>       0.00694444 </v>
   <v>       0.00694444 </v>
   <v>       0.00694444 </v>
   <v>       0.00694444 </v>
   <v>       0.00694444 </v>
   <v>       0.00347222 </v>
   <v>       0.00694444 </v>
   <v>       0.00694444 </v>
   <v>       0.00694444 </v>
   <v>       0.00694444 </v>
   <v>       0.00694444 </v>
   <v>       0.00694444 </v>
   <v>       0.00694444 </v>
   <v>       0.00347222 </v>
   <v>       0.00694444 </v>
   <v>       0.00694444 </v>
   <v>       0.00694444 </v>
   <v>       0.00694444 </v>
   <v>       0.00694444 </v>
   <v>       0.00694444 </v>
   <v>       0.00347222 </v>
   <v>       0.00694444 </v>
   <v>       0.00694444 </v>
   <v>       0.00694444 </v>
   <v>       0.00694444 </v>
   <v>       0.00347222 </v>
   <v>       0.00694444 </v>
   <v>       0.00694444 </v>
   <v>       0.00694444 </v>
   <v>       0.00347222 </v>
   <v>       0.00694444 </v>
   <v>       0.00694444 </v>
   <v>       0.00347222 </v>
   <v>       0.00694444 </v>
   <v>       0.00347222 </v>
   <v>       0.00115741 </v>
   <v>       0.00347222 </v>
   <v>       0.00347222 </v>
   <v>       0.00347222 </v>
   <v>       0.00347222 </v>
   <v>       0.00347222 </v>
   <v>       0.00347222 </v>
   <v>       0.00347222 </v>
   <v>       0.00347222 </v>
   <v>       0.00347222 </v>
   <v>       0.00347222 </v>
   <v>       0.00694444 </v>
   <v>       0.00694444 </v>
   <v>       0.00694444 </v>
   <v>       0.00694444 </v>
   <v>       0.00694444 </v>
   <v>       0.00694444 </v>
   <v>       0.00694444 </v>
   <v>       0.00694444 </v>
   <v>       0.00347222 </v>
   <v>       0.00694444 </v>
   <v>       0.00694444 </v>
   <v>       0.00694444 </v>
   <v>       0.00694444 </v>
   <v>       0.00694444 </v>
   <v>       0.00694444 </v>
   <v>       0.00694444 </v>
   <v>       0.00347222 </v>
   <v>       0.00694444 </v>
   <v>       0.00694444 </v>
   <v>       0.00694444 </v>
   <v>       0.00694444 </v>
   <v>       0.00694444 </v>
   <v>       0.00694444 </v>
   <v>       0.00347222 </v>
   <v>       0.00694444 </v>
   <v>       0.00694444 </v>
   <v>       0.00694444 </v>
   <v>       0.00694444 </v>
   <v>       0.00694444 </v>
   <v>       0.00347222 </v>
   <v>       0.00694444 </v>
   <v>       0.00694444 </v>
   <v>       0.00694444 </v>
   <v>       0.00347222 </v>
   <v>       0.00694444 </v>
   <v>       0.00694444 </v>
   <v>       0.00347222 </v>
   <v>       0.00694444 </v>
   <v>       0.00347222 </v>
   <v>       0.00115741 </v>
   <v>       0.00347222 </v>
   <v>       0.00347222 </v>
   <v>       0.00347222 </v>
   <v>       0.00347222 </v>
   <v>       0.00347222 </v>
   <v>       0.00347222 </v>
   <v>       0.00347222 </v>
   <v>       0.00347222 </v>
   <v>       0.00694444 </v>
   <v>       0.00694444 </v>
   <v>       0.00694444 </v>
   <v>       0.00694444 </v>
   <v>       0.00694444 </v>
   <v>       0.00694444 </v>
   <v>       0.00347222 </v>
   <v>       0.00694444 </v>
   <v>       0.00694444 </v>
   <v>       0.00694444 </v>
   <v>       0.00694444 </v>
   <v>       0.00694444 </v>
   <v>       0.00347222 </v>
   <v>       0.00694444 </v>
   <v>       0.00694444 </v>
   <v>       0.00694444 </v>
   <v>       0.00694444 </v>
   <v>       0.00347222 </v>
   <v>       0.00694444 </v>
   <v>       0.00694444 </v>
   <v>       0.00347222 </v>
   <v>       0.00694444 </v>
   <v>       0.00347222 </v>
   <v>       0.00115741 </v>
   <v>       0.00347222 </v>
   <v>       0.00347222 </v>
   <v>       0.00347222 </v>
   <v>       0.00347222 </v>
   <v>       0.00347222 </v>
   <v>       0.00347222 </v>
   <v>       0.00694444 </v>
   <v>       0.00694444 </v>
   <v>       0.00694444 </v>
   <v>       0.00694444 </v>
   <v>       0.00347222 </v>
   <v>       0.00694444 </v>
   <v>       0.00694444 </v>
   <v>       0.00694444 </v>
   <v>       0.00347222 </v>
   <v>       0.00694444 </v>
   <v>       0.00347222 </v>
   <v>       0.00115741 </v>
   <v>       0.00347222 </v>
   <v>       0.00347222 </v>
   <v>       0.00347222 </v>
   <v>       0.00347222 </v>
   <v>       0.00694444 </v>
   <v>       0.00694444 </v>
   <v>       0.00347222 </v>
   <v>       0.00115741 </v>
   <v>       0.00347222 </v>
  </varray>
 </kpoints>
 <parameters>
  <separator name="general" >
   <i type="string" name="SYSTEM">unknown system</i>
   <i type="logical" name="LCOMPAT"> F  </i>
  </separator>
  <separator name="electronic" >
   <i type="string" name="PREC">normal</i>
   <i name="ENMAX">    200.00000000</i>
   <i name="ENAUG">    322.06900000</i>
   <i name="EDIFF">      0.00040000</i>
   <i type="int" name="IALGO">    38</i>
   <i type="int" name="IWAVPR">    11</i>
   <i type="int" name="NBANDS">     8</i>
   <i name="NELECT">      8.00000000</i>
   <i type="int" name="TURBO">     0</i>
   <i type="int" name="IRESTART">     0</i>
   <i type="int" name="NREBOOT">     0</i>
   <i type="int" name="NMIN">     0</i>
   <i name="EREF">      0.00000000</i>
   <separator name="electronic smearing" >
    <i type="int" name="ISMEAR">     0</i>
    <i name="SIGMA">      0.20000000</i>
    <i name="KSPACING">      0.50000000</i>
    <i type="logical" name="KGAMMA"> T  </i>
   </separator>
   <separator name="electronic projectors" >
    <i type="logical" name="LREAL"> F  </i>
    <v name="ROPT">      0.00000000</v>
    <i type="int" name="LMAXPAW">  -100</i>
    <i type="int" name="LMAXMIX">     2</i>
    <i type="logical" name="NLSPLINE"> F  </i>
   </separator>
   <separator name="electronic startup" >
    <i type="int" name="ISTART">     0</i>
    <i type="int" name="ICHARG">     2</i>
    <i type="int" name="INIWAV">     1</i>
   </separator>
   <separator name="electronic spin" >
    <i type="int" name="ISPIN">     1</i>
    <i type="logical" name="LNONCOLLINEAR"> F  </i>
    <v name="MAGMOM">      1.00000000      1.00000000</v>
    <i name="NUPDOWN">     -1.00000000</i>
    <i type="logical" name="LSORBIT"> F  </i>
    <v name="SAXIS">      0.00000000      0.00000000      1.00000000</v>
    <i type="logical" name="LSPIRAL"> F  </i>
    <v name="QSPIRAL">      0.00000000      0.00000000      0.00000000</v>
    <i type="logical" name="LZEROZ"> F  </i>
   </separator>
   <separator name="electronic exchange-correlation" >
    <i type="logical" name="LASPH"> F  </i>
    <i type="logical" name="LMETAGGA"> F  </i>
   </separator>
   <separator name="electronic convergence" >
    <i type="int" name="NELM">    60</i>
    <i type="int" name="NELMDL">    -5</i>
    <i type="int" name="NELMIN">     2</i>
    <i name="ENINI">    200.00000000</i>
    <separator name="electronic convergence detail" >
     <i type="logical" name="LDIAG"> T  </i>
     <i type="logical" name="LSUBROT"> F  </i>
     <i name="WEIMIN">      0.00100000</i>
     <i name="EBREAK">      0.00001250</i>
     <i name="DEPER">      0.30000000</i>
     <i type="int" name="NRMM">     4</i>
     <i name="TIME">      0.40000000</i>
    </separator>
   </separator>
   <separator name="electronic mixer" >
    <i name="AMIX">      0.40000000</i>
    <i name="BMIX">      1.00000000</i>
    <i name="AMIN">      0.10000000</i>
    <i name="AMIX_MAG">      1.60000000</i>
    <i name="BMIX_MAG">      1.00000000</i>
    <separator name="electronic mixer details" >
     <i type="int" name="IMIX">     4</i>
     <i type="logical" name="MIXFIRST"> F  </i>
     <i type="int" name="MAXMIX">   -45</i>
     <i name="WC">    100.00000000</i>
     <i type="int" name="INIMIX">     1</i>
     <i type="int" name="MIXPRE">     1</i>
     <i type="int" name="MREMOVE">     5</i>
    </separator>
   </separator>
   <separator name="electronic dipolcorrection" >
    <i type="logical" name="LDIPOL"> F  </i>
    <i type="logical" name="LMONO"> F  </i>
    <i type="int" name="IDIPOL">     0</i>
    <i name="EPSILON">      1.00000000</i>
    <v name="DIPOL">   -100.00000000   -100.00000000   -100.00000000</v>
    <i name="EFIELD">      0.00000000</i>
   </separator>
  </separator>
  <separator name="grids" >
   <i type="int" name="NGX">    14</i>
   <i type="int" name="NGY">    14</i>
   <i type="int" name="NGZ">    14</i>
   <i type="int" name="NGXF">    28</i>
   <i type="int" name="NGYF">    28</i>
   <i type="int" name="NGZF">    28</i>
   <i type="logical" name="ADDGRID"> F  </i>
  </separator>
  <separator name="ionic" >
   <i type="int" name="NSW">    15</i>
   <i type="int" name="IBRION">     2</i>
   <i type="int" name="MDALGO">     0</i>
   <i type="int" name="ISIF">     2</i>
   <i name="PSTRESS">      0.00000000</i>
   <i name="EDIFFG">     -0.01000000</i>
   <i type="int" name="NFREE">     1</i>
   <i name="POTIM">      0.50000000</i>
   <i name="SMASS">     -3.00000000</i>
   <i name="SCALEE">      1.00000000</i>
  </separator>
  <separator name="ionic md" >
   <i name="TEBEG">      0.00010000</i>
   <i name="TEEND">      0.00010000</i>
   <i type="int" name="NBLOCK">     1</i>
   <i type="int" name="KBLOCK">    15</i>
   <i type="int" name="NPACO">   256</i>
   <i name="APACO">     16.00000000</i>
  </separator>
  <separator name="symmetry" >
   <i type="int" name="ISYM">     2</i>
   <i name="SYMPREC">      0.00001000</i>
  </separator>
  <separator name="dos" >
   <i type="int" name="LORBIT">     0</i>
   <v name="RWIGS">     -1.00000000</v>
   <i type="int" name="NEDOS">   301</i>
   <i name="EMIN">     10.00000000</i>
   <i name="EMAX">    -10.00000000</i>
   <i name="EFERMI">      0.00000000</i>
  </separator>
  <separator name="writing" >
   <i type="int" name="NWRITE">     2</i>
   <i type="logical" name="LWAVE"> T  </i>
   <i type="logical" name="LDOWNSAMPLE"> F  </i>
   <i type="logical" name="LCHARG"> T  </i>
   <i type="logical" name="LPARD"> F  </i>
   <i type="logical" name="LVTOT"> F  </i>
   <i type="logical" name="LVHAR"> F  </i>
   <i type="logical" name="LELF"> F  </i>
   <i type="logical" name="LOPTICS"> F  </i>
   <v name="STM">      0.00000000      0.00000000      0.00000000      0.00000000      0.00000000      0.00000000      0.00000000</v>
  </separator>
  <separator name="performance" >
   <i type="int" name="NPAR">     8</i>
   <i type="int" name="NSIM">     4</i>
   <i type="int" name="NBLK">    -1</i>
   <i type="logical" name="LPLANE"> T  </i>
   <i type="logical" name="LSCALAPACK"> T  </i>
   <i type="logical" name="LSCAAWARE"> F  </i>
   <i type="logical" name="LSCALU"> F  </i>
   <i type="logical" name="LASYNC"> F  </i>
   <i type="logical" name="LORBITALREAL"> F  </i>
  </separator>
  <separator name="miscellaneous" >
   <i type="int" name="IDIOT">     3</i>
   <i type="int" name="ISPECIAL">     0</i>
   <i type="logical" name="LMUSIC"> F  </i>
   <v name="POMASS">     28.08500000</v>
   <v name="DARWINR">      0.00000000</v>
   <v name="DARWINV">      1.00000000</v>
   <i type="logical" name="LCORR"> T  </i>
  </separator>
  <i type="logical" name="GGA_COMPAT"> T  </i>
  <i type="logical" name="LBERRY"> F  </i>
  <i type="int" name="ICORELEVEL">     0</i>
  <i type="logical" name="LDAU"> F  </i>
  <i type="int" name="I_CONSTRAINED_M">     0</i>
  <separator name="electronic exchange-correlation" >
   <i type="string" name="GGA">--</i>
   <i type="int" name="VOSKOWN">     0</i>
   <i type="logical" name="LHFCALC"> F  </i>
   <i type="string" name="PRECFOCK"></i>
   <i type="logical" name="LSYMGRAD"> F  </i>
   <i type="logical" name="LHFONE"> F  </i>
   <i type="logical" name="LRHFCALC"> F  </i>
   <i type="logical" name="LTHOMAS"> F  </i>
   <i type="logical" name="LMODELHF"> F  </i>
   <i name="ENCUT4O">     -1.00000000</i>
   <i type="int" name="EXXOEP">     0</i>
   <i type="int" name="FOURORBIT">     0</i>
   <i name="AEXX">      0.00000000</i>
   <i name="HFALPHA">      0.00000000</i>
   <i name="MCALPHA">      0.00000000</i>
   <i name="ALDAX">      1.00000000</i>
   <i name="AGGAX">      1.00000000</i>
   <i name="ALDAC">      1.00000000</i>
   <i name="AGGAC">      1.00000000</i>
   <i type="int" name="NKREDX">     1</i>
   <i type="int" name="NKREDY">     1</i>
   <i type="int" name="NKREDZ">     1</i>
   <i type="logical" name="SHIFTRED"> F  </i>
   <i type="logical" name="ODDONLY"> F  </i>
   <i type="logical" name="EVENONLY"> F  </i>
   <i type="int" name="LMAXFOCK">     0</i>
   <i type="int" name="NMAXFOCKAE">     0</i>
   <i type="logical" name="LFOCKAEDFT"> F  </i>
   <i name="HFSCREEN">      0.00000000</i>
   <i name="HFSCREENC">      0.00000000</i>
   <i type="int" name="NBANDSGWLOW">     0</i>
  </separator>
  <separator name="vdW DFT" >
   <i type="logical" name="LUSE_VDW"> F  </i>
   <i name="Zab_VDW">     -0.84910000</i>
   <i name="PARAM1">      0.12340000</i>
   <i name="PARAM2">      1.00000000</i>
   <i name="PARAM3">      0.00000000</i>
  </separator>
  <separator name="model GW" >
   <i type="int" name="MODEL_GW">     0</i>
   <i name="MODEL_EPS0">     12.00772552</i>
   <i name="MODEL_ALPHA">      1.00000000</i>
  </separator>
  <separator name="linear response parameters" >
   <i type="logical" name="LEPSILON"> F  </i>
   <i type="logical" name="LRPA"> F  </i>
   <i type="logical" name="LNABLA"> F  </i>
   <i type="logical" name="LVEL"> F  </i>
   <i type="int" name="KINTER">     0</i>
   <i name="CSHIFT">      0.10000000</i>
   <i name="OMEGAMAX">     -1.00000000</i>
   <i name="DEG_THRESHOLD">      0.00200000</i>
   <i name="RTIME">     -0.10000000</i>
   <i name="WPLASMAI">      0.00000000</i>
   <v name="DFIELD">      0.00000000      0.00000000      0.00000000</v>
   <v name="WPLASMA">      0.00000000      0.00000000      0.00000000      0.00000000      0.00000000      0.00000000      0.00000000      0.00000000      0.00000000</v>
  </separator>
  <separator name="orbital magnetization" >
   <i type="logical" name="NUCIND"> F  </i>
   <v name="MAGPOS">      0.00000000      0.00000000      0.00000000</v>
   <i type="logical" name="LNICSALL"> T  </i>
   <i type="logical" name="ORBITALMAG"> F  </i>
   <i type="logical" name="LMAGBLOCH"> F  </i>
   <i type="logical" name="LCHIMAG"> F  </i>
   <i type="logical" name="LGAUGE"> T  </i>
   <i type="int" name="MAGATOM">     0</i>
   <v name="MAGDIPOL">      0.00000000      0.00000000      0.00000000</v>
   <v name="AVECCONST">      0.00000000      0.00000000      0.00000000</v>
  </separator>
  <separator name="response functions" >
   <i type="logical" name="LADDER"> F  </i>
   <i type="logical" name="LRPAFORCE"> F  </i>
   <i type="logical" name="LFXC"> F  </i>
   <i type="logical" name="LHARTREE"> T  </i>
   <i type="int" name="IBSE">     0</i>
   <v type="int" name="KPOINT">    -1     0     0     0</v>
   <i type="logical" name="LTCTE"> F  </i>
   <i type="logical" name="LTETE"> F  </i>
   <i type="logical" name="LTRIPLET"> F  </i>
   <i type="logical" name="LFXCEPS"> F  </i>
   <i type="logical" name="LFXHEG"> F  </i>
   <i type="int" name="NATURALO">     2</i>
   <i type="logical" name="L2ORDER"> F  </i>
   <i type="logical" name="LMP2LT"> F  </i>
   <i type="logical" name="LUSEW"> F  </i>
   <i name="ENCUTGW">     -2.00000000</i>
   <i name="ENCUTGWSOFT">     -2.00000000</i>
   <i name="ENCUTLF">     -1.00000000</i>
   <i type="int" name="LMAXMP2">    -1</i>
   <i name="SCISSOR">      0.00000000</i>
   <i type="int" name="NOMEGA">     0</i>
   <i type="int" name="NOMEGAR">     0</i>
   <i type="int" name="NBANDSGW">    -1</i>
   <i type="int" name="NBANDSO">    -1</i>
   <i type="int" name="NBANDSV">    -1</i>
   <i type="int" name="NELM">     1</i>
   <i type="int" name="NELMHF">     1</i>
   <i type="int" name="DIM">     3</i>
   <i type="int" name="ANTIRES">     0</i>
   <i name="OMEGAMAX">    -30.00000000</i>
   <i name="OMEGAMIN">    -30.00000000</i>
   <i name="OMEGATL">   -200.00000000</i>
   <i type="int" name="OMEGAGRID">   140</i>
   <i name="CSHIFT">     -0.10000000</i>
   <i type="logical" name="SELFENERGY"> F  </i>
   <i type="logical" name="LSPECTRAL"> F  </i>
   <i type="logical" name="LSPECTRALGW"> F  </i>
   <i type="logical" name="LSINGLES"> F  </i>
   <i type="logical" name="LFERMIGW"> F  </i>
   <i type="logical" name="ODDONLYGW"> F  </i>
   <i type="logical" name="EVENONLYGW"> F  </i>
   <i type="int" name="NKREDLFX">     1</i>
   <i type="int" name="NKREDLFY">     1</i>
   <i type="int" name="NKREDLFZ">     1</i>
   <i type="int" name="MAXMEM">  2800</i>
   <i type="int" name="TELESCOPE">     0</i>
   <i type="int" name="TAUPAR">     1</i>
   <i type="int" name="OMEGAPAR">    -1</i>
   <i name="LAMBDA">      1.00000000</i>
  </separator>
  <separator name="External order field" >
   <i name="OFIELD_KAPPA">      0.00000000</i>
   <v name="OFIELD_K">      0.00000000      0.00000000      0.00000000</v>
   <i name="OFIELD_Q6_NEAR">      0.00000000</i>
   <i name="OFIELD_Q6_FAR">      0.00000000</i>
   <i name="OFIELD_A">      0.00000000</i>
  </separator>
 </parameters>
 <atominfo>
  <atoms>       2 </atoms>
  <types>       1 </types>
  <array name="atoms" >
   <dimension dim="1">ion</dimension>
   <field type="string">element</field>
   <field type="int">atomtype</field>
   <set>
    <rc><c>Si</c><c>   1</c></rc>
    <rc><c>Si</c><c>   1</c></rc>
   </set>
  </array>
  <array name="atomtypes" >
   <dimension dim="1">type</dimension>
   <field type="int">atomspertype</field>
   <field type="string">element</field>
   <field>mass</field>
   <field>valence</field>
   <field type="string">pseudopotential</field>
   <set>
    <rc><c>   2</c><c>Si</c><c>     28.08500000</c><c>      4.00000000</c><c> PAW_PBE Si 05Jan2001                   </c></rc>
   </set>
  </array>
 </atominfo>
 <structure name="initialpos" >
  <crystal>
   <varray name="basis" >
    <v>       0.00000000       2.71500000       2.71500000 </v>
    <v>       2.71500000       0.00000000       2.71500000 </v>
    <v>       2.71500000       2.71500000       0.00000000 </v>
   </varray>
   <i name="volume">     40.02575175 </i>
   <varray name="rec_basis" >
    <v>      -0.18416206       0.18416206       0.18416206 </v>
    <v>       0.18416206      -0.18416206       0.18416206 </v>
    <v>       0.18416206       0.18416206      -0.18416206 </v>
   </varray>
  </crystal>
  <varray name="positions" >
   <v>       0.50000000       0.50000000       0.50000000 </v>
   <v>       0.75000000       0.75000000       0.75000000 </v>
  </varray>
 </structure>
 <calculation>
  <scstep>
   <time name="dav">    1.36    1.37</time>
   <time name="total">    1.40    1.41</time>
   <energy>
    <i name="alphaZ">      3.36414203 </i>
    <i name="ewald">   -228.56352493 </i>
    <i name="hartreedc">    -11.00108243 </i>
    <i name="XCdc">    -18.60172597 </i>
    <i name="pawpsdc">     65.95520812 </i>
    <i name="pawaedc">    -30.76852678 </i>
    <i name="eentropy">     -0.01300111 </i>
    <i name="bandstr">     12.06610170 </i>
    <i name="atom">    206.11247263 </i>
    <i name="e_fr_energy">     -1.44993675 </i>
    <i name="e_wo_entrp">     -1.43693564 </i>
    <i name="e_0_energy">     -1.44343620 </i>
   </energy>
  </scstep>
  <scstep>
   <time name="dav">    2.16    2.16</time>
   <time name="total">    2.16    2.17</time>
   <energy>
    <i name="e_fr_energy">    -10.88774364 </i>
    <i name="e_wo_entrp">    -10.88774153 </i>
    <i name="e_0_energy">    -10.88774259 </i>
   </energy>
  </scstep>
  <scstep>
   <time name="dav">    1.62    1.63</time>
   <time name="total">    1.62    1.63</time>
   <energy>
    <i name="e_fr_energy">    -10.97663545 </i>
    <i name="e_wo_entrp">    -10.97663337 </i>
    <i name="e_0_energy">    -10.97663441 </i>
   </energy>
  </scstep>
  <scstep>
   <time name="dav">    2.20    2.24</time>
   <time name="total">    2.20    2.25</time>
   <energy>
    <i name="e_fr_energy">    -10.97684001 </i>
    <i name="e_wo_entrp">    -10.97683793 </i>
    <i name="e_0_energy">    -10.97683897 </i>
   </energy>
  </scstep>
  <scstep>
   <time name="dav">    1.56    1.58</time>
   <time name="total">    1.61    1.63</time>
   <energy>
    <i name="e_fr_energy">    -10.97684009 </i>
    <i name="e_wo_entrp">    -10.97683801 </i>
    <i name="e_0_energy">    -10.97683905 </i>
   </energy>
  </scstep>
  <scstep>
   <time name="dav">    1.52    1.51</time>
   <time name="total">    1.58    1.59</time>
   <energy>
    <i name="e_fr_energy">    -10.85288426 </i>
    <i name="e_wo_entrp">    -10.85287262 </i>
    <i name="e_0_energy">    -10.85287844 </i>
   </energy>
  </scstep>
  <scstep>
   <time name="dav">    1.68    1.68</time>
   <time name="total">    1.75    1.82</time>
   <energy>
    <i name="e_fr_energy">    -10.79629997 </i>
    <i name="e_wo_entrp">    -10.79622532 </i>
    <i name="e_0_energy">    -10.79626264 </i>
   </energy>
  </scstep>
  <scstep>
   <time name="dav">    1.45    1.45</time>
   <time name="total">    1.52    1.52</time>
   <energy>
    <i name="e_fr_energy">    -10.79758206 </i>
    <i name="e_wo_entrp">    -10.79752198 </i>
    <i name="e_0_energy">    -10.79755202 </i>
   </energy>
  </scstep>
  <scstep>
   <time name="dav">    1.10    1.10</time>
   <time name="total">    1.13    1.14</time>
   <energy>
    <i name="alphaZ">      3.36414203 </i>
    <i name="ewald">   -228.56352493 </i>
    <i name="hartreedc">    -14.89241122 </i>
    <i name="XCdc">    -17.94068306 </i>
    <i name="pawpsdc">     75.91536497 </i>
    <i name="pawaedc">    -40.96555582 </i>
    <i name="eentropy">     -0.00005962 </i>
    <i name="bandstr">      6.17258002 </i>
    <i name="atom">    206.11247263 </i>
    <i name="e_fr_energy">    -10.79767501 </i>
    <i name="e_wo_entrp">    -10.79761539 </i>
    <i name="e_0_energy">    -10.79764520 </i>
   </energy>
  </scstep>
  <structure>
   <crystal>
    <varray name="basis" >
     <v>       0.00000000       2.71500000       2.71500000 </v>
     <v>       2.71500000       0.00000000       2.71500000 </v>
     <v>       2.71500000       2.71500000       0.00000000 </v>
    </varray>
    <i name="volume">     40.02575175 </i>
    <varray name="rec_basis" >
     <v>      -0.18416206       0.18416206       0.18416206 </v>
     <v>       0.18416206      -0.18416206       0.18416206 </v>
     <v>       0.18416206       0.18416206      -0.18416206 </v>
    </varray>
   </crystal>
   <varray name="positions" >
    <v>       0.50000000       0.50000000       0.50000000 </v>
    <v>       0.75000000       0.75000000       0.75000000 </v>
   </varray>
  </structure>
  <varray name="forces" >
   <v>       0.00000000       0.00000000       0.00000000 </v>
   <v>      -0.00000000      -0.00000000      -0.00000000 </v>
  </varray>
  <varray name="stress" >
   <v>      18.69974119       0.00000000      -0.00000000 </v>
   <v>       0.00000000      18.69974119      -0.00000000 </v>
   <v>      -0.00000000       0.00000000      18.69974119 </v>
  </varray>
  <energy>
   <i name="e_fr_energy">    -10.79767501 </i>
   <i name="e_wo_entrp">    -10.79764520 </i>
   <i name="e_0_energy">     -0.00005962 </i>
  </energy>
  <time name="totalsc">   16.41   17.37</time>
  <eigenvalues>
   <array>
    <dimension dim="1">band</dimension>
    <dimension dim="2">kpoint</dimension>
    <dimension dim="3">spin</dimension>
    <field>eigene</field>
    <field>occ</field>
    <set>
     <set comment="spin 1">
      <set comment="kpoint 1">
       <r>   -6.1094    1.0000 </r>
       <r>    5.5952    1.0000 </r>
       <r>    5.8138    0.9906 </r>
       <r>    5.8138    0.9906 </r>
       <r>    8.4759    0.0000 </r>
       <r>    8.4823    0.0000 </r>
       <r>    8.4823    0.0000 </r>
       <r>    9.3708    0.0000 </r>
      </set>
      <set comment="kpoint 2">
       <r>   -5.9882    1.0000 </r>
       <r>    4.7029    1.0000 </r>
       <r>    5.3866    1.0000 </r>
       <r>    5.7592    0.9969 </r>
       <r>    8.5582    0.0000 </r>
       <r>    8.6005    0.0000 </r>
       <r>    8.8030    0.0000 </r>
       <r>   10.1901    0.0000 </r>
      </set>
      <set comment="kpoint 3">
       <r>   -5.6890    1.0000 </r>
       <r>    3.1885    1.0000 </r>
       <r>    5.0151    1.0000 </r>
       <r>    5.4875    1.0000 </r>
       <r>    8.3011    0.0000 </r>
       <r>    8.9935    0.0000 </r>
       <r>    9.2987    0.0000 </r>
       <r>   11.5182    0.0000 </r>
      </set>
      <set comment="kpoint 4">
       <r>   -5.2242    1.0000 </r>
       <r>    1.6656    1.0000 </r>
       <r>    4.7176    1.0000 </r>
       <r>    5.1679    1.0000 </r>
       <r>    7.9916    0.0000 </r>
       <r>    9.2849    0.0000 </r>
       <r>    9.5430    0.0000 </r>
       <r>   12.6422    0.0000 </r>
      </set>
      <set comment="kpoint 5">
       <r>   -4.6296    1.0000 </r>
       <r>    0.2958    1.0000 </r>
       <r>    4.5217    1.0000 </r>
       <r>    4.8929    1.0000 </r>
       <r>    7.7464    0.0000 </r>
       <r>    9.3229    0.0000 </r>
       <r>    9.4589    0.0000 </r>
       <r>   13.5227    0.0000 </r>
      </set>
      <set comment="kpoint 6">
       <r>   -4.0225    1.0000 </r>
       <r>   -0.7641    1.0000 </r>
       <r>    4.4404    1.0000 </r>
       <r>    4.6963    1.0000 </r>
       <r>    7.6004    0.0000 </r>
       <r>    9.2802    0.0000 </r>
       <r>    9.2850    0.0000 </r>
       <r>   13.7024    0.0000 </r>
      </set>
      <set comment="kpoint 7">
       <r>   -3.7891    1.0000 </r>
       <r>   -1.1116    1.0000 </r>
       <r>    4.4697    1.0000 </r>
       <r>    4.5943    1.0000 </r>
       <r>    7.5643    0.0000 </r>
       <r>    9.1794    0.0000 </r>
       <r>    9.3169    0.0000 </r>
       <r>   13.6676    0.0000 </r>
      </set>
      <set comment="kpoint 8">
       <r>   -4.2107    1.0000 </r>
       <r>   -0.4627    1.0000 </r>
       <r>    4.5978    1.0000 </r>
       <r>    4.6028    1.0000 </r>
       <r>    7.6398    0.0000 </r>
       <r>    9.1889    0.0000 </r>
       <r>    9.4472    0.0000 </r>
       <r>   13.6165    0.0000 </r>
      </set>
      <set comment="kpoint 9">
       <r>   -4.8378    1.0000 </r>
       <r>    0.7277    1.0000 </r>
       <r>    4.7122    1.0000 </r>
       <r>    4.8310    1.0000 </r>
       <r>    7.8235    0.0000 </r>
       <r>    9.2391    0.0000 </r>
       <r>    9.6139    0.0000 </r>
       <r>   12.8693    0.0000 </r>
      </set>
      <set comment="kpoint 10">
       <r>   -5.3960    1.0000 </r>
       <r>    2.1619    1.0000 </r>
       <r>    4.9330    1.0000 </r>
       <r>    5.1322    1.0000 </r>
       <r>    8.0920    0.0000 </r>
       <r>    9.1353    0.0000 </r>
       <r>    9.6109    0.0000 </r>
       <r>   12.0713    0.0000 </r>
      </set>
      <set comment="kpoint 11">
       <r>   -5.8079    1.0000 </r>
       <r>    3.7129    1.0000 </r>
       <r>    5.2437    1.0000 </r>
       <r>    5.4607    1.0000 </r>
       <r>    8.3723    0.0000 </r>
       <r>    8.7968    0.0000 </r>
       <r>    9.2724    0.0000 </r>
       <r>   11.0396    0.0000 </r>
      </set>
      <set comment="kpoint 12">
       <r>   -6.0487    1.0000 </r>
       <r>    5.1730    1.0000 </r>
       <r>    5.5845    1.0000 </r>
       <r>    5.6902    0.9994 </r>
       <r>    8.3430    0.0000 </r>
       <r>    8.6876    0.0000 </r>
       <r>    8.7826    0.0000 </r>
       <r>    9.7572    0.0000 </r>
      </set>
      <set comment="kpoint 13">
       <r>   -5.9274    1.0000 </r>
       <r>    4.6231    1.0000 </r>
       <r>    5.2353    1.0000 </r>
       <r>    5.3422    1.0000 </r>
       <r>    8.1015    0.0000 </r>
       <r>    9.1235    0.0000 </r>
       <r>    9.2763    0.0000 </r>
       <r>   10.2502    0.0000 </r>
      </set>
      <set comment="kpoint 14">
       <r>   -5.6871    1.0000 </r>
       <r>    3.5780    1.0000 </r>
       <r>    4.6409    1.0000 </r>
       <r>    5.1966    1.0000 </r>
       <r>    8.1168    0.0000 </r>
       <r>    9.3155    0.0000 </r>
       <r>    9.7868    0.0000 </r>
       <r>   10.8228    0.0000 </r>
      </set>
      <set comment="kpoint 15">
       <r>   -5.2759    1.0000 </r>
       <r>    2.1466    1.0000 </r>
       <r>    4.2571    1.0000 </r>
       <r>    4.9024    1.0000 </r>
       <r>    8.3222    0.0000 </r>
       <r>    9.2656    0.0000 </r>
       <r>   10.1709    0.0000 </r>
       <r>   11.0177    0.0000 </r>
      </set>
      <set comment="kpoint 16">
       <r>   -4.7186    1.0000 </r>
       <r>    0.7593    1.0000 </r>
       <r>    3.9953    1.0000 </r>
       <r>    4.5947    1.0000 </r>
       <r>    8.2753    0.0000 </r>
       <r>    9.2561    0.0000 </r>
       <r>   10.1700    0.0000 </r>
       <r>   11.6219    0.0000 </r>
      </set>
      <set comment="kpoint 17">
       <r>   -4.0910    1.0000 </r>
       <r>   -0.4101    1.0000 </r>
       <r>    3.8160    1.0000 </r>
       <r>    4.3981    1.0000 </r>
       <r>    8.1674    0.0000 </r>
       <r>    9.1643    0.0000 </r>
       <r>    9.9953    0.0000 </r>
       <r>   12.7628    0.0000 </r>
      </set>
      <set comment="kpoint 18">
       <r>   -3.6678    1.0000 </r>
       <r>   -1.0529    1.0000 </r>
       <r>    3.6920    1.0000 </r>
       <r>    4.3730    1.0000 </r>
       <r>    8.1340    0.0000 </r>
       <r>    9.1128    0.0000 </r>
       <r>    9.8562    0.0000 </r>
       <r>   13.8855    0.0000 </r>
      </set>
      <set comment="kpoint 19">
       <r>   -3.9038    1.0000 </r>
       <r>   -0.7056    1.0000 </r>
       <r>    3.6421    1.0000 </r>
       <r>    4.5098    1.0000 </r>
       <r>    8.1982    0.0000 </r>
       <r>    9.1538    0.0000 </r>
       <r>    9.8346    0.0000 </r>
       <r>   13.5931    0.0000 </r>
      </set>
      <set comment="kpoint 20">
       <r>   -4.5120    1.0000 </r>
       <r>    0.3403    1.0000 </r>
       <r>    3.7018    1.0000 </r>
       <r>    4.7689    1.0000 </r>
       <r>    8.3526    0.0000 </r>
       <r>    9.2407    0.0000 </r>
       <r>    9.9151    0.0000 </r>
       <r>   12.4287    0.0000 </r>
      </set>
      <set comment="kpoint 21">
       <r>   -5.1057    1.0000 </r>
       <r>    1.6695    1.0000 </r>
       <r>    3.8993    1.0000 </r>
       <r>    5.0995    1.0000 </r>
       <r>    8.5626    0.0000 </r>
       <r>    9.1916    0.0000 </r>
       <r>    9.9384    0.0000 </r>
       <r>   11.5719    0.0000 </r>
      </set>
      <set comment="kpoint 22">
       <r>   -5.5692    1.0000 </r>
       <r>    3.0729    1.0000 </r>
       <r>    4.2849    1.0000 </r>
       <r>    5.4203    1.0000 </r>
       <r>    8.6152    0.0000 </r>
       <r>    9.0176    0.0000 </r>
       <r>    9.6090    0.0000 </r>
       <r>   11.2391    0.0000 </r>
      </set>
      <set comment="kpoint 23">
       <r>   -5.8675    1.0000 </r>
       <r>    4.1561    1.0000 </r>
       <r>    5.0350    1.0000 </r>
       <r>    5.5764    1.0000 </r>
       <r>    8.3909    0.0000 </r>
       <r>    8.8647    0.0000 </r>
       <r>    9.1969    0.0000 </r>
       <r>   10.6935    0.0000 </r>
      </set>
      <set comment="kpoint 24">
       <r>   -5.5056    1.0000 </r>
       <r>    3.3262    1.0000 </r>
       <r>    4.4714    1.0000 </r>
       <r>    4.4870    1.0000 </r>
       <r>    7.5014    0.0000 </r>
       <r>    9.9301    0.0000 </r>
       <r>   10.5076    0.0000 </r>
       <r>   10.5411    0.0000 </r>
      </set>
      <set comment="kpoint 25">
       <r>   -5.1504    1.0000 </r>
       <r>    2.3579    1.0000 </r>
       <r>    3.8815    1.0000 </r>
       <r>    4.3042    1.0000 </r>
       <r>    7.5378    0.0000 </r>
       <r>    9.5540    0.0000 </r>
       <r>   10.7162    0.0000 </r>
       <r>   11.1556    0.0000 </r>
      </set>
      <set comment="kpoint 26">
       <r>   -4.6385    1.0000 </r>
       <r>    1.1431    1.0000 </r>
       <r>    3.4259    1.0000 </r>
       <r>    4.0363    1.0000 </r>
       <r>    7.7999    0.0000 </r>
       <r>    9.7753    0.0000 </r>
       <r>   10.5170    0.0000 </r>
       <r>   11.3588    0.0000 </r>
      </set>
      <set comment="kpoint 27">
       <r>   -4.0189    1.0000 </r>
       <r>   -0.0176    1.0000 </r>
       <r>    3.0316    1.0000 </r>
       <r>    3.8964    1.0000 </r>
       <r>    7.8733    0.0000 </r>
       <r>   10.2457    0.0000 </r>
       <r>   10.7817    0.0000 </r>
       <r>   11.2277    0.0000 </r>
      </set>
      <set comment="kpoint 28">
       <r>   -3.4712    1.0000 </r>
       <r>   -0.8483    1.0000 </r>
       <r>    2.7200    1.0000 </r>
       <r>    3.9328    1.0000 </r>
       <r>    7.9488    0.0000 </r>
       <r>   10.0191    0.0000 </r>
       <r>   11.0328    0.0000 </r>
       <r>   12.2252    0.0000 </r>
      </set>
      <set comment="kpoint 29">
       <r>   -3.4818    1.0000 </r>
       <r>   -0.8296    1.0000 </r>
       <r>    2.5365    1.0000 </r>
       <r>    4.1251    1.0000 </r>
       <r>    8.1495    0.0000 </r>
       <r>    9.8720    0.0000 </r>
       <r>   10.9000    0.0000 </r>
       <r>   13.5800    0.0000 </r>
      </set>
      <set comment="kpoint 30">
       <r>   -4.0356    1.0000 </r>
       <r>    0.0142    1.0000 </r>
       <r>    2.5249    1.0000 </r>
       <r>    4.4392    1.0000 </r>
       <r>    8.4656    0.0000 </r>
       <r>    9.7848    0.0000 </r>
       <r>   10.8173    0.0000 </r>
       <r>   12.2046    0.0000 </r>
      </set>
      <set comment="kpoint 31">
       <r>   -4.6524    1.0000 </r>
       <r>    1.1179    1.0000 </r>
       <r>    2.7715    1.0000 </r>
       <r>    4.8211    1.0000 </r>
       <r>    8.8296    0.0000 </r>
       <r>    9.5571    0.0000 </r>
       <r>   10.6354    0.0000 </r>
       <r>   11.2679    0.0000 </r>
      </set>
      <set comment="kpoint 32">
       <r>   -5.1602    1.0000 </r>
       <r>    2.0470    1.0000 </r>
       <r>    3.5013    1.0000 </r>
       <r>    5.1665    1.0000 </r>
       <r>    8.9201    0.0000 </r>
       <r>    9.1304    0.0000 </r>
       <r>   10.0785    0.0000 </r>
       <r>   11.1911    0.0000 </r>
      </set>
      <set comment="kpoint 33">
       <r>   -5.5113    1.0000 </r>
       <r>    2.6616    1.0000 </r>
       <r>    4.6506    1.0000 </r>
       <r>    5.2939    1.0000 </r>
       <r>    8.3936    0.0000 </r>
       <r>    8.9946    0.0000 </r>
       <r>    9.6660    0.0000 </r>
       <r>   11.5504    0.0000 </r>
      </set>
      <set comment="kpoint 34">
       <r>   -4.8509    1.0000 </r>
       <r>    1.8979    1.0000 </r>
       <r>    3.7568    1.0000 </r>
       <r>    3.8101    1.0000 </r>
       <r>    6.9606    0.0000 </r>
       <r>    8.7543    0.0000 </r>
       <r>   11.8900    0.0000 </r>
       <r>   11.9621    0.0000 </r>
      </set>
      <set comment="kpoint 35">
       <r>   -4.3888    1.0000 </r>
       <r>    1.0475    1.0000 </r>
       <r>    3.2592    1.0000 </r>
       <r>    3.5794    1.0000 </r>
       <r>    7.0778    0.0000 </r>
       <r>    8.4355    0.0000 </r>
       <r>   12.0389    0.0000 </r>
       <r>   12.6529    0.0000 </r>
      </set>
      <set comment="kpoint 36">
       <r>   -3.7956    1.0000 </r>
       <r>    0.1043    1.0000 </r>
       <r>    2.6228    1.0000 </r>
       <r>    3.4494    1.0000 </r>
       <r>    7.3189    0.0000 </r>
       <r>    8.9784    0.0000 </r>
       <r>   11.8157    0.0000 </r>
       <r>   12.7356    0.0000 </r>
      </set>
      <set comment="kpoint 37">
       <r>   -3.1836    1.0000 </r>
       <r>   -0.7236    1.0000 </r>
       <r>    2.0719    1.0000 </r>
       <r>    3.4899    1.0000 </r>
       <r>    7.4326    0.0000 </r>
       <r>   10.2441    0.0000 </r>
       <r>   11.5477    0.0000 </r>
       <r>   12.5660    0.0000 </r>
      </set>
      <set comment="kpoint 38">
       <r>   -2.9772    1.0000 </r>
       <r>   -0.9670    1.0000 </r>
       <r>    1.7310    1.0000 </r>
       <r>    3.6862    1.0000 </r>
       <r>    7.6526    0.0000 </r>
       <r>   11.1927    0.0000 </r>
       <r>   11.9245    0.0000 </r>
       <r>   12.4045    0.0000 </r>
      </set>
      <set comment="kpoint 39">
       <r>   -3.4460    1.0000 </r>
       <r>   -0.3910    1.0000 </r>
       <r>    1.6932    1.0000 </r>
       <r>    4.0124    1.0000 </r>
       <r>    8.0154    0.0000 </r>
       <r>   10.9519    0.0000 </r>
       <r>   12.0274    0.0000 </r>
       <r>   12.2503    0.0000 </r>
      </set>
      <set comment="kpoint 40">
       <r>   -4.0673    1.0000 </r>
       <r>    0.3018    1.0000 </r>
       <r>    2.1512    1.0000 </r>
       <r>    4.4211    1.0000 </r>
       <r>    8.4623    0.0000 </r>
       <r>   10.1932    0.0000 </r>
       <r>   11.2952    0.0000 </r>
       <r>   11.6396    0.0000 </r>
      </set>
      <set comment="kpoint 41">
       <r>   -4.6048    1.0000 </r>
       <r>    0.7779    1.0000 </r>
       <r>    3.1686    1.0000 </r>
       <r>    4.8054    1.0000 </r>
       <r>    8.6865    0.0000 </r>
       <r>    9.3679    0.0000 </r>
       <r>   10.2809    0.0000 </r>
       <r>   11.7613    0.0000 </r>
      </set>
      <set comment="kpoint 42">
       <r>   -4.9976    1.0000 </r>
       <r>    1.1957    1.0000 </r>
       <r>    4.3807    1.0000 </r>
       <r>    4.9703    1.0000 </r>
       <r>    8.1496    0.0000 </r>
       <r>    9.1977    0.0000 </r>
       <r>    9.7803    0.0000 </r>
       <r>   12.1640    0.0000 </r>
      </set>
      <set comment="kpoint 43">
       <r>   -3.9760    1.0000 </r>
       <r>    0.4389    1.0000 </r>
       <r>    3.2382    1.0000 </r>
       <r>    3.3299    1.0000 </r>
       <r>    6.6116    0.0005 </r>
       <r>    7.6949    0.0000 </r>
       <r>   13.4321    0.0000 </r>
       <r>   13.4646    0.0000 </r>
      </set>
      <set comment="kpoint 44">
       <r>   -3.4198    1.0000 </r>
       <r>   -0.3124    1.0000 </r>
       <r>    2.8350    1.0000 </r>
       <r>    3.1276    1.0000 </r>
       <r>    6.8242    0.0000 </r>
       <r>    7.5999    0.0000 </r>
       <r>   13.4709    0.0000 </r>
       <r>   14.2208    0.0000 </r>
      </set>
      <set comment="kpoint 45">
       <r>   -2.7869    1.0000 </r>
       <r>   -1.0205    1.0000 </r>
       <r>    2.1168    1.0000 </r>
       <r>    3.1443    1.0000 </r>
       <r>    7.0153    0.0000 </r>
       <r>    8.5294    0.0000 </r>
       <r>   13.2075    0.0000 </r>
       <r>   14.2338    0.0000 </r>
      </set>
      <set comment="kpoint 46">
       <r>   -2.4378    1.0000 </r>
       <r>   -1.3513    1.0000 </r>
       <r>    1.5671    1.0000 </r>
       <r>    3.3208    1.0000 </r>
       <r>    7.2251    0.0000 </r>
       <r>   10.0297    0.0000 </r>
       <r>   12.8697    0.0000 </r>
       <r>   13.7177    0.0000 </r>
      </set>
      <set comment="kpoint 47">
       <r>   -2.8640    1.0000 </r>
       <r>   -0.9486    1.0000 </r>
       <r>    1.4690    1.0000 </r>
       <r>    3.6359    1.0000 </r>
       <r>    7.5857    0.0000 </r>
       <r>   11.5838    0.0000 </r>
       <r>   12.0734    0.0000 </r>
       <r>   12.8408    0.0000 </r>
      </set>
      <set comment="kpoint 48">
       <r>   -3.4540    1.0000 </r>
       <r>   -0.5879    1.0000 </r>
       <r>    2.0237    1.0000 </r>
       <r>    4.0505    1.0000 </r>
       <r>    8.0633    0.0000 </r>
       <r>   10.4349    0.0000 </r>
       <r>   11.5180    0.0000 </r>
       <r>   12.8370    0.0000 </r>
      </set>
      <set comment="kpoint 49">
       <r>   -3.9773    1.0000 </r>
       <r>   -0.3599    1.0000 </r>
       <r>    3.0656    1.0000 </r>
       <r>    4.4709    1.0000 </r>
       <r>    8.4195    0.0000 </r>
       <r>    9.3683    0.0000 </r>
       <r>   10.2899    0.0000 </r>
       <r>   12.9191    0.0000 </r>
      </set>
      <set comment="kpoint 50">
       <r>   -4.3780    1.0000 </r>
       <r>   -0.0863    1.0000 </r>
       <r>    4.2222    1.0000 </r>
       <r>    4.7039    1.0000 </r>
       <r>    7.9469    0.0000 </r>
       <r>    9.1872    0.0000 </r>
       <r>    9.6420    0.0000 </r>
       <r>   13.1386    0.0000 </r>
      </set>
      <set comment="kpoint 51">
       <r>   -2.9004    1.0000 </r>
       <r>   -0.9794    1.0000 </r>
       <r>    2.9477    1.0000 </r>
       <r>    3.0568    1.0000 </r>
       <r>    6.5146    0.0046 </r>
       <r>    6.9777    0.0000 </r>
       <r>   14.9961    0.0000 </r>
       <r>   15.0150    0.0000 </r>
      </set>
      <set comment="kpoint 52">
       <r>   -2.2728    1.0000 </r>
       <r>   -1.6404    1.0000 </r>
       <r>    2.6477    1.0000 </r>
       <r>    2.9390    1.0000 </r>
       <r>    6.7749    0.0000 </r>
       <r>    7.1703    0.0000 </r>
       <r>   14.9553    0.0000 </r>
       <r>   15.5064    0.0000 </r>
      </set>
      <set comment="kpoint 53">
       <r>   -2.2638    1.0000 </r>
       <r>   -1.5704    1.0000 </r>
       <r>    2.0142    1.0000 </r>
       <r>    3.0846    1.0000 </r>
       <r>    6.9542    0.0000 </r>
       <r>    8.4388    0.0000 </r>
       <r>   13.9143    0.0000 </r>
       <r>   14.6520    0.0000 </r>
      </set>
      <set comment="kpoint 54">
       <r>   -2.7635    1.0000 </r>
       <r>   -1.0694    1.0000 </r>
       <r>    1.7419    1.0000 </r>
       <r>    3.3769    1.0000 </r>
       <r>    7.2949    0.0000 </r>
       <r>   10.1030    0.0000 </r>
       <r>   12.2134    0.0000 </r>
       <r>   13.2887    0.0000 </r>
      </set>
      <set comment="kpoint 55">
       <r>   -3.1902    1.0000 </r>
       <r>   -0.9466    1.0000 </r>
       <r>    2.1761    1.0000 </r>
       <r>    3.7850    1.0000 </r>
       <r>    7.7796    0.0000 </r>
       <r>   10.6040    0.0000 </r>
       <r>   11.6591    0.0000 </r>
       <r>   12.0754    0.0000 </r>
      </set>
      <set comment="kpoint 56">
       <r>   -3.5486    1.0000 </r>
       <r>   -1.0027    1.0000 </r>
       <r>    3.1198    1.0000 </r>
       <r>    4.2328    1.0000 </r>
       <r>    8.2202    0.0000 </r>
       <r>    9.3832    0.0000 </r>
       <r>   10.3306    0.0000 </r>
       <r>   13.9157    0.0000 </r>
      </set>
      <set comment="kpoint 57">
       <r>   -3.8333    1.0000 </r>
       <r>   -0.9685    1.0000 </r>
       <r>    4.1592    1.0000 </r>
       <r>    4.5483    1.0000 </r>
       <r>    7.8391    0.0000 </r>
       <r>    9.1372    0.0000 </r>
       <r>    9.5031    0.0000 </r>
       <r>   13.7829    0.0000 </r>
      </set>
      <set comment="kpoint 58">
       <r>   -2.2965    1.0000 </r>
       <r>   -1.6541    1.0000 </r>
       <r>    2.8893    1.0000 </r>
       <r>    3.0018    1.0000 </r>
       <r>    6.5619    0.0016 </r>
       <r>    6.7619    0.0000 </r>
       <r>   15.6839    0.0000 </r>
       <r>   15.7358    0.0000 </r>
      </set>
      <set comment="kpoint 59">
       <r>   -2.8659    1.0000 </r>
       <r>   -0.9858    1.0000 </r>
       <r>    2.7103    1.0000 </r>
       <r>    3.0017    1.0000 </r>
       <r>    6.7803    0.0000 </r>
       <r>    7.3258    0.0000 </r>
       <r>   14.2161    0.0000 </r>
       <r>   14.9992    0.0000 </r>
      </set>
      <set comment="kpoint 60">
       <r>   -3.3080    1.0000 </r>
       <r>   -0.4502    1.0000 </r>
       <r>    2.3213    1.0000 </r>
       <r>    3.2644    1.0000 </r>
       <r>    7.1383    0.0000 </r>
       <r>    8.7071    0.0000 </r>
       <r>   12.4978    0.0000 </r>
       <r>   13.4805    0.0000 </r>
      </set>
      <set comment="kpoint 61">
       <r>   -3.6119    1.0000 </r>
       <r>   -0.3737    1.0000 </r>
       <r>    2.5197    1.0000 </r>
       <r>    3.6606    1.0000 </r>
       <r>    7.6288    0.0000 </r>
       <r>   10.4474    0.0000 </r>
       <r>   10.9110    0.0000 </r>
       <r>   11.8676    0.0000 </r>
      </set>
      <set comment="kpoint 62">
       <r>   -3.7818    1.0000 </r>
       <r>   -0.6668    1.0000 </r>
       <r>    3.2922    1.0000 </r>
       <r>    4.1343    1.0000 </r>
       <r>    8.1248    0.0000 </r>
       <r>    9.4947    0.0000 </r>
       <r>   10.4658    0.0000 </r>
       <r>   12.4598    0.0000 </r>
      </set>
      <set comment="kpoint 63">
       <r>   -3.4617    1.0000 </r>
       <r>   -0.2794    1.0000 </r>
       <r>    3.0642    1.0000 </r>
       <r>    3.1661    1.0000 </r>
       <r>    6.5287    0.0034 </r>
       <r>    7.2913    0.0000 </r>
       <r>   14.2220    0.0000 </r>
       <r>   14.2297    0.0000 </r>
      </set>
      <set comment="kpoint 64">
       <r>   -3.9289    1.0000 </r>
       <r>    0.3688    1.0000 </r>
       <r>    3.0192    1.0000 </r>
       <r>    3.3190    1.0000 </r>
       <r>    6.9214    0.0000 </r>
       <r>    7.9719    0.0000 </r>
       <r>   12.7432    0.0000 </r>
       <r>   13.4301    0.0000 </r>
      </set>
      <set comment="kpoint 65">
       <r>   -4.2411    1.0000 </r>
       <r>    0.6341    1.0000 </r>
       <r>    3.0029    1.0000 </r>
       <r>    3.7028    1.0000 </r>
       <r>    7.5421    0.0000 </r>
       <r>    9.3389    0.0000 </r>
       <r>   11.1504    0.0000 </r>
       <r>   12.0256    0.0000 </r>
      </set>
      <set comment="kpoint 66">
       <r>   -4.3906    1.0000 </r>
       <r>    0.3567    1.0000 </r>
       <r>    3.5435    1.0000 </r>
       <r>    4.2082    1.0000 </r>
       <r>    8.1251    0.0000 </r>
       <r>    9.6804    0.0000 </r>
       <r>   10.6477    0.0000 </r>
       <r>   11.1636    0.0000 </r>
      </set>
      <set comment="kpoint 67">
       <r>   -4.4399    1.0000 </r>
       <r>    1.1674    1.0000 </r>
       <r>    3.4690    1.0000 </r>
       <r>    3.5456    1.0000 </r>
       <r>    6.7571    0.0000 </r>
       <r>    8.1856    0.0000 </r>
       <r>   12.6526    0.0000 </r>
       <r>   12.7020    0.0000 </r>
      </set>
      <set comment="kpoint 68">
       <r>   -4.7968    1.0000 </r>
       <r>    1.7126    1.0000 </r>
       <r>    3.5484    1.0000 </r>
       <r>    3.9088    1.0000 </r>
       <r>    7.2845    0.0000 </r>
       <r>    8.9771    0.0000 </r>
       <r>   11.3547    0.0000 </r>
       <r>   11.8940    0.0000 </r>
      </set>
      <set comment="kpoint 69">
       <r>   -4.9843    1.0000 </r>
       <r>    1.6431    1.0000 </r>
       <r>    3.8490    1.0000 </r>
       <r>    4.4501    1.0000 </r>
       <r>    8.0749    0.0000 </r>
       <r>    9.7778    0.0000 </r>
       <r>   10.4230    0.0000 </r>
       <r>   10.7525    0.0000 </r>
      </set>
      <set comment="kpoint 70">
       <r>   -5.2066    1.0000 </r>
       <r>    2.6205    1.0000 </r>
       <r>    4.0971    1.0000 </r>
       <r>    4.1206    1.0000 </r>
       <r>    7.2128    0.0000 </r>
       <r>    9.3726    0.0000 </r>
       <r>   11.1592    0.0000 </r>
       <r>   11.2419    0.0000 </r>
      </set>
      <set comment="kpoint 71">
       <r>   -5.4477    1.0000 </r>
       <r>    2.9791    1.0000 </r>
       <r>    4.2491    1.0000 </r>
       <r>    4.7468    1.0000 </r>
       <r>    7.8211    0.0000 </r>
       <r>    9.7810    0.0000 </r>
       <r>   10.4475    0.0000 </r>
       <r>   10.4818    0.0000 </r>
      </set>
      <set comment="kpoint 72">
       <r>   -5.7462    1.0000 </r>
       <r>    3.9993    1.0000 </r>
       <r>    4.8499    1.0000 </r>
       <r>    4.9133    1.0000 </r>
       <r>    7.8067    0.0000 </r>
       <r>    9.6833    0.0000 </r>
       <r>    9.8757    0.0000 </r>
       <r>   10.4646    0.0000 </r>
      </set>
      <set comment="kpoint 73">
       <r>   -5.9281    1.0000 </r>
       <r>    4.2462    1.0000 </r>
       <r>    5.5597    1.0000 </r>
       <r>    5.5597    1.0000 </r>
       <r>    8.3592    0.0000 </r>
       <r>    8.8520    0.0000 </r>
       <r>    8.8520    0.0000 </r>
       <r>   10.5579    0.0000 </r>
      </set>
      <set comment="kpoint 74">
       <r>   -5.7479    1.0000 </r>
       <r>    3.6215    1.0000 </r>
       <r>    4.6805    1.0000 </r>
       <r>    5.6355    0.9998 </r>
       <r>    8.7119    0.0000 </r>
       <r>    8.8376    0.0000 </r>
       <r>    9.1287    0.0000 </r>
       <r>   11.1792    0.0000 </r>
      </set>
      <set comment="kpoint 75">
       <r>   -5.3932    1.0000 </r>
       <r>    2.5573    1.0000 </r>
       <r>    3.8885    1.0000 </r>
       <r>    5.4192    1.0000 </r>
       <r>    8.8470    0.0000 </r>
       <r>    9.1948    0.0000 </r>
       <r>    9.4990    0.0000 </r>
       <r>   11.5701    0.0000 </r>
      </set>
      <set comment="kpoint 76">
       <r>   -4.8812    1.0000 </r>
       <r>    1.2102    1.0000 </r>
       <r>    3.5289    1.0000 </r>
       <r>    5.0701    1.0000 </r>
       <r>    8.5817    0.0000 </r>
       <r>    9.5499    0.0000 </r>
       <r>    9.7361    0.0000 </r>
       <r>   12.1723    0.0000 </r>
      </set>
      <set comment="kpoint 77">
       <r>   -4.2621    1.0000 </r>
       <r>   -0.0359    1.0000 </r>
       <r>    3.3872    1.0000 </r>
       <r>    4.7253    1.0000 </r>
       <r>    8.3275    0.0000 </r>
       <r>    9.5925    0.0000 </r>
       <r>    9.7071    0.0000 </r>
       <r>   13.2536    0.0000 </r>
      </set>
      <set comment="kpoint 78">
       <r>   -3.7147    1.0000 </r>
       <r>   -0.9107    1.0000 </r>
       <r>    3.4048    1.0000 </r>
       <r>    4.4494    1.0000 </r>
       <r>    8.1423    0.0000 </r>
       <r>    9.4340    0.0000 </r>
       <r>    9.8132    0.0000 </r>
       <r>   14.1147    0.0000 </r>
      </set>
      <set comment="kpoint 79">
       <r>   -3.7119    1.0000 </r>
       <r>   -0.9162    1.0000 </r>
       <r>    3.5594    1.0000 </r>
       <r>    4.2774    1.0000 </r>
       <r>    8.0560    0.0000 </r>
       <r>    9.3903    0.0000 </r>
       <r>    9.9892    0.0000 </r>
       <r>   13.2638    0.0000 </r>
      </set>
      <set comment="kpoint 80">
       <r>   -4.2575    1.0000 </r>
       <r>   -0.0470    1.0000 </r>
       <r>    3.8328    1.0000 </r>
       <r>    4.2287    1.0000 </r>
       <r>    8.0777    0.0000 </r>
       <r>    9.4593    0.0000 </r>
       <r>   10.2351    0.0000 </r>
       <r>   11.9271    0.0000 </r>
      </set>
      <set comment="kpoint 81">
       <r>   -4.8771    1.0000 </r>
       <r>    1.2054    1.0000 </r>
       <r>    4.1985    1.0000 </r>
       <r>    4.3122    1.0000 </r>
       <r>    8.1330    0.0000 </r>
       <r>    9.5518    0.0000 </r>
       <r>   10.4261    0.0000 </r>
       <r>   10.9339    0.0000 </r>
      </set>
      <set comment="kpoint 82">
       <r>   -5.3903    1.0000 </r>
       <r>    2.6140    1.0000 </r>
       <r>    4.5261    1.0000 </r>
       <r>    4.6021    1.0000 </r>
       <r>    8.0112    0.0000 </r>
       <r>    9.5705    0.0000 </r>
       <r>   10.3474    0.0000 </r>
       <r>   10.6425    0.0000 </r>
      </set>
      <set comment="kpoint 83">
       <r>   -5.6284    1.0000 </r>
       <r>    3.1650    1.0000 </r>
       <r>    4.8846    1.0000 </r>
       <r>    5.0948    1.0000 </r>
       <r>    8.2731    0.0000 </r>
       <r>    9.0508    0.0000 </r>
       <r>    9.7841    0.0000 </r>
       <r>   11.1057    0.0000 </r>
      </set>
      <set comment="kpoint 84">
       <r>   -5.3322    1.0000 </r>
       <r>    2.5235    1.0000 </r>
       <r>    3.8933    1.0000 </r>
       <r>    5.0203    1.0000 </r>
       <r>    8.3547    0.0000 </r>
       <r>    9.4050    0.0000 </r>
       <r>   10.2843    0.0000 </r>
       <r>   10.7338    0.0000 </r>
      </set>
      <set comment="kpoint 85">
       <r>   -4.8718    1.0000 </r>
       <r>    1.5465    1.0000 </r>
       <r>    3.1458    1.0000 </r>
       <r>    4.7424    1.0000 </r>
       <r>    8.7634    0.0000 </r>
       <r>    9.3550    0.0000 </r>
       <r>   10.5761    0.0000 </r>
       <r>   10.8601    0.0000 </r>
      </set>
      <set comment="kpoint 86">
       <r>   -4.2802    1.0000 </r>
       <r>    0.3734    1.0000 </r>
       <r>    2.8288    1.0000 </r>
       <r>    4.3847    1.0000 </r>
       <r>    8.8670    0.0000 </r>
       <r>    9.1793    0.0000 </r>
       <r>   10.9665    0.0000 </r>
       <r>   11.3520    0.0000 </r>
      </set>
      <set comment="kpoint 87">
       <r>   -3.6698    1.0000 </r>
       <r>   -0.6235    1.0000 </r>
       <r>    2.7386    1.0000 </r>
       <r>    4.0950    1.0000 </r>
       <r>    8.6738    0.0000 </r>
       <r>    9.1254    0.0000 </r>
       <r>   11.0204    0.0000 </r>
       <r>   12.6005    0.0000 </r>
      </set>
      <set comment="kpoint 88">
       <r>   -3.4280    1.0000 </r>
       <r>   -0.9681    1.0000 </r>
       <r>    2.7823    1.0000 </r>
       <r>    3.9536    1.0000 </r>
       <r>    8.4761    0.0000 </r>
       <r>    9.2367    0.0000 </r>
       <r>   11.0478    0.0000 </r>
       <r>   13.1586    0.0000 </r>
      </set>
      <set comment="kpoint 89">
       <r>   -3.8548    1.0000 </r>
       <r>   -0.3445    1.0000 </r>
       <r>    2.9166    1.0000 </r>
       <r>    4.0029    1.0000 </r>
       <r>    8.3726    0.0000 </r>
       <r>    9.4704    0.0000 </r>
       <r>   11.1234    0.0000 </r>
       <r>   11.6630    0.0000 </r>
      </set>
      <set comment="kpoint 90">
       <r>   -4.4829    1.0000 </r>
       <r>    0.7573    1.0000 </r>
       <r>    3.1422    1.0000 </r>
       <r>    4.2323    1.0000 </r>
       <r>    8.3152    0.0000 </r>
       <r>    9.7638    0.0000 </r>
       <r>   10.4686    0.0000 </r>
       <r>   11.2224    0.0000 </r>
      </set>
      <set comment="kpoint 91">
       <r>   -5.0384    1.0000 </r>
       <r>    1.9712    1.0000 </r>
       <r>    3.5315    1.0000 </r>
       <r>    4.5478    1.0000 </r>
       <r>    8.0866    0.0000 </r>
       <r>    9.7725    0.0000 </r>
       <r>   10.2469    0.0000 </r>
       <r>   11.0249    0.0000 </r>
      </set>
      <set comment="kpoint 92">
       <r>   -5.0948    1.0000 </r>
       <r>    2.0592    1.0000 </r>
       <r>    4.0824    1.0000 </r>
       <r>    4.1889    1.0000 </r>
       <r>    7.7256    0.0000 </r>
       <r>    9.7557    0.0000 </r>
       <r>   10.5066    0.0000 </r>
       <r>   10.9372    0.0000 </r>
      </set>
      <set comment="kpoint 93">
       <r>   -4.6894    1.0000 </r>
       <r>    1.4093    1.0000 </r>
       <r>    3.2097    1.0000 </r>
       <r>    4.0741    1.0000 </r>
       <r>    7.8396    0.0000 </r>
       <r>    9.4037    0.0000 </r>
       <r>   10.5899    0.0000 </r>
       <r>   11.7950    0.0000 </r>
      </set>
      <set comment="kpoint 94">
       <r>   -4.1381    1.0000 </r>
       <r>    0.5498    1.0000 </r>
       <r>    2.5743    1.0000 </r>
       <r>    3.7454    1.0000 </r>
       <r>    8.3350    0.0000 </r>
       <r>    9.5479    0.0000 </r>
       <r>   10.2832    0.0000 </r>
       <r>   12.4959    0.0000 </r>
      </set>
      <set comment="kpoint 95">
       <r>   -3.5100    1.0000 </r>
       <r>   -0.3739    1.0000 </r>
       <r>    2.2287    1.0000 </r>
       <r>    3.4676    1.0000 </r>
       <r>    8.5442    0.0000 </r>
       <r>    9.8690    0.0000 </r>
       <r>   10.6451    0.0000 </r>
       <r>   12.6505    0.0000 </r>
      </set>
      <set comment="kpoint 96">
       <r>   -3.0757    1.0000 </r>
       <r>   -0.9449    1.0000 </r>
       <r>    2.0555    1.0000 </r>
       <r>    3.3916    1.0000 </r>
       <r>    8.7199    0.0000 </r>
       <r>    9.5763    0.0000 </r>
       <r>   12.1437    0.0000 </r>
       <r>   12.6179    0.0000 </r>
      </set>
      <set comment="kpoint 97">
       <r>   -3.3302    1.0000 </r>
       <r>   -0.6146    1.0000 </r>
       <r>    2.0288    1.0000 </r>
       <r>    3.5414    1.0000 </r>
       <r>    9.0096    0.0000 </r>
       <r>    9.3667    0.0000 </r>
       <r>   11.5539    0.0000 </r>
       <r>   12.5794    0.0000 </r>
      </set>
      <set comment="kpoint 98">
       <r>   -3.9442    1.0000 </r>
       <r>    0.2376    1.0000 </r>
       <r>    2.2304    1.0000 </r>
       <r>    3.8644    1.0000 </r>
       <r>    9.1420    0.0000 </r>
       <r>    9.4030    0.0000 </r>
       <r>   10.3381    0.0000 </r>
       <r>   12.3799    0.0000 </r>
      </set>
      <set comment="kpoint 99">
       <r>   -4.5302    1.0000 </r>
       <r>    1.0500    1.0000 </r>
       <r>    2.8337    1.0000 </r>
       <r>    4.2445    1.0000 </r>
       <r>    8.5365    0.0000 </r>
       <r>    9.7714    0.0000 </r>
       <r>   10.0336    0.0000 </r>
       <r>   11.6597    0.0000 </r>
      </set>
      <set comment="kpoint 100">
       <r>   -4.3392    1.0000 </r>
       <r>    0.8950    1.0000 </r>
       <r>    3.1672    1.0000 </r>
       <r>    3.6302    1.0000 </r>
       <r>    7.2117    0.0000 </r>
       <r>    8.7676    0.0000 </r>
       <r>   11.8873    0.0000 </r>
       <r>   12.1693    0.0000 </r>
      </set>
      <set comment="kpoint 101">
       <r>   -3.8357    1.0000 </r>
       <r>    0.2318    1.0000 </r>
       <r>    2.7087    1.0000 </r>
       <r>    3.2898    1.0000 </r>
       <r>    7.4671    0.0000 </r>
       <r>    8.4808    0.0000 </r>
       <r>   11.8152    0.0000 </r>
       <r>   13.3966    0.0000 </r>
      </set>
      <set comment="kpoint 102">
       <r>   -3.2206    1.0000 </r>
       <r>   -0.4946    1.0000 </r>
       <r>    2.2274    1.0000 </r>
       <r>    2.9282    1.0000 </r>
       <r>    8.0505    0.0000 </r>
       <r>    8.8584    0.0000 </r>
       <r>   11.4620    0.0000 </r>
       <r>   14.1930    0.0000 </r>
      </set>
      <set comment="kpoint 103">
       <r>   -2.6616    1.0000 </r>
       <r>   -1.0991    1.0000 </r>
       <r>    1.7741    1.0000 </r>
       <r>    2.8765    1.0000 </r>
       <r>    8.2582    0.0000 </r>
       <r>   10.1658    0.0000 </r>
       <r>   11.1577    0.0000 </r>
       <r>   13.3352    0.0000 </r>
      </set>
      <set comment="kpoint 104">
       <r>   -2.7382    1.0000 </r>
       <r>   -1.0105    1.0000 </r>
       <r>    1.5623    1.0000 </r>
       <r>    3.0815    1.0000 </r>
       <r>    8.5444    0.0000 </r>
       <r>   10.6980    0.0000 </r>
       <r>   11.6132    0.0000 </r>
       <r>   12.0896    0.0000 </r>
      </set>
      <set comment="kpoint 105">
       <r>   -3.3216    1.0000 </r>
       <r>   -0.4536    1.0000 </r>
       <r>    1.7817    1.0000 </r>
       <r>    3.4604    1.0000 </r>
       <r>    8.9605    0.0000 </r>
       <r>    9.8788    0.0000 </r>
       <r>   10.9065    0.0000 </r>
       <r>   13.1797    0.0000 </r>
      </set>
      <set comment="kpoint 106">
       <r>   -3.9128    1.0000 </r>
       <r>   -0.0074    1.0000 </r>
       <r>    2.5156    1.0000 </r>
       <r>    3.9102    1.0000 </r>
       <r>    8.7479    0.0000 </r>
       <r>    9.4266    0.0000 </r>
       <r>   10.9026    0.0000 </r>
       <r>   11.8331    0.0000 </r>
      </set>
      <set comment="kpoint 107">
       <r>   -3.3814    1.0000 </r>
       <r>   -0.3581    1.0000 </r>
       <r>    2.5682    1.0000 </r>
       <r>    3.2607    1.0000 </r>
       <r>    6.8624    0.0000 </r>
       <r>    8.0486    0.0000 </r>
       <r>   13.4569    0.0000 </r>
       <r>   13.4965    0.0000 </r>
      </set>
      <set comment="kpoint 108">
       <r>   -2.7997    1.0000 </r>
       <r>   -1.0039    1.0000 </r>
       <r>    2.4220    1.0000 </r>
       <r>    2.8393    1.0000 </r>
       <r>    7.2882    0.0000 </r>
       <r>    7.9160    0.0000 </r>
       <r>   13.1864    0.0000 </r>
       <r>   14.9514    0.0000 </r>
      </set>
      <set comment="kpoint 109">
       <r>   -2.1773    1.0000 </r>
       <r>   -1.5909    1.0000 </r>
       <r>    2.1066    1.0000 </r>
       <r>    2.5236    1.0000 </r>
       <r>    7.9387    0.0000 </r>
       <r>    8.5458    0.0000 </r>
       <r>   12.8319    0.0000 </r>
       <r>   13.5953    0.0000 </r>
      </set>
      <set comment="kpoint 110">
       <r>   -2.3167    1.0000 </r>
       <r>   -1.4072    1.0000 </r>
       <r>    1.6620    1.0000 </r>
       <r>    2.7609    1.0000 </r>
       <r>    8.1991    0.0000 </r>
       <r>   10.1087    0.0000 </r>
       <r>   11.8040    0.0000 </r>
       <r>   12.5775    0.0000 </r>
      </set>
      <set comment="kpoint 111">
       <r>   -2.8568    1.0000 </r>
       <r>   -1.0001    1.0000 </r>
       <r>    1.7500    1.0000 </r>
       <r>    3.1826    1.0000 </r>
       <r>    8.6049    0.0000 </r>
       <r>   10.1345    0.0000 </r>
       <r>   11.9758    0.0000 </r>
       <r>   12.4662    0.0000 </r>
      </set>
      <set comment="kpoint 112">
       <r>   -3.3594    1.0000 </r>
       <r>   -0.8205    1.0000 </r>
       <r>    2.3995    1.0000 </r>
       <r>    3.7071    1.0000 </r>
       <r>    8.8713    0.0000 </r>
       <r>    9.1048    0.0000 </r>
       <r>   11.8047    0.0000 </r>
       <r>   12.3467    0.0000 </r>
      </set>
      <set comment="kpoint 113">
       <r>   -2.2672    1.0000 </r>
       <r>   -1.6174    1.0000 </r>
       <r>    2.3159    1.0000 </r>
       <r>    3.0990    1.0000 </r>
       <r>    6.7017    0.0000 </r>
       <r>    7.7316    0.0000 </r>
       <r>   14.8155    0.0000 </r>
       <r>   15.0516    0.0000 </r>
      </set>
      <set comment="kpoint 114">
       <r>   -2.2302    1.0000 </r>
       <r>   -1.6171    1.0000 </r>
       <r>    2.3635    1.0000 </r>
       <r>    2.7499    1.0000 </r>
       <r>    7.2587    0.0000 </r>
       <r>    7.7898    0.0000 </r>
       <r>   13.9236    0.0000 </r>
       <r>   14.6735    0.0000 </r>
      </set>
      <set comment="kpoint 115">
       <r>   -2.7079    1.0000 </r>
       <r>   -1.0423    1.0000 </r>
       <r>    2.1419    1.0000 </r>
       <r>    2.6644    1.0000 </r>
       <r>    7.9728    0.0000 </r>
       <r>    8.6516    0.0000 </r>
       <r>   12.1252    0.0000 </r>
       <r>   14.3551    0.0000 </r>
      </set>
      <set comment="kpoint 116">
       <r>   -3.0847    1.0000 </r>
       <r>   -0.7369    1.0000 </r>
       <r>    1.9741    1.0000 </r>
       <r>    3.1131    1.0000 </r>
       <r>    8.3761    0.0000 </r>
       <r>   10.2052    0.0000 </r>
       <r>   10.6463    0.0000 </r>
       <r>   13.4758    0.0000 </r>
      </set>
      <set comment="kpoint 117">
       <r>   -2.8379    1.0000 </r>
       <r>   -0.9967    1.0000 </r>
       <r>    2.3997    1.0000 </r>
       <r>    3.1528    1.0000 </r>
       <r>    6.7547    0.0000 </r>
       <r>    7.8397    0.0000 </r>
       <r>   14.1886    0.0000 </r>
       <r>   14.2595    0.0000 </r>
      </set>
      <set comment="kpoint 118">
       <r>   -3.3381    1.0000 </r>
       <r>   -0.3829    1.0000 </r>
       <r>    2.5375    1.0000 </r>
       <r>    3.0193    1.0000 </r>
       <r>    7.3529    0.0000 </r>
       <r>    8.1472    0.0000 </r>
       <r>   12.4840    0.0000 </r>
       <r>   14.2103    0.0000 </r>
      </set>
      <set comment="kpoint 119">
       <r>   -3.6999    1.0000 </r>
       <r>    0.0367    1.0000 </r>
       <r>    2.3711    1.0000 </r>
       <r>    3.2956    1.0000 </r>
       <r>    8.1706    0.0000 </r>
       <r>    9.1565    0.0000 </r>
       <r>   10.8471    0.0000 </r>
       <r>   13.3452    0.0000 </r>
      </set>
      <set comment="kpoint 120">
       <r>   -3.8839    1.0000 </r>
       <r>    0.2767    1.0000 </r>
       <r>    2.8237    1.0000 </r>
       <r>    3.4200    1.0000 </r>
       <r>    7.0141    0.0000 </r>
       <r>    8.3563    0.0000 </r>
       <r>   12.6618    0.0000 </r>
       <r>   12.8201    0.0000 </r>
      </set>
      <set comment="kpoint 121">
       <r>   -4.2876    1.0000 </r>
       <r>    0.8303    1.0000 </r>
       <r>    2.9334    1.0000 </r>
       <r>    3.6458    1.0000 </r>
       <r>    7.6297    0.0000 </r>
       <r>    8.9043    0.0000 </r>
       <r>   11.1818    0.0000 </r>
       <r>   12.5864    0.0000 </r>
      </set>
      <set comment="kpoint 122">
       <r>   -4.7437    1.0000 </r>
       <r>    1.4889    1.0000 </r>
       <r>    3.5934    1.0000 </r>
       <r>    3.8886    1.0000 </r>
       <r>    7.4538    0.0000 </r>
       <r>    9.2637    0.0000 </r>
       <r>   11.1381    0.0000 </r>
       <r>   11.5435    0.0000 </r>
      </set>
      <set comment="kpoint 123">
       <r>   -5.5715    1.0000 </r>
       <r>    2.6736    1.0000 </r>
       <r>    5.2355    1.0000 </r>
       <r>    5.2355    1.0000 </r>
       <r>    8.0456    0.0000 </r>
       <r>    9.2643    0.0000 </r>
       <r>    9.2643    0.0000 </r>
       <r>   12.0511    0.0000 </r>
      </set>
      <set comment="kpoint 124">
       <r>   -5.3366    1.0000 </r>
       <r>    2.1568    1.0000 </r>
       <r>    4.2867    1.0000 </r>
       <r>    5.3308    1.0000 </r>
       <r>    8.4330    0.0000 </r>
       <r>    9.2188    0.0000 </r>
       <r>    9.5749    0.0000 </r>
       <r>   11.9786    0.0000 </r>
      </set>
      <set comment="kpoint 125">
       <r>   -4.9329    1.0000 </r>
       <r>    1.5757    1.0000 </r>
       <r>    3.1188    1.0000 </r>
       <r>    5.1053    1.0000 </r>
       <r>    8.8044    0.0000 </r>
       <r>    9.6738    0.0000 </r>
       <r>    9.9593    0.0000 </r>
       <r>   11.6476    0.0000 </r>
      </set>
      <set comment="kpoint 126">
       <r>   -4.3828    1.0000 </r>
       <r>    0.7012    1.0000 </r>
       <r>    2.4351    1.0000 </r>
       <r>    4.7213    1.0000 </r>
       <r>    8.5225    0.0000 </r>
       <r>   10.2714    0.0000 </r>
[...]
       <r>   -1.0609    1.0000 </r>
       <r>    1.7051    1.0000 </r>
       <r>    3.2950    1.0000 </r>
       <r>    7.8571    0.0000 </r>
       <r>   10.8465    0.0000 </r>
       <r>   11.3486    0.0000 </r>
       <r>   13.2552    0.0000 </r>
      </set>
      <set comment="kpoint 172">
       <r>   -2.6391    1.0000 </r>
       <r>   -1.1651    1.0000 </r>
       <r>    1.4609    1.0000 </r>
       <r>    3.5664    1.0000 </r>
       <r>    7.2469    0.0000 </r>
       <r>   10.8731    0.0000 </r>
       <r>   12.7559    0.0000 </r>
       <r>   13.1298    0.0000 </r>
      </set>
      <set comment="kpoint 173">
       <r>   -4.4374    1.0000 </r>
       <r>   -0.1136    1.0000 </r>
       <r>    4.7558    1.0000 </r>
       <r>    4.7558    1.0000 </r>
       <r>    7.5227    0.0000 </r>
       <r>    9.3342    0.0000 </r>
       <r>    9.3342    0.0000 </r>
       <r>   13.7329    0.0000 </r>
      </set>
      <set comment="kpoint 174">
       <r>   -4.1518    1.0000 </r>
       <r>   -0.4325    1.0000 </r>
       <r>    3.9607    1.0000 </r>
       <r>    4.7182    1.0000 </r>
       <r>    7.9900    0.0000 </r>
       <r>    9.3646    0.0000 </r>
       <r>    9.4468    0.0000 </r>
       <r>   13.7312    0.0000 </r>
      </set>
      <set comment="kpoint 175">
       <r>   -3.7314    1.0000 </r>
       <r>   -0.6332    1.0000 </r>
       <r>    2.7975    1.0000 </r>
       <r>    4.3843    1.0000 </r>
       <r>    8.1737    0.0000 </r>
       <r>    9.9623    0.0000 </r>
       <r>   10.1975    0.0000 </r>
       <r>   13.8250    0.0000 </r>
      </set>
      <set comment="kpoint 176">
       <r>   -3.2075    1.0000 </r>
       <r>   -0.8080    1.0000 </r>
       <r>    1.8426    1.0000 </r>
       <r>    3.9538    1.0000 </r>
       <r>    7.7119    0.0000 </r>
       <r>   11.3567    0.0000 </r>
       <r>   11.3748    0.0000 </r>
       <r>   12.8550    0.0000 </r>
      </set>
      <set comment="kpoint 177">
       <r>   -3.9621    1.0000 </r>
       <r>   -0.7356    1.0000 </r>
       <r>    4.1487    1.0000 </r>
       <r>    4.4339    1.0000 </r>
       <r>    7.9361    0.0000 </r>
       <r>    9.1323    0.0000 </r>
       <r>    9.6736    0.0000 </r>
       <r>   13.4502    0.0000 </r>
      </set>
      <set comment="kpoint 178">
       <r>   -3.6536    1.0000 </r>
       <r>   -0.8897    1.0000 </r>
       <r>    3.2492    1.0000 </r>
       <r>    4.2165    1.0000 </r>
       <r>    8.4538    0.0000 </r>
       <r>    9.0184    0.0000 </r>
       <r>   10.3939    0.0000 </r>
       <r>   13.3628    0.0000 </r>
      </set>
      <set comment="kpoint 179">
       <r>   -3.2543    1.0000 </r>
       <r>   -0.9348    1.0000 </r>
       <r>    2.2893    1.0000 </r>
       <r>    3.7599    1.0000 </r>
       <r>    8.3508    0.0000 </r>
       <r>    9.7089    0.0000 </r>
       <r>   11.7459    0.0000 </r>
       <r>   12.9698    0.0000 </r>
      </set>
      <set comment="kpoint 180">
       <r>   -3.4869    1.0000 </r>
       <r>   -0.9870    1.0000 </r>
       <r>    2.9367    1.0000 </r>
       <r>    4.1401    1.0000 </r>
       <r>    7.9642    0.0000 </r>
       <r>    9.9543    0.0000 </r>
       <r>   10.3917    0.0000 </r>
       <r>   13.0897    0.0000 </r>
      </set>
      <set comment="kpoint 181">
       <r>   -3.8937    1.0000 </r>
       <r>   -0.9999    1.0000 </r>
       <r>    4.6533    1.0000 </r>
       <r>    4.6533    1.0000 </r>
       <r>    7.4072    0.0000 </r>
       <r>    9.2292    0.0000 </r>
       <r>    9.2292    0.0000 </r>
       <r>   13.5991    0.0000 </r>
      </set>
      <set comment="kpoint 182">
       <r>   -3.7286    1.0000 </r>
       <r>   -1.0806    1.0000 </r>
       <r>    3.9962    1.0000 </r>
       <r>    4.5229    1.0000 </r>
       <r>    7.9089    0.0000 </r>
       <r>    9.1889    0.0000 </r>
       <r>    9.5129    0.0000 </r>
       <r>   13.8946    0.0000 </r>
      </set>
     </set>
    </set>
   </array>
  </eigenvalues>
  <separator name="orbital magnetization" >
   <v name="MAGDIPOLOUT">      0.00000000      0.00000000      0.00000000</v>
  </separator>
  <dos>
   <i name="efermi">      6.14626323 </i>
   <total>
    <array>
     <dimension dim="1">gridpoints</dimension>
     <dimension dim="2">spin</dimension>
     <field>energy</field>
     <field>total</field>
     <field>integrated</field>
     <set>
      <set comment="spin 1">
       <r>    -8.1094     0.0000     0.0000 </r>
       <r>    -8.0233     0.0000     0.0000 </r>
       <r>    -7.9371     0.0000     0.0000 </r>
       <r>    -7.8510     0.0000     0.0000 </r>
       <r>    -7.7648     0.0000     0.0000 </r>
       <r>    -7.6787     0.0000     0.0000 </r>
       <r>    -7.5925     0.0000     0.0000 </r>
       <r>    -7.5064     0.0000     0.0000 </r>
       <r>    -7.4202     0.0000     0.0000 </r>
       <r>    -7.3341     0.0000     0.0000 </r>
       <r>    -7.2479     0.0000     0.0000 </r>
       <r>    -7.1618     0.0000     0.0000 </r>
       <r>    -7.0756     0.0000     0.0000 </r>
       <r>    -6.9894     0.0000     0.0000 </r>
       <r>    -6.9033     0.0000     0.0000 </r>
       <r>    -6.8171     0.0000     0.0000 </r>
       <r>    -6.7310     0.0000     0.0000 </r>
       <r>    -6.6448     0.0000     0.0000 </r>
       <r>    -6.5587     0.0000     0.0000 </r>
       <r>    -6.4725     0.0002     0.0000 </r>
       <r>    -6.3864     0.0014     0.0001 </r>
       <r>    -6.3002     0.0055     0.0006 </r>
       <r>    -6.2141     0.0169     0.0021 </r>
       <r>    -6.1279     0.0396     0.0055 </r>
       <r>    -6.0418     0.0737     0.0118 </r>
       <r>    -5.9556     0.1136     0.0216 </r>
       <r>    -5.8695     0.1523     0.0347 </r>
       <r>    -5.7833     0.1862     0.0508 </r>
       <r>    -5.6972     0.2151     0.0693 </r>
       <r>    -5.6110     0.2404     0.0900 </r>
       <r>    -5.5249     0.2640     0.1128 </r>
       <r>    -5.4387     0.2861     0.1374 </r>
       <r>    -5.3526     0.3058     0.1638 </r>
       <r>    -5.2664     0.3251     0.1918 </r>
       <r>    -5.1803     0.3465     0.2216 </r>
       <r>    -5.0941     0.3665     0.2532 </r>
       <r>    -5.0080     0.3820     0.2861 </r>
       <r>    -4.9218     0.3986     0.3204 </r>
       <r>    -4.8357     0.4211     0.3567 </r>
       <r>    -4.7495     0.4441     0.3950 </r>
       <r>    -4.6634     0.4609     0.4347 </r>
       <r>    -4.5772     0.4739     0.4755 </r>
       <r>    -4.4911     0.4924     0.5179 </r>
       <r>    -4.4049     0.5220     0.5629 </r>
       <r>    -4.3188     0.5538     0.6106 </r>
       <r>    -4.2326     0.5748     0.6601 </r>
       <r>    -4.1465     0.5905     0.7110 </r>
       <r>    -4.0603     0.6210     0.7645 </r>
       <r>    -3.9742     0.6736     0.8225 </r>
       <r>    -3.8880     0.7360     0.8860 </r>
       <r>    -3.8019     0.7901     0.9540 </r>
       <r>    -3.7157     0.8192     1.0246 </r>
       <r>    -3.6296     0.8179     1.0951 </r>
       <r>    -3.5434     0.8037     1.1643 </r>
       <r>    -3.4573     0.7954     1.2328 </r>
       <r>    -3.3711     0.7869     1.3006 </r>
       <r>    -3.2850     0.7665     1.3667 </r>
       <r>    -3.1988     0.7319     1.4297 </r>
       <r>    -3.1127     0.6802     1.4883 </r>
       <r>    -3.0265     0.6217     1.5419 </r>
       <r>    -2.9404     0.5912     1.5928 </r>
       <r>    -2.8542     0.6031     1.6448 </r>
       <r>    -2.7681     0.6165     1.6979 </r>
       <r>    -2.6819     0.5799     1.7478 </r>
       <r>    -2.5958     0.4940     1.7904 </r>
       <r>    -2.5096     0.4080     1.8255 </r>
       <r>    -2.4235     0.3695     1.8574 </r>
       <r>    -2.3373     0.3806     1.8902 </r>
       <r>    -2.2512     0.3933     1.9240 </r>
       <r>    -2.1650     0.3561     1.9547 </r>
       <r>    -2.0789     0.2645     1.9775 </r>
       <r>    -1.9927     0.1592     1.9912 </r>
       <r>    -1.9066     0.0875     1.9988 </r>
       <r>    -1.8204     0.0793     2.0056 </r>
       <r>    -1.7343     0.1417     2.0178 </r>
       <r>    -1.6481     0.2476     2.0391 </r>
       <r>    -1.5620     0.3352     2.0680 </r>
       <r>    -1.4758     0.3574     2.0988 </r>
       <r>    -1.3897     0.3371     2.1278 </r>
       <r>    -1.3035     0.3527     2.1582 </r>
       <r>    -1.2174     0.4783     2.1994 </r>
       <r>    -1.1312     0.7295     2.2623 </r>
       <r>    -1.0451     1.0244     2.3505 </r>
       <r>    -0.9589     1.2171     2.4554 </r>
       <r>    -0.8728     1.2231     2.5607 </r>
       <r>    -0.7866     1.0949     2.6551 </r>
       <r>    -0.7005     0.9439     2.7364 </r>
       <r>    -0.6143     0.8306     2.8079 </r>
       <r>    -0.5282     0.7625     2.8736 </r>
       <r>    -0.4420     0.7305     2.9366 </r>
       <r>    -0.3559     0.6989     2.9968 </r>
       <r>    -0.2697     0.6309     3.0511 </r>
       <r>    -0.1836     0.5504     3.0986 </r>
       <r>    -0.0974     0.5061     3.1422 </r>
       <r>    -0.0113     0.4870     3.1841 </r>
       <r>     0.0749     0.4534     3.2232 </r>
       <r>     0.1610     0.4209     3.2594 </r>
       <r>     0.2472     0.4283     3.2963 </r>
       <r>     0.3333     0.4505     3.3351 </r>
       <r>     0.4195     0.4261     3.3718 </r>
       <r>     0.5057     0.3574     3.4026 </r>
       <r>     0.5918     0.3099     3.4293 </r>
       <r>     0.6780     0.3156     3.4565 </r>
       <r>     0.7641     0.3330     3.4852 </r>
       <r>     0.8503     0.3147     3.5123 </r>
       <r>     0.9364     0.2743     3.5359 </r>
       <r>     1.0226     0.2608     3.5584 </r>
       <r>     1.1087     0.2834     3.5828 </r>
       <r>     1.1949     0.3013     3.6088 </r>
       <r>     1.2810     0.2941     3.6341 </r>
       <r>     1.3672     0.3062     3.6605 </r>
       <r>     1.4533     0.4001     3.6950 </r>
       <r>     1.5395     0.5855     3.7454 </r>
       <r>     1.6256     0.8088     3.8151 </r>
       <r>     1.7118     0.9887     3.9003 </r>
       <r>     1.7979     1.0704     3.9925 </r>
       <r>     1.8841     1.0736     4.0850 </r>
       <r>     1.9702     1.0646     4.1767 </r>
       <r>     2.0564     1.0731     4.2691 </r>
       <r>     2.1425     1.0719     4.3615 </r>
       <r>     2.2287     1.0390     4.4510 </r>
       <r>     2.3148     1.0026     4.5374 </r>
       <r>     2.4010     1.0089     4.6243 </r>
       <r>     2.4871     1.0634     4.7159 </r>
       <r>     2.5733     1.1236     4.8127 </r>
       <r>     2.6594     1.1555     4.9123 </r>
       <r>     2.7456     1.1729     5.0133 </r>
       <r>     2.8317     1.2091     5.1175 </r>
       <r>     2.9179     1.2786     5.2276 </r>
       <r>     3.0040     1.3726     5.3459 </r>
       <r>     3.0902     1.4585     5.4715 </r>
       <r>     3.1763     1.4958     5.6004 </r>
       <r>     3.2625     1.4732     5.7273 </r>
       <r>     3.3486     1.4232     5.8499 </r>
       <r>     3.4348     1.3925     5.9699 </r>
       <r>     3.5209     1.3958     6.0901 </r>
       <r>     3.6071     1.4013     6.2108 </r>
       <r>     3.6932     1.3724     6.3291 </r>
       <r>     3.7794     1.3201     6.4428 </r>
       <r>     3.8655     1.2859     6.5536 </r>
       <r>     3.9517     1.2783     6.6637 </r>
       <r>     4.0378     1.2689     6.7730 </r>
       <r>     4.1240     1.2446     6.8803 </r>
       <r>     4.2101     1.2196     6.9853 </r>
       <r>     4.2963     1.2008     7.0888 </r>
       <r>     4.3824     1.1772     7.1902 </r>
       <r>     4.4686     1.1354     7.2880 </r>
       <r>     4.5547     1.0777     7.3808 </r>
       <r>     4.6409     1.0158     7.4684 </r>
       <r>     4.7270     0.9410     7.5494 </r>
       <r>     4.8132     0.8321     7.6211 </r>
       <r>     4.8993     0.7032     7.6817 </r>
       <r>     4.9855     0.5978     7.7332 </r>
       <r>     5.0716     0.5326     7.7791 </r>
       <r>     5.1578     0.4851     7.8209 </r>
       <r>     5.2439     0.4314     7.8580 </r>
       <r>     5.3301     0.3705     7.8900 </r>
       <r>     5.4162     0.3148     7.9171 </r>
       <r>     5.5024     0.2694     7.9403 </r>
       <r>     5.5885     0.2278     7.9599 </r>
       <r>     5.6747     0.1820     7.9756 </r>
       <r>     5.7608     0.1312     7.9869 </r>
       <r>     5.8470     0.0823     7.9940 </r>
       <r>     5.9331     0.0434     7.9977 </r>
       <r>     6.0193     0.0186     7.9993 </r>
       <r>     6.1054     0.0064     7.9999 </r>
       <r>     6.1916     0.0033     8.0002 </r>
       <r>     6.2777     0.0078     8.0008 </r>
       <r>     6.3639     0.0235     8.0029 </r>
       <r>     6.4500     0.0547     8.0076 </r>
       <r>     6.5362     0.1014     8.0163 </r>
       <r>     6.6223     0.1617     8.0302 </r>
       <r>     6.7085     0.2335     8.0503 </r>
       <r>     6.7946     0.3067     8.0768 </r>
       <r>     6.8808     0.3642     8.1081 </r>
       <r>     6.9669     0.4005     8.1426 </r>
       <r>     7.0531     0.4312     8.1798 </r>
       <r>     7.1392     0.4816     8.2213 </r>
       <r>     7.2254     0.5573     8.2693 </r>
       <r>     7.3115     0.6295     8.3235 </r>
       <r>     7.3977     0.6758     8.3817 </r>
       <r>     7.4838     0.7166     8.4435 </r>
       <r>     7.5700     0.7785     8.5105 </r>
       <r>     7.6561     0.8597     8.5846 </r>
       <r>     7.7423     0.9541     8.6668 </r>
       <r>     7.8284     1.0653     8.7586 </r>
       <r>     7.9146     1.1908     8.8612 </r>
       <r>     8.0008     1.3231     8.9752 </r>
       <r>     8.0869     1.4422     9.0994 </r>
       <r>     8.1731     1.5043     9.2290 </r>
       <r>     8.2592     1.4924     9.3576 </r>
       <r>     8.3454     1.4507     9.4825 </r>
       <r>     8.4315     1.4168     9.6046 </r>
       <r>     8.5177     1.3722     9.7228 </r>
       <r>     8.6038     1.2955     9.8344 </r>
       <r>     8.6900     1.2099     9.9387 </r>
       <r>     8.7761     1.1523    10.0379 </r>
       <r>     8.8623     1.1407    10.1362 </r>
       <r>     8.9484     1.1941    10.2391 </r>
       <r>     9.0346     1.3409    10.3546 </r>
       <r>     9.1207     1.5671    10.4896 </r>
       <r>     9.2069     1.7859    10.6434 </r>
       <r>     9.2930     1.9038    10.8075 </r>
       <r>     9.3792     1.8983    10.9710 </r>
       <r>     9.4653     1.8078    11.1267 </r>
       <r>     9.5515     1.6876    11.2721 </r>
       <r>     9.6376     1.5853    11.4087 </r>
       <r>     9.7238     1.5154    11.5393 </r>
       <r>     9.8099     1.4542    11.6645 </r>
       <r>     9.8961     1.3823    11.7836 </r>
       <r>     9.9822     1.3161    11.8970 </r>
       <r>    10.0684     1.2777    12.0071 </r>
       <r>    10.1545     1.2623    12.1158 </r>
       <r>    10.2407     1.2505    12.2236 </r>
       <r>    10.3268     1.2358    12.3300 </r>
       <r>    10.4130     1.2344    12.4364 </r>
       <r>    10.4991     1.2521    12.5442 </r>
       <r>    10.5853     1.2624    12.6530 </r>
       <r>    10.6714     1.2482    12.7605 </r>
       <r>    10.7576     1.2308    12.8666 </r>
       <r>    10.8437     1.2309    12.9726 </r>
       <r>    10.9299     1.2340    13.0789 </r>
       <r>    11.0160     1.2254    13.1845 </r>
       <r>    11.1022     1.2207    13.2896 </r>
       <r>    11.1883     1.2189    13.3946 </r>
       <r>    11.2745     1.1807    13.4964 </r>
       <r>    11.3606     1.1024    13.5913 </r>
       <r>    11.4468     1.0461    13.6815 </r>
       <r>    11.5329     1.0534    13.7722 </r>
       <r>    11.6191     1.0870    13.8659 </r>
       <r>    11.7052     1.1004    13.9607 </r>
       <r>    11.7914     1.1017    14.0556 </r>
       <r>    11.8775     1.1037    14.1506 </r>
       <r>    11.9637     1.0828    14.2439 </r>
       <r>    12.0498     1.0244    14.3322 </r>
       <r>    12.1360     0.9484    14.4139 </r>
       <r>    12.2221     0.8797    14.4897 </r>
       <r>    12.3083     0.8391    14.5620 </r>
       <r>    12.3944     0.8491    14.6351 </r>
       <r>    12.4806     0.9091    14.7134 </r>
       <r>    12.5667     0.9743    14.7974 </r>
       <r>    12.6529     0.9915    14.8828 </r>
       <r>    12.7390     0.9440    14.9641 </r>
       <r>    12.8252     0.8452    15.0369 </r>
       <r>    12.9113     0.7179    15.0988 </r>
       <r>    12.9975     0.6063    15.1510 </r>
       <r>    13.0836     0.5673    15.1999 </r>
       <r>    13.1698     0.6105    15.2525 </r>
       <r>    13.2559     0.6835    15.3114 </r>
       <r>    13.3421     0.7307    15.3743 </r>
       <r>    13.4282     0.7321    15.4374 </r>
       <r>    13.5144     0.6890    15.4967 </r>
       <r>    13.6005     0.6118    15.5495 </r>
       <r>    13.6867     0.5235    15.5946 </r>
       <r>    13.7728     0.4488    15.6332 </r>
       <r>    13.8590     0.3957    15.6673 </r>
       <r>    13.9451     0.3612    15.6984 </r>
       <r>    14.0313     0.3537    15.7289 </r>
       <r>    14.1174     0.3824    15.7618 </r>
       <r>    14.2036     0.4131    15.7974 </r>
       <r>    14.2897     0.3830    15.8304 </r>
       <r>    14.3759     0.2821    15.8547 </r>
       <r>    14.4620     0.1712    15.8695 </r>
       <r>    14.5482     0.1086    15.8788 </r>
       <r>    14.6343     0.0987    15.8873 </r>
       <r>    14.7205     0.1125    15.8970 </r>
       <r>    14.8066     0.1334    15.9085 </r>
       <r>    14.8928     0.1625    15.9225 </r>
       <r>    14.9789     0.1861    15.9386 </r>
       <r>    15.0651     0.1745    15.9536 </r>
       <r>    15.1512     0.1237    15.9642 </r>
       <r>    15.2374     0.0667    15.9700 </r>
       <r>    15.3236     0.0349    15.9730 </r>
       <r>    15.4097     0.0325    15.9758 </r>
       <r>    15.4959     0.0452    15.9797 </r>
       <r>    15.5820     0.0569    15.9846 </r>
       <r>    15.6682     0.0595    15.9897 </r>
       <r>    15.7543     0.0519    15.9942 </r>
       <r>    15.8405     0.0367    15.9973 </r>
       <r>    15.9266     0.0199    15.9991 </r>
       <r>    16.0128     0.0080    15.9998 </r>
       <r>    16.0989     0.0023    16.0000 </r>
       <r>    16.1851     0.0005    16.0000 </r>
       <r>    16.2712     0.0001    16.0000 </r>
       <r>    16.3574     0.0000    16.0000 </r>
       <r>    16.4435     0.0000    16.0000 </r>
       <r>    16.5297     0.0000    16.0000 </r>
       <r>    16.6158     0.0000    16.0000 </r>
       <r>    16.7020     0.0000    16.0000 </r>
       <r>    16.7881     0.0000    16.0000 </r>
       <r>    16.8743     0.0000    16.0000 </r>
       <r>    16.9604     0.0000    16.0000 </r>
       <r>    17.0466     0.0000    16.0000 </r>
       <r>    17.1327     0.0000    16.0000 </r>
       <r>    17.2189     0.0000    16.0000 </r>
       <r>    17.3050     0.0000    16.0000 </r>
       <r>    17.3912     0.0000    16.0000 </r>
       <r>    17.4773     0.0000    16.0000 </r>
       <r>    17.5635     0.0000    16.0000 </r>
       <r>    17.6496     0.0000    16.0000 </r>
       <r>    17.7358     0.0000    16.0000 </r>
      </set>
     </set>
    </array>
   </total>
  </dos>
 </calculation>
 <structure name="finalpos" >
  <crystal>
   <varray name="basis" >
    <v>       0.00000000       2.71500000       2.71500000 </v>
    <v>       2.71500000       0.00000000       2.71500000 </v>
    <v>       2.71500000       2.71500000       0.00000000 </v>
   </varray>
   <i name="volume">     40.02575175 </i>
   <varray name="rec_basis" >
    <v>      -0.18416206       0.18416206       0.18416206 </v>
    <v>       0.18416206      -0.18416206       0.18416206 </v>
    <v>       0.18416206       0.18416206      -0.18416206 </v>
   </varray>
  </crystal>
  <varray name="positions" >
   <v>       0.50000000       0.50000000       0.50000000 </v>
   <v>       0.75000000       0.75000000       0.75000000 </v>
  </varray>
 </structure>
</modeling>
