unknown system                          
   1.00000000000000     
    -2.429725    2.429725    1.306149
     2.429725   -2.429725    1.306149
     2.429725    2.429725   -1.306149
   Si
     2
Direct
  0.250000  0.750000  0.500000
  0.000000  0.000000  0.000000
 
   24   24   24
 -5.5648     -3.5437      1.4890      7.0920      10.893      11.868      10.617      8.5862      6.7065      5.2515    
  4.2785      3.7385      3.5674      3.7385      4.2785      5.2514      6.7065      8.5863      10.616      11.868    
  10.893      7.0921      1.4889     -3.5439     -3.5439     -4.5800     -1.7894      3.3932      8.4795      11.416    
  11.634      10.030      8.0077      6.2393      4.9234      4.0788      3.6459      3.5674      3.8295      4.4706    
  5.5568      7.1213      9.0684      11.046      11.953      10.451      6.2765     0.79343      1.4889     -1.7896    
 -1.8636      1.2911      6.0183      10.035      11.788      11.188      9.3300      7.3777      5.7565      4.5971    
  3.8857      3.5582      3.5673      3.9125      4.6404      5.8141      7.4484      9.4148      11.303      11.969    
  10.279      6.2765      7.0921      3.3931      1.2909      1.9438      4.9747      8.7266      11.333      11.824    
  10.530      8.5750      6.7420      5.2923      4.2946      3.7115      3.4808      3.5672      3.9813      4.7736    
  6.0005      7.6579      9.5959      11.388      11.969      10.451      10.893      8.4795      6.0182      4.9746    
  5.9949      8.4636      10.928      12.061      11.459      9.7325      7.8175      6.1435      4.8758      4.0337    
  3.5664      3.4186      3.5670      4.0304      4.8587      6.0984      7.7302      9.5959      11.303      11.953    
  11.868      11.416      10.035      8.7265      8.4636      9.4852      11.115      12.248      12.117      10.769    
  8.9099      7.1107      5.6199      4.5303      3.8277      3.4577      3.3751      3.5669      4.0560      4.8880    
  6.0984      7.6579      9.4148      11.046      10.616      11.634      11.788      11.333      10.928      11.115    
  11.872      12.608      12.619      11.622      9.9479      8.1406      6.5043      5.2015      4.2726      3.6857    
  3.3906      3.3527      3.5669      4.0560      4.8587      6.0005      7.4484      9.0684      8.5863      10.030    
  11.188      11.824      12.061      12.248      12.608      12.993      12.986      12.256      10.859      9.1698    
  7.4935      6.0400      4.9105      4.1138      3.6134      3.3679      3.3527      3.5669      4.0304      4.7736    
  5.8141      7.1213      6.7065      8.0078      9.3300      10.530      11.459      12.117      12.619      12.986    
  13.054      12.594      11.552      10.118      8.5347      7.0271      5.7490      4.7616      4.0602      3.6134    
  3.3906      3.3751      3.5670      3.9813      4.6404      5.5568      5.2514      6.2393      7.3778      8.5751    
  9.7326      10.769      11.622      12.256      12.595      12.508      11.919      10.881      9.5473      8.1203    
  6.7832      5.6499      4.7616      4.1138      3.6857      3.4577      3.4186      3.5672      3.9125      4.4706    
  4.2785      4.9233      5.7565      6.7420      7.8176      8.9100      9.9479      10.858      11.552      11.919    
  11.861      11.340      10.418      9.2376      7.9764      6.7832      5.7490      4.9105      4.2726      3.8277    
  3.5664      3.4808      3.5673      3.8295      3.7385      4.0788      4.5971      5.2922      6.1436      7.1109    
  8.1407      9.1698      10.118      10.882      11.340      11.395      11.014      10.252      9.2376      8.1203    
  7.0271      6.0400      5.2015      4.5303      4.0337      3.7115      3.5582      3.5674      3.5674      3.6460    
  3.8858      4.2947      4.8757      5.6199      6.5044      7.4936      8.5347      9.5473      10.418      11.014    
  11.227      11.014      10.418      9.5473      8.5347      7.4935      6.5043      5.6199      4.8758      4.2946    
  3.8857      3.6459      3.7385      3.5674      3.5583      3.7117      4.0338      4.5302      5.2014      6.0401    
  7.0272      8.1203      9.2375      10.252      11.014      11.395      11.340      10.881      10.118      9.1698    
  8.1406      7.1107      6.1435      5.2923      4.5971      4.0788      4.2785      3.8295      3.5673      3.4809    
  3.5666      3.8278      4.2725      4.9105      5.7490      6.7833      7.9765      9.2375      10.418      11.340    
  11.861      11.919      11.552      10.859      9.9479      8.9099      7.8175      6.7420      5.7565      4.9234    
  5.2515      4.4707      3.9126      3.5672      3.4187      3.4579      3.6858      4.1138      4.7615      5.6499    
  6.7833      8.1203      9.5473      10.882      11.919      12.508      12.594      12.256      11.622      10.769    
  9.7325      8.5750      7.3777      6.2393      6.7065      5.5569      4.6406      3.9814      3.5671      3.3752    
  3.3908      3.6136      4.0602      4.7615      5.7490      7.0272      8.5347      10.118      11.552      12.595    
  13.054      12.986      12.619      12.117      11.459      10.530      9.3300      8.0077      8.5862      7.1212    
  5.8142      4.7739      4.0306      3.5669      3.3528      3.3681      3.6136      4.1138      4.9105      6.0401    
  7.4936      9.1698      10.858      12.256      12.986      12.993      12.608      12.248      12.061      11.824    
  11.188      10.030      10.617      9.0684      7.4483      6.0006      4.8591      4.0562      3.5669      3.3528    
  3.3908      3.6858      4.2725      5.2014      6.5044      8.1407      9.9479      11.622      12.619      12.608    
  11.872      11.115      10.928      11.333      11.788      11.634      11.868      11.046      9.4148      7.6579    
  6.0986      4.8884      4.0562      3.5669      3.3752      3.4579      3.8278      4.5302      5.6199      7.1109    
  8.9100      10.769      12.117      12.248      11.115      9.4852      8.4636      8.7266      10.035      11.416    
  10.893      11.953      11.304      9.5960      7.7301      6.0986      4.8591      4.0306      3.5671      3.4187    
  3.5666      4.0338      4.8757      6.1436      7.8176      9.7326      11.459      12.061      10.928      8.4636    
  5.9949      4.9747      6.0183      8.4795      7.0920      10.451      11.969      11.389      9.5960      7.6579    
  6.0006      4.7739      3.9814      3.5672      3.4809      3.7117      4.2947      5.2922      6.7420      8.5751    
  10.530      11.824      11.333      8.7265      4.9746      1.9438      1.2911      3.3932      1.4890      6.2765    
  10.279      11.969      11.304      9.4148      7.4483      5.8142      4.6406      3.9126      3.5673      3.5583    
  3.8858      4.5971      5.7565      7.3778      9.3300      11.188      11.788      10.035      6.0182      1.2909    
 -1.8636     -1.7894     -3.5437     0.79358      6.2765      10.451      11.953      11.046      9.0684      7.1212    
  5.5569      4.4707      3.8295      3.5674      3.6460      4.0788      4.9233      6.2393      8.0078      10.030    
  11.634      11.416      8.4795      3.3931     -1.7896     -4.5800     -3.5435     -2.1075      2.2160      7.2680    
  10.800      11.733      10.523      8.5143      6.6302      5.1524      4.1467      3.5686      3.3528      3.4671    
  3.9306      4.8032      6.1405      7.9121      9.9055      11.410      11.068      8.1312      3.3053     -1.3550    
 -2.1077     -3.5435     -1.3548      3.3055      8.1312      11.068      11.410      9.9056      7.9122      6.1405    
  4.8033      3.9306      3.4671      3.3528      3.5685      4.1466      5.1523      6.6302      8.5143      10.523    
  11.733      10.800      7.2680      2.2158      2.3592     -1.1987     -1.7892     0.86200      5.3198      9.3634    
  11.330      10.950      9.1993      7.2749      5.6494      4.4714      3.7386      3.3900      3.3751      3.6883    
  4.3724      5.4940      7.0819      9.0365      11.013      11.973      10.712      7.0680      7.6248      3.7151    
  1.1526      1.2912      3.9913      7.7251      10.575      11.393      10.331      8.4572      6.6455      5.1896    
  4.1776      3.5820      3.3419      3.4185      3.8186      4.5921      5.8014      7.4582      9.4356      11.352    
  12.175      10.906      11.356      8.7961      5.9402      4.3776      4.9748      7.3005      9.9337      11.416    
  11.143      9.5882      7.7249      6.0623      4.7878      3.9380      3.4692      3.3256      3.4806      3.9510    
  4.7887      6.0485      7.7251      9.6753      11.522      12.341      12.421      11.914      10.250      8.4777    
  7.7356      8.4636      10.098      11.485      11.690      10.585      8.8144      7.0458      5.5582      4.4646    
  3.7640      3.4055      3.3420      3.5579      4.0761      4.9465      6.2130      7.8568      9.7312      11.502    
  11.273      12.337      12.363      11.579      10.734      10.536      11.115      11.926      12.172      11.410    
  9.8507      8.0849      6.4617      5.1598      4.2349      3.6627      3.3935      3.3900      3.6456      4.1850    
  5.0521      6.2796      7.8398      9.5947      9.2757      10.835      12.012      12.502      12.434      12.256    
  12.330      12.607      12.667      12.077      10.773      9.1181      7.4583      6.0102      4.8876      4.1082    
  3.6379      3.4332      3.4671      3.7382      4.2695      5.0966      6.2419      7.6750      7.3778      8.8012    
  10.215      11.425      12.225      12.637      12.858      13.012      12.986      12.527      11.502      10.070    
  8.4921      6.9901      5.7220      4.7559      4.0896      3.6898      3.5225      3.5687      3.8295      4.3231    
  5.0764      6.1040      5.8793      6.9760      8.2119      9.4702      10.624      11.561      12.226      12.644    
  12.801      12.594      11.924      10.837      9.4824      8.0522      6.7260      5.6189      4.7729      4.1806    
  3.8164      3.6566      3.6886      3.9127      4.3415      4.9938      4.8564      5.5885      6.5053      7.5570    
  8.6618      9.7266      10.670      11.428      11.937      12.125      11.919      11.297      10.316      9.1144    
  7.8592      6.6959      5.7123      4.9405      4.3785      4.0124      3.8287      3.8190      3.9817      4.3234    
  4.2699      4.6762      5.2568      6.0047      6.8885      7.8534      8.8323      9.7560      10.552      11.139    
  11.426      11.340      10.863      10.054      9.0344      7.9470      6.9114      6.0023      5.2538      4.6760    
  4.2691      4.0294      3.9514      4.0310      4.0567      4.1855      4.4679      4.9104      5.5120      6.2553    
  7.1070      8.0213      8.9420      9.7969      10.493      10.926      11.014      10.728      10.112      9.2687    
  8.3181      7.3634      6.4761      5.6996      5.0603      4.5741      4.2471      4.0766      4.1854      4.0567    
  4.0767      4.2472      4.5741      5.0602      5.6996      6.4762      7.3636      8.3181      9.2687      10.112    
  10.728      11.014      10.926      10.493      9.7970      8.9421      8.0212      7.1068      6.2553      5.5120    
  4.9104      4.4677      4.6761      4.2698      4.0310      3.9515      4.0296      4.2692      4.6760      5.2537    
  6.0024      6.9115      7.9470      9.0343      10.054      10.863      11.340      11.426      11.139      10.552    
  9.7560      8.8322      7.8533      6.8884      6.0047      5.2568      5.5885      4.8564      4.3232      3.9816    
  3.8191      3.8289      4.0125      4.3785      4.9404      5.7123      6.6960      7.8592      9.1143      10.316    
  11.297      11.919      12.125      11.937      11.428      10.670      9.7265      8.6616      7.5569      6.5053    
  6.9759      5.8793      4.9938      4.3415      3.9126      3.6886      3.6568      3.8166      4.1806      4.7728    
  5.6189      6.7260      8.0522      9.4823      10.837      11.925      12.594      12.801      12.644      12.226    
  11.561      10.624      9.4700      8.2117      8.8010      7.3777      6.1040      5.0765      4.3231      3.8294    
  3.5687      3.5227      3.6900      4.0896      4.7558      5.7221      6.9902      8.4921      10.070      11.502    
  12.527      12.986      13.012      12.858      12.636      12.225      11.425      10.215      10.835      9.2756    
  7.6749      6.2419      5.0968      4.2696      3.7382      3.4671      3.4334      3.6380      4.1081      4.8875    
  6.0103      7.4583      9.1181      10.773      12.077      12.667      12.607      12.330      12.256      12.434    
  12.502      12.012      12.337      11.273      9.5946      7.8397      6.2796      5.0523      4.1851      3.6456    
  3.3901      3.3936      3.6629      4.2349      5.1597      6.4618      8.0850      9.8506      11.409      12.172    
  11.926      11.115      10.536      10.733      11.579      12.363      11.914      12.422      11.502      9.7311    
  7.8567      6.2131      4.9468      4.0763      3.5579      3.3420      3.4056      3.7641      4.4646      5.5581    
  7.0459      8.8144      10.585      11.690      11.485      10.098      8.4634      7.7354      8.4775      10.250    
  8.7959      11.356      12.341      11.522      9.6753      7.7250      6.0486      4.7890      3.9511      3.4807    
  3.3257      3.4693      3.9380      4.7877      6.0623      7.7249      9.5882      11.143      11.416      9.9335    
  7.3003      4.9747      4.3775      5.9402      3.7152      7.6247      10.905      12.175      11.352      9.4357    
  7.4581      5.8015      4.5923      3.8188      3.4186      3.3420      3.5821      4.1776      5.1895      6.6455    
  8.4572      10.331      11.393      10.575      7.7249      3.9910      1.2911      1.1527     -1.1984      2.3593    
  7.0679      10.712      11.973      11.013      9.0365      7.0819      5.4941      4.3726      3.6884      3.3752    
  3.3901      3.7386      4.4713      5.6494      7.2749      9.1992      10.950      11.330      9.3634      5.3196    
 0.86174     -1.7892      1.4898      2.3598      5.4777      9.1811      11.652      11.995      10.602      8.6083    
  6.7535      5.2856      4.2669      3.6564      3.3905      3.4331      3.7954      4.5289      5.6909      7.2778    
  9.1435      10.868      11.408      9.9347      6.7409      3.3057      2.2163     0.79435      2.2166      5.6918    
  9.3678      11.507      11.477      9.9050      7.9535      6.2159      4.8908      4.0101      3.5223      3.3679    
  3.5223      4.0100      4.8907      6.2159      7.9535      9.9049      11.477      11.507      9.3679      5.6917    
  5.4776      2.3596      1.4898      3.3060      6.7411      9.9347      11.408      10.868      9.1436      7.2778    
  5.6909      4.5290      3.7954      3.4331      3.3906      3.6564      4.2668      5.2855      6.7536      8.6083    
  10.601      11.995      11.652      9.1813      9.5121      6.2007      3.7154      3.3938      5.3202      8.2882    
  10.619      11.224      10.164      8.3694      6.6255      5.2116      4.2211      3.6342      3.3934      3.4577    
  3.8285      4.5506      5.6874      7.2651      9.1927      11.183      12.435      11.933      12.356      10.315    
  7.6890      5.9404      6.0186      7.7254      9.8776      11.133      10.852      9.3914      7.6251      6.0333    
  4.8038      3.9828      3.5345      3.4055      3.5664      4.0293      4.8434      6.0666      7.7086      9.6562    
  11.606      12.786      13.006      12.823      11.374      9.5514      8.4777      8.7267      9.9337      11.088    
  11.272      10.269      8.6183      6.9483      5.5309      4.4865      3.8245      3.5008      3.4693      3.7115    
  4.2469      5.1244      6.3923      8.0441      9.9534      11.828      11.815      13.023      13.173      12.373    
  11.306      10.733      10.927      11.485      11.668      10.986      9.5531      7.9024      6.3728      5.1413    
  4.2728      3.7524      3.5347      3.5823      3.8857      4.4676      5.3723      6.6358      8.2385      10.052    
  9.9366      11.552      12.774      13.238      13.009      12.534      12.256      12.248      12.172      11.596    
  10.389      8.8422      7.2881      5.9294      4.8817      4.1709      3.7690      3.6345      3.7389      4.0788    
  4.6760      5.5666      6.7745      8.2713      8.1382      9.6159      11.052      12.232      12.913      13.096    
  13.009      12.858      12.619      12.076      11.071      9.7065      8.2244      6.8208      5.6443      4.7649    
  4.1850      3.8735      3.7957      3.9310      4.2786      4.8563      5.6906      6.7949      6.6954      7.8516    
  9.1187      10.363      11.436      12.208      12.623      12.750      12.643      12.255      11.502      10.409    
  9.1105      7.7682      6.5416      5.5382      4.7987      4.3156      4.0616      4.0104      4.1471      4.4709    
  4.9938      5.7332      5.6905      6.4856      7.4394      8.4910      9.5441      10.492      11.247      11.757    
  11.994      11.937      11.552      10.837      9.8470      8.6972      7.5329      6.4825      5.6247      4.9861    
  4.5594      4.3256      4.2671      4.3729      4.6407      5.0765      5.0967      5.5664      6.1855      6.9400    
  7.7891      8.6679      9.5009      10.219      10.765      11.088      11.139      10.881      10.316      9.5008    
  8.5411      7.5605      6.6621      5.9086      5.3237      4.9079      4.6533      4.5508      4.5925      4.7741    
  4.8592      5.0523      5.3721      5.8223      6.3969      7.0720      7.8073      8.5525      9.2537      9.8537    
  10.289      10.493      10.417      10.054      9.4475      8.6853      7.8684      7.0824      6.3832      5.8002    
  5.3466      5.0277      4.8434      4.7890      4.9466      4.8885      4.9468      5.1244      5.4264      5.8530    
  6.3940      7.0283      7.7258      8.4464      9.1347      9.7172      10.112      10.252      10.112      9.7172    
  9.1348      8.4465      7.7257      7.0282      6.3940      5.8532      5.4264      5.1243      5.3720      5.0521    
  4.8591      4.7891      4.8435      5.0277      5.3465      5.8001      6.3833      7.0825      7.8684      8.6852    
  9.4475      10.054      10.418      10.493      10.289      9.8538      9.2538      8.5524      7.8072      7.0720    
  6.3970      5.8224      6.1856      5.5663      5.0965      4.7739      4.5925      4.5509      4.6534      4.9079    
  5.3236      5.9086      6.6622      7.5604      8.5410      9.5008      10.316      10.881      11.139      11.088    
  10.765      10.219      9.5009      8.6677      7.7890      6.9400      7.4394      6.4856      5.6904      5.0763    
  4.6405      4.3728      4.2671      4.3257      4.5593      4.9860      5.6248      6.4826      7.5329      8.6971    
  9.8470      10.837      11.552      11.936      11.994      11.757      11.247      10.492      9.5439      8.4908    
  9.1185      7.8515      6.6953      5.7332      4.9936      4.4706      4.1469      4.0105      4.0617      4.3155    
  4.7986      5.5382      6.5417      7.7681      9.1104      10.409      11.502      12.255      12.643      12.750    
  12.623      12.208      11.436      10.363      11.052      9.6157      8.1379      6.7949      5.6907      4.8562    
  4.2784      3.9309      3.7958      3.8735      4.1849      4.7648      5.6443      6.8208      8.2244      9.7064    
  11.071      12.076      12.618      12.858      13.009      13.096      12.913      12.232      12.774      11.552    
  9.9364      8.2711      6.7744      5.5667      4.6760      4.0786      3.7388      3.6346      3.7691      4.1708    
  4.8816      5.9294      7.2882      8.8421      10.389      11.596      12.172      12.248      12.256      12.534    
  13.009      13.238      13.173      13.023      11.816      10.051      8.2382      6.6358      5.3724      4.4677    
  3.8855      3.5822      3.5348      3.7525      4.2727      5.1412      6.3729      7.9025      9.5530      10.985    
  11.668      11.485      10.927      10.733      11.306      12.373      11.374      12.823      13.006      11.828    
  9.9533      8.0438      6.3923      5.1246      4.2470      3.7114      3.4693      3.5009      3.8245      4.4864    
  5.5308      6.9483      8.6183      10.269      11.272      11.088      9.9335      8.7265      8.4776      9.5512    
  7.6889      10.315      12.355      12.787      11.606      9.6561      7.7085      6.0666      4.8436      4.0294    
  3.5663      3.4055      3.5346      3.9828      4.8037      6.0332      7.6251      9.3914      10.852      11.133    
  9.8773      7.7251      6.0185      5.9404      3.7156      6.2007      9.5119      11.933      12.435      11.183    
  9.1927      7.2650      5.6874      4.5508      3.8286      3.4577      3.3934      3.6343      4.2211      5.2115    
  6.6254      8.3694      10.164      11.224      10.619      8.2880      5.3199      3.3937      7.0927      7.6251    
  9.5118      11.646      12.788      12.372      10.777      8.8577      7.0858      5.6663      4.6535      4.0124    
  3.6858      3.6380      3.8734      4.4334      5.3707      6.7007      8.3377      10.050      11.273      11.258    
  9.9348      8.1316      7.2684      6.2773      7.0685      9.1811      11.336      12.304      11.678      10.002    
  8.1342      6.4758      5.1968      4.3256      3.8165      3.6135      3.6899      4.0615      4.7785      5.8924    
  7.3989      9.1697      10.893      11.813      11.244      9.3678      9.1811      7.0683      6.2773      7.2686    
  9.3679      11.244      11.813      10.893      9.1697      7.3989      5.8924      4.7785      4.0616      3.6899    
  3.6135      3.8165      4.3256      5.1968      6.4759      8.1342      10.002      11.678      12.305      11.336    
  11.646      9.5118      7.6249      7.0927      8.1318      9.9349      11.258      11.273      10.050      8.3378    
  6.7007      5.3708      4.4335      3.8734      3.6380      3.6859      4.0124      4.6534      5.6663      7.0859    
  8.8578      10.777      12.372      12.789      13.264      12.180      10.315      8.7961      8.4800      9.3639    
  10.619      11.215      10.643      9.1951      7.5539      6.0784      4.9374      4.1773      3.7690      3.6629    
  3.8278      4.2692      5.0279      6.1580      7.6792      9.5126      11.430      12.937      13.321      13.668    
  12.820      11.374      10.250      10.036      10.575      11.133      10.975      9.9146      8.3828      6.8557    
  5.5605      4.6104      4.0200      3.7525      3.7642      4.0338      4.5742      5.4267      6.6368      8.2072    
  10.039      11.897      12.123      13.461      13.896      13.370      12.373      11.579      11.333      11.416    
  11.272      10.489      9.1449      7.6514      6.2726      5.1675      4.4016      3.9670      3.8247      3.9383    
  4.2947      4.9104      5.8227      7.0645      8.6216      10.384      10.508      12.077      13.304      13.834    
  13.620      13.009      12.434      12.060      11.690      10.985      9.8227      8.4222      7.0340      5.8290    
  4.9137      4.3178      4.0201      3.9831      4.1779      4.5972      5.2567      6.1858      7.4033      8.8813    
  8.9584      10.394      11.753      12.833      13.411      13.433      13.096      12.636      12.116      11.409    
  10.389      9.1273      7.8008      6.5641      5.5451      4.8091      4.3622      4.1774      4.2215      4.4718    
  4.9234      5.5884      6.4856      7.6210      7.6960      8.8440      10.051      11.181      12.085      12.641    
  12.796      12.623      12.225      11.621      10.773      9.7065      8.5183      7.3310      6.2734      5.4374    
  4.8600      4.5345      4.4335      4.5293      4.8037      5.2516      5.8791      6.6952      6.7945      7.6206    
  8.5493      9.5131      10.414      11.146      11.631      11.832      11.757      11.428      10.858      10.069    
  9.1105      8.0700      7.0615      6.1891      5.5182      5.0690      4.8303      4.7785      4.8910      5.1528    
  5.5570      6.1038      6.2417      6.7739      7.4027      8.1044      8.8332      9.5250      10.110      10.532    
  10.756      10.765      10.552      10.118      9.4823      8.6972      7.8478      7.0315      6.3308      5.7937    
  5.4334      5.2403      5.1967      5.2857      5.4943      5.8143      6.0007      6.2794      6.6352      7.0638    
  7.5524      8.0752      8.5951      9.0704      9.4613      9.7329      9.8538      9.7970      9.5472      9.1143    
  8.5411      7.8984      7.2651      6.7066      6.2616      5.9431      5.7478      5.6660      5.6873      5.8016    
  6.0485      6.0986      6.2130      6.3918      6.6361      6.9434      7.3038      7.7011      8.1135      8.5141    
  8.8686      9.1349      9.2688      9.2376      9.0344      8.6853      8.2422      7.7661      7.3095      6.9074    
  6.5777      6.3273      6.1575      6.0662      6.3917      6.2128      6.0985      6.0486      6.0663      6.1574    
  6.3271      6.5776      6.9074      7.3096      7.7661      8.2421      8.6853      9.0345      9.2376      9.2687    
  9.1349      8.8687      8.5142      8.1135      7.7010      7.3039      6.9436      6.6363      7.0639      6.6351    
  6.2792      6.0005      5.8015      5.6873      5.6660      5.7477      5.9430      6.2617      6.7067      7.2650    
  7.8983      8.5411      9.1144      9.5472      9.7969      9.8538      9.7331      9.4615      9.0704      8.5950    
  8.0752      7.5525      8.1044      7.4028      6.7738      6.2414      5.8140      5.4942      5.2857      5.1967    
  5.2402      5.4333      5.7938      6.3309      7.0315      7.8476      8.6972      9.4823      10.118      10.552    
  10.765      10.756      10.533      10.110      9.5249      8.8332      9.5129      8.5493      7.6207      6.7945    
  6.1035      5.5566      5.1525      4.8910      4.7785      4.8302      5.0689      5.5182      6.1892      7.0614    
  8.0698      9.1105      10.070      10.858      11.428      11.757      11.833      11.631      11.146      10.414    
  11.181      10.051      8.8438      7.6959      6.6952      5.8789      5.2512      4.8034      4.5293      4.4336    
  4.5343      4.8599      5.4374      6.2734      7.3309      8.5181      9.7065      10.773      11.621      12.225    
  12.623      12.796      12.641      12.085      12.833      11.753      10.394      8.9581      7.6209      6.4856    
  5.5882      4.9231      4.4715      4.2215      4.1774      4.3621      4.8089      5.5451      6.5642      7.8007    
  9.1271      10.389      11.409      12.116      12.636      13.095      13.433      13.411      13.834      13.304    
  12.077      10.508      8.8809      7.4031      6.1858      5.2566      4.5969      4.1777      3.9831      4.0201    
  4.3177      4.9136      5.8291      7.0341      8.4221      9.8226      10.985      11.690      12.060      12.434    
  13.009      13.620      13.369      13.896      13.461      12.123      10.384      8.6213      7.0644      5.8228    
  4.9104      4.2945      3.9381      3.8247      3.9671      4.4014      5.1674      6.2727      7.6514      9.1448    
  10.489      11.272      11.416      11.333      11.579      12.373      11.374      12.820      13.668      13.321    
  11.897      10.039      8.2069      6.6367      5.4268      4.5741      4.0337      3.7641      3.7525      4.0200    
  4.6103      5.5605      6.8557      8.3828      9.9145      10.975      11.133      10.575      10.035      10.250    
  8.7962      10.315      12.179      13.263      12.937      11.430      9.5125      7.6789      6.1579      5.0280    
  4.2692      3.8277      3.6629      3.7690      4.1773      4.9373      6.0783      7.5539      9.1950      10.643    
  11.215      10.619      9.3637      8.4799      10.893      11.356      12.355      13.263      13.390      12.498    
  10.950      9.2353      7.6399      6.3274      5.3468      4.6760      4.2726      4.1083      4.1851      4.5345    
  5.2006      6.2074      7.5142      8.9820      10.376      11.273      11.408      11.068      10.800      10.451    
  10.906      11.933      12.788      12.770      11.730      10.124      8.4372      6.9330      5.7480      4.9081    
  4.3786      4.1140      4.0898      4.3158      4.8304      5.6792      6.8741      8.3437      9.9044      11.234    
  11.813      11.507      11.651      10.712      10.280      10.712      11.651      12.304      12.040      10.842    
  9.2321      7.6316      6.2661      5.2405      4.5595      4.1808      4.0604      4.1809      4.5595      5.2404    
  6.2662      7.6316      9.2321      10.842      12.040      12.304      12.788      11.933      10.905      10.451    
  10.800      11.507      11.813      11.234      9.9044      8.3437      6.8741      5.6792      4.8305      4.3157    
  4.0898      4.1140      4.3787      4.9081      5.7480      6.9331      8.4373      10.123      11.730      12.770    
  13.390      13.263      12.355      11.355      10.893      11.069      11.408      11.273      10.376      8.9821    
  7.5142      6.2074      5.2007      4.5345      4.1851      4.1083      4.2727      4.6761      5.3468      6.3275    
  7.6402      9.2355      10.949      12.498      13.076      13.842      13.668      12.823      11.913      11.416    
  11.330      11.224      10.643      9.5020      8.1240      6.7851      5.6614      4.8488      4.3622      4.1710    
  4.2350      4.5304      5.0603      5.8533      6.9438      8.3367      9.9608      11.635      12.108      13.394    