   2   2   0   0
  0.1529437E+02  0.3691622E-09  0.3691622E-09  0.3691622E-09  0.5000000E-15
  1.000000000000000E-004
  CAR 
 unknown system                          
     21.62581279     -6.57621992  301      9.09944905      1.00000000
     -6.576  0.0000E+00  0.0000E+00
     -6.482  0.0000E+00  0.0000E+00
     -6.388  0.0000E+00  0.0000E+00
     -6.294  0.0000E+00  0.0000E+00
     -6.200  0.0000E+00  0.0000E+00
     -6.106  0.0000E+00  0.0000E+00
     -6.012  0.0000E+00  0.0000E+00
     -5.918  0.0000E+00  0.0000E+00
     -5.824  0.0000E+00  0.0000E+00
     -5.730  0.8748E-17  0.8224E-18
     -5.636  0.1735E-14  0.1639E-15
     -5.542  0.2211E-12  0.2095E-13
     -5.448  0.1824E-10  0.1736E-11
     -5.354  0.9753E-09  0.9342E-10
     -5.260  0.3381E-07  0.3272E-08
     -5.166  0.7610E-06  0.7481E-07
     -5.072  0.1113E-04  0.1121E-05
     -4.978  0.1059E-03  0.1108E-04
     -4.884  0.6564E-03  0.7279E-04
     -4.790  0.2652E-02  0.3221E-03
     -4.696  0.6992E-02  0.9795E-03
     -4.602  0.1204E-01  0.2111E-02
     -4.508  0.1353E-01  0.3383E-02
     -4.414  0.9937E-02  0.4317E-02
     -4.320  0.4766E-02  0.4765E-02
     -4.226  0.1492E-02  0.4905E-02
     -4.132  0.3046E-03  0.4934E-02
     -4.038  0.4054E-04  0.4938E-02
     -3.944  0.3516E-05  0.4938E-02
     -3.850  0.3582E-06  0.4938E-02
     -3.756  0.3539E-05  0.4939E-02
     -3.662  0.5053E-04  0.4943E-02
     -3.568  0.4703E-03  0.4988E-02
     -3.474  0.2851E-02  0.5256E-02
     -3.380  0.1127E-01  0.6315E-02
     -3.286  0.2906E-01  0.9047E-02
     -3.192  0.4894E-01  0.1365E-01
     -3.098  0.5383E-01  0.1871E-01
     -3.004  0.3867E-01  0.2234E-01
     -2.910  0.1815E-01  0.2405E-01
     -2.816  0.5557E-02  0.2457E-01
     -2.722  0.1110E-02  0.2468E-01
     -2.628  0.1445E-03  0.2469E-01
     -2.534  0.1226E-04  0.2469E-01
     -2.440  0.1150E-05  0.2469E-01
     -2.346  0.9420E-05  0.2469E-01
     -2.252  0.1226E-03  0.2470E-01
     -2.158  0.1064E-02  0.2480E-01
     -2.064  0.6202E-02  0.2539E-01
     -1.970  0.2449E-01  0.2769E-01
     -1.876  0.6607E-01  0.3390E-01
     -1.782  0.1223E+00  0.4540E-01
     -1.688  0.1553E+00  0.6000E-01
     -1.594  0.1347E+00  0.7266E-01
     -1.500  0.7911E-01  0.8010E-01
     -1.406  0.3120E-01  0.8303E-01
     -1.312  0.8194E-02  0.8380E-01
     -1.218  0.1423E-02  0.8393E-01
     -1.124  0.1626E-03  0.8395E-01
     -1.030  0.1216E-04  0.8395E-01
     -0.936  0.5938E-06  0.8395E-01
     -0.842  0.1888E-07  0.8395E-01
     -0.748  0.3900E-09  0.8395E-01
     -0.654  0.5226E-11  0.8395E-01
     -0.560  0.4535E-13  0.8395E-01
     -0.466  0.2799E-15  0.8395E-01
     -0.372  0.0000E+00  0.8395E-01
     -0.278  0.0000E+00  0.8395E-01
     -0.184  0.6999E-16  0.8395E-01
     -0.090  0.1564E-13  0.8395E-01
      0.004  0.1956E-11  0.8395E-01
      0.098  0.1598E-09  0.8395E-01
      0.192  0.8538E-08  0.8395E-01
      0.286  0.2991E-06  0.8395E-01
      0.380  0.6891E-05  0.8395E-01
      0.474  0.1048E-03  0.8396E-01
      0.568  0.1056E-02  0.8406E-01
      0.662  0.7077E-02  0.8473E-01
      0.756  0.3167E-01  0.8770E-01
      0.850  0.9497E-01  0.9663E-01
      0.944  0.1914E+00  0.1146E+00
      1.038  0.2598E+00  0.1391E+00
      1.132  0.2376E+00  0.1614E+00
      1.226  0.1463E+00  0.1751E+00
      1.320  0.6091E-01  0.1809E+00
      1.414  0.1957E-01  0.1827E+00
      1.508  0.1435E-01  0.1841E+00
      1.602  0.2943E-01  0.1868E+00
      1.696  0.4897E-01  0.1914E+00
      1.790  0.5383E-01  0.1965E+00
      1.884  0.3868E-01  0.2001E+00
      1.978  0.1815E-01  0.2018E+00
      2.072  0.5559E-02  0.2023E+00
      2.166  0.1115E-02  0.2025E+00
      2.260  0.2017E-03  0.2025E+00
      2.354  0.4713E-03  0.2025E+00
      2.448  0.2403E-02  0.2027E+00
      2.542  0.8207E-02  0.2035E+00
      2.636  0.1841E-01  0.2052E+00
      2.730  0.2778E-01  0.2079E+00
      2.824  0.3145E-01  0.2108E+00
      2.918  0.3632E-01  0.2142E+00
      3.012  0.5223E-01  0.2191E+00
      3.106  0.7112E-01  0.2258E+00
      3.200  0.7341E-01  0.2327E+00
      3.294  0.5463E-01  0.2379E+00
      3.388  0.2917E-01  0.2406E+00
      3.483  0.1107E-01  0.2416E+00
      3.577  0.2931E-02  0.2419E+00
      3.671  0.5302E-03  0.2420E+00
      3.765  0.6439E-04  0.2420E+00
      3.859  0.6540E-05  0.2420E+00
      3.953  0.2279E-04  0.2420E+00
      4.047  0.2408E-03  0.2420E+00
      4.141  0.1677E-02  0.2422E+00
      4.235  0.7634E-02  0.2429E+00
      4.329  0.2282E-01  0.2450E+00
      4.423  0.4538E-01  0.2493E+00
      4.517  0.6192E-01  0.2551E+00
      4.611  0.6200E-01  0.2609E+00
      4.705  0.5018E-01  0.2657E+00
      4.799  0.3445E-01  0.2689E+00
      4.893  0.1889E-01  0.2707E+00
      4.987  0.7568E-02  0.2714E+00
      5.081  0.2617E-02  0.2716E+00
      5.175  0.4442E-02  0.2720E+00
      5.269  0.1915E-01  0.2738E+00
      5.363  0.6025E-01  0.2795E+00
      5.457  0.1294E+00  0.2917E+00
      5.551  0.1915E+00  0.3097E+00
      5.645  0.1967E+00  0.3282E+00
      5.739  0.1403E+00  0.3414E+00
      5.833  0.6907E-01  0.3479E+00
      5.927  0.2320E-01  0.3500E+00
      6.021  0.5350E-02  0.3505E+00
      6.115  0.1609E-02  0.3507E+00
      6.209  0.4480E-02  0.3511E+00
      6.303  0.1558E-01  0.3526E+00
      6.397  0.3695E-01  0.3561E+00
      6.491  0.6242E-01  0.3619E+00
      6.585  0.8692E-01  0.3701E+00
      6.679  0.1175E+00  0.3811E+00
      6.773  0.1501E+00  0.3953E+00
      6.867  0.1625E+00  0.4105E+00
      6.961  0.1548E+00  0.4251E+00
      7.055  0.1416E+00  0.4384E+00
      7.149  0.1146E+00  0.4492E+00
      7.243  0.7109E-01  0.4559E+00
      7.337  0.3413E-01  0.4591E+00
      7.431  0.1845E-01  0.4608E+00
      7.525  0.1509E-01  0.4622E+00
      7.619  0.1188E-01  0.4633E+00
      7.713  0.7488E-02  0.4640E+00
      7.807  0.7868E-02  0.4648E+00
      7.901  0.2018E-01  0.4667E+00
      7.995  0.4882E-01  0.4713E+00
      8.089  0.8932E-01  0.4797E+00
      8.183  0.1262E+00  0.4915E+00
      8.277  0.1373E+00  0.5044E+00
      8.371  0.1101E+00  0.5148E+00
      8.465  0.6183E-01  0.5206E+00
      8.559  0.2346E-01  0.5228E+00
      8.653  0.5928E-02  0.5234E+00
      8.747  0.1271E-02  0.5235E+00
      8.841  0.2371E-02  0.5237E+00
      8.935  0.1130E-01  0.5248E+00
      9.029  0.3669E-01  0.5282E+00
      9.123  0.7782E-01  0.5355E+00
      9.217  0.1078E+00  0.5457E+00
      9.311  0.9754E-01  0.5548E+00
      9.405  0.5765E-01  0.5602E+00
      9.499  0.2226E-01  0.5623E+00
      9.593  0.5858E-02  0.5629E+00
      9.687  0.2945E-02  0.5632E+00
      9.781  0.1047E-01  0.5642E+00
      9.875  0.3472E-01  0.5674E+00
      9.969  0.7646E-01  0.5746E+00
     10.063  0.1129E+00  0.5852E+00
     10.157  0.1184E+00  0.5964E+00
     10.251  0.1001E+00  0.6058E+00
     10.345  0.7850E-01  0.6131E+00
     10.439  0.5776E-01  0.6186E+00
     10.533  0.4489E-01  0.6228E+00
     10.627  0.5848E-01  0.6283E+00
     10.721  0.9670E-01  0.6374E+00
     10.815  0.1221E+00  0.6489E+00
     10.909  0.1036E+00  0.6586E+00
     11.003  0.5808E-01  0.6641E+00
     11.097  0.2150E-01  0.6661E+00
     11.191  0.5263E-02  0.6666E+00
     11.285  0.8962E-03  0.6667E+00
     11.379  0.5152E-03  0.6667E+00
     11.473  0.2640E-02  0.6670E+00
     11.567  0.1074E-01  0.6680E+00
     11.661  0.2916E-01  0.6707E+00
     11.755  0.5501E-01  0.6759E+00
     11.849  0.7995E-01  0.6834E+00
     11.943  0.1030E+00  0.6931E+00
     12.037  0.1203E+00  0.7044E+00
     12.131  0.1118E+00  0.7149E+00
     12.225  0.7347E-01  0.7218E+00
     12.319  0.3237E-01  0.7249E+00
     12.413  0.9385E-02  0.7257E+00
     12.507  0.1779E-02  0.7259E+00
     12.601  0.2199E-03  0.7259E+00
     12.695  0.1769E-04  0.7259E+00
     12.789  0.9272E-06  0.7259E+00
     12.883  0.1021E-06  0.7259E+00
     12.977  0.1886E-05  0.7259E+00
     13.071  0.3265E-04  0.7259E+00
     13.165  0.3679E-03  0.7260E+00
     13.259  0.2698E-02  0.7262E+00
     13.353  0.1290E-01  0.7274E+00
     13.447  0.4021E-01  0.7312E+00
     13.541  0.8184E-01  0.7389E+00
     13.635  0.1088E+00  0.7491E+00
     13.729  0.9458E-01  0.7580E+00
     13.823  0.5466E-01  0.7632E+00
     13.917  0.2539E-01  0.7655E+00
     14.011  0.2309E-01  0.7677E+00
     14.105  0.4081E-01  0.7716E+00
     14.199  0.6165E-01  0.7773E+00
     14.293  0.7748E-01  0.7846E+00
     14.387  0.9884E-01  0.7939E+00
     14.481  0.1270E+00  0.8059E+00
     14.575  0.1387E+00  0.8189E+00
     14.669  0.1207E+00  0.8302E+00
     14.763  0.8673E-01  0.8384E+00
     14.857  0.5862E-01  0.8439E+00
     14.951  0.5078E-01  0.8487E+00
     15.045  0.5648E-01  0.8540E+00
     15.139  0.5447E-01  0.8591E+00
     15.233  0.4004E-01  0.8629E+00
     15.327  0.2996E-01  0.8657E+00
     15.421  0.3537E-01  0.8690E+00
     15.515  0.5079E-01  0.8738E+00
     15.609  0.6467E-01  0.8799E+00
     15.703  0.6638E-01  0.8861E+00
     15.797  0.5552E-01  0.8913E+00
     15.891  0.5176E-01  0.8962E+00
     15.985  0.7361E-01  0.9031E+00
     16.079  0.1043E+00  0.9129E+00
     16.173  0.1055E+00  0.9228E+00
     16.267  0.7133E-01  0.9295E+00
     16.361  0.3442E-01  0.9328E+00
     16.455  0.1917E-01  0.9346E+00
     16.549  0.2598E-01  0.9370E+00
     16.643  0.5085E-01  0.9418E+00
     16.737  0.8807E-01  0.9501E+00
     16.831  0.1148E+00  0.9609E+00
     16.925  0.1091E+00  0.9711E+00
     17.019  0.8605E-01  0.9792E+00
     17.113  0.7259E-01  0.9860E+00
     17.207  0.6845E-01  0.9925E+00
     17.302  0.6521E-01  0.9986E+00
     17.396  0.6453E-01  0.1005E+01
     17.490  0.6030E-01  0.1010E+01
     17.584  0.4369E-01  0.1014E+01
     17.678  0.2320E-01  0.1017E+01
     17.772  0.1462E-01  0.1018E+01
     17.866  0.2432E-01  0.1020E+01
     17.960  0.4638E-01  0.1025E+01
     18.054  0.6448E-01  0.1031E+01
     18.148  0.6550E-01  0.1037E+01
     18.242  0.5169E-01  0.1042E+01
     18.336  0.3253E-01  0.1045E+01
     18.430  0.1569E-01  0.1046E+01
     18.524  0.5430E-02  0.1047E+01
     18.618  0.1284E-02  0.1047E+01
     18.712  0.2018E-03  0.1047E+01
     18.806  0.2084E-04  0.1047E+01
     18.900  0.1433E-05  0.1047E+01
     18.994  0.8527E-06  0.1047E+01
     19.088  0.1405E-04  0.1047E+01
     19.182  0.1621E-03  0.1047E+01
     19.276  0.1219E-02  0.1047E+01
     19.370  0.5968E-02  0.1048E+01
     19.464  0.1906E-01  0.1049E+01
     19.558  0.3975E-01  0.1053E+01
     19.652  0.5413E-01  0.1058E+01
     19.746  0.4814E-01  0.1063E+01
     19.840  0.2797E-01  0.1065E+01
     19.934  0.1061E-01  0.1066E+01
     20.028  0.2626E-02  0.1067E+01
     20.122  0.4237E-03  0.1067E+01
     20.216  0.4452E-04  0.1067E+01
     20.310  0.3044E-05  0.1067E+01
     20.404  0.1353E-06  0.1067E+01
     20.498  0.3901E-08  0.1067E+01
     20.592  0.7297E-10  0.1067E+01
     20.686  0.8844E-12  0.1067E+01
     20.780  0.6929E-14  0.1067E+01
     20.874  0.4666E-16  0.1067E+01
     20.968  0.0000E+00  0.1067E+01
     21.062  0.0000E+00  0.1067E+01
     21.156  0.0000E+00  0.1067E+01
     21.250  0.0000E+00  0.1067E+01
     21.344  0.0000E+00  0.1067E+01
     21.438  0.0000E+00  0.1067E+01
     21.532  0.0000E+00  0.1067E+01
     21.626  0.0000E+00  0.1067E+01
