 vasp.5.4.4.18Apr17-6-g9f103f2a35 (build Dec 09 2018 21:25:21) complex          
  
 executed on IFC18.0.1.163_CrayMP date 2019.03.20  09:35:50
 running on    8 total cores
 distrk:  each k-point on    8 cores,    1 groups
 distr:  one band on NCORES_PER_BAND=   1 cores,    8 groups


--------------------------------------------------------------------------------------------------------


 INCAR:
 POTCAR:   PAW_PBE Si 05Jan2001                   

 ----------------------------------------------------------------------------- 
|                                                                             |
|           W    W    AA    RRRRR   N    N  II  N    N   GGGG   !!!           |
|           W    W   A  A   R    R  NN   N  II  NN   N  G    G  !!!           |
|           W    W  A    A  R    R  N N  N  II  N N  N  G       !!!           |
|           W WW W  AAAAAA  RRRRR   N  N N  II  N  N N  G  GGG   !            |
|           WW  WW  A    A  R   R   N   NN  II  N   NN  G    G                |
|           W    W  A    A  R    R  N    N  II  N    N   GGGG   !!!           |
|                                                                             |
|      For optimal performance we recommend to set                            |
|        NCORE= 4 - approx SQRT( number of cores)                             |
|      NCORE specifies how many cores store one orbital (NPAR=cpu/NCORE).     |
|      This setting can  greatly improve the performance of VASP for DFT.     |
|      The default,   NCORE=1            might be grossly inefficient         |
|      on modern multi-core architectures or massively parallel machines.     |
|      Do your own testing !!!!                                               |
|      Unfortunately you need to use the default for GW and RPA calculations. |
|      (for HF NCORE is supported but not extensively tested yet)             |
|                                                                             |
 ----------------------------------------------------------------------------- 

 POTCAR:   PAW_PBE Si 05Jan2001                   
   VRHFIN =Si: s2p2                                                             
   LEXCH  = PE                                                                  
   EATOM  =   103.0669 eV,    7.5752 Ry                                         
                                                                                
   TITEL  = PAW_PBE Si 05Jan2001                                                
   LULTRA =        F    use ultrasoft PP ?                                      
   IUNSCR =        1    unscreen: 0-lin 1-nonlin 2-no                           
   RPACOR =    1.500    partial core radius                                     
   POMASS =   28.085; ZVAL   =    4.000    mass and valenz                      
   RCORE  =    1.900    outmost cutoff radius                                   
   RWIGS  =    2.480; RWIGS  =    1.312    wigner-seitz radius (au A)           
   ENMAX  =  245.345; ENMIN  =  184.009 eV                                      
   ICORE  =        2    local potential                                         
   LCOR   =        T    correct aug charges                                     
   LPAW   =        T    paw PP                                                  
   EAUG   =  322.069                                                            
   DEXC   =    -.007                                                            
   RMAX   =    2.944    core radius for proj-oper                               
   RAUG   =    1.300    factor for augmentation sphere                          
   RDEP   =    1.993    radius for radial grids                                 
   QCUT   =   -4.246; QGAM   =    8.493    optimization parameters              
                                                                                
   Description                                                                  
     l     E      TYP  RCUT    TYP  RCUT                                        
     0   .000     23  1.900                                                     
     0   .000     23  1.900                                                     
     1   .000     23  1.900                                                     
     1   .000     23  1.900                                                     
     2   .000      7  1.900                                                     
  local pseudopotential read in
  partial core-charges read in
  atomic valenz-charges read in
  non local Contribution for L=           0  read in
    real space projection operators read in
  non local Contribution for L=           0  read in
    real space projection operators read in
  non local Contribution for L=           1  read in
    real space projection operators read in
  non local Contribution for L=           1  read in
    real space projection operators read in
    PAW grid and wavefunctions read in
 
   number of l-projection  operators is LMAX  =           4
   number of lm-projection operators is LMMAX =           8
 
 PAW_PBE Si 05Jan2001                   :
 energy of atom  1       EATOM= -103.0669
 kinetic energy error for atom=    0.0013 (will be added to EATOM!!)
 
 
 POSCAR: Si2                                     
  positions in direct lattice
  No initial velocities read in
 exchange correlation table for  LEXCH =        8
   RHO(1)=    0.500       N(1)  =     2000
   RHO(2)=  100.500       N(2)  =     4000
 


--------------------------------------------------------------------------------------------------------


 ion  position               nearest neighbor table
   1  0.250  0.750  0.500-   2 2.53   2 2.53   2 2.53   2 2.53   2 3.11   2 3.11   2 3.11   2 3.11

   2  0.000  0.000  0.000-   1 2.53   1 2.53   1 2.53   1 2.53   1 3.11   1 3.11   1 3.11   1 3.11

 
  LATTYP: Found a body centered tetragonal cell.
 ALAT       =     4.9000000000
 C/A-ratio  =     0.5200000000
  
  Lattice vectors:
  
 A1 = (  -2.4500000000,   2.4500000000,   1.2740000000)
 A2 = (   2.4500000000,  -2.4500000000,   1.2740000000)
 A3 = (   2.4500000000,   2.4500000000,  -1.2740000000)


Analysis of symmetry for initial positions (statically):
=====================================================================
 Subroutine PRICEL returns:
 Original cell was already a primitive cell.
 

 Routine SETGRP: Setting up the symmetry group for a 
 body centered tetragonal supercell.


 Subroutine GETGRP returns: Found 16 space group operations
 (whereof  8 operations were pure point group operations)
 out of a pool of 16 trial point group operations.


The static configuration has the point symmetry D_2d.
 The point group associated with its full space group is D_4h.


Analysis of symmetry for dynamics (positions and initial velocities):
=====================================================================
 Subroutine PRICEL returns:
 Original cell was already a primitive cell.
 

 Routine SETGRP: Setting up the symmetry group for a 
 body centered tetragonal supercell.


 Subroutine GETGRP returns: Found 16 space group operations
 (whereof  8 operations were pure point group operations)
 out of a pool of 16 trial point group operations.


The dynamic configuration has the point symmetry D_2d.
 The point group associated with its full space group is D_4h.


 Subroutine INISYM returns: Found 16 space group operations
 (whereof  8 operations are pure point group operations),
 and found     1 'primitive' translations

 
 
 KPOINTS: Automatic kpoint scheme                 

Automatic generation of k-mesh.
Space group operators:
 irot       det(A)        alpha          n_x          n_y          n_z        tau_x        tau_y        tau_z
    1     1.000000     0.000000     1.000000     0.000000     0.000000     0.000000     0.000000     0.000000
    2    -1.000000    90.000000    -0.000000    -0.000000    -1.000000     0.000000     0.000000     0.000000
    3     1.000000   180.000000    -0.000000    -0.000000    -1.000000     0.000000     0.000000     0.000000
    4    -1.000000    90.000000    -0.000000     0.000000     1.000000     0.000000     0.000000     0.000000
    5    -1.000000   180.000000     0.000000    -1.000000     0.000000     0.000000     0.000000     0.000000
    6     1.000000   180.000000     0.707107     0.707107    -0.000000     0.000000     0.000000     0.000000
    7    -1.000000   180.000000     1.000000     0.000000     0.000000     0.000000     0.000000     0.000000
    8     1.000000   180.000000     0.707107    -0.707107     0.000000     0.000000     0.000000     0.000000
    9    -1.000000     0.000000     1.000000     0.000000     0.000000     0.250000     0.750000     0.500000
   10     1.000000    90.000000    -0.000000    -0.000000    -1.000000     0.250000     0.750000     0.500000
   11    -1.000000   180.000000    -0.000000    -0.000000    -1.000000     0.250000     0.750000     0.500000
   12     1.000000    90.000000    -0.000000     0.000000     1.000000     0.250000     0.750000     0.500000
   13     1.000000   180.000000     0.000000    -1.000000     0.000000     0.250000     0.750000     0.500000
   14    -1.000000   180.000000     0.707107     0.707107    -0.000000     0.250000     0.750000     0.500000
   15     1.000000   180.000000     1.000000     0.000000     0.000000     0.250000     0.750000     0.500000
   16    -1.000000   180.000000     0.707107    -0.707107     0.000000     0.250000     0.750000     0.500000
 
 Subroutine IBZKPT returns following result:
 ===========================================
 
 Found      6 irreducible k-points:
 
 Following reciprocal coordinates:
            Coordinates               Weight
  0.000000  0.000000  0.000000      1.000000
  0.333333 -0.000000  0.000000      8.000000
  0.333333  0.333333  0.000000      8.000000
 -0.333333  0.333333  0.000000      4.000000
 -0.333333  0.333333  0.333333      4.000000
 -0.333333 -0.333333  0.333333      2.000000
 
 Following cartesian coordinates:
            Coordinates               Weight
  0.000000  0.000000  0.000000      1.000000
  0.000000  0.068027  0.130822      8.000000
  0.068027  0.068027  0.261643      8.000000
  0.068027 -0.068027 -0.000000      4.000000
  0.136054 -0.000000 -0.000000      4.000000
 -0.000000  0.000000 -0.261643      2.000000
 


--------------------------------------------------------------------------------------------------------




 Dimension of arrays:
   k-points           NKPTS =      6   k-points in BZ     NKDIM =      6   number of bands    NBANDS=      8
   number of dos      NEDOS =    301   number of ions     NIONS =      2
   non local maximal  LDIM  =      4   non local SUM 2l+1 LMDIM =      8
   total plane-waves  NPLWV =   5832
   max r-space proj   IRMAX =      1   max aug-charges    IRDMAX=   6573
   dimension x,y,z NGX =    18 NGY =   18 NGZ =   18
   dimension x,y,z NGXF=    36 NGYF=   36 NGZF=   36
   support grid    NGXF=    36 NGYF=   36 NGZF=   36
   ions per type =               2
   NGX,Y,Z   is equivalent  to a cutoff of   8.11,  8.11,  8.11 a.u.
   NGXF,Y,Z  is equivalent  to a cutoff of  16.21, 16.21, 16.21 a.u.

 SYSTEM =  unknown system                          
 POSCAR =  Si2                                     

 Startparameter for this run:
   NWRITE =      2    write-flag & timer
   PREC   = normal    normal or accurate (medium, high low for compatibility)
   ISTART =      0    job   : 0-new  1-cont  2-samecut
   ICHARG =      2    charge: 1-file 2-atom 10-const
   ISPIN  =      1    spin polarized calculation?
   LNONCOLLINEAR =      F non collinear calculations
   LSORBIT =      F    spin-orbit coupling
   INIWAV =      1    electr: 0-lowe 1-rand  2-diag
   LASPH  =      F    aspherical Exc in radial PAW
   METAGGA=      F    non-selfconsistent MetaGGA calc.

 Electronic Relaxation 1
   ENCUT  =  350.0 eV  25.72 Ry    5.07 a.u.   5.63  5.63  5.63*2*pi/ulx,y,z
   ENINI  =  350.0     initial cutoff
   ENAUG  =  322.1 eV  augmentation charge cutoff
   NELM   =     60;   NELMIN=  2; NELMDL= -5     # of ELM steps 
   EDIFF  = 0.4E-03   stopping-criterion for ELM
   LREAL  =      F    real-space projection
   NLSPLINE    = F    spline interpolate recip. space projectors
   LCOMPAT=      F    compatible to vasp.4.4
   GGA_COMPAT  = T    GGA compatible to vasp.4.4-vasp.4.6
   LMAXPAW     = -100 max onsite density
   LMAXMIX     =    2 max onsite mixed and CHGCAR
   VOSKOWN=      0    Vosko Wilk Nusair interpolation
   ROPT   =    0.00000
 Ionic relaxation
   EDIFFG = -.1E-01   stopping-criterion for IOM
   NSW    =     15    number of steps for IOM
   NBLOCK =      1;   KBLOCK =     15    inner block; outer block 
   IBRION =      2    ionic relax: 0-MD 1-quasi-New 2-CG
   NFREE  =      1    steps in history (QN), initial steepest desc. (CG)
   ISIF   =      3    stress and relaxation
   IWAVPR =     11    prediction:  0-non 1-charg 2-wave 3-comb
   ISYM   =      2    0-nonsym 1-usesym 2-fastsym
   LCORR  =      T    Harris-Foulkes like correction to forces

   POTIM  = 0.5000    time-step for ionic-motion
   TEIN   =    0.0    initial temperature
   TEBEG  =    0.0;   TEEND  =   0.0 temperature during run
   SMASS  =  -3.00    Nose mass-parameter (am)
   estimated Nose-frequenzy (Omega)   =  0.10E-29 period in steps =****** mass=  -0.311E-27a.u.
   SCALEE = 1.0000    scale energy and forces
   NPACO  =    256;   APACO  = 16.0  distance and # of slots for P.C.
   PSTRESS=    0.0 pullay stress

  Mass of Ions in am
   POMASS =  28.09
  Ionic Valenz
   ZVAL   =   4.00
  Atomic Wigner-Seitz radii
   RWIGS  =  -1.00
  virtual crystal weights 
   VCA    =   1.00
   NELECT =       8.0000    total number of electrons
   NUPDOWN=      -1.0000    fix difference up-down

 DOS related values:
   EMIN   =  10.00;   EMAX   =-10.00  energy-range for DOS
   EFERMI =   0.00
   ISMEAR =     0;   SIGMA  =   0.20  broadening in eV -4-tet -1-fermi 0-gaus

 Electronic relaxation 2 (details)
   IALGO  =     38    algorithm
   LDIAG  =      T    sub-space diagonalisation (order eigenvalues)
   LSUBROT=      F    optimize rotation matrix (better conditioning)
   TURBO    =      0    0=normal 1=particle mesh
   IRESTART =      0    0=no restart 2=restart with 2 vectors
   NREBOOT  =      0    no. of reboots
   NMIN     =      0    reboot dimension
   EREF     =   0.00    reference energy to select bands
   IMIX   =      4    mixing-type and parameters
     AMIX     =   0.40;   BMIX     =  1.00
     AMIX_MAG =   1.60;   BMIX_MAG =  1.00
     AMIN     =   0.10
     WC   =   100.;   INIMIX=   1;  MIXPRE=   1;  MAXMIX= -45

 Intra band minimization:
   WEIMIN = 0.0010     energy-eigenvalue tresh-hold
   EBREAK =  0.13E-04  absolut break condition
   DEPER  =   0.30     relativ break condition  

   TIME   =   0.40     timestep for ELM

  volume/ion in A,a.u.               =      15.29       103.21
  Fermi-wavevector in a.u.,A,eV,Ry     =   1.046930  1.978411 14.912834  1.096062
  Thomas-Fermi vector in A             =   2.181789
 
 Write flags
   LWAVE        =      T    write WAVECAR
   LDOWNSAMPLE  =      F    k-point downsampling of WAVECAR
   LCHARG       =      T    write CHGCAR
   LVTOT        =      F    write LOCPOT, total local potential
   LVHAR        =      F    write LOCPOT, Hartree potential only
   LELF         =      F    write electronic localiz. function (ELF)
   LORBIT       =      0    0 simple, 1 ext, 2 COOP (PROOUT), +10 PAW based schemes


 Dipole corrections
   LMONO  =      F    monopole corrections only (constant potential shift)
   LDIPOL =      F    correct potential (dipole corrections)
   IDIPOL =      0    1-x, 2-y, 3-z, 4-all directions 
   EPSILON=  1.0000000 bulk dielectric constant

 Exchange correlation treatment:
   GGA     =    --    GGA type
   LEXCH   =     8    internal setting for exchange type
   VOSKOWN=      0    Vosko Wilk Nusair interpolation
   LHFCALC =     F    Hartree Fock is set to
   LHFONE  =     F    Hartree Fock one center treatment
   AEXX    =    0.0000 exact exchange contribution

 Linear response parameters
   LEPSILON=     F    determine dielectric tensor
   LRPA    =     F    only Hartree local field effects (RPA)
   LNABLA  =     F    use nabla operator in PAW spheres
   LVEL    =     F    velocity operator in full k-point grid
   LINTERFAST=   F  fast interpolation
   KINTER  =     0    interpolate to denser k-point grid
   CSHIFT  =0.1000    complex shift for real part using Kramers Kronig
   OMEGAMAX=  -1.0    maximum frequency
   DEG_THRESHOLD= 0.2000000E-02 threshold for treating states as degnerate
   RTIME   =   -0.100 relaxation time in fs
  (WPLASMAI=    0.000 imaginary part of plasma frequency in eV, 0.658/RTIME)
   DFIELD  = 0.0000000 0.0000000 0.0000000 field for delta impulse in time
 
 Orbital magnetization related:
   ORBITALMAG=     F  switch on orbital magnetization
   LCHIMAG   =     F  perturbation theory with respect to B field
   DQ        =  0.001000  dq finite difference perturbation B field
   LLRAUG    =     F  two centre corrections for induced B field



--------------------------------------------------------------------------------------------------------


 conjugate gradient relaxation of ions
 charge density and potential will be updated during run
 non-spin polarized calculation
 Variant of blocked Davidson
 Davidson routine will perform the subspace rotation
 perform sub-space diagonalisation
    after iterative eigenvector-optimisation
 modified Broyden-mixing scheme, WC =      100.0
 initial mixing is a Kerker type mixing with AMIX =  0.4000 and BMIX =      1.0000
 Hartree-type preconditioning will be used
 using additional bands            4
 reciprocal scheme for non local part
 use partial core corrections
 calculate Harris-corrections to forces 
   (improved forces if not selfconsistent)
 use gradient corrections 
 use of overlap-Matrix (Vanderbilt PP)
 Gauss-broadening in eV      SIGMA  =   0.20


--------------------------------------------------------------------------------------------------------


  energy-cutoff  :      350.00
  volume of cell :       30.59
      direct lattice vectors                 reciprocal lattice vectors
    -2.450000000  2.450000000  1.274000000     0.000000000  0.204081633  0.392464678
     2.450000000 -2.450000000  1.274000000     0.204081633  0.000000000  0.392464678
     2.450000000  2.450000000 -1.274000000     0.204081633  0.204081633 -0.000000000

  length of vectors
     3.691622408  3.691622408  3.691622408     0.442354876  0.442354876  0.288615013


 
 k-points in units of 2pi/SCALE and weight: Automatic kpoint scheme                 
   0.00000000  0.00000000  0.00000000       0.037
   0.00000000  0.06802721  0.13082156       0.296
   0.06802721  0.06802721  0.26164312       0.296
   0.06802721 -0.06802721 -0.00000000       0.148
   0.13605442 -0.00000000 -0.00000000       0.148
   0.00000000  0.00000000 -0.26164312       0.074
 
 k-points in reciprocal lattice and weights: Automatic kpoint scheme                 
   0.00000000  0.00000000  0.00000000       0.037
   0.33333333 -0.00000000  0.00000000       0.296
   0.33333333  0.33333333  0.00000000       0.296
  -0.33333333  0.33333333  0.00000000       0.148
  -0.33333333  0.33333333  0.33333333       0.148
  -0.33333333 -0.33333333  0.33333333       0.074
 
 position of ions in fractional coordinates (direct lattice) 
   0.25000000  0.75000000  0.50000000
   0.00000000  0.00000000  0.00000000
 
 position of ions in cartesian coordinates  (Angst):
   2.45000000  0.00000000  0.63700000
   0.00000000  0.00000000  0.00000000
 


--------------------------------------------------------------------------------------------------------


 k-point  1 :   0.0000 0.0000 0.0000  plane waves:     451
 k-point  2 :   0.3333-0.0000 0.0000  plane waves:     460
 k-point  3 :   0.3333 0.3333 0.0000  plane waves:     458
 k-point  4 :  -0.3333 0.3333 0.0000  plane waves:     456
 k-point  5 :  -0.3333 0.3333 0.3333  plane waves:     442
 k-point  6 :  -0.3333-0.3333 0.3333  plane waves:     452

 maximum and minimum number of plane-waves per node :       460      442

 maximum number of plane-waves:       460
 maximum index in each direction: 
   IXMAX=    5   IYMAX=    5   IZMAX=    5
   IXMIN=   -5   IYMIN=   -5   IZMIN=   -5


 serial   3D FFT for wavefunctions
 parallel 3D FFT for charge:
    minimum data exchange during FFTs selected (reduces bandwidth)


 total amount of memory used by VASP MPI-rank0    31053. kBytes
=======================================================================

   base      :      30000. kBytes
   nonl-proj :        193. kBytes
   fftplans  :        247. kBytes
   grid      :        561. kBytes
   one-center:          6. kBytes
   wavefun   :         46. kBytes
 
     INWAV:  cpu time    0.0000: real time    0.0013
 Broyden mixing: mesh for mixing (old mesh)
   NGX = 11   NGY = 11   NGZ = 11
  (NGX  = 36   NGY  = 36   NGZ  = 36)
  gives a total of   1331 points

 initial charge density was supplied:
 charge density of overlapping atoms calculated
 number of electron       8.0000000 magnetization 
 keeping initial charge density in first step


--------------------------------------------------------------------------------------------------------


 Maximum index for augmentation-charges          911 (set IRDMAX)


--------------------------------------------------------------------------------------------------------


 First call to EWALD:  gamma=   0.567
 Maximum number of real-space cells 4x 4x 3
 Maximum number of reciprocal cells 3x 3x 3

    FEWALD:  cpu time    0.0040: real time    0.0077


--------------------------------------- Iteration      1(   1)  ---------------------------------------


    POTLOK:  cpu time    0.0360: real time    0.0676
    SETDIJ:  cpu time    0.0080: real time    0.0094
     EDDAV:  cpu time    0.0840: real time    0.0884
       DOS:  cpu time    0.0000: real time    0.0022
    --------------------------------------------
      LOOP:  cpu time    0.1280: real time    0.1682

 eigenvalue-minimisations  :    96
 total energy-change (2. order) : 0.1628228E+01  (-0.2950549E+03)
 number of electron       8.0000000 magnetization 
 augmentation part        8.0000000 magnetization 

 Free energy of the ion-electron system (eV)
  ---------------------------------------------------
  alpha Z        PSCENC =         4.40202223
  Ewald energy   TEWEN  =      -265.18101312
  -Hartree energ DENC   =        -2.30415367
  -exchange      EXHF   =         0.00000000
  -V(xc)+E(xc)   XCENC  =       -17.81549222
  PAW double counting   =        65.95520812      -30.76852678
  entropy T*S    EENTRO =        -0.02666498
  eigenvalues    EBANDS =        41.23559446
  atomic energy  EATOM  =       206.13125414
  Solvation  Ediel_sol  =         0.00000000
  ---------------------------------------------------
  free energy    TOTEN  =         1.62822818 eV

  energy without entropy =        1.65489316  energy(sigma->0) =        1.64156067


--------------------------------------------------------------------------------------------------------




--------------------------------------- Iteration      1(   2)  ---------------------------------------


     EDDAV:  cpu time    0.1120: real time    0.1318
       DOS:  cpu time    0.0000: real time    0.0017
    --------------------------------------------
      LOOP:  cpu time    0.1120: real time    0.1336

 eigenvalue-minimisations  :   136
 total energy-change (2. order) :-0.1153759E+02  (-0.1117166E+02)
 number of electron       8.0000000 magnetization 
 augmentation part        8.0000000 magnetization 

 Free energy of the ion-electron system (eV)
  ---------------------------------------------------
  alpha Z        PSCENC =         4.40202223
  Ewald energy   TEWEN  =      -265.18101312
  -Hartree energ DENC   =        -2.30415367
  -exchange      EXHF   =         0.00000000
  -V(xc)+E(xc)   XCENC  =       -17.81549222
  PAW double counting   =        65.95520812      -30.76852678
  entropy T*S    EENTRO =        -0.02674157
  eigenvalues    EBANDS =        29.69807860
  atomic energy  EATOM  =       206.13125414
  Solvation  Ediel_sol  =         0.00000000
  ---------------------------------------------------
  free energy    TOTEN  =        -9.90936426 eV

  energy without entropy =       -9.88262269  energy(sigma->0) =       -9.89599348


--------------------------------------------------------------------------------------------------------




--------------------------------------- Iteration      1(   3)  ---------------------------------------


     EDDAV:  cpu time    0.1240: real time    0.1299
       DOS:  cpu time    0.0000: real time    0.0017
    --------------------------------------------
      LOOP:  cpu time    0.1240: real time    0.1315

 eigenvalue-minimisations  :   144
 total energy-change (2. order) :-0.1110447E+00  (-0.1110436E+00)
 number of electron       8.0000000 magnetization 
 augmentation part        8.0000000 magnetization 

 Free energy of the ion-electron system (eV)
  ---------------------------------------------------
  alpha Z        PSCENC =         4.40202223
  Ewald energy   TEWEN  =      -265.18101312
  -Hartree energ DENC   =        -2.30415367
  -exchange      EXHF   =         0.00000000
  -V(xc)+E(xc)   XCENC  =       -17.81549222
  PAW double counting   =        65.95520812      -30.76852678
  entropy T*S    EENTRO =        -0.02680703
  eigenvalues    EBANDS =        29.58709940
  atomic energy  EATOM  =       206.13125414
  Solvation  Ediel_sol  =         0.00000000
  ---------------------------------------------------
  free energy    TOTEN  =       -10.02040892 eV

  energy without entropy =       -9.99360189  energy(sigma->0) =      -10.00700541


--------------------------------------------------------------------------------------------------------




--------------------------------------- Iteration      1(   4)  ---------------------------------------


     EDDAV:  cpu time    0.1160: real time    0.1245
       DOS:  cpu time    0.0040: real time    0.0017
    --------------------------------------------
      LOOP:  cpu time    0.1200: real time    0.1262

 eigenvalue-minimisations  :   144
 total energy-change (2. order) :-0.3442047E-03  (-0.3442049E-03)
 number of electron       8.0000000 magnetization 
 augmentation part        8.0000000 magnetization 

 Free energy of the ion-electron system (eV)
  ---------------------------------------------------
  alpha Z        PSCENC =         4.40202223
  Ewald energy   TEWEN  =      -265.18101312
  -Hartree energ DENC   =        -2.30415367
  -exchange      EXHF   =         0.00000000
  -V(xc)+E(xc)   XCENC  =       -17.81549222
  PAW double counting   =        65.95520812      -30.76852678
  entropy T*S    EENTRO =        -0.02680727
  eigenvalues    EBANDS =        29.58675544
  atomic energy  EATOM  =       206.13125414
  Solvation  Ediel_sol  =         0.00000000
  ---------------------------------------------------
  free energy    TOTEN  =       -10.02075313 eV

  energy without entropy =       -9.99394586  energy(sigma->0) =      -10.00734949


--------------------------------------------------------------------------------------------------------




--------------------------------------- Iteration      1(   5)  ---------------------------------------


     EDDAV:  cpu time    0.1200: real time    0.1280
       DOS:  cpu time    0.0000: real time    0.0018
    CHARGE:  cpu time    0.0160: real time    0.0183
    MIXING:  cpu time    0.0040: real time    0.0025
    --------------------------------------------
      LOOP:  cpu time    0.1400: real time    0.1506

 eigenvalue-minimisations  :   144
 total energy-change (2. order) :-0.1169440E-07  (-0.1211686E-07)
 number of electron       7.9999996 magnetization 
 augmentation part       -0.4588898 magnetization 

 Broyden mixing:
  rms(total) = 0.16035E+00    rms(broyden)= 0.16035E+00
  rms(prec ) = 0.35800E+00
  weight for this iteration     100.00

 Free energy of the ion-electron system (eV)
  ---------------------------------------------------
  alpha Z        PSCENC =         4.40202223
  Ewald energy   TEWEN  =      -265.18101312
  -Hartree energ DENC   =        -2.30415367
  -exchange      EXHF   =         0.00000000
  -V(xc)+E(xc)   XCENC  =       -17.81549222
  PAW double counting   =        65.95520812      -30.76852678
  entropy T*S    EENTRO =        -0.02680727
  eigenvalues    EBANDS =        29.58675543
  atomic energy  EATOM  =       206.13125414
  Solvation  Ediel_sol  =         0.00000000
  ---------------------------------------------------
  free energy    TOTEN  =       -10.02075314 eV

  energy without entropy =       -9.99394587  energy(sigma->0) =      -10.00734950


--------------------------------------------------------------------------------------------------------




--------------------------------------- Iteration      1(   6)  ---------------------------------------


    POTLOK:  cpu time    0.0280: real time    0.0375
    SETDIJ:  cpu time    0.0080: real time    0.0089
     EDDAV:  cpu time    0.0960: real time    0.0952
       DOS:  cpu time    0.0000: real time    0.0015
    CHARGE:  cpu time    0.0160: real time    0.0169
    MIXING:  cpu time    0.0040: real time    0.0021
    --------------------------------------------
      LOOP:  cpu time    0.1520: real time    0.1628

 eigenvalue-minimisations  :   120
 total energy-change (2. order) : 0.4426063E-02  (-0.2119874E-03)
 number of electron       7.9999996 magnetization 
 augmentation part       -0.4605694 magnetization 

 Broyden mixing:
  rms(total) = 0.10031E+00    rms(broyden)= 0.10031E+00
  rms(prec ) = 0.22419E+00
  weight for this iteration     100.00

 eigenvalues of (default mixing * dielectric matrix)
  average eigenvalue GAMMA=   2.6659
  2.6659

 Free energy of the ion-electron system (eV)
  ---------------------------------------------------
  alpha Z        PSCENC =         4.40202223
  Ewald energy   TEWEN  =      -265.18101312
  -Hartree energ DENC   =        -2.33132808
  -exchange      EXHF   =         0.00000000
  -V(xc)+E(xc)   XCENC  =       -17.73227397
  PAW double counting   =        67.55077947      -32.39837201
  entropy T*S    EENTRO =        -0.02679578
  eigenvalues    EBANDS =        29.56940004
  atomic energy  EATOM  =       206.13125414
  Solvation  Ediel_sol  =         0.00000000
  ---------------------------------------------------
  free energy    TOTEN  =       -10.01632708 eV

  energy without entropy =       -9.98953130  energy(sigma->0) =      -10.00292919


--------------------------------------------------------------------------------------------------------




--------------------------------------- Iteration      1(   7)  ---------------------------------------


    POTLOK:  cpu time    0.0280: real time    0.0383
    SETDIJ:  cpu time    0.0080: real time    0.0088
     EDDAV:  cpu time    0.0880: real time    0.0888
       DOS:  cpu time    0.0000: real time    0.0016
    CHARGE:  cpu time    0.0160: real time    0.0161
    MIXING:  cpu time    0.0040: real time    0.0019
    --------------------------------------------
      LOOP:  cpu time    0.1440: real time    0.1554

 eigenvalue-minimisations  :   112
 total energy-change (2. order) : 0.3895164E-02  (-0.6318883E-03)
 number of electron       7.9999996 magnetization 
 augmentation part       -0.4637201 magnetization 

 Broyden mixing:
  rms(total) = 0.36559E-02    rms(broyden)= 0.36554E-02
  rms(prec ) = 0.96118E-02
  weight for this iteration     100.00

 eigenvalues of (default mixing * dielectric matrix)
  average eigenvalue GAMMA=   2.6119
  2.6119  2.6119

 Free energy of the ion-electron system (eV)
  ---------------------------------------------------
  alpha Z        PSCENC =         4.40202223
  Ewald energy   TEWEN  =      -265.18101312
  -Hartree energ DENC   =        -2.48543769
  -exchange      EXHF   =         0.00000000
  -V(xc)+E(xc)   XCENC  =       -17.57269565
  PAW double counting   =        70.07672323      -34.98292744
  entropy T*S    EENTRO =        -0.02678197
  eigenvalues    EBANDS =        29.62642434
  atomic energy  EATOM  =       206.13125414
  Solvation  Ediel_sol  =         0.00000000
  ---------------------------------------------------
  free energy    TOTEN  =       -10.01243191 eV

  energy without entropy =       -9.98564994  energy(sigma->0) =       -9.99904093


--------------------------------------------------------------------------------------------------------




--------------------------------------- Iteration      1(   8)  ---------------------------------------


    POTLOK:  cpu time    0.0280: real time    0.0448
    SETDIJ:  cpu time    0.0080: real time    0.0089
     EDDAV:  cpu time    0.0600: real time    0.0588
       DOS:  cpu time    0.0000: real time    0.0016
    --------------------------------------------
      LOOP:  cpu time    0.0960: real time    0.1139

 eigenvalue-minimisations  :    64
 total energy-change (2. order) : 0.1891111E-04  (-0.1142211E-04)
 number of electron       7.9999996 magnetization 
 augmentation part       -0.4637201 magnetization 

 Free energy of the ion-electron system (eV)
  ---------------------------------------------------
  alpha Z        PSCENC =         4.40202223
  Ewald energy   TEWEN  =      -265.18101312
  -Hartree energ DENC   =        -2.50675488
  -exchange      EXHF   =         0.00000000
  -V(xc)+E(xc)   XCENC  =       -17.57315955
  PAW double counting   =        69.89319419      -34.80030805
  entropy T*S    EENTRO =        -0.02678331
  eigenvalues    EBANDS =        29.64913534
  atomic energy  EATOM  =       206.13125414
  Solvation  Ediel_sol  =         0.00000000
  ---------------------------------------------------
  free energy    TOTEN  =       -10.01241300 eV

  energy without entropy =       -9.98562969  energy(sigma->0) =       -9.99902135


--------------------------------------------------------------------------------------------------------




 average (electrostatic) potential at core
  the test charge radii are     0.9892
  (the norm of the test charge is              1.0000)
       1 -80.5771       2 -80.5771
 
 
 
 E-fermi :   8.7030     XC(G=0): -10.8909     alpha+bet :-15.6819


 k-point     1 :       0.0000    0.0000    0.0000
  band No.  band energies     occupation 
      1      -4.6159      2.00000
      2       6.1726      2.00000
      3       6.2984      2.00000
      4       6.2984      2.00000
      5      10.5240      0.00000
      6      16.7549      0.00000
      7      17.3657      0.00000
      8      17.3657      0.00000

 k-point     2 :       0.3333   -0.0000    0.0000
  band No.  band energies     occupation 
      1      -1.5056      2.00000
      2       5.3533      2.00000
      3       6.7897      2.00000
      4       7.4596      2.00000
      5      10.2571      0.00000
      6      12.6481      0.00000
      7      13.0227      0.00000
      8      14.0054      0.00000

 k-point     3 :       0.3333    0.3333    0.0000
  band No.  band energies     occupation 
      1       1.0433      2.00000
      2       1.0617      2.00000
      3       6.2696      2.00000
      4       8.2311      1.99915
      5       8.7982      0.50084
      6      10.9351      0.00000
      7      15.4611      0.00000
      8      16.5020      0.00000

 k-point     4 :      -0.3333    0.3333    0.0000
  band No.  band energies     occupation 
      1      -3.2978      2.00000
      2       0.5673      2.00000
      3       7.5220      2.00000
      4       9.3509      0.00000
      5      11.1676      0.00000
      6      13.0632      0.00000
      7      16.4197      0.00000
      8      18.9338      0.00000

 k-point     5 :      -0.3333    0.3333    0.3333
  band No.  band energies     occupation 
      1      -2.0123      2.00000
      2       1.1068      2.00000
      3       2.8924      2.00000
      4       5.9407      2.00000
      5      15.1464      0.00000
      6      16.7252      0.00000
      7      18.0695      0.00000
      8      18.9172      0.00000

 k-point     6 :      -0.3333   -0.3333    0.3333
  band No.  band energies     occupation 
      1       2.7744      2.00000
      2       2.8697      2.00000
      3       4.5974      2.00000
      4       4.5974      2.00000
      5       5.1681      2.00000
      6      15.1409      0.00000
      7      15.9224      0.00000
      8      15.9224      0.00000


--------------------------------------------------------------------------------------------------------


 soft charge-density along one line, spin component           1
         0         1         2         3         4         5         6         7         8         9
 total charge-density along one line
 
 pseudopotential strength for first ion, spin component:           1
 18.066  -0.003   0.000  -0.000  -0.000  -0.000   0.000   0.000
 -0.003   0.005  -0.000   0.000   0.000   0.000  -0.000  -0.000
  0.000  -0.000   4.116   0.000   0.000  -0.006  -0.000  -0.000
 -0.000   0.000   0.000   4.117   0.000  -0.000  -0.006  -0.000
 -0.000   0.000   0.000   0.000   4.116  -0.000  -0.000  -0.006
 -0.000   0.000  -0.006  -0.000  -0.000   0.005   0.000   0.000
  0.000  -0.000  -0.000  -0.006  -0.000   0.000   0.005   0.000
  0.000  -0.000  -0.000  -0.000  -0.006   0.000   0.000   0.005
 total augmentation occupancy for first ion, spin component:           1
  1.563  -0.513   0.000   0.000  -0.000  -0.000   0.000   0.000
 -0.513   0.833   0.000   0.000   0.000   0.000   0.000   0.000
  0.000   0.000   0.900   0.000  -0.000  -0.472  -0.000   0.000
  0.000   0.000  -0.000   0.919   0.000   0.000  -0.489   0.000
 -0.000   0.000  -0.000   0.000   0.900   0.000   0.000  -0.472
  0.000  -0.000  -0.472   0.000   0.000   0.326   0.000  -0.000
  0.000   0.000  -0.000  -0.489   0.000  -0.000   0.350  -0.000
  0.000   0.000   0.000   0.000  -0.472  -0.000  -0.000   0.326


------------------------ aborting loop because EDIFF is reached ----------------------------------------


    CHARGE:  cpu time    0.0160: real time    0.0156
    FORLOC:  cpu time    0.0000: real time    0.0009
    FORNL :  cpu time    0.0120: real time    0.0100
    STRESS:  cpu time    0.0480: real time    0.0470
    FORCOR:  cpu time    0.0200: real time    0.0221
    FORHAR:  cpu time    0.0040: real time    0.0057
    MIXING:  cpu time    0.0000: real time    0.0014
    OFIELD:  cpu time    0.0000: real time    0.0005

  FORCE on cell =-STRESS in cart. coord.  units (eV):
  Direction    XX          YY          ZZ          XY          YZ          ZX
  --------------------------------------------------------------------------------------
  Alpha Z     4.40202     4.40202     4.40202
  Ewald     -90.96023   -90.96023   -83.26083    -0.00000     0.00000     0.00000
  Hartree     0.56128     0.56128     1.38791    -0.00000    -0.00000    -0.00000
  E(xc)     -25.40346   -25.40346   -25.33221    -0.00000     0.00000     0.00000
  Local     -11.16129   -11.16129   -16.98688    -0.00002    -0.00002    -0.00002
  n-local    76.90252    75.41793    75.00363     2.29450    -0.95931    -1.15162
  augment   -11.79299   -11.79299   -11.82440     0.00002     0.00002     0.00002
  Kinetic    58.64262    53.29203    60.36160     3.03292     1.26017    -0.66999
  Fock        0.00000     0.00000     0.00000     0.00000     0.00000     0.00000
  -------------------------------------------------------------------------------------
  Total      -2.22711    -2.22711     3.75083    -0.00000    -0.00000     0.00000
  in kB    -116.65169  -116.65169   196.46126    -0.00000    -0.00000     0.00000
  external pressure =      -12.28 kB  Pullay stress =        0.00 kB


 VOLUME and BASIS-vectors are now :
 -----------------------------------------------------------------------------
  energy-cutoff  :      350.00
  volume of cell :       30.59
      direct lattice vectors                 reciprocal lattice vectors
    -2.450000000  2.450000000  1.274000000     0.000000000  0.204081633  0.392464678
     2.450000000 -2.450000000  1.274000000     0.204081633  0.000000000  0.392464678
     2.450000000  2.450000000 -1.274000000     0.204081633  0.204081633 -0.000000000

  length of vectors
     3.691622408  3.691622408  3.691622408     0.442354876  0.442354876  0.288615013


 FORCES acting on ions
    electron-ion (+dipol)            ewald-force                    non-local-force                 convergence-correction
 -----------------------------------------------------------------------------------------------
   -.106E-06 0.106E-06 -.662E-14   0.198E-14 0.156E-15 0.342E-17   -.227E-16 -.186E-17 0.181E-16   -.864E-08 0.864E-08 0.106E-15
   0.106E-06 -.106E-06 0.941E-14   -.185E-14 0.943E-16 0.891E-15   0.153E-16 0.313E-17 -.117E-16   0.864E-08 -.864E-08 0.244E-15
 -----------------------------------------------------------------------------------------------
   -.174E-13 -.186E-14 0.279E-14   0.139E-15 0.250E-15 0.894E-15   -.741E-17 0.127E-17 0.638E-17   0.290E-15 -.901E-16 0.349E-15
 
 
 POSITION                                       TOTAL-FORCE (eV/Angst)
 -----------------------------------------------------------------------------------
      2.45000      0.00000      0.63700        -0.000000     -0.000000     -0.000000
      0.00000      0.00000      0.00000         0.000000      0.000000      0.000000
 -----------------------------------------------------------------------------------
    total drift:                               -0.000000     -0.000000      0.000000


--------------------------------------------------------------------------------------------------------



  FREE ENERGIE OF THE ION-ELECTRON SYSTEM (eV)
  ---------------------------------------------------
  free  energy   TOTEN  =       -10.01241300 eV

  energy  without entropy=       -9.98562969  energy(sigma->0) =       -9.99902135
 


--------------------------------------------------------------------------------------------------------


    POTLOK:  cpu time    0.0400: real time    0.0564


--------------------------------------------------------------------------------------------------------




--------------------------------------------------------------------------------------------------------


    WAVPRE:  cpu time    0.9600: real time    1.7056
    FEWALD:  cpu time    0.0000: real time    0.0007
    GENKIN:  cpu time    0.0040: real time    0.0045
    ORTHCH:  cpu time    0.0040: real time    0.0048
     LOOP+:  cpu time    2.1680: real time    3.0985


--------------------------------------- Iteration      2(   1)  ---------------------------------------


    POTLOK:  cpu time    0.0320: real time    0.0340
    SETDIJ:  cpu time    0.0080: real time    0.0089
     EDDAV:  cpu time    0.1200: real time    0.1209
       DOS:  cpu time    0.0000: real time    0.0018
    CHARGE:  cpu time    0.0160: real time    0.0162
    MIXING:  cpu time    0.0040: real time    0.0017
    --------------------------------------------
      LOOP:  cpu time    0.1800: real time    0.1841

 eigenvalue-minimisations  :   152
 total energy-change (2. order) :-0.2733350E+00  (-0.1373894E+01)
 number of electron       8.0000004 magnetization 
 augmentation part       -0.4664217 magnetization 

 Broyden mixing:
  rms(total) = 0.21285E+00    rms(broyden)= 0.21284E+00
  rms(prec ) = 0.67680E+00
  weight for this iteration     100.00

 Free energy of the ion-electron system (eV)
  ---------------------------------------------------
  alpha Z        PSCENC =         4.50814602
  Ewald energy   TEWEN  =      -266.95345096
  -Hartree energ DENC   =        -2.45436956
  -exchange      EXHF   =         0.00000000
  -V(xc)+E(xc)   XCENC  =       -17.46261268
  PAW double counting   =        69.89451541      -34.80192859
  entropy T*S    EENTRO =        -0.02663307
  eigenvalues    EBANDS =        30.87931236
  atomic energy  EATOM  =       206.13125414
  Solvation  Ediel_sol  =         0.00000000
  ---------------------------------------------------
  free energy    TOTEN  =       -10.28576693 eV

  energy without entropy =      -10.25913386  energy(sigma->0) =      -10.27245039


--------------------------------------------------------------------------------------------------------




--------------------------------------- Iteration      2(   2)  ---------------------------------------


    POTLOK:  cpu time    0.0280: real time    0.0398
    SETDIJ:  cpu time    0.0080: real time    0.0089
     EDDAV:  cpu time    0.0840: real time    0.0822
       DOS:  cpu time    0.0000: real time    0.0016
    CHARGE:  cpu time    0.0160: real time    0.0163
    MIXING:  cpu time    0.0000: real time    0.0017
    --------------------------------------------
      LOOP:  cpu time    0.1360: real time    0.1505

 eigenvalue-minimisations  :   104
 total energy-change (2. order) : 0.1260571E+00  (-0.2838246E-01)
 number of electron       8.0000004 magnetization 
 augmentation part       -0.4665531 magnetization 

 Broyden mixing:
  rms(total) = 0.12162E+00    rms(broyden)= 0.12162E+00
  rms(prec ) = 0.38597E+00
  weight for this iteration     100.00

 eigenvalues of (default mixing * dielectric matrix)
  average eigenvalue GAMMA=   2.3247
  2.3247

 Free energy of the ion-electron system (eV)
  ---------------------------------------------------
  alpha Z        PSCENC =         4.50814602
  Ewald energy   TEWEN  =      -266.95345096
  -Hartree energ DENC   =        -2.47979468
  -exchange      EXHF   =         0.00000000
  -V(xc)+E(xc)   XCENC  =       -17.44323850
  PAW double counting   =        70.73338469      -35.66376377
  entropy T*S    EENTRO =        -0.02663540
  eigenvalues    EBANDS =        31.03438866
  atomic energy  EATOM  =       206.13125414
  Solvation  Ediel_sol  =         0.00000000
  ---------------------------------------------------
  free energy    TOTEN  =       -10.15970980 eV

  energy without entropy =      -10.13307440  energy(sigma->0) =      -10.14639210


--------------------------------------------------------------------------------------------------------




--------------------------------------- Iteration      2(   3)  ---------------------------------------


    POTLOK:  cpu time    0.0280: real time    0.0398
    SETDIJ:  cpu time    0.0120: real time    0.0090
     EDDAV:  cpu time    0.1160: real time    0.1196
       DOS:  cpu time    0.0040: real time    0.0017
    CHARGE:  cpu time    0.0160: real time    0.0163
    MIXING:  cpu time    0.0000: real time    0.0017
    --------------------------------------------
      LOOP:  cpu time    0.1760: real time    0.1882

 eigenvalue-minimisations  :   152
 total energy-change (2. order) : 0.6468269E-01  (-0.1738871E-01)
 number of electron       8.0000004 magnetization 
 augmentation part       -0.4652636 magnetization 

 Broyden mixing:
  rms(total) = 0.11650E-01    rms(broyden)= 0.11649E-01
  rms(prec ) = 0.29733E-01
  weight for this iteration     100.00

 eigenvalues of (default mixing * dielectric matrix)
  average eigenvalue GAMMA=   1.4071
  2.2857  0.5285

 Free energy of the ion-electron system (eV)
  ---------------------------------------------------
  alpha Z        PSCENC =         4.50814602
  Ewald energy   TEWEN  =      -266.95345096
  -Hartree energ DENC   =        -2.71090544
  -exchange      EXHF   =         0.00000000
  -V(xc)+E(xc)   XCENC  =       -17.39509165
  PAW double counting   =        71.71629776      -36.67556682
  entropy T*S    EENTRO =        -0.02664818
  eigenvalues    EBANDS =        31.31093803
  atomic energy  EATOM  =       206.13125414
  Solvation  Ediel_sol  =         0.00000000
  ---------------------------------------------------
  free energy    TOTEN  =       -10.09502711 eV

  energy without entropy =      -10.06837893  energy(sigma->0) =      -10.08170302


--------------------------------------------------------------------------------------------------------




--------------------------------------- Iteration      2(   4)  ---------------------------------------


    POTLOK:  cpu time    0.0280: real time    0.0398
    SETDIJ:  cpu time    0.0080: real time    0.0089
     EDDAV:  cpu time    0.0800: real time    0.0773
       DOS:  cpu time    0.0000: real time    0.0018
    CHARGE:  cpu time    0.0160: real time    0.0163
    MIXING:  cpu time    0.0000: real time    0.0020
    --------------------------------------------
      LOOP:  cpu time    0.1360: real time    0.1461

 eigenvalue-minimisations  :    96
 total energy-change (2. order) :-0.3316952E-03  (-0.5276431E-03)
 number of electron       8.0000004 magnetization 
 augmentation part       -0.4653338 magnetization 

 Broyden mixing:
  rms(total) = 0.97398E-02    rms(broyden)= 0.97398E-02
  rms(prec ) = 0.22327E-01
  weight for this iteration     100.00

 eigenvalues of (default mixing * dielectric matrix)
  average eigenvalue GAMMA=   1.7372
  2.3753  1.4182  1.4182

 Free energy of the ion-electron system (eV)
  ---------------------------------------------------
  alpha Z        PSCENC =         4.50814602
  Ewald energy   TEWEN  =      -266.95345096
  -Hartree energ DENC   =        -2.69445537
  -exchange      EXHF   =         0.00000000
  -V(xc)+E(xc)   XCENC  =       -17.39717027
  PAW double counting   =        71.66705601      -36.62477888
  entropy T*S    EENTRO =        -0.02664768
  eigenvalues    EBANDS =        31.29468821
  atomic energy  EATOM  =       206.13125414
  Solvation  Ediel_sol  =         0.00000000
  ---------------------------------------------------
  free energy    TOTEN  =       -10.09535880 eV

  energy without entropy =      -10.06871112  energy(sigma->0) =      -10.08203496


--------------------------------------------------------------------------------------------------------




--------------------------------------- Iteration      2(   5)  ---------------------------------------


    POTLOK:  cpu time    0.0320: real time    0.0417
    SETDIJ:  cpu time    0.0080: real time    0.0090
     EDDAV:  cpu time    0.0640: real time    0.0653
       DOS:  cpu time    0.0000: real time    0.0015
    --------------------------------------------
      LOOP:  cpu time    0.1000: real time    0.1178

 eigenvalue-minimisations  :    72
 total energy-change (2. order) : 0.1675476E-04  (-0.1182383E-04)
 number of electron       8.0000004 magnetization 
 augmentation part       -0.4653338 magnetization 

 Free energy of the ion-electron system (eV)
  ---------------------------------------------------
  alpha Z        PSCENC =         4.50814602
  Ewald energy   TEWEN  =      -266.95345096
  -Hartree energ DENC   =        -2.67306416
  -exchange      EXHF   =         0.00000000
  -V(xc)+E(xc)   XCENC  =       -17.39831938
  PAW double counting   =        71.63126600      -36.58730626
  entropy T*S    EENTRO =        -0.02664763
  eigenvalues    EBANDS =        31.27278017
  atomic energy  EATOM  =       206.13125414
  Solvation  Ediel_sol  =         0.00000000
  ---------------------------------------------------
  free energy    TOTEN  =       -10.09534205 eV

  energy without entropy =      -10.06869442  energy(sigma->0) =      -10.08201823


--------------------------------------------------------------------------------------------------------




 average (electrostatic) potential at core
  the test charge radii are     0.9892
  (the norm of the test charge is              1.0000)
       1 -80.1661       2 -80.1661
 
 
 
 E-fermi :   9.6024     XC(G=0): -10.9739     alpha+bet :-16.0600


 k-point     1 :       0.0000    0.0000    0.0000
  band No.  band energies     occupation 
      1      -4.5052      2.00000
      2       7.3306      2.00000
      3       7.3306      2.00000
      4       8.6829      2.00000
      5      11.2020      0.00000
      6      16.2238      0.00000
      7      18.6642      0.00000
      8      18.6642      0.00000

 k-point     2 :       0.3333   -0.0000    0.0000
  band No.  band energies     occupation 
      1      -1.7344      2.00000
      2       5.7309      2.00000
      3       6.9102      2.00000
      4       7.2242      2.00000
      5      10.1481      0.00011
      6      11.8837      0.00000
      7      14.2046      0.00000
      8      15.2098      0.00000

 k-point     3 :       0.3333    0.3333    0.0000
  band No.  band energies     occupation 
      1       1.0790      2.00000
      2       1.1748      2.00000
      3       5.1771      2.00000
      4       8.3993      2.00000
      5       9.6978      0.49989
      6      11.0040      0.00000
      7      16.8196      0.00000
      8      17.1407      0.00000

 k-point     4 :      -0.3333    0.3333    0.0000
  band No.  band energies     occupation 
      1      -3.0226      2.00000
      2       1.3345      2.00000
      3       8.6192      2.00000
      4      11.2304      0.00000
      5      12.2889      0.00000
      6      15.2269      0.00000
      7      16.3594      0.00000
      8      16.9128      0.00000

 k-point     5 :      -0.3333    0.3333    0.3333
  band No.  band energies     occupation 
      1      -1.5616      2.00000
      2       2.2876      2.00000
      3       3.3214      2.00000
      4       7.0317      2.00000
      5      13.9548      0.00000
      6      14.1531      0.00000
      7      19.0799      0.00000
      8      20.2236      0.00000

 k-point     6 :      -0.3333   -0.3333    0.3333
  band No.  band energies     occupation 
      1       2.6202      2.00000
      2       3.6275      2.00000
      3       4.5275      2.00000
      4       4.5275      2.00000
      5       4.8066      2.00000
      6      15.7994      0.00000
      7      15.7994      0.00000
      8      16.0426      0.00000


--------------------------------------------------------------------------------------------------------


 soft charge-density along one line, spin component           1
         0         1         2         3         4         5         6         7         8         9
 total charge-density along one line
 
 pseudopotential strength for first ion, spin component:           1
 18.029  -0.003  -0.000  -0.000   0.000   0.000   0.000  -0.000
 -0.003   0.005   0.000   0.000  -0.000  -0.000  -0.000   0.000
 -0.000   0.000   4.114   0.000   0.000  -0.006  -0.000  -0.000
 -0.000   0.000   0.000   4.115   0.000  -0.000  -0.006  -0.000
  0.000  -0.000   0.000   0.000   4.114  -0.000  -0.000  -0.006
  0.000  -0.000  -0.006  -0.000  -0.000   0.005   0.000   0.000
  0.000  -0.000  -0.000  -0.006  -0.000   0.000   0.005   0.000
 -0.000   0.000  -0.000  -0.000  -0.006   0.000   0.000   0.005
 total augmentation occupancy for first ion, spin component:           1
  1.556  -0.599  -0.000   0.000   0.000   0.000   0.000   0.000
 -0.599   0.911  -0.000   0.000   0.000  -0.000   0.000   0.000
 -0.000   0.000   1.011   0.000   0.000  -0.554  -0.000   0.000
  0.000   0.000   0.000   0.804  -0.000  -0.000  -0.445   0.000
  0.000   0.000   0.000  -0.000   1.011   0.000   0.000  -0.554
 -0.000  -0.000  -0.554  -0.000   0.000   0.402   0.000   0.000
  0.000   0.000   0.000  -0.445   0.000   0.000   0.313  -0.000
  0.000   0.000   0.000   0.000  -0.554   0.000  -0.000   0.402


------------------------ aborting loop because EDIFF is reached ----------------------------------------


    CHARGE:  cpu time    0.0200: real time    0.0202
    FORLOC:  cpu time    0.0040: real time    0.0009
    FORNL :  cpu time    0.0080: real time    0.0101
    STRESS:  cpu time    0.0480: real time    0.0464
    FORCOR:  cpu time    0.0200: real time    0.0214
    FORHAR:  cpu time    0.0040: real time    0.0055
    MIXING:  cpu time    0.0040: real time    0.0015
    OFIELD:  cpu time    0.0000: real time    0.0005

  FORCE on cell =-STRESS in cart. coord.  units (eV):
  Direction    XX          YY          ZZ          XY          YZ          ZX
  --------------------------------------------------------------------------------------
  Alpha Z     4.50815     4.50815     4.50815
  Ewald     -84.34904   -84.34904   -98.25554     0.00000    -0.00000     0.00000
  Hartree     1.15641     1.15641     0.34177    -0.00000    -0.00000    -0.00000
  E(xc)     -25.72472   -25.72472   -25.47460     0.00000     0.00000     0.00000
  Local     -18.86755   -18.86755    -2.06407    -0.00002    -0.00002    -0.00002
  n-local    79.06088    77.88399    73.64173     2.65576    -1.39723    -1.31731
  augment   -12.01629   -12.01629   -11.47473     0.00002     0.00002     0.00002
  Kinetic    61.86761    55.98098    57.17393     3.16741     0.57983    -1.25835
  Fock        0.00000     0.00000     0.00000     0.00000     0.00000     0.00000
  -------------------------------------------------------------------------------------
  Total       2.10369     2.10369    -1.60337     0.00000     0.00000    -0.00000
  in kB     112.84362   112.84362   -86.00620     0.00000     0.00000    -0.00000
  external pressure =       46.56 kB  Pullay stress =        0.00 kB


 VOLUME and BASIS-vectors are now :
 -----------------------------------------------------------------------------
  energy-cutoff  :      350.00
  volume of cell :       29.87
      direct lattice vectors                 reciprocal lattice vectors
    -2.318383803  2.318383803  1.389265292     0.000000000  0.215667483  0.359902463
     2.318383803 -2.318383803  1.389265292     0.215667483  0.000000000  0.359902463
     2.318383803  2.318383803 -1.389265292     0.215667483  0.215667483  0.000000000

  length of vectors
     3.560879802  3.560879802  3.560879802     0.419573886  0.419573886  0.304999880


 FORCES acting on ions
    electron-ion (+dipol)            ewald-force                    non-local-force                 convergence-correction
 -----------------------------------------------------------------------------------------------
   0.176E-06 -.176E-06 0.991E-14   0.215E-14 0.530E-16 -.212E-15   -.425E-16 0.685E-16 0.245E-16   0.182E-07 -.182E-07 -.774E-16
   -.176E-06 0.176E-06 -.128E-14   -.205E-14 -.173E-15 -.609E-15   0.368E-16 -.812E-16 -.177E-16   -.182E-07 0.182E-07 0.431E-16
 -----------------------------------------------------------------------------------------------
   -.249E-13 -.170E-14 0.863E-14   0.103E-15 -.120E-15 -.821E-15   -.574E-17 -.127E-16 0.680E-17   0.219E-15 -.180E-15 -.343E-16
 
 
 POSITION                                       TOTAL-FORCE (eV/Angst)
 -----------------------------------------------------------------------------------
      2.31838      0.00000      0.69463        -0.000000      0.000000     -0.000000
      0.00000      0.00000      0.00000         0.000000     -0.000000      0.000000
 -----------------------------------------------------------------------------------
    total drift:                               -0.000000     -0.000000      0.000000


--------------------------------------------------------------------------------------------------------



  FREE ENERGIE OF THE ION-ELECTRON SYSTEM (eV)
  ---------------------------------------------------
  free  energy   TOTEN  =       -10.09534205 eV

  energy  without entropy=      -10.06869442  energy(sigma->0) =      -10.08201823
 
 d Force = 0.0000000E+00[ 0.000E+00, 0.000E+00]  d Energy = 0.8292905E-01-0.829E-01
 d Force = 0.0000000E+00[ 0.000E+00, 0.000E+00]  d Ewald  = 0.1772438E+01-0.177E+01


--------------------------------------------------------------------------------------------------------


    POTLOK:  cpu time    0.0400: real time    0.0618


--------------------------------------------------------------------------------------------------------


 Steepest descent step on ions:
 trial-energy change:   -0.082929  1 .order   -0.103776   -0.578642    0.371090
  (g-gl).g = 0.579E+00      g.g   = 0.579E+00  gl.gl    = 0.000E+00
 g(Force)  = 0.107E-48   g(Stress)= 0.579E+00 ortho     = 0.000E+00
 gamma     =   0.00000
 trial     =   1.00000
 opt step  =   0.57713  (harmonic =   0.60927) maximal distance =0.00000000
 next E    =   -10.175381   (d E  =  -0.16297)


--------------------------------------------------------------------------------------------------------


    WAVPRE:  cpu time    0.0120: real time    0.0337
    FEWALD:  cpu time    0.0000: real time    0.0009
    GENKIN:  cpu time    0.0040: real time    0.0046
    ORTHCH:  cpu time    0.0040: real time    0.0048
     LOOP+:  cpu time    0.9400: real time    1.1178


--------------------------------------- Iteration      3(   1)  ---------------------------------------


    POTLOK:  cpu time    0.0280: real time    0.0351
    SETDIJ:  cpu time    0.0080: real time    0.0090
     EDDAV:  cpu time    0.1080: real time    0.1086
       DOS:  cpu time    0.0040: real time    0.0016
    CHARGE:  cpu time    0.0160: real time    0.0163
    MIXING:  cpu time    0.0000: real time    0.0017
    --------------------------------------------
      LOOP:  cpu time    0.1640: real time    0.1734

 eigenvalue-minimisations  :   136
 total energy-change (2. order) :-0.1068229E+00  (-0.2290037E+00)
 number of electron       8.0000001 magnetization 
 augmentation part       -0.4628441 magnetization 

 Broyden mixing:
  rms(total) = 0.84939E-01    rms(broyden)= 0.84937E-01
  rms(prec ) = 0.26388E+00
  weight for this iteration     100.00

 Free energy of the ion-electron system (eV)
  ---------------------------------------------------
  alpha Z        PSCENC =         4.45557043
  Ewald energy   TEWEN  =      -266.30074763
  -Hartree energ DENC   =        -2.61487107
  -exchange      EXHF   =         0.00000000
  -V(xc)+E(xc)   XCENC  =       -17.46162961
  PAW double counting   =        71.59708592      -36.55196450
  entropy T*S    EENTRO =        -0.02663135
  eigenvalues    EBANDS =        30.56975195
  atomic energy  EATOM  =       206.13125414
  Solvation  Ediel_sol  =         0.00000000
  ---------------------------------------------------
  free energy    TOTEN  =       -10.20218172 eV

  energy without entropy =      -10.17555037  energy(sigma->0) =      -10.18886605


--------------------------------------------------------------------------------------------------------




--------------------------------------- Iteration      3(   2)  ---------------------------------------


    POTLOK:  cpu time    0.0280: real time    0.0417
    SETDIJ:  cpu time    0.0120: real time    0.0088
     EDDAV:  cpu time    0.0800: real time    0.0826
       DOS:  cpu time    0.0000: real time    0.0018
    CHARGE:  cpu time    0.0160: real time    0.0163
    MIXING:  cpu time    0.0040: real time    0.0017
    --------------------------------------------
      LOOP:  cpu time    0.1400: real time    0.1528

 eigenvalue-minimisations  :   104
 total energy-change (2. order) : 0.1797979E-01  (-0.4879782E-02)
 number of electron       8.0000001 magnetization 
 augmentation part       -0.4639094 magnetization 

 Broyden mixing:
  rms(total) = 0.49007E-01    rms(broyden)= 0.49007E-01
  rms(prec ) = 0.15199E+00
  weight for this iteration     100.00

 eigenvalues of (default mixing * dielectric matrix)
  average eigenvalue GAMMA=   2.3483
  2.3483

 Free energy of the ion-electron system (eV)
  ---------------------------------------------------
  alpha Z        PSCENC =         4.45557043
  Ewald energy   TEWEN  =      -266.30074763
  -Hartree energ DENC   =        -2.53317635
  -exchange      EXHF   =         0.00000000
  -V(xc)+E(xc)   XCENC  =       -17.47709754
  PAW double counting   =        71.16198688      -36.10435148
  entropy T*S    EENTRO =        -0.02663135
  eigenvalues    EBANDS =        30.50899095
  atomic energy  EATOM  =       206.13125414
  Solvation  Ediel_sol  =         0.00000000
  ---------------------------------------------------
  free energy    TOTEN  =       -10.18420193 eV

  energy without entropy =      -10.15757058  energy(sigma->0) =      -10.17088626


--------------------------------------------------------------------------------------------------------




--------------------------------------- Iteration      3(   3)  ---------------------------------------


    POTLOK:  cpu time    0.0280: real time    0.0410
    SETDIJ:  cpu time    0.0080: real time    0.0091
     EDDAV:  cpu time    0.1040: real time    0.1052
       DOS:  cpu time    0.0040: real time    0.0017
    CHARGE:  cpu time    0.0160: real time    0.0163
    MIXING:  cpu time    0.0000: real time    0.0018
    --------------------------------------------
      LOOP:  cpu time    0.1600: real time    0.1748

 eigenvalue-minimisations  :   136
 total energy-change (2. order) : 0.1020721E-01  (-0.2778545E-02)
 number of electron       8.0000002 magnetization 
 augmentation part       -0.4639876 magnetization 

 Broyden mixing:
  rms(total) = 0.49473E-02    rms(broyden)= 0.49472E-02
  rms(prec ) = 0.12650E-01
  weight for this iteration     100.00

 eigenvalues of (default mixing * dielectric matrix)
  average eigenvalue GAMMA=   1.4638
  0.6415  2.2862

 Free energy of the ion-electron system (eV)
  ---------------------------------------------------
  alpha Z        PSCENC =         4.45557043
  Ewald energy   TEWEN  =      -266.30074763
  -Hartree energ DENC   =        -2.46427838
  -exchange      EXHF   =         0.00000000
  -V(xc)+E(xc)   XCENC  =       -17.49468955
  PAW double counting   =        70.61526528      -35.54321944
  entropy T*S    EENTRO =        -0.02663135
  eigenvalues    EBANDS =        30.45348177
  atomic energy  EATOM  =       206.13125414
  Solvation  Ediel_sol  =         0.00000000
  ---------------------------------------------------
  free energy    TOTEN  =       -10.17399472 eV

  energy without entropy =      -10.14736338  energy(sigma->0) =      -10.16067905


--------------------------------------------------------------------------------------------------------




--------------------------------------- Iteration      3(   4)  ---------------------------------------


    POTLOK:  cpu time    0.0280: real time    0.0392
    SETDIJ:  cpu time    0.0080: real time    0.0090
     EDDAV:  cpu time    0.0720: real time    0.0725
       DOS:  cpu time    0.0040: real time    0.0018
    --------------------------------------------
      LOOP:  cpu time    0.1120: real time    0.1226

 eigenvalue-minimisations  :    88
 total energy-change (2. order) :-0.4615457E-04  (-0.9960909E-04)
 number of electron       8.0000002 magnetization 
 augmentation part       -0.4639876 magnetization 

 Free energy of the ion-electron system (eV)
  ---------------------------------------------------
  alpha Z        PSCENC =         4.45557043
  Ewald energy   TEWEN  =      -266.30074763
  -Hartree energ DENC   =        -2.46984038
  -exchange      EXHF   =         0.00000000
  -V(xc)+E(xc)   XCENC  =       -17.49393548
  PAW double counting   =        70.63325446      -35.56169076
  entropy T*S    EENTRO =        -0.02663135
  eigenvalues    EBANDS =        30.45872569
  atomic energy  EATOM  =       206.13125414
  Solvation  Ediel_sol  =         0.00000000
  ---------------------------------------------------
  free energy    TOTEN  =       -10.17404088 eV

  energy without entropy =      -10.14740953  energy(sigma->0) =      -10.16072520


--------------------------------------------------------------------------------------------------------




 average (electrostatic) potential at core
  the test charge radii are     0.9892
  (the norm of the test charge is              1.0000)
       1 -80.3788       2 -80.3788
 
 
 
 E-fermi :   9.1801     XC(G=0): -10.9376     alpha+bet :-15.8727


 k-point     1 :       0.0000    0.0000    0.0000
  band No.  band energies     occupation 
      1      -4.5486      2.00000
      2       6.8774      2.00000
      3       6.8774      2.00000
      4       7.5934      2.00000
      5      10.8905      0.00000
      6      16.6852      0.00000
      7      18.3592      0.00000
      8      18.3592      0.00000

 k-point     2 :       0.3333   -0.0000    0.0000
  band No.  band energies     occupation 
      1      -1.6461      2.00000
      2       5.7060      2.00000
      3       6.8380      2.00000
      4       7.1304      2.00000
      5      10.1552      0.00000
      6      12.1348      0.00000
      7      13.7432      0.00000
      8      14.5977      0.00000

 k-point     3 :       0.3333    0.3333    0.0000
  band No.  band energies     occupation 
      1       1.0624      2.00000
      2       1.1179      2.00000
      3       5.5833      2.00000
      4       8.3410      2.00000
      5       9.2755      0.50000
      6      10.8742      0.00000
      7      16.2055      0.00000
      8      16.9366      0.00000

 k-point     4 :      -0.3333    0.3333    0.0000
  band No.  band energies     occupation 
      1      -3.1371      2.00000
      2       1.0107      2.00000
      3       8.1471      2.00000
      4      10.4086      0.00000
      5      11.8737      0.00000
      6      14.2821      0.00000
      7      17.2999      0.00000
      8      17.5941      0.00000

 k-point     5 :      -0.3333    0.3333    0.3333
  band No.  band energies     occupation 
      1      -1.7504      2.00000
      2       1.7832      2.00000
      3       3.1254      2.00000
      4       6.5546      2.00000
      5      14.8081      0.00000
      6      15.1854      0.00000
      7      18.1596      0.00000
      8      19.7330      0.00000

 k-point     6 :      -0.3333   -0.3333    0.3333
  band No.  band energies     occupation 
      1       2.8110      2.00000
      2       3.2889      2.00000
      3       4.5295      2.00000
      4       4.5295      2.00000
      5       4.7634      2.00000
      6      15.6146      0.00000
      7      15.7717      0.00000
      8      15.7718      0.00000


--------------------------------------------------------------------------------------------------------


 soft charge-density along one line, spin component           1
         0         1         2         3         4         5         6         7         8         9
 total charge-density along one line
 
 pseudopotential strength for first ion, spin component:           1
 18.048  -0.003   0.000  -0.000  -0.000  -0.000   0.000   0.000
 -0.003   0.005  -0.000   0.000   0.000   0.000  -0.000  -0.000
  0.000  -0.000   4.115   0.000   0.000  -0.006  -0.000  -0.000
 -0.000   0.000   0.000   4.116   0.000  -0.000  -0.006  -0.000
 -0.000   0.000   0.000   0.000   4.115  -0.000  -0.000  -0.006
 -0.000   0.000  -0.006  -0.000  -0.000   0.005   0.000   0.000
  0.000  -0.000  -0.000  -0.006  -0.000   0.000   0.005   0.000
  0.000  -0.000  -0.000  -0.000  -0.006   0.000   0.000   0.005
 total augmentation occupancy for first ion, spin component:           1
  1.558  -0.553   0.000   0.000  -0.000   0.000   0.000  -0.000
 -0.553   0.846   0.000   0.000  -0.000   0.000   0.000   0.000
  0.000  -0.000   0.963   0.000   0.000  -0.520  -0.000  -0.000
  0.000   0.000   0.000   0.844   0.000  -0.000  -0.448  -0.000
 -0.000  -0.000   0.000   0.000   0.963  -0.000  -0.000  -0.520
  0.000   0.000  -0.520  -0.000  -0.000   0.371   0.000   0.000
  0.000   0.000  -0.000  -0.448  -0.000   0.000   0.307   0.000
 -0.000   0.000  -0.000  -0.000  -0.520   0.000   0.000   0.371


------------------------ aborting loop because EDIFF is reached ----------------------------------------


    CHARGE:  cpu time    0.0200: real time    0.0173
    FORLOC:  cpu time    0.0000: real time    0.0009
    FORNL :  cpu time    0.0080: real time    0.0100
    STRESS:  cpu time    0.0440: real time    0.0463
    FORCOR:  cpu time    0.0240: real time    0.0215
    FORHAR:  cpu time    0.0040: real time    0.0058
    MIXING:  cpu time    0.0000: real time    0.0014
    OFIELD:  cpu time    0.0000: real time    0.0004

  FORCE on cell =-STRESS in cart. coord.  units (eV):
  Direction    XX          YY          ZZ          XY          YZ          ZX
  --------------------------------------------------------------------------------------
  Alpha Z     4.45557     4.45557     4.45557
  Ewald     -86.90202   -86.90202   -92.49692    -0.00000    -0.00000     0.00000
  Hartree     0.87724     0.87724     0.72552    -0.00000    -0.00000    -0.00000
  E(xc)     -25.55343   -25.55343   -25.35837     0.00000     0.00000     0.00000
  Local     -15.72882   -15.72882    -7.62275    -0.00002    -0.00002    -0.00002
  n-local    78.05441    76.72012    73.90153     2.55927    -1.28809    -1.30848
  augment   -11.91732   -11.91732   -11.59615     0.00001     0.00001     0.00001
  Kinetic    60.35922    54.67853    58.21153     3.13184     0.86888    -1.00778
  Fock        0.00000     0.00000     0.00000     0.00000     0.00000     0.00000
  -------------------------------------------------------------------------------------
  Total       0.13737     0.13737     0.21996     0.00000     0.00000    -0.00000
  in kB       7.28246     7.28246    11.66140     0.00000     0.00000    -0.00000
  external pressure =        8.74 kB  Pullay stress =        0.00 kB


 VOLUME and BASIS-vectors are now :
 -----------------------------------------------------------------------------
  energy-cutoff  :      350.00
  volume of cell :       30.22
      direct lattice vectors                 reciprocal lattice vectors
    -2.374040793  2.374040793  1.340522665     0.000000000  0.210611377  0.372988845
     2.374040793 -2.374040793  1.340522665     0.210611377  0.000000000  0.372988845
     2.374040793  2.374040793 -1.340522665     0.210611377  0.210611377 -0.000000000

  length of vectors
     3.615126608  3.615126608  3.615126608     0.428343122  0.428343122  0.297849465


 FORCES acting on ions
    electron-ion (+dipol)            ewald-force                    non-local-force                 convergence-correction
 -----------------------------------------------------------------------------------------------
   0.954E-07 -.954E-07 0.696E-14   0.186E-14 0.110E-14 0.795E-15   0.864E-17 -.191E-16 -.236E-16   -.815E-08 0.815E-08 -.424E-16
   -.954E-07 0.954E-07 0.331E-15   -.181E-14 -.105E-14 -.114E-15   -.271E-16 0.388E-16 0.230E-16   0.815E-08 -.815E-08 0.191E-15
 -----------------------------------------------------------------------------------------------
   -.222E-13 -.578E-14 0.729E-14   0.504E-16 0.504E-16 0.680E-15   -.185E-16 0.197E-16 -.605E-18   -.135E-15 -.421E-16 0.148E-15
 
 
 POSITION                                       TOTAL-FORCE (eV/Angst)
 -----------------------------------------------------------------------------------
      2.37404      0.00000      0.67026         0.000000     -0.000000     -0.000000
      0.00000      0.00000      0.00000        -0.000000      0.000000      0.000000
 -----------------------------------------------------------------------------------
    total drift:                               -0.000000     -0.000000      0.000000


--------------------------------------------------------------------------------------------------------



  FREE ENERGIE OF THE ION-ELECTRON SYSTEM (eV)
  ---------------------------------------------------
  free  energy   TOTEN  =       -10.17404088 eV

  energy  without entropy=      -10.14740953  energy(sigma->0) =      -10.16072520
 
 d Force = 0.0000000E+00[ 0.000E+00, 0.000E+00]  d Energy = 0.7869883E-01-0.787E-01
 d Force = 0.0000000E+00[ 0.000E+00, 0.000E+00]  d Ewald  =-0.6527033E+00 0.653E+00


--------------------------------------------------------------------------------------------------------


    POTLOK:  cpu time    0.0400: real time    0.0601


--------------------------------------------------------------------------------------------------------




--------------------------------------------------------------------------------------------------------


    WAVPRE:  cpu time    0.0120: real time    0.0403
    FEWALD:  cpu time    0.0040: real time    0.0007
    GENKIN:  cpu time    0.0040: real time    0.0045
    ORTHCH:  cpu time    0.0040: real time    0.0048
     LOOP+:  cpu time    0.7800: real time    0.9382


--------------------------------------- Iteration      4(   1)  ---------------------------------------


    POTLOK:  cpu time    0.0320: real time    0.0351
    SETDIJ:  cpu time    0.0080: real time    0.0089
     EDDAV:  cpu time    0.0600: real time    0.0631
       DOS:  cpu time    0.0040: real time    0.0017
    CHARGE:  cpu time    0.0160: real time    0.0163
    MIXING:  cpu time    0.0000: real time    0.0015
    --------------------------------------------
      LOOP:  cpu time    0.1200: real time    0.1276

 eigenvalue-minimisations  :    72
 total energy-change (2. order) :-0.4071536E-04  (-0.3264634E-04)
 number of electron       8.0000002 magnetization 
 augmentation part       -0.4639013 magnetization 

 Broyden mixing:
  rms(total) = 0.18103E-02    rms(broyden)= 0.18103E-02
  rms(prec ) = 0.48225E-02
  weight for this iteration     100.00

 Free energy of the ion-electron system (eV)
  ---------------------------------------------------
  alpha Z        PSCENC =         4.45621258
  Ewald energy   TEWEN  =      -266.31045843
  -Hartree energ DENC   =        -2.48039168
  -exchange      EXHF   =         0.00000000
  -V(xc)+E(xc)   XCENC  =       -17.49303010
  PAW double counting   =        70.60760019      -35.53539179
  entropy T*S    EENTRO =        -0.02663135
  eigenvalues    EBANDS =        30.47680099
  atomic energy  EATOM  =       206.13125414
  Solvation  Ediel_sol  =         0.00000000
  ---------------------------------------------------
  free energy    TOTEN  =       -10.17403544 eV

  energy without entropy =      -10.14740409  energy(sigma->0) =      -10.16071977


--------------------------------------------------------------------------------------------------------




--------------------------------------- Iteration      4(   2)  ---------------------------------------


    POTLOK:  cpu time    0.0280: real time    0.0424
    SETDIJ:  cpu time    0.0080: real time    0.0094
     EDDAV:  cpu time    0.0480: real time    0.0484
       DOS:  cpu time    0.0040: real time    0.0017
    --------------------------------------------
      LOOP:  cpu time    0.0880: real time    0.1021

 eigenvalue-minimisations  :    48
 total energy-change (2. order) : 0.2135455E-05  (-0.1292628E-05)
 number of electron       8.0000002 magnetization 
 augmentation part       -0.4639013 magnetization 

 Free energy of the ion-electron system (eV)
  ---------------------------------------------------
  alpha Z        PSCENC =         4.45621258
  Ewald energy   TEWEN  =      -266.31045843
  -Hartree energ DENC   =        -2.48029246
  -exchange      EXHF   =         0.00000000
  -V(xc)+E(xc)   XCENC  =       -17.49286312
  PAW double counting   =        70.61570786      -35.54368357
  entropy T*S    EENTRO =        -0.02663135
  eigenvalues    EBANDS =        30.47672104
  atomic energy  EATOM  =       206.13125414
  Solvation  Ediel_sol  =         0.00000000
  ---------------------------------------------------
  free energy    TOTEN  =       -10.17403330 eV

  energy without entropy =      -10.14740196  energy(sigma->0) =      -10.16071763


--------------------------------------------------------------------------------------------------------




 average (electrostatic) potential at core
  the test charge radii are     0.9892
  (the norm of the test charge is              1.0000)
       1 -80.3699       2 -80.3699
 
 
 
 E-fermi :   9.1864     XC(G=0): -10.9373     alpha+bet :-15.8750


 k-point     1 :       0.0000    0.0000    0.0000
  band No.  band energies     occupation 
      1      -4.5471      2.00000
      2       6.8845      2.00000
      3       6.8845      2.00000
      4       7.6092      2.00000
      5      10.8954      0.00000
      6      16.6829      0.00000
      7      18.3677      0.00000
      8      18.3677      0.00000

 k-point     2 :       0.3333   -0.0000    0.0000
  band No.  band energies     occupation 
[...]
      3       8.0718      2.00000
      4      10.3195      0.00000
      5      11.7814      0.00000
      6      14.1788      0.00000
      7      17.1367      0.00000
      8      17.4340      0.00000

 k-point     5 :      -0.3333    0.3333    0.3333
  band No.  band energies     occupation 
      1      -1.7906      2.00000
      2       1.7177      2.00000
      3       3.0807      2.00000
      4       6.4856      2.00000
      5      14.6811      0.00000
      6      15.0504      0.00000
      7      18.0129      0.00000
      8      19.6263      0.00000

 k-point     6 :      -0.3333   -0.3333    0.3333
  band No.  band energies     occupation 
      1       2.7195      2.00000
      2       3.2150      2.00000
      3       4.4741      2.00000
      4       4.4741      2.00000
      5       4.7048      2.00000
      6      15.4565      0.00000
      7      15.6598      0.00000
      8      15.6599      0.00000


--------------------------------------------------------------------------------------------------------


 soft charge-density along one line, spin component           1
         0         1         2         3         4         5         6         7         8         9
 total charge-density along one line
 
 pseudopotential strength for first ion, spin component:           1
 18.058  -0.003   0.000  -0.000  -0.000  -0.000   0.000   0.000
 -0.003   0.005  -0.000   0.000   0.000   0.000  -0.000  -0.000
  0.000  -0.000   4.116   0.000   0.000  -0.006  -0.000  -0.000
 -0.000   0.000   0.000   4.117   0.000  -0.000  -0.006  -0.000
 -0.000   0.000   0.000   0.000   4.116  -0.000  -0.000  -0.006
 -0.000   0.000  -0.006  -0.000  -0.000   0.005   0.000   0.000
  0.000  -0.000  -0.000  -0.006  -0.000   0.000   0.005   0.000
  0.000  -0.000  -0.000  -0.000  -0.006   0.000   0.000   0.005
 total augmentation occupancy for first ion, spin component:           1
  1.559  -0.545   0.000   0.000   0.000   0.000   0.000   0.000
 -0.545   0.834   0.000   0.000   0.000   0.000   0.000  -0.000
  0.000  -0.000   0.959   0.000  -0.000  -0.511   0.000   0.000
  0.000   0.000   0.000   0.838  -0.000   0.000  -0.451   0.000
  0.000   0.000  -0.000  -0.000   0.959   0.000   0.000  -0.511
  0.000   0.000  -0.511  -0.000   0.000   0.360   0.000  -0.000
  0.000   0.000   0.000  -0.451   0.000  -0.000   0.314  -0.000
 -0.000  -0.000   0.000   0.000  -0.511  -0.000  -0.000   0.360


------------------------ aborting loop because EDIFF is reached ----------------------------------------


    CHARGE:  cpu time    0.0120: real time    0.0085
    FORLOC:  cpu time    0.0000: real time    0.0005
    FORNL :  cpu time    0.0040: real time    0.0059
    STRESS:  cpu time    0.0280: real time    0.0262
    FORCOR:  cpu time    0.0120: real time    0.0122
    FORHAR:  cpu time    0.0040: real time    0.0028
    MIXING:  cpu time    0.0000: real time    0.0008
    OFIELD:  cpu time    0.0000: real time    0.0003

  FORCE on cell =-STRESS in cart. coord.  units (eV):
  Direction    XX          YY          ZZ          XY          YZ          ZX
  --------------------------------------------------------------------------------------
  Alpha Z     4.42373     4.42373     4.42373
  Ewald     -86.64433   -86.64433   -92.37270     0.00000    -0.00000     0.00000
  Hartree     0.89424     0.89424     0.72632    -0.00000    -0.00000    -0.00000
  E(xc)     -25.50676   -25.50676   -25.31803     0.00000     0.00000     0.00000
  Local     -15.87865   -15.87865    -7.63933    -0.00002    -0.00002    -0.00002
  n-local    77.96359    76.60616    73.81343     2.55107    -1.26729    -1.29884
  augment   -11.91849   -11.91849   -11.59578     0.00002     0.00002     0.00002
  Kinetic    60.15897    54.50182    57.98778     3.12852     0.84918    -1.01626
  Fock        0.00000     0.00000     0.00000     0.00000     0.00000     0.00000
  -------------------------------------------------------------------------------------
  Total      -0.01499    -0.01499     0.02543    -0.00000     0.00000     0.00000
  in kB      -0.78887    -0.78887     1.33847    -0.00000     0.00000     0.00000
  external pressure =       -0.08 kB  Pullay stress =        0.00 kB


 VOLUME and BASIS-vectors are now :
 -----------------------------------------------------------------------------
  energy-cutoff  :      350.00
  volume of cell :       30.44
      direct lattice vectors                 reciprocal lattice vectors
    -2.378936713  2.378936713  1.344619656     0.000000000  0.210177933  0.371852366
     2.378936713 -2.378936713  1.344619656     0.210177933  0.000000000  0.371852366
     2.378936713  2.378936713 -1.344619656     0.210177933  0.210177933 -0.000000000

  length of vectors
     3.623076287  3.623076287  3.623076287     0.427140428  0.427140428  0.297236483


 FORCES acting on ions
    electron-ion (+dipol)            ewald-force                    non-local-force                 convergence-correction
 -----------------------------------------------------------------------------------------------
   0.828E-07 -.828E-07 0.423E-13   0.103E-13 -.104E-14 0.214E-14   0.818E-16 -.917E-16 -.128E-16   -.250E-09 0.250E-09 -.332E-15
   -.828E-07 0.828E-07 -.201E-13   -.102E-13 0.859E-15 -.203E-14   -.547E-16 0.702E-16 0.340E-17   0.250E-09 -.250E-09 -.766E-16
 -----------------------------------------------------------------------------------------------
   -.244E-13 -.366E-14 0.221E-13   0.410E-16 -.182E-15 0.103E-15   0.271E-16 -.215E-16 -.945E-17   0.991E-16 -.301E-15 -.409E-15
 
 
 POSITION                                       TOTAL-FORCE (eV/Angst)
 -----------------------------------------------------------------------------------
      2.37894      0.00000      0.67231        -0.000000      0.000000      0.000000
      0.00000     -0.00000     -0.00000         0.000000     -0.000000     -0.000000
 -----------------------------------------------------------------------------------
    total drift:                               -0.000000     -0.000000      0.000000


--------------------------------------------------------------------------------------------------------



  FREE ENERGIE OF THE ION-ELECTRON SYSTEM (eV)
  ---------------------------------------------------
  free  energy   TOTEN  =       -10.17460879 eV

  energy  without entropy=      -10.14797745  energy(sigma->0) =      -10.16129312
 
 d Force = 0.0000000E+00[ 0.000E+00, 0.000E+00]  d Energy =-0.4764766E-07 0.476E-07
 d Force = 0.0000000E+00[ 0.000E+00, 0.000E+00]  d Ewald  =-0.6149661E-02 0.615E-02


--------------------------------------------------------------------------------------------------------


    POTLOK:  cpu time    0.0240: real time    0.0417


--------------------------------------------------------------------------------------------------------




--------------------------------------------------------------------------------------------------------


    WAVPRE:  cpu time    0.0080: real time    0.0213
    FEWALD:  cpu time    0.0000: real time    0.0007
    GENKIN:  cpu time    0.0000: real time    0.0025
    ORTHCH:  cpu time    0.0000: real time    0.0026
     LOOP+:  cpu time    0.2240: real time    0.3333


--------------------------------------- Iteration     15(   1)  ---------------------------------------


    POTLOK:  cpu time    0.0160: real time    0.0231
    SETDIJ:  cpu time    0.0040: real time    0.0047
     EDDAV:  cpu time    0.0280: real time    0.0262
       DOS:  cpu time    0.0000: real time    0.0011
    CHARGE:  cpu time    0.0080: real time    0.0088
    MIXING:  cpu time    0.0000: real time    0.0011
    --------------------------------------------
      LOOP:  cpu time    0.0560: real time    0.0657

 eigenvalue-minimisations  :    48
 total energy-change (2. order) : 0.7893149E-07  (-0.1900536E-07)
 number of electron       8.0000001 magnetization 
 augmentation part       -0.4639369 magnetization 

 Broyden mixing:
  rms(total) = 0.35762E-04    rms(broyden)= 0.35756E-04
  rms(prec ) = 0.10739E-03
  weight for this iteration     100.00

 Free energy of the ion-electron system (eV)
  ---------------------------------------------------
  alpha Z        PSCENC =         4.42357689
  Ewald energy   TEWEN  =      -265.65806796
  -Hartree energ DENC   =        -2.51471726
  -exchange      EXHF   =         0.00000000
  -V(xc)+E(xc)   XCENC  =       -17.53355975
  PAW double counting   =        70.44711403      -35.37031061
  entropy T*S    EENTRO =        -0.02663135
  eigenvalues    EBANDS =        29.92673313
  atomic energy  EATOM  =       206.13125414
  Solvation  Ediel_sol  =         0.00000000
  ---------------------------------------------------
  free energy    TOTEN  =       -10.17460875 eV

  energy without entropy =      -10.14797741  energy(sigma->0) =      -10.16129308


--------------------------------------------------------------------------------------------------------




--------------------------------------- Iteration     15(   2)  ---------------------------------------


    POTLOK:  cpu time    0.0200: real time    0.0302
    SETDIJ:  cpu time    0.0040: real time    0.0049
     EDDAV:  cpu time    0.0240: real time    0.0260
       DOS:  cpu time    0.0000: real time    0.0013
    --------------------------------------------
      LOOP:  cpu time    0.0520: real time    0.0625

 eigenvalue-minimisations  :    48
 total energy-change (2. order) : 0.1659248E-07  (-0.7523525E-09)
 number of electron       8.0000001 magnetization 
 augmentation part       -0.4639369 magnetization 

 Free energy of the ion-electron system (eV)
  ---------------------------------------------------
  alpha Z        PSCENC =         4.42357689
  Ewald energy   TEWEN  =      -265.65806796
  -Hartree energ DENC   =        -2.51481310
  -exchange      EXHF   =         0.00000000
  -V(xc)+E(xc)   XCENC  =       -17.53356477
  PAW double counting   =        70.44677721      -35.36996320
  entropy T*S    EENTRO =        -0.02663135
  eigenvalues    EBANDS =        29.92682340
  atomic energy  EATOM  =       206.13125414
  Solvation  Ediel_sol  =         0.00000000
  ---------------------------------------------------
  free energy    TOTEN  =       -10.17460874 eV

  energy without entropy =      -10.14797739  energy(sigma->0) =      -10.16129306


--------------------------------------------------------------------------------------------------------




 average (electrostatic) potential at core
  the test charge radii are     0.9892
  (the norm of the test charge is              1.0000)
       1 -80.4717       2 -80.4717
 
 
 
 E-fermi :   9.0994     XC(G=0): -10.9078     alpha+bet :-15.7587


 k-point     1 :       0.0000    0.0000    0.0000
  band No.  band energies     occupation 
      1      -4.5762      2.00000
      2       6.8069      2.00000
      3       6.8069      2.00000
      4       7.4886      2.00000
      5      10.8343      0.00000
      6      16.5573      0.00000
      7      18.2131      0.00000
      8      18.2131      0.00000

 k-point     2 :       0.3333   -0.0000    0.0000
  band No.  band energies     occupation 
      1      -1.6916      2.00000
      2       5.6128      2.00000
      3       6.7672      2.00000
      4       7.0538      2.00000
      5      10.0467      0.00000
      6      12.0469      0.00000
      7      13.6040      0.00000
      8      14.4842      0.00000

 k-point     3 :       0.3333    0.3333    0.0000
  band No.  band energies     occupation 
      1       1.0023      2.00000
      2       1.0608      2.00000
      3       5.5024      2.00000
      4       8.2573      2.00000
      5       9.1948      0.50000
      6      10.7723      0.00000
      7      16.0851      0.00000
      8      16.8075      0.00000

 k-point     4 :      -0.3333    0.3333    0.0000
  band No.  band energies     occupation 
      1      -3.1710      2.00000
      2       0.9583      2.00000
      3       8.0714      2.00000
      4      10.3190      0.00000
      5      11.7810      0.00000
      6      14.1783      0.00000
      7      17.1359      0.00000
      8      17.4332      0.00000

 k-point     5 :      -0.3333    0.3333    0.3333
  band No.  band energies     occupation 
      1      -1.7908      2.00000
      2       1.7174      2.00000
      3       3.0805      2.00000
      4       6.4853      2.00000
      5      14.6805      0.00000
      6      15.0498      0.00000
      7      18.0122      0.00000
      8      19.6258      0.00000

 k-point     6 :      -0.3333   -0.3333    0.3333
  band No.  band energies     occupation 
      1       2.7191      2.00000
      2       3.2147      2.00000
      3       4.4738      2.00000
      4       4.4738      2.00000
      5       4.7045      2.00000
      6      15.4557      0.00000
      7      15.6593      0.00000
      8      15.6593      0.00000


--------------------------------------------------------------------------------------------------------


 soft charge-density along one line, spin component           1
         0         1         2         3         4         5         6         7         8         9
 total charge-density along one line
 
 pseudopotential strength for first ion, spin component:           1
 18.058  -0.003   0.000  -0.000  -0.000  -0.000   0.000   0.000
 -0.003   0.005  -0.000   0.000   0.000   0.000  -0.000  -0.000
  0.000  -0.000   4.116   0.000   0.000  -0.006  -0.000  -0.000
 -0.000   0.000   0.000   4.117   0.000  -0.000  -0.006  -0.000
 -0.000   0.000   0.000   0.000   4.116  -0.000  -0.000  -0.006
 -0.000   0.000  -0.006  -0.000  -0.000   0.005   0.000   0.000
  0.000  -0.000  -0.000  -0.006  -0.000   0.000   0.005   0.000
  0.000  -0.000  -0.000  -0.000  -0.006   0.000   0.000   0.005
 total augmentation occupancy for first ion, spin component:           1
  1.559  -0.545   0.000   0.000  -0.000  -0.000   0.000   0.000
 -0.545   0.834   0.000   0.000  -0.000   0.000   0.000   0.000
 -0.000  -0.000   0.959   0.000   0.000  -0.511  -0.000  -0.000
  0.000   0.000   0.000   0.838   0.000  -0.000  -0.451  -0.000
 -0.000  -0.000   0.000   0.000   0.959  -0.000  -0.000  -0.511
  0.000   0.000  -0.511   0.000  -0.000   0.360   0.000   0.000
  0.000   0.000   0.000  -0.451  -0.000  -0.000   0.314   0.000
  0.000   0.000  -0.000  -0.000  -0.511   0.000   0.000   0.360


------------------------ aborting loop because EDIFF is reached ----------------------------------------


    CHARGE:  cpu time    0.0080: real time    0.0087
    FORLOC:  cpu time    0.0000: real time    0.0005
    FORNL :  cpu time    0.0080: real time    0.0060
    STRESS:  cpu time    0.0280: real time    0.0265
    FORCOR:  cpu time    0.0120: real time    0.0122
    FORHAR:  cpu time    0.0000: real time    0.0027
    MIXING:  cpu time    0.0040: real time    0.0008
    OFIELD:  cpu time    0.0000: real time    0.0005

  FORCE on cell =-STRESS in cart. coord.  units (eV):
  Direction    XX          YY          ZZ          XY          YZ          ZX
  --------------------------------------------------------------------------------------
  Alpha Z     4.42358     4.42358     4.42358
  Ewald     -86.64316   -86.64316   -92.37196    -0.00000     0.00000    -0.00000
  Hartree     0.89432     0.89432     0.72632    -0.00000    -0.00000    -0.00000
  E(xc)     -25.50658   -25.50658   -25.31787     0.00000     0.00000     0.00000
  Local     -15.87926   -15.87926    -7.63949    -0.00002    -0.00002    -0.00002
  n-local    77.96298    76.60544    73.81290     2.55102    -1.26719    -1.29879
  augment   -11.91845   -11.91845   -11.59572     0.00002     0.00002     0.00002
  Kinetic    60.15794    54.50091    57.98671     3.12850     0.84910    -1.01629
  Fock        0.00000     0.00000     0.00000     0.00000     0.00000     0.00000
  -------------------------------------------------------------------------------------
  Total      -0.01592    -0.01592     0.02446     0.00000     0.00000     0.00000
  in kB      -0.83799    -0.83799     1.28746     0.00000     0.00000     0.00000
  external pressure =       -0.13 kB  Pullay stress =        0.00 kB


 VOLUME and BASIS-vectors are now :
 -----------------------------------------------------------------------------
  energy-cutoff  :      350.00
  volume of cell :       30.44
      direct lattice vectors                 reciprocal lattice vectors
    -2.378961439  2.378961439  1.344638195    -0.000000000  0.210175748  0.371847239
     2.378961439 -2.378961439  1.344638195     0.210175748 -0.000000000  0.371847239
     2.378961439  2.378961439 -1.344638195     0.210175748  0.210175748  0.000000000

  length of vectors
     3.623115638  3.623115638  3.623115638     0.427134890  0.427134890  0.297233393


 FORCES acting on ions
    electron-ion (+dipol)            ewald-force                    non-local-force                 convergence-correction
 -----------------------------------------------------------------------------------------------
   0.827E-07 -.827E-07 0.694E-14   -.159E-13 0.283E-14 -.912E-14   -.225E-16 -.225E-16 0.110E-16   -.131E-09 0.131E-09 -.144E-15
   -.827E-07 0.827E-07 0.991E-14   0.160E-13 -.284E-14 0.908E-14   0.318E-17 0.171E-16 -.885E-17   0.131E-09 -.131E-09 -.633E-16
 -----------------------------------------------------------------------------------------------
   -.227E-13 -.310E-14 0.168E-13   0.990E-16 -.116E-16 -.408E-16   -.193E-16 -.542E-17 0.215E-17   0.464E-16 -.240E-15 -.208E-15
 
 
 POSITION                                       TOTAL-FORCE (eV/Angst)
 -----------------------------------------------------------------------------------
      2.37896     -0.00000      0.67232        -0.000000      0.000000      0.000000
      0.00000     -0.00000     -0.00000         0.000000     -0.000000     -0.000000
 -----------------------------------------------------------------------------------
    total drift:                               -0.000000     -0.000000      0.000000


--------------------------------------------------------------------------------------------------------



  FREE ENERGIE OF THE ION-ELECTRON SYSTEM (eV)
  ---------------------------------------------------
  free  energy   TOTEN  =       -10.17460874 eV

  energy  without entropy=      -10.14797739  energy(sigma->0) =      -10.16129306
 
 d Force = 0.0000000E+00[ 0.000E+00, 0.000E+00]  d Energy =-0.5490077E-07 0.549E-07
 d Force = 0.0000000E+00[ 0.000E+00, 0.000E+00]  d Ewald  =-0.3074724E-02 0.307E-02


--------------------------------------------------------------------------------------------------------


    POTLOK:  cpu time    0.0240: real time    0.0417


--------------------------------------------------------------------------------------------------------




--------------------------------------------------------------------------------------------------------


 writing wavefunctions
     LOOP+:  cpu time    0.2320: real time    0.3981
    4ORBIT:  cpu time    0.0000: real time    0.0000

 total amount of memory used by VASP MPI-rank0    31053. kBytes
=======================================================================

   base      :      30000. kBytes
   nonl-proj :        193. kBytes
   fftplans  :        247. kBytes
   grid      :        561. kBytes
   one-center:          6. kBytes
   wavefun   :         46. kBytes
 
  
  
 General timing and accounting informations for this job:
 ========================================================
  
                  Total CPU time used (sec):       13.036
                            User time (sec):       10.384
                          System time (sec):        2.652
                         Elapsed time (sec):       20.985
  
                   Maximum memory used (kb):        9940.
                   Average memory used (kb):           0.
  
                          Minor page faults:        38244
                          Major page faults:           24
                 Voluntary context switches:        57296
