 running on    8 total cores
 distrk:  each k-point on    8 cores,    1 groups
 distr:  one band on    1 cores,    8 groups
 using from now: INCAR     
 vasp.5.4.4.18Apr17-6-g9f103f2a35 (build Dec 09 2018 21:25:21) complex          
  
 POSCAR found type information on POSCAR  Si
 POSCAR found :  1 types and       2 ions
 scaLAPACK will be used

 ----------------------------------------------------------------------------- 
|                                                                             |
|           W    W    AA    RRRRR   N    N  II  N    N   GGGG   !!!           |
|           W    W   A  A   R    R  NN   N  II  NN   N  G    G  !!!           |
|           W    W  A    A  R    R  N N  N  II  N N  N  G       !!!           |
|           W WW W  AAAAAA  RRRRR   N  N N  II  N  N N  G  GGG   !            |
|           WW  WW  A    A  R   R   N   NN  II  N   NN  G    G                |
|           W    W  A    A  R    R  N    N  II  N    N   GGGG   !!!           |
|                                                                             |
|      For optimal performance we recommend to set                            |
|        NCORE= 4 - approx SQRT( number of cores)                             |
|      NCORE specifies how many cores store one orbital (NPAR=cpu/NCORE).     |
|      This setting can  greatly improve the performance of VASP for DFT.     |
|      The default,   NCORE=1            might be grossly inefficient         |
|      on modern multi-core architectures or massively parallel machines.     |
|      Do your own testing !!!!                                               |
|      Unfortunately you need to use the default for GW and RPA calculations. |
|      (for HF NCORE is supported but not extensively tested yet)             |
|                                                                             |
 ----------------------------------------------------------------------------- 

 LDA part: xc-table for Pade appr. of Perdew
 POSCAR, INCAR and KPOINTS ok, starting setup
 FFT: planning ...
 WAVECAR not read
 entering main loop
       N       E                     dE             d eps       ncg     rms          rms(c)
DAV:   1     0.162822818132E+01    0.16282E+01   -0.29505E+03    96   0.579E+02
DAV:   2    -0.990936426440E+01   -0.11538E+02   -0.11172E+02   136   0.667E+01
DAV:   3    -0.100204089224E+02   -0.11104E+00   -0.11104E+00   144   0.821E+00
DAV:   4    -0.100207531272E+02   -0.34420E-03   -0.34420E-03   144   0.471E-01
DAV:   5    -0.100207531389E+02   -0.11694E-07   -0.12117E-07   144   0.312E-03    0.160E+00
DAV:   6    -0.100163270758E+02    0.44261E-02   -0.21199E-03   120   0.352E-01    0.100E+00
DAV:   7    -0.100124319115E+02    0.38952E-02   -0.63189E-03   112   0.623E-01    0.366E-02
DAV:   8    -0.100124130004E+02    0.18911E-04   -0.11422E-04    64   0.890E-02
   1 F= -.10012413E+02 E0= -.99990213E+01  d E =-.100124E+02
 curvature:   0.00 expect dE= 0.000E+00 dE for cont linesearch  0.000E+00
 trial: gam= 0.00000 g(F)=  0.107E-48 g(S)=  0.579E+00 ort = 0.000E+00 (trialstep = 0.100E+01)
 search vector abs. value=  0.579E+00
 bond charge predicted
       N       E                     dE             d eps       ncg     rms          rms(c)
DAV:   1    -0.102857669297E+02   -0.27334E+00   -0.13739E+01   152   0.220E+01    0.213E+00
DAV:   2    -0.101597098001E+02    0.12606E+00   -0.28382E-01   104   0.428E+00    0.122E+00
DAV:   3    -0.100950271064E+02    0.64683E-01   -0.17389E-01   152   0.225E+00    0.116E-01
DAV:   4    -0.100953588016E+02   -0.33170E-03   -0.52764E-03    96   0.599E-01    0.974E-02
DAV:   5    -0.100953420468E+02    0.16755E-04   -0.11824E-04    72   0.736E-02
   2 F= -.10095342E+02 E0= -.10082018E+02  d E =-.829290E-01
 trial-energy change:   -0.082929  1 .order   -0.103776   -0.578642    0.371090
 step:   0.5771(harm=  0.6093)  dis= 0.00000  next Energy=   -10.175381 (dE=-0.163E+00)
 bond charge predicted
       N       E                     dE             d eps       ncg     rms          rms(c)
DAV:   1    -0.102021817179E+02   -0.10682E+00   -0.22900E+00   136   0.880E+00    0.849E-01
DAV:   2    -0.101842019282E+02    0.17980E-01   -0.48798E-02   104   0.176E+00    0.490E-01
DAV:   3    -0.101739947224E+02    0.10207E-01   -0.27785E-02   136   0.915E-01    0.495E-02
DAV:   4    -0.101740408770E+02   -0.46155E-04   -0.99609E-04    88   0.254E-01
   3 F= -.10174041E+02 E0= -.10160725E+02  d E =-.161628E+00
 curvature:  -0.30 expect dE=-0.629E-03 dE for cont linesearch -0.138E-04
 ZBRENT: interpolating
 opt :   0.5829  next Energy=   -10.174056 (dE=-0.162E+00)
 bond charge predicted
       N       E                     dE             d eps       ncg     rms          rms(c)
DAV:   1    -0.101740354377E+02   -0.40715E-04   -0.32646E-04    72   0.110E-01    0.181E-02
DAV:   2    -0.101740333023E+02    0.21355E-05   -0.12926E-05    48   0.295E-02
   4 F= -.10174033E+02 E0= -.10160718E+02  d E =-.161620E+00
 curvature:  -0.33 expect dE=-0.606E-03 dE for cont linesearch -0.303E-05
 ZBRENT: interpolating
 opt :   0.5811  next Energy=   -10.174035 (dE=-0.162E+00)
 bond charge predicted
       N       E                     dE             d eps       ncg     rms          rms(c)
DAV:   1    -0.101740395593E+02   -0.41216E-05   -0.68845E-05    48   0.489E-02    0.380E-03
DAV:   2    -0.101740393116E+02    0.24774E-06   -0.29487E-06    48   0.146E-02
   5 F= -.10174039E+02 E0= -.10160724E+02  d E =-.161626E+00
 curvature:  -0.22 expect dE=-0.407E-03 dE for cont linesearch -0.172E-05
 ZBRENT: bisectioning
 opt :   0.5791  next Energy=   -10.174043 (dE=-0.162E+00)
 bond charge predicted
       N       E                     dE             d eps       ncg     rms          rms(c)
DAV:   1    -0.101740437674E+02   -0.42081E-05   -0.44983E-05    48   0.399E-02    0.397E-03
DAV:   2    -0.101740433586E+02    0.40880E-06   -0.17303E-06    48   0.110E-02
   6 F= -.10174043E+02 E0= -.10160728E+02  d E =-.161630E+00
 curvature:  -0.52 expect dE=-0.915E-03 dE for cont linesearch -0.553E-07
 trial: gam= 0.00350 g(F)=  0.663E-48 g(S)=  0.177E-02 ort =-0.249E-03 (trialstep = 0.916E+00)
 search vector abs. value=  0.178E-02
 bond charge predicted
       N       E                     dE             d eps       ncg     rms          rms(c)
DAV:   1    -0.101749308930E+02   -0.88713E-03   -0.21891E-02   104   0.855E-01    0.949E-02
DAV:   2    -0.101746656971E+02    0.26520E-03   -0.19117E-04    88   0.111E-01
   7 F= -.10174666E+02 E0= -.10161350E+02  d E =-.622339E-03
 trial-energy change:   -0.000622  1 .order   -0.000799   -0.001623    0.000025
 step:   0.9022(harm=  0.9022)  dis= 0.00000  next Energy=   -10.174843 (dE=-0.800E-03)
 bond charge predicted
       N       E                     dE             d eps       ncg     rms          rms(c)
DAV:   1    -0.101745190407E+02    0.41185E-03   -0.25229E-04    48   0.943E-02    0.390E-03
DAV:   2    -0.101745187087E+02    0.33204E-06   -0.86764E-06    48   0.296E-02
   8 F= -.10174519E+02 E0= -.10161203E+02  d E =-.475350E-03
 curvature:  -0.45 expect dE=-0.148E-03 dE for cont linesearch -0.121E-03
 ZBRENT: interpolating
 opt :   0.6496  next Energy=   -10.174606 (dE=-0.562E-03)
 bond charge predicted
       N       E                     dE             d eps       ncg     rms          rms(c)
DAV:   1    -0.101746381092E+02   -0.11907E-03   -0.16859E-03   104   0.238E-01    0.264E-02
DAV:   2    -0.101746183572E+02    0.19752E-04   -0.14301E-05    48   0.310E-02
   9 F= -.10174618E+02 E0= -.10161303E+02  d E =-.574999E-03
 curvature:  -0.33 expect dE=-0.145E-04 dE for cont linesearch -0.746E-05
 ZBRENT: interpolating
 opt :   0.5557  next Energy=   -10.174629 (dE=-0.585E-03)
 bond charge predicted
       N       E                     dE             d eps       ncg     rms          rms(c)
DAV:   1    -0.101746014982E+02    0.36611E-04   -0.14012E-04    48   0.709E-02    0.100E-02
DAV:   2    -0.101745991398E+02    0.23584E-05   -0.46499E-06    48   0.178E-02
  10 F= -.10174599E+02 E0= -.10161283E+02  d E =-.555781E-03
 curvature:  -0.46 expect dE=-0.159E-04 dE for cont linesearch -0.850E-05
 ZBRENT: interpolating
 opt :   0.6003  next Energy=   -10.174603 (dE=-0.560E-03)
 bond charge predicted
       N       E                     dE             d eps       ncg     rms          rms(c)
DAV:   1    -0.101746072101E+02   -0.57118E-05   -0.66058E-05    48   0.476E-02    0.421E-03
DAV:   2    -0.101746067799E+02    0.43013E-06   -0.14800E-06    48   0.113E-02
  11 F= -.10174607E+02 E0= -.10161291E+02  d E =-.563421E-03
 curvature:  -0.22 expect dE=-0.775E-05 dE for cont linesearch -0.282E-05
 ZBRENT: bisectioning
 opt :   0.6250  next Energy=   -10.174610 (dE=-0.567E-03)
 bond charge predicted
       N       E                     dE             d eps       ncg     rms          rms(c)
DAV:   1    -0.101746089668E+02   -0.17567E-05   -0.12971E-05    48   0.213E-02    0.280E-03
DAV:   2    -0.101746086608E+02    0.30598E-06   -0.43296E-07    48   0.559E-03
  12 F= -.10174609E+02 E0= -.10161293E+02  d E =-.565302E-03
 curvature:  -0.27 expect dE=-0.761E-05 dE for cont linesearch -0.906E-06
 ZBRENT: bisectioning
 opt :   0.6373  next Energy=   -10.174609 (dE=-0.566E-03)
 bond charge predicted
       N       E                     dE             d eps       ncg     rms          rms(c)
DAV:   1    -0.101746089476E+02    0.19204E-07   -0.29906E-06    48   0.102E-02    0.141E-03
DAV:   2    -0.101746088392E+02    0.10834E-06   -0.11505E-07    48   0.280E-03
  13 F= -.10174609E+02 E0= -.10161293E+02  d E =-.565481E-03
 curvature:  -0.22 expect dE=-0.569E-05 dE for cont linesearch -0.141E-06
 ZBRENT: bisectioning
 opt :   0.6435  next Energy=   -10.174609 (dE=-0.566E-03)
 bond charge predicted
       N       E                     dE             d eps       ncg     rms          rms(c)
DAV:   1    -0.101746088322E+02    0.11537E-06   -0.75828E-07    48   0.517E-03    0.713E-04
DAV:   2    -0.101746087916E+02    0.40623E-07   -0.29906E-08    48   0.141E-03
  14 F= -.10174609E+02 E0= -.10161293E+02  d E =-.565433E-03
 curvature:  -0.22 expect dE=-0.584E-05 dE for cont linesearch -0.203E-07
 ZBRENT: bisectioning
 opt :   0.6465  next Energy=   -10.174609 (dE=-0.565E-03)
 bond charge predicted
       N       E                     dE             d eps       ncg     rms          rms(c)
DAV:   1    -0.101746087533E+02    0.78931E-07   -0.19005E-07    48   0.259E-03    0.358E-04
DAV:   2    -0.101746087367E+02    0.16592E-07   -0.75235E-09    48   0.703E-04
  15 F= -.10174609E+02 E0= -.10161293E+02  d E =-.565378E-03
 curvature:  -0.25 expect dE=-0.669E-05 dE for cont linesearch -0.638E-09
 trial: gam= 0.02157 g(F)=  0.298E-49 g(S)=  0.267E-04 ort = 0.213E-05 (trialstep = 0.862E+00)
 search vector abs. value=  0.276E-04
 writing wavefunctions
