unknown system                          
   1.00000000000000     
    -2.450000    2.450000    1.274000
     2.450000   -2.450000    1.274000
     2.450000    2.450000   -1.274000
   Si
     2
Direct
  0.250000  0.750000  0.500000
  0.000000  0.000000  0.000000
 
   28   28   28
 -5.5818     -4.0487     -.53621E-01  4.8930      9.1009      11.437      11.700      10.499      8.7887      7.1666    
  5.8112      4.7828      4.0784      3.6715      3.5388      3.6715      4.0784      4.7828      5.8112      7.1666    
  8.7887      10.499      11.700      11.437      9.1009      4.8930     -.53632E-01 -4.0488     -4.0488     -4.8395    
 -2.6883      1.5516      6.2907      9.9577      11.660      11.430      10.005      8.2959      6.7419      5.4781    
  4.5436      3.9260      3.5979      3.5388      3.7439      4.2256      5.0089      6.1174      7.5434      9.2061    
  10.879      11.848      11.199      8.4821      4.1121     -.62560     -.53632E-01 -2.6883     -2.7483     -.21774    
  3.8852      8.0185      10.842      11.756      11.015      9.4237      7.7563      6.2945      5.1375      4.3047    
  3.7767      3.5270      3.5388      3.8113      4.3594      5.2087      6.3782      7.8490      9.5232      11.131    
  11.913      11.049      8.2569      4.1121      4.8930      1.5516     -.21774     0.31702      2.9223      6.5218    
  9.7398      11.543      11.639      10.457      8.7952      7.2007      5.8495      4.8079      4.0785      3.6381    
  3.4624      3.5389      3.8699      4.4722      5.3701      6.5772      8.0641      9.7213      11.256      11.931    
  11.049      8.4821      9.1009      6.2907      3.8852      2.9223      3.8304      6.2033      9.0162      11.149    
  11.909      11.280      9.7999      8.1546      6.6588      5.4300      4.5054      3.8759      3.5167      3.4073    
  3.5389      3.9166      4.5576      5.4835      6.7019      8.1753      9.7886      11.256      11.913      11.199    
  11.437      9.9577      8.0185      6.5218      6.2034      7.2346      9.1280      11.002      12.040      11.879    
  10.714      9.1128      7.5359      6.1576      5.0552      4.2434      3.7053      3.4176      3.3639      3.5389    
  3.9491      4.6107      5.5419      6.7443      8.1753      9.7213      11.131      11.848      11.700      11.660    
  10.842      9.7398      9.0162      9.1280      10.061      11.332      12.264      12.348      11.495      10.036    
  8.4475      6.9705      5.7197      4.7404      4.0314      3.5728      3.3445      3.3341      3.5390      3.9658    
  4.6288      5.5419      6.7019      8.0641      9.5232      10.879      10.499      11.431      11.756      11.543    
  11.149      11.002      11.332      12.018      12.648      12.768      12.144      10.886      9.3574      7.8427    
  6.4855      5.3629      4.4964      3.8761      3.4826      3.2997      3.3189      3.5390      3.9658      4.6107    
  5.4835      6.5772      7.8490      9.2061      8.7887      10.005      11.015      11.639      11.909      12.040    
  12.264      12.648      13.031      13.112      12.648      11.610      10.221      8.7410      7.3330      6.1031    
  5.0998      4.3304      3.7816      3.4369      3.2847      3.3189      3.5390      3.9491      4.5576      5.3701    
  6.3782      7.5434      7.1666      8.2959      9.4237      10.457      11.280      11.879      12.348      12.768    
  13.112      13.227      12.930      12.145      10.976      9.6184      8.2330      6.9474      5.8392      4.9389    
  4.2464      3.7498      3.4369      3.2997      3.3341      3.5389      3.9166      4.4722      5.2087      6.1174    
  5.8112      6.7419      7.7563      8.7952      9.7999      10.714      11.495      12.144      12.648      12.930    
  12.876      12.403      11.542      10.409      9.1398      7.8717      6.7072      5.7047      4.8847      4.2464    
  3.7816      3.4826      3.3445      3.3639      3.5389      3.8699      4.3594      5.0089      4.7828      5.4781    
  6.2945      7.2007      8.1546      9.1128      10.036      10.886      11.610      12.145      12.403      12.307    
  11.835      11.029      9.9862      8.8325      7.6841      6.6257      5.7047      4.9389      4.3304      3.8761    
  3.5728      3.4176      3.4073      3.5389      3.8113      4.2256      4.0784      4.5436      5.1375      5.8495    
  6.6588      7.5359      8.4475      9.3574      10.221      10.976      11.542      11.835      11.790      11.393    
  10.687      9.7610      8.7266      7.6841      6.7072      5.8392      5.0998      4.4964      4.0314      3.7053    
  3.5167      3.4624      3.5388      3.7439      3.6715      3.9260      4.3047      4.8079      5.4300      6.1576    
  6.9705      7.8427      8.7410      9.6184      10.409      11.029      11.393      11.440      11.152      10.567    
  9.7610      8.8325      7.8717      6.9474      6.1031      5.3629      4.7404      4.2434      3.8759      3.6381    
  3.5270      3.5388      3.5388      3.5979      3.7767      4.0785      4.5054      5.0552      5.7197      6.4855    
  7.3330      8.2330      9.1398      9.9862      10.687      11.152      11.316      11.152      10.687      9.9862    
  9.1398      8.2330      7.3330      6.4855      5.7197      5.0552      4.5054      4.0785      3.7767      3.5979    
  3.6715      3.5388      3.5270      3.6381      3.8759      4.2434      4.7404      5.3629      6.1030      6.9474    
  7.8717      8.8325      9.7610      10.567      11.152      11.440      11.393      11.029      10.409      9.6184    
  8.7410      7.8427      6.9705      6.1576      5.4300      4.8079      4.3047      3.9260      4.0784      3.7439    
  3.5388      3.4624      3.5167      3.7053      4.0314      4.4964      5.0998      5.8392      6.7072      7.6840    
  8.7266      9.7610      10.687      11.393      11.790      11.835      11.542      10.976      10.221      9.3574    
  8.4475      7.5359      6.6588      5.8495      5.1375      4.5436      4.7828      4.2256      3.8113      3.5389    
  3.4073      3.4176      3.5728      3.8761      4.3304      4.9389      5.7047      6.6257      7.6840      8.8325    
  9.9862      11.029      11.835      12.307      12.403      12.145      11.610      10.886      10.036      9.1128    
  8.1546      7.2007      6.2945      5.4781      5.8112      5.0089      4.3594      3.8699      3.5389      3.3639    
  3.3445      3.4826      3.7815      4.2464      4.8847      5.7047      6.7072      7.8717      9.1398      10.409    
  11.542      12.403      12.876      12.930      12.648      12.144      11.495      10.714      9.7999      8.7952    
  7.7563      6.7419      7.1666      6.1174      5.2087      4.4722      3.9166      3.5389      3.3341      3.2997    
  3.4369      3.7498      4.2464      4.9389      5.8392      6.9474      8.2330      9.6184      10.976      12.145    
  12.930      13.227      13.112      12.768      12.348      11.879      11.280      10.457      9.4237      8.2959    
  8.7887      7.5434      6.3782      5.3701      4.5576      3.9491      3.5390      3.3189      3.2847      3.4369    
  3.7815      4.3304      5.0998      6.1030      7.3330      8.7410      10.221      11.610      12.648      13.112    
  13.031      12.648      12.264      12.040      11.909      11.639      11.015      10.005      10.499      9.2061    
  7.8490      6.5772      5.4835      4.6107      3.9658      3.5390      3.3189      3.2997      3.4826      3.8761    
  4.4964      5.3629      6.4855      7.8427      9.3574      10.886      12.144      12.768      12.648      12.018    
  11.332      11.002      11.149      11.543      11.756      11.430      11.700      10.879      9.5232      8.0641    
  6.7019      5.5420      4.6288      3.9658      3.5390      3.3341      3.3445      3.5728      4.0314      4.7404    
  5.7197      6.9705      8.4475      10.036      11.495      12.348      12.264      11.332      10.061      9.1280    
  9.0162      9.7398      10.842      11.660      11.437      11.848      11.131      9.7213      8.1753      6.7443    
  5.5420      4.6107      3.9491      3.5389      3.3639      3.4176      3.7053      4.2434      5.0552      6.1576    
  7.5359      9.1128      10.714      11.879      12.040      11.002      9.1280      7.2346      6.2033      6.5218    
  8.0185      9.9577      9.1009      11.199      11.913      11.256      9.7886      8.1753      6.7019      5.4835    
  4.5576      3.9166      3.5389      3.4073      3.5167      3.8759      4.5054      5.4300      6.6588      8.1546    
  9.7999      11.280      11.909      11.149      9.0162      6.2034      3.8304      2.9223      3.8852      6.2907    
  4.8930      8.4821      11.049      11.931      11.256      9.7213      8.0641      6.5772      5.3701      4.4722    
  3.8699      3.5389      3.4624      3.6381      4.0785      4.8079      5.8495      7.2007      8.7952      10.457    
  11.639      11.543      9.7398      6.5218      2.9223     0.31702     -.21774      1.5516     -.53621E-01  4.1121    
  8.2568      11.049      11.913      11.131      9.5232      7.8490      6.3782      5.2087      4.3594      3.8113    
  3.5388      3.5270      3.7767      4.3047      5.1375      6.2945      7.7563      9.4237      11.015      11.756    
  10.842      8.0185      3.8852     -.21774     -2.7483     -2.6883     -4.0487     -.62558      4.1121      8.4821    
  11.199      11.848      10.879      9.2061      7.5434      6.1174      5.0089      4.2256      3.7439      3.5388    
  3.5979      3.9260      4.5436      5.4781      6.7419      8.2959      10.005      11.431      11.660      9.9577    
  6.2907      1.5516     -2.6883     -4.8395     -4.0487     -2.9381     0.55397      5.0786      9.0349      11.287    
  11.565      10.400      8.7001      7.0730      5.7027      4.6532      3.9235      3.4870      3.3188      3.4080    
  3.7611      4.4002      5.3530      6.6299      8.1867      9.8810      11.241      11.369      9.6014      5.9954    
  1.5001     -2.3389     -2.9381     -4.0487     -2.3389      1.5001      5.9954      9.6014      11.369      11.241    
  9.8810      8.1867      6.6299      5.3530      4.4001      3.7611      3.4080      3.3188      3.4870      3.9235    
  4.6532      5.7027      7.0730      8.7002      10.400      11.565      11.287      9.0349      5.0786     0.55397    
 0.65463     -2.2316     -2.6883     -.55010      3.3009      7.3815      10.315      11.407      10.816      9.2922    
  7.6393      6.1749      5.0064      4.1586      3.6139      3.3451      3.3340      3.5786      4.0934      4.9050    
  6.0369      7.4798      9.1517      10.826      11.810      11.255      8.7824      4.8387      5.3400      1.7896    
 -.34890     -.21771      2.0954      5.6073      8.9405      10.977      11.309      10.281      8.6692      7.0863    
  5.7317      4.6803      3.9402      3.4889      3.3014      3.3639      3.6784      4.2623      5.1421      6.3367    
  7.8265      9.5148      11.143      12.001      11.339      8.9316      9.4650      6.4868      3.7443      2.3665    
  2.9223      5.1269      7.9982      10.363      11.414      11.020      9.6593      8.0441      6.5545      5.3211    
  4.3897      3.7547      3.3917      3.2790      3.4073      3.7819      4.4216      5.3513      6.5841      8.0912    
  9.7664      11.342      12.147      11.555      11.854      10.264      8.0471      6.1548      5.4387      6.2033    
  8.0458      10.079      11.399      11.519      10.541      9.0052      7.4455      6.0680      4.9612      4.1467    
  3.6097      3.3263      3.2790      3.4625      3.8844      4.5630      5.5204      6.7636      8.2561      9.8884    
  11.409      12.232      12.221      12.145      11.140      9.7111      8.5949      8.3688      9.1280      10.435    
  11.568      11.917      11.284      9.9336      8.3716      6.9006      5.6473      4.6660      3.9602      3.5104    
  3.2951      3.3014      3.5271      3.9806      4.6787      5.6390      6.8626      8.3085      9.8698      11.332    
  11.101      12.070      12.317      11.888      11.168      10.674      10.744      11.332      12.039      12.346    
  11.921      10.789      9.2979      7.7923      6.4337      5.3087      4.4454      3.8358      3.4595      3.2990    
  3.3451      3.5980      4.0655      4.7617      5.6991      6.8739      8.2433      9.7088      9.4134      10.717    
  11.745      12.276      12.335      12.179      12.121      12.316      12.648      12.801      12.465      11.534    
  10.181      8.7085      7.2986      6.0654      5.0644      4.3060      3.7767      3.4581      3.3371      3.4080    
  3.6716      4.1343      4.8066      5.6962      6.7954      8.0632      7.7796      9.0020      10.199      11.242    
  11.976      12.392      12.627      12.832      13.037      13.112      12.849      12.114      10.960      9.6003    
  8.2092      6.9185      5.8116      4.9225      4.2512      3.7837      3.5055      3.4078      3.4870      3.7440    
  4.1829      4.8102      5.6297      6.6317      6.3936      7.4115      8.5013      9.5874      10.592      11.431    
  12.065      12.532      12.870      13.039      12.930      12.436      11.552      10.399      9.1155      7.8389    
  6.6747      5.6840      4.8875      4.2820      3.8560      3.5997      3.5079      3.5785      3.8113      4.2080    
  4.7718      5.5036      5.3261      6.0973      6.9837      7.9438      8.9224      9.8632      10.721      11.454    
  12.035      12.433      12.582      12.403      11.867      11.017      9.9470      8.7783      7.6285      6.5833    
  5.6892      4.9613      4.3976      3.9913      3.7376      3.6338      3.6783      3.8698      4.2080      4.6936    
  4.5805      5.1089      5.7622      6.5238      7.3643      8.2445      9.1226      9.9600      10.718      11.350    
  11.791      11.971      11.835      11.370      10.617      9.6666      8.6270      7.5985      6.6529      5.8293    
  5.1425      4.5951      4.1860      3.9147      3.7805      3.7818      3.9165      4.1828      4.1343      4.4399    
  4.8660      5.4094      6.0595      6.7962      7.5924      8.4170      9.2363      10.009      10.681      11.181    
  11.436      11.393      11.040      10.415      9.5978      8.6825      7.7566      6.8837      6.1011      5.4270    
  4.8698      4.4347      4.1250      3.9420      3.8843      3.9490      3.9657      4.0655      4.2804      4.6119    
  5.0592      5.6158      6.2691      7.0004      7.7873      8.6010      9.4011      10.129      10.712      11.072    
  11.152      10.934      10.447      9.7559      8.9465      8.0971      7.2675      6.4963      5.8066      5.2139    
  4.7294      4.3608      4.1114      3.9805      4.0655      3.9657      3.9805      4.1114      4.3609      4.7294    
  5.2139      5.8066      6.4963      7.2675      8.0971      8.9465      9.7560      10.447      10.934      11.152    
  11.072      10.712      10.129      9.4011      8.6010      7.7873      7.0004      6.2690      5.6158      5.0591    
  4.6119      4.2804      4.4399      4.1343      3.9490      3.8843      3.9421      4.1251      4.4347      4.8698    
  5.4270      6.1011      6.8837      7.7566      8.6825      9.5978      10.415      11.040      11.393      11.436    
  11.181      10.681      10.009      9.2363      8.4170      7.5924      6.7962      6.0594      5.4094      4.8660    
  5.1089      4.5806      4.1829      3.9166      3.7819      3.7805      3.9147      4.1860      4.5951      5.1426    
  5.8293      6.6529      7.5985      8.6270      9.6666      10.617      11.370      11.835      11.971      11.791    
  11.349      10.718      9.9600      9.1226      8.2444      7.3643      6.5238      5.7622      6.0973      5.3261    
  4.6936      4.2080      3.8698      3.6783      3.6338      3.7376      3.9913      4.3976      4.9613      5.6892    
  6.5833      7.6285      8.7783      9.9470      11.017      11.867      12.403      12.582      12.433      12.035    
  11.454      10.721      9.8632      8.9224      7.9438      6.9837      7.4115      6.3937      5.5037      4.7718    
  4.2080      3.8113      3.5785      3.5080      3.5997      3.8560      4.2820      4.8876      5.6840      6.6747    
  7.8389      9.1155      10.399      11.552      12.436      12.930      13.039      12.869      12.532      12.065    
  11.431      10.592      9.5874      8.5013      9.0020      7.7796      6.6317      5.6298      4.8102      4.1829    
  3.7440      3.4870      3.4078      3.5055      3.7837      4.2512      4.9225      5.8116      6.9185      8.2092    
  9.6003      10.960      12.114      12.849      13.112      13.037      12.832      12.627      12.392      11.976    
  11.242      10.199      10.717      9.4135      8.0632      6.7954      5.6962      4.8066      4.1343      3.6716    
  3.4080      3.3371      3.4581      3.7767      4.3060      5.0644      6.0653      7.2986      8.7085      10.181    
  11.534      12.465      12.801      12.648      12.316      12.121      12.179      12.335      12.276      11.745    
  12.070      11.101      9.7088      8.2433      6.8739      5.6992      4.7617      4.0655      3.5980      3.3451    
  3.2989      3.4595      3.8358      4.4454      5.3087      6.4337      7.7923      9.2979      10.789      11.921    
  12.346      12.039      11.332      10.744      10.674      11.168      11.888      12.317      12.145      12.221    
  11.332      9.8698      8.3085      6.8627      5.6390      4.6787      3.9806      3.5271      3.3014      3.2951    
  3.5103      3.9602      4.6660      5.6473      6.9005      8.3716      9.9336      11.284      11.917      11.568    
  10.435      9.1280      8.3688      8.5949      9.7112      11.140      10.264      11.854      12.232      11.409    
  9.8884      8.2561      6.7636      5.5204      4.5630      3.8843      3.4625      3.2790      3.3263      3.6097    
  4.1467      4.9612      6.0680      7.4454      9.0051      10.541      11.519      11.399      10.079      8.0458    
  6.2034      5.4387      6.1548      8.0471      6.4868      9.4651      11.555      12.147      11.342      9.7664    
  8.0912      6.5841      5.3513      4.4216      3.7819      3.4073      3.2790      3.3917      3.7547      4.3897    
  5.3211      6.5545      8.0441      9.6593      11.020      11.414      10.363      7.9982      5.1270      2.9223    
  2.3666      3.7443      1.7896      5.3400      8.9316      11.339      12.001      11.143      9.5148      7.8265    
  6.3367      5.1420      4.2622      3.6784      3.3639      3.3014      3.4889      3.9402      4.6803      5.7316    
  7.0863      8.6692      10.281      11.309      10.977      8.9406      5.6074      2.0954     -.21768     -.34887    
 -2.2316     0.65465      4.8387      8.7824      11.255      11.810      10.826      9.1517      7.4798      6.0369    
  4.9050      4.0933      3.5785      3.3340      3.3451      3.6139      4.1586      5.0064      6.1749      7.6393    
  9.2922      10.816      11.407      10.315      7.3815      3.3010     -.55007     -2.6883     -.53469E-01 0.65474    
  3.3508      6.9442      10.076      11.752      11.727      10.463      8.7636      7.1480      5.7812      4.7236    
  3.9744      3.5080      3.2997      3.3372      3.6239      4.1782      5.0264      6.1843      7.6259      9.2462    
  10.752      11.410      10.550      8.0685      4.6349      1.5002     0.55407     -.62542     0.55407      3.5969    
  7.2714      10.222      11.583      11.274      9.8805      8.2061      6.6669      5.3970      4.4396      3.7854    
  3.4078      3.2847      3.4078      3.7854      4.4396      5.3970      6.6669      8.2061      9.8805      11.274    
  11.583      10.222      7.2714      3.5969      3.3508     0.65474     -.53464E-01  1.5002      4.6349      8.0685    
  10.550      11.410      10.752      9.2462      7.6260      6.1844      5.0264      4.1782      3.6239      3.3372    
  3.2997      3.5080      3.9744      4.7236      5.7811      7.1479      8.7636      10.463      11.727      11.752    
  10.076      6.9442      7.1908      3.9636      1.7897      1.5517      3.3010      6.2372      9.1280      10.916    
  11.168      10.158      8.5946      7.0517      5.7235      4.6864      3.9509      3.4965      3.2990      3.3445    
  3.6338      4.1828      5.0173      6.1598      7.6019      9.2676      10.963      12.113      11.972      10.206    
  10.625      7.9816      5.3239      3.7443      3.8852      5.6074      8.0739      10.195      11.168      10.805    
  9.5118      7.9551      6.5090      5.3046      4.3914      3.7668      3.4084      3.2951      3.4176      3.7805    
  4.4016      5.3064      6.5125      8.0021      9.6869      11.356      12.431      12.259      12.581      11.258    
  9.1605      7.1692      6.1548      6.5219      7.9982      9.7949      11.036      11.196      10.308      8.8529    
  7.3536      6.0201      4.9445      4.1528      3.6333      3.3634      3.3263      3.5167      3.9421      4.6206    
  5.5754      6.8183      8.3226      9.9920      11.615      12.661      12.767      12.866      11.962      10.484    
  9.1510      8.5949      9.0162      10.079      11.113      11.494      10.960      9.7130      8.2262      6.8133    
  5.6036      4.6563      3.9791      3.5550      3.3634      3.3917      3.6381      4.1114      4.8287      5.8090    
  7.0574      8.5402      10.158      11.717      11.641      12.707      13.021      12.564      11.685      10.918    
  10.674      11.002      11.568      11.867      11.524      10.501      9.0961      7.6590      6.3550      5.2741    
  4.4492      3.8757      3.5344      3.4083      3.4889      3.7767      4.2804      5.0142      5.9921      7.2126    
  8.6370      10.169      10.019      11.381      12.450      12.964      12.910      12.537      12.198      12.121    
  12.264      12.346      12.042      11.196      9.9270      8.5248      7.1769      5.9962      5.0423      4.3291    
  3.8449      3.5717      3.4963      3.6138      3.9260      4.4399      5.1659      6.1121      7.2715      8.6037    
  8.4407      9.7184      10.949      11.987      12.648      12.905      12.907      12.851      12.831      12.768    
  12.465      11.761      10.665      9.3650      8.0360      6.8035      5.7511      4.9155      4.2988      3.8869    
  3.6649      3.6238      3.7610      4.0784      4.5805      5.2734      6.1598      7.2287      7.0863      8.1595    
  9.2868      10.380      11.346      12.080      12.539      12.780      12.887      12.869      12.648      12.114    
  11.236      10.115      8.8827      7.6639      6.5594      5.6302      4.8977      4.3584      3.9996      3.8104    
  3.7853      3.9234      4.2256      4.6936      5.3293      6.1312      6.0278      6.8546      7.7806      8.7561    
  9.7151      10.590      11.327      11.884      12.258      12.451      12.433      12.145      11.552      10.693    
  9.6488      8.5279      7.4382      6.4607      5.6402      4.9901      4.5062      4.1793      4.0028      3.9743    
  4.0933      4.3594      4.7718      5.3293      5.2735      5.8573      6.5507      7.3317      8.1638      8.9995    
  9.7900      10.494      11.080      11.518      11.770      11.791      11.542      11.017      10.253      9.3278    
  8.3400      7.3813      6.5176      5.7840      5.1914      4.7383      4.4204      4.2353      4.1827      4.2622    
  4.4722      4.8103      4.8067      5.1660      5.6317      6.1961      6.8435      7.5488      8.2790      8.9992    
  9.6759      10.276      10.760      11.079      11.181      11.029      10.617      9.9832      9.1976      8.3459    
  7.5062      6.7341      6.0604      5.4975      5.0489      4.7158      4.4996      4.4016      4.4216      4.5576    
  4.6107      4.7617      5.0144      5.3667      5.8141      6.3465      6.9473      7.5948      8.2640      8.9280    
  9.5535      10.096      10.502      10.712      10.687      10.415      9.9279      9.2840      8.5570      7.8145    
  7.1064      6.4632      5.9010      5.4295      5.0557      4.7850      4.6207      4.5631      4.6788      4.6288    
  4.6787      4.8288      5.0790      5.4273      5.8677      6.3901      6.9808      7.6232      8.2959      8.9673    
  9.5904      10.105      10.447      10.567      10.447      10.105      9.5904      8.9673      8.2960      7.6232    
  6.9807      6.3901      5.8677      5.4273      5.0790      4.8288      5.0144      4.7617      4.6107      4.5631    
  4.6207      4.7850      5.0557      5.4295      5.9010      6.4632      7.1064      7.8145      8.5570      9.2840    
  9.9279      10.415      10.687      10.712      10.502      10.096      9.5535      8.9280      8.2640      7.5947    
  6.9473      6.3465      5.8141      5.3667      5.6317      5.1660      4.8067      4.5576      4.4216      4.4016    
  4.4996      4.7158      5.0489      5.4975      6.0604      6.7341      7.5062      8.3459      9.1976      9.9832    
  10.617      11.029      11.181      11.078      10.760      10.276      9.6759      8.9992      8.2790      7.5488    
  6.8435      6.1961      6.5507      5.8573      5.2736      4.8103      4.4722      4.2622      4.1828      4.2354    
  4.4204      4.7383      5.1914      5.7840      6.5176      7.3813      8.3400      9.3278      10.253      11.017    
  11.542      11.791      11.770      11.518      11.080      10.494      9.7900      8.9996      8.1638      7.3317    
  7.7806      6.8546      6.0279      5.3294      4.7718      4.3594      4.0933      3.9743      4.0028      4.1792    
  4.5062      4.9901      5.6402      6.4607      7.4382      8.5279      9.6488      10.693      11.552      12.145    
  12.433      12.451      12.258      11.884      11.327      10.590      9.7151      8.7561      9.2868      8.1595    
  7.0863      6.1312      5.3293      4.6936      4.2256      3.9234      3.7853      3.8104      3.9996      4.3584    
  4.8977      5.6302      6.5594      7.6639      8.8828      10.115      11.236      12.114      12.648      12.869    
  12.887      12.780      12.539      12.080      11.346      10.380      10.949      9.7184      8.4407      7.2287    
  6.1599      5.2734      4.5805      4.0784      3.7610      3.6238      3.6649      3.8869      4.2988      4.9155    
  5.7511      6.8035      8.0360      9.3650      10.665      11.761      12.465      12.768      12.831      12.851    
  12.907      12.905      12.648      11.987      12.450      11.381      10.019      8.6037      7.2715      6.1121    
  5.1659      4.4399      3.9260      3.6138      3.4963      3.5717      3.8449      4.3291      5.0423      5.9962    
  7.1769      8.5249      9.9270      11.196      12.042      12.346      12.264      12.121      12.198      12.537    
  12.910      12.964      13.021      12.707      11.641      10.169      8.6370      7.2126      5.9921      5.0142    
  4.2804      3.7767      3.4889      3.4083      3.5344      3.8757      4.4492      5.2741      6.3550      7.6590    
  9.0961      10.501      11.524      11.867      11.568      11.002      10.674      10.918      11.685      12.564    
  11.962      12.866      12.767      11.717      10.158      8.5401      7.0574      5.8090      4.8287      4.1114    
  3.6381      3.3916      3.3634      3.5550      3.9791      4.6563      5.6036      6.8133      8.2262      9.7129    
  10.960      11.494      11.113      10.079      9.0161      8.5948      9.1510      10.484      9.1605      11.258    
  12.581      12.661      11.615      9.9920      8.3226      6.8183      5.5754      4.6206      3.9421      3.5167    
  3.3263      3.3634      3.6333      4.1528      4.9445      6.0201      7.3536      8.8529      10.308      11.196    
  11.036      9.7950      7.9982      6.5218      6.1548      7.1692      5.3239      7.9816      10.625      12.259    
  12.431      11.356      9.6869      8.0021      6.5125      5.3063      4.4016      3.7805      3.4176      3.2951    
  3.4084      3.7668      4.3914      5.3046      6.5090      7.9551      9.5118      10.805      11.168      10.195    
  8.0739      5.6074      3.8852      3.7443      1.7897      3.9636      7.1907      10.206      11.972      12.113    
  10.963      9.2676      7.6019      6.1598      5.0173      4.1828      3.6339      3.3445      3.2990      3.4965    
  3.9509      4.6864      5.7235      7.0517      8.5946      10.158      11.168      10.916      9.1280      6.2372    
  3.3010      1.5517      4.8931      5.3401      7.1907      9.6471      11.678      12.530      12.045      10.638    
  8.9634      7.3878      6.0485      4.9981      4.2354      3.7376      3.4825      3.4581      3.6650      4.1162    
  4.8336      5.8354      7.1112      8.5906      10.111      11.216      11.300      10.129      8.0684      5.9954    
  5.0787      4.1122      4.8387      6.9442      9.5006      11.450      12.115      11.458      9.9867      8.3522    
  6.8558      5.6145      4.6664      4.0028      3.5998      3.4369      3.5056      3.8104      4.3685      5.2037    
  6.3301      7.7243      9.2920      10.807      11.685      11.348      9.6960      7.2713      6.9442      4.8387    
  4.1123      5.0787      7.2713      9.6961      11.348      11.685      10.807      9.2920      7.7243      6.3301    
  5.2037      4.3685      3.8104      3.5056      3.4369      3.5998      4.0028      4.6664      5.6144      6.8557    
  8.3521      9.9867      11.458      12.115      11.450      9.5006      9.6471      7.1907      5.3401      4.8932    
  5.9955      8.0685      10.129      11.300      11.216      10.111      8.5906      7.1112      5.8354      4.8336    