unknown system                          
   1.00000000000000     
    -2.450000    2.450000    1.274000
     2.450000   -2.450000    1.274000
     2.450000    2.450000   -1.274000
   Si
     2
Direct
  0.250000  0.750000  0.500000
  0.000000  0.000000  0.000000
 
   28   28   28
 -5.5810     -4.0489     -.56564E-01  4.8865      9.0913      11.426      11.690      10.492      8.7852      7.1673    
  5.8154      4.7897      4.0869      3.6809      3.5484      3.6810      4.0871      4.7898      5.8155      7.1672    
  8.7852      10.492      11.689      11.426      9.0912      4.8864     -.56712E-01 -4.0490     -4.0490     -4.8375    
 -2.6860      1.5524      6.2890      9.9535      11.654      11.424      10.000      8.2938      6.7429      5.4821    
  4.5501      3.9342      3.6072      3.5486      3.7537      4.2347      5.0164      6.1218      7.5433      9.2007    
  10.868      11.834      11.184      8.4690      4.1030     -.62994     -.56712E-01 -2.6861     -2.7423     -.21012    
  3.8924      8.0239      10.844      11.755      11.013      9.4213      7.7551      6.2955      5.1411      4.3108    
  3.7846      3.5361      3.5486      3.8213      4.3689      5.2165      6.3825      7.8481      9.5161      11.118    
  11.897      11.032      8.2425      4.1030      4.8864      1.5523     -.21017     0.32977      2.9379      6.5377    
  9.7534      11.553      11.644      10.458      8.7942      7.1997      5.8503      4.8111      4.0842      3.6457    
  3.4713      3.5486      3.8801      4.4822      5.3782      6.5813      8.0624      9.7128      11.242      11.913    
  11.032      8.4690      9.0912      6.2890      3.8924      2.9379      3.8525      6.2289      9.0416      11.171    
  11.925      11.288      9.8027      8.1541      6.6577      5.4304      4.5083      3.8811      3.5238      3.4158    
  3.5486      3.9272      4.5680      5.4918      6.7059      8.1731      9.7797      11.242      11.897      11.184    
  11.426      9.9534      8.0238      6.5377      6.2289      7.2674      9.1639      11.036      12.068      11.898    
  10.725      9.1160      7.5353      6.1562      5.0553      4.2458      3.7100      3.4242      3.3722      3.5488    
  3.9600      4.6215      5.5504      6.7483      8.1731      9.7128      11.118      11.834      11.689      11.654    
  10.844      9.7534      9.0417      9.1639      10.103      11.376      12.304      12.379      11.516      10.046    
  8.4503      6.9693      5.7181      4.7402      4.0334      3.5770      3.3507      3.3422      3.5489      3.9769    
  4.6396      5.5504      6.7059      8.0624      9.5161      10.868      10.492      11.424      11.755      11.553    
  11.171      11.036      11.377      12.067      12.697      12.810      12.176      10.905      9.3662      7.8444    
  6.4839      5.3610      4.4960      3.8778      3.4864      3.3056      3.3269      3.5489      3.9769      4.6215    
  5.4918      6.5813      7.8481      9.2007      8.7852      10.000      11.013      11.644      11.925      12.069    
  12.304      12.697      13.083      13.161      12.688      11.639      10.237      8.7477      7.3336      6.1010    
  5.0977      4.3297      3.7829      3.4405      3.2905      3.3269      3.5489      3.9600      4.5680      5.3782    
  6.3825      7.5433      7.1672      8.2937      9.4213      10.458      11.288      11.899      12.379      12.811    
  13.161      13.276      12.975      12.180      11.000      9.6314      8.2378      6.9471      5.8368      4.9366    
  4.2456      3.7511      3.4405      3.3056      3.3422      3.5488      3.9272      4.4822      5.2165      6.1218    
  5.8155      6.7429      7.7550      8.7942      9.8027      10.725      11.516      12.176      12.688      12.975    
  12.919      12.441      11.572      10.428      9.1500      7.8750      6.7064      5.7021      4.8824      4.2456    
  3.7829      3.4864      3.3507      3.3722      3.5486      3.8801      4.3689      5.0164      4.7898      5.4821    
  6.2955      7.1997      8.1541      9.1161      10.046      10.905      11.639      12.180      12.441      12.344    
  11.866      11.052      10.002      8.8407      7.6866      6.6247      5.7021      4.9366      4.3297      3.8778    
  3.5770      3.4242      3.4158      3.5486      3.8213      4.2347      4.0871      4.5501      5.1411      5.8502    
  6.6577      7.5353      8.4503      9.3662      10.237      11.000      11.572      11.866      11.821      11.419    
  10.707      9.7749      8.7342      7.6866      6.7064      5.8368      5.0977      4.4960      4.0334      3.7100    
  3.5238      3.4713      3.5486      3.7537      3.6810      3.9342      4.3107      4.8110      5.4303      6.1562    
  6.9694      7.8444      8.7477      9.6314      10.428      11.053      11.419      11.466      11.176      10.586    
  9.7749      8.8407      7.8750      6.9471      6.1010      5.3610      4.7402      4.2458      3.8811      3.6457    
  3.5361      3.5486      3.5484      3.6070      3.7844      4.0840      4.5082      5.0553      5.7181      6.4840    
  7.3336      8.2378      9.1500      10.002      10.707      11.176      11.341      11.176      10.707      10.002    
  9.1500      8.2378      7.3336      6.4839      5.7181      5.0553      4.5083      4.0842      3.7846      3.6072    
  3.6809      3.5483      3.5357      3.6452      3.8808      4.2457      4.7402      5.3611      6.1010      6.9471    
  7.8750      8.8407      9.7749      10.586      11.176      11.466      11.419      11.052      10.428      9.6314    
  8.7477      7.8444      6.9693      6.1562      5.4304      4.8111      4.3108      3.9342      4.0869      3.7533    
  3.5481      3.4707      3.5233      3.7097      4.0334      4.4960      5.0978      5.8369      6.7064      7.6866    
  8.7342      9.7749      10.707      11.419      11.821      11.866      11.572      11.000      10.237      9.3662    
  8.4503      7.5353      6.6577      5.8503      5.1411      4.5501      4.7897      4.2343      3.8207      3.5480    
  3.4152      3.4238      3.5769      3.8778      4.3298      4.9368      5.7022      6.6247      7.6866      8.8407    
  10.002      11.053      11.866      12.344      12.441      12.180      11.639      10.905      10.046      9.1160    
  8.1541      7.1997      6.2955      5.4821      5.8154      5.0161      4.3685      3.8796      3.5480      3.3717    
  3.3504      3.4863      3.7830      4.2458      4.8826      5.7022      6.7064      7.8750      9.1500      10.428    
  11.572      12.441      12.919      12.975      12.688      12.176      11.516      10.725      9.8027      8.7942    
  7.7551      6.7429      7.1673      6.1217      5.2162      4.4817      3.9267      3.5482      3.3418      3.3054    
  3.4404      3.7512      4.2458      4.9368      5.8369      6.9471      8.2378      9.6314      11.000      12.180    
  12.975      13.276      13.161      12.810      12.379      11.898      11.288      10.458      9.4213      8.2938    
  8.7852      7.5434      6.3824      5.3780      4.5676      3.9595      3.5484      3.3266      3.2903      3.4404    
  3.7830      4.3298      5.0978      6.1010      7.3336      8.7477      10.237      11.639      12.688      13.161    
  13.083      12.697      12.304      12.068      11.925      11.644      11.013      10.000      10.492      9.2008    
  7.8481      6.5813      5.4917      4.6211      3.9764      3.5485      3.3266      3.3054      3.4863      3.8778    
  4.4960      5.3611      6.4840      7.8444      9.3662      10.905      12.176      12.811      12.697      12.067    
  11.376      11.036      11.171      11.553      11.755      11.424      11.690      10.868      9.5162      8.0625    
  6.7059      5.5503      4.6393      3.9764      3.5484      3.3418      3.3504      3.5769      4.0334      4.7402    
  5.7181      6.9694      8.4503      10.046      11.516      12.379      12.304      11.377      10.103      9.1639    
  9.0416      9.7534      10.844      11.654      11.426      11.834      11.118      9.7129      8.1732      6.7483    
  5.5503      4.6211      3.9595      3.5482      3.3717      3.4238      3.7097      4.2457      5.0553      6.1562    
  7.5353      9.1161      10.725      11.899      12.069      11.036      9.1639      7.2674      6.2289      6.5377    
  8.0239      9.9535      9.0913      11.184      11.897      11.242      9.7798      8.1732      6.7059      5.4917    
  4.5676      3.9267      3.5480      3.4152      3.5233      3.8808      4.5082      5.4303      6.6577      8.1541    
  9.8027      11.288      11.925      11.171      9.0417      6.2289      3.8525      2.9379      3.8924      6.2890    
  4.8865      8.4691      11.032      11.913      11.242      9.7129      8.0625      6.5813      5.3780      4.4817    
  3.8796      3.5480      3.4707      3.6452      4.0840      4.8110      5.8502      7.1997      8.7942      10.458    
  11.644      11.553      9.7534      6.5377      2.9379     0.32977     -.21012      1.5524     -.56564E-01  4.1032    
  8.2427      11.032      11.897      11.118      9.5162      7.8481      6.3824      5.2162      4.3685      3.8207    
  3.5481      3.5357      3.7844      4.3107      5.1411      6.2955      7.7550      9.4213      11.013      11.755    
  10.844      8.0238      3.8924     -.21017     -2.7423     -2.6860     -4.0489     -.62977      4.1032      8.4691    
  11.184      11.834      10.868      9.2008      7.5434      6.1217      5.0161      4.2343      3.7533      3.5483    
  3.6070      3.9342      4.5501      5.4821      6.7429      8.2937      10.000      11.424      11.654      9.9534    
  6.2890      1.5523     -2.6861     -4.8375     -4.0488     -2.9399     0.54858      5.0689      9.0217      11.272    
  11.551      10.391      8.6954      7.0728      5.7061      4.6591      3.9307      3.4950      3.3269      3.4158    
  3.7681      4.4057      5.3562      6.6301      8.1835      9.8746      11.232      11.360      9.5926      5.9891    
  1.4970     -2.3397     -2.9399     -4.0488     -2.3396      1.4970      5.9891      9.5925      11.359      11.232    
  9.8745      8.1835      6.6301      5.3562      4.4056      3.7680      3.4158      3.3271      3.4952      3.9310    
  4.6593      5.7062      7.0728      8.6954      10.391      11.552      11.272      9.0218      5.0689     0.54850    
 0.64938     -2.2321     -2.6858     -.54696      3.3028      7.3810      10.312      11.403      10.811      9.2882    
  7.6372      6.1753      5.0093      4.1636      3.6206      3.3529      3.3424      3.5871      4.1014      4.9116    
  6.0405      7.4790      9.1452      10.814      11.794      11.237      8.7671      4.8279      5.3307      1.7871    
 -.34532     -.20989      2.1051      5.6167      8.9478      10.981      11.310      10.279      8.6670      7.0848    
  5.7318      4.6828      3.9449      3.4954      3.3091      3.3723      3.6872      4.2709      5.1491      6.3403    
  7.8249      9.5068      11.129      11.983      11.321      8.9165      9.4524      6.4814      3.7471      2.3769    
  2.9382      5.1457      8.0167      10.378      11.425      11.026      9.6605      8.0428      6.5530      5.3210    
  4.3919      3.7591      3.3979      3.2865      3.4159      3.7912      4.4308      5.3587      6.5877      8.0890    
  9.7574      11.327      12.129      11.537      11.840      10.256      8.0478      6.1653      5.4581      6.2293    
  8.0748      10.107      11.422      11.535      10.550      9.0076      7.4444      6.0663      4.9608      4.1485    
  3.6137      3.3322      3.2864      3.4713      3.8942      4.5728      5.5282      6.7671      8.2536      9.8794    
  11.395      12.216      12.208      12.136      11.139      9.7197      8.6146      8.3984      9.1643      10.473    
  11.603      11.945      11.303      9.9429      8.3740      6.8993      5.6453      4.6653      3.9616      3.5140    
  3.3007      3.3088      3.5362      3.9908      4.6888      5.6470      6.8663      8.3063      9.8617      11.320    
  11.092      12.061      12.313      11.893      11.185      10.703      10.783      11.377      12.083      12.385    
  11.950      10.808      9.3065      7.7940      6.4319      5.3065      4.4446      3.8370      3.4629      3.3043    
  3.3526      3.6074      4.0761      4.7720      5.7072      6.8777      8.2418      9.7023      9.4087      10.710    
  11.741      12.278      12.347      12.203      12.158      12.361      12.697      12.848      12.504      11.562    
  10.198      8.7155      7.2993      6.0632      5.0620      4.3050      3.7777      3.4613      3.3425      3.4156    
  3.6812      4.1450      4.8169      5.7042      6.7994      8.0625      7.7798      8.9989      10.195      11.241    
  11.982      12.409      12.656      12.871      13.084      13.161      12.894      12.149      10.985      9.6139    
  8.2143      6.9183      5.8091      4.9200      4.2501      3.7846      3.5087      3.4133      3.4949      3.7537    
  4.1935      4.8203      5.6376      6.6360      6.3980      7.4123      8.4994      9.5853      10.594      11.440    
  12.084      12.562      12.909      13.084      12.975      12.475      11.583      10.419      9.1261      7.8423    
  6.6738      5.6813      4.8850      4.2809      3.8570      3.6032      3.5139      3.5867      3.8211      4.2185    
  4.7816      5.5113      5.3336      6.1015      6.9846      7.9425      8.9212      9.8656      10.730      11.472    
  12.064      12.469      12.621      12.441      11.900      11.042      9.9631      8.7866      7.6309      6.5820    
  5.6864      4.9588      4.3966      3.9927      3.7415      3.6403      3.6869      3.8798      4.2184      4.7032    
  4.5899      5.1160      5.7662      6.5246      7.3631      8.2435      9.1250      9.9686      10.735      11.374    
  11.821      12.003      11.866      11.397      10.638      9.6801      8.6340      7.6005      6.6515      5.8265    
  5.1401      4.5944      4.1878      3.9192      3.7875      3.7909      3.9267      4.1932      4.1446      4.4489    
  4.8726      5.4130      6.0600      6.7948      7.5912      8.4185      9.2430      10.023      10.701      11.205    
  11.463      11.419      11.063      10.434      9.6104      8.6895      7.7588      6.8826      6.0985      5.4248    
  4.8694      4.4370      4.1302      3.9497      3.8938      3.9594      3.9762      4.0755      4.2890      4.6181    
  5.0623      5.6160      6.2673      6.9987      7.7878      8.6058      9.4114      10.145      10.732      11.095    
  11.176      10.956      10.465      9.7693      8.9547      8.1004      7.2671      6.4941      5.8047      5.2138    
  4.7322      4.3666      4.1197      3.9904      4.0756      3.9761      3.9902      4.1195      4.3664      4.7320    
  5.2138      5.8047      6.4941      7.2671      8.1003      8.9546      9.7694      10.465      10.956      11.176    
  11.095      10.732      10.145      9.4114      8.6058      7.7878      6.9987      6.2674      5.6161      5.0624    
  4.6182      4.2891      4.4489      4.1445      3.9592      3.8935      3.9495      4.1300      4.4368      4.8694    
  5.4248      6.0986      6.8827      7.7588      8.6895      9.6104      10.434      11.063      11.419      11.463    
  11.205      10.701      10.023      9.2431      8.4186      7.5912      6.7949      6.0601      5.4130      4.8727    
  5.1160      4.5898      4.1930      3.9265      3.7906      3.7872      3.9190      4.1877      4.5944      5.1402    
  5.8266      6.6515      7.6005      8.6340      9.6801      10.638      11.397      11.866      12.003      11.821    
  11.374      10.735      9.9686      9.1250      8.2436      7.3631      6.5247      5.7662      6.1015      5.3335    
  4.7030      4.2181      3.8795      3.6866      3.6400      3.7414      3.9926      4.3967      4.9589      5.6865    
  6.5820      7.6309      8.7866      9.9631      11.042      11.900      12.441      12.620      12.469      12.063    
  11.472      10.730      9.8657      8.9213      7.9425      6.9847      7.4123      6.3980      5.5112      4.7815    
  4.2182      3.8208      3.5864      3.5137      3.6032      3.8571      4.2810      4.8851      5.6813      6.6738    
  7.8423      9.1261      10.419      11.583      12.475      12.975      13.083      12.909      12.562      12.084    
  11.440      10.594      9.5854      8.4994      8.9990      7.7798      6.6359      5.6375      4.8201      4.1932    
  3.7534      3.4947      3.4132      3.5088      3.7847      4.2502      4.9201      5.8092      6.9183      8.2143    
  9.6139      10.985      12.149      12.893      13.161      13.083      12.871      12.655      12.408      11.982    
  11.241      10.195      10.711      9.4088      8.0625      6.7994      5.7041      4.8167      4.1448      3.6809    
  3.4155      3.3425      3.4614      3.7778      4.3051      5.0621      6.0632      7.2994      8.7156      10.198    
  11.562      12.504      12.847      12.696      12.361      12.157      12.203      12.347      12.278      11.741    
  12.061      11.092      9.7023      8.2418      6.8777      5.7072      4.7719      4.0759      3.6072      3.3524    
  3.3043      3.4629      3.8371      4.4447      5.3066      6.4320      7.7940      9.3066      10.808      11.950    
  12.385      12.083      11.376      10.782      10.703      11.185      11.893      12.313      12.136      12.208    
  11.320      9.8618      8.3064      6.8663      5.6470      4.6887      3.9906      3.5359      3.3086      3.3006    
  3.5139      3.9617      4.6654      5.6454      6.8993      8.3741      9.9430      11.303      11.945      11.602    
  10.472      9.1635      8.3977      8.6142      9.7196      11.139      10.256      11.840      12.216      11.395    
  9.8795      8.2536      6.7671      5.5281      4.5726      3.8939      3.4710      3.2861      3.3319      3.6136    
  4.1485      4.9608      6.0663      7.4445      9.0076      10.550      11.535      11.422      10.106      8.0742    
  6.2287      5.4577      6.1651      8.0479      6.4816      9.4526      11.538      12.129      11.327      9.7575    
  8.0890      6.5877      5.3586      4.4305      3.7909      3.4155      3.2861      3.3976      3.7589      4.3918    
  5.3210      6.5530      8.0429      9.6606      11.026      11.424      10.378      8.0164      5.1453      2.9378    
  2.3767      3.7471      1.7872      5.3309      8.9166      11.321      11.983      11.129      9.5068      7.8249    
  6.3403      5.1489      4.2705      3.6868      3.3719      3.3087      3.4951      3.9448      4.6828      5.7318    
  7.0848      8.6671      10.280      11.310      10.981      8.9477      5.6165      2.1049     -.21006     -.34536    
 -2.2320     0.64950      4.8280      8.7671      11.237      11.794      10.814      9.1452      7.4790      6.0405    
  4.9114      4.1011      3.5867      3.3420      3.3527      3.6205      4.1637      5.0093      6.1753      7.6373    
  9.2883      10.811      11.403      10.312      7.3810      3.3028     -.54707     -2.6859     -.56149E-01 0.64974    
  3.3414      6.9299      10.058      11.734      11.710      10.451      8.7573      7.1465      5.7833      4.7280    
  3.9800      3.5142      3.3059      3.3429      3.6287      4.1816      5.0279      6.1835      7.6224      9.2400    
  10.743      11.400      10.540      8.0609      4.6300      1.4974     0.54888     -.62937     0.54884      3.5884    
  7.2591      10.207      11.567      11.262      9.8715      8.2014      6.6659      5.3988      4.4434      3.7906    
  3.4137      3.2908      3.4138      3.7907      4.4435      5.3989      6.6659      8.2014      9.8716      11.262    
  11.568      10.207      7.2593      3.5885      3.3415     0.64976     -.56149E-01  1.4973      4.6299      8.0607    
  10.540      11.400      10.743      9.2398      7.6224      6.1834      5.0278      4.1815      3.6287      3.3429    
  3.3060      3.5142      3.9801      4.7280      5.7833      7.1465      8.7573      10.451      11.710      11.734    
  10.058      6.9300      7.1770      3.9559      1.7874      1.5529      3.3032      6.2383      9.1269      10.912    
  11.163      10.153      8.5903      7.0488      5.7225      4.6874      3.9538      3.5010      3.3047      3.3508    
  3.6404      4.1890      5.0223      6.1621      7.5998      9.2598      10.949      12.095      11.952      10.187    
  10.608      7.9706      5.3203      3.7475      3.8930      5.6171      8.0830      10.202      11.172      10.805    
  9.5099      7.9522      6.5064      5.3033      4.3920      3.7695      3.4128      3.3008      3.4241      3.7875    
  4.4085      5.3118      6.5149      7.9994      9.6779      11.340      12.412      12.239      12.563      11.245    
  9.1546      7.1721      6.1656      6.5383      8.0171      9.8129      11.050      11.206      10.312      8.8528    
  7.3513      6.0174      4.9430      4.1532      3.6357      3.3676      3.3319      3.5235      3.9497      4.6281    
  5.5814      6.8208      8.3196      9.9825      11.600      12.643      12.751      12.852      11.954      10.485    
  9.1621      8.6149      9.0422      10.107      11.139      11.514      10.974      9.7190      8.2268      6.8110    
  5.6007      4.6545      3.9793      3.5573      3.3675      3.3974      3.6453      4.1196      4.8368      5.8153    
  7.0599      8.5372      10.149      11.703      11.629      12.695      13.012      12.563      11.694      10.938    
  10.703      11.036      11.603      11.898      11.547      10.516      9.1025      7.6595      6.3524      5.2710    
  4.4473      3.8757      3.5365      3.4124      3.4948      3.7844      4.2892      5.0228      5.9987      7.2153    
  8.6345      10.161      10.013      11.372      12.441      12.961      12.915      12.553      12.226      12.158    
  12.304      12.385      12.075      11.220      9.9409      8.5303      7.1767      5.9933      5.0391      4.3271    
  3.8448      3.5737      3.5005      3.6201      3.9341      4.4490      5.1747      6.1189      7.2745      8.6019    
  8.4398      9.7137      10.943      11.982      12.649      12.916      12.928      12.883      12.871      12.810    
  12.504      11.793      10.687      9.3767      8.0400      6.8025      5.7479      4.9122      4.2967      3.8868    
  3.6670      3.6282      3.7677      4.0869      4.5899      5.2823      6.1666      7.2319      7.0898      8.1592    
  9.2835      10.376      11.344      12.085      12.553      12.805      12.920      12.909      12.687      12.149    
  11.264      10.133      8.8920      7.6664      6.5578      5.6268      4.8944      4.3565      3.9997      3.8128    
  3.7902      3.9305      4.2344      4.7031      5.3382      6.1380      6.0345      6.8582      7.7807      8.7536    
  9.7123      10.590      11.333      11.899      12.282      12.482      12.469      12.180      11.582      10.716    
  9.6632      8.5349      7.4395      6.4586      5.6367      4.9869      4.5044      4.1797      4.0057      3.9797    
  4.1009      4.3685      4.7814      5.3381      5.2822      5.8638      6.5541      7.3319      8.1617      8.9973    
  9.7906      10.500      11.094      11.539      11.797      11.821      11.571      11.042      10.271      9.3394    
  8.3455      7.3820      6.5153      5.7805      5.1883      4.7368      4.4213      4.2389      4.1888      4.2703    
  4.4816      4.8199      4.8164      5.1746      5.6380      6.1992      6.8436      7.5467      8.2768      8.9994    
  9.6810      10.287      10.777      11.101      11.205      11.052      10.638      9.9987      9.2076      8.3508    
  7.5068      6.7318      6.0570      5.4946      5.0477      4.7171      4.5038      4.4083      4.4303      4.5673    
  4.6208      4.7715      5.0228      5.3726      5.8168      6.3462      6.9450      7.5922      8.2635      8.9315    
  9.5623      10.110      10.520      10.732      10.707      10.434      9.9424      9.2939      8.5622      7.8156    
  7.1046      6.4600      5.8983      5.4286      5.0575      4.7898      4.6281      4.5723      4.6884      4.6390    
  4.6884      4.8368      5.0844      5.4296      5.8671      6.3875      6.9778      7.6219      8.2980      8.9738    
  9.6017      10.120      10.465      10.586      10.465      10.120      9.6017      8.9739      8.2981      7.6220    
  6.9779      6.3876      5.8672      5.4296      5.0844      4.8368      5.0228      4.7716      4.6210      4.5724    
  4.6282      4.7899      5.0575      5.4285      5.8982      6.4599      7.1045      7.8155      8.5622      9.2939    
  9.9424      10.434      10.707      10.732      10.520      10.110      9.5623      8.9316      8.2636      7.5923    
  6.9451      6.3463      5.8169      5.3726      5.6380      5.1747      4.8166      4.5676      4.4305      4.4085    
  4.5038      4.7170      5.0476      5.4945      6.0569      6.7318      7.5068      8.3508      9.2076      9.9987    
  10.638      11.052      11.205      11.101      10.777      10.287      9.6811      8.9995      8.2769      7.5468    
  6.8436      6.1993      6.5542      5.8639      5.2824      4.8202      4.4818      4.2705      4.1889      4.2389    
  4.4211      4.7367      5.1882      5.7805      6.5153      7.3820      8.3455      9.3394      10.271      11.042    
  11.571      11.821      11.797      11.539      11.094      10.500      9.7907      8.9974      8.1618      7.3319    
  7.7807      6.8582      6.0346      5.3383      4.7816      4.3687      4.1011      3.9798      4.0057      4.1796    
  4.5043      4.9868      5.6367      6.4586      7.4395      8.5349      9.6632      10.716      11.582      12.180    
  12.468      12.482      12.282      11.899      11.333      10.590      9.7124      8.7537      9.2835      8.1592    
  7.0898      6.1381      5.3384      4.7033      4.2346      3.9307      3.7903      3.8128      3.9997      4.3565    
  4.8944      5.6267      6.5578      7.6664      8.8920      10.133      11.264      12.149      12.687      12.908    
  12.920      12.805      12.552      12.085      11.344      10.376      10.943      9.7137      8.4397      7.2319    
  6.1667      5.2825      4.5901      4.0871      3.7679      3.6284      3.6672      3.8869      4.2968      4.9122    
  5.7479      6.8025      8.0401      9.3768      10.687      11.792      12.504      12.810      12.870      12.882    
  12.928      12.916      12.649      11.982      12.442      11.372      10.013      8.6018      7.2745      6.1190    
  5.1749      4.4493      3.9344      3.6204      3.5008      3.5740      3.8450      4.3272      5.0391      5.9933    
  7.1767      8.5304      9.9409      11.220      12.075      12.384      12.303      12.157      12.225      12.553    
  12.915      12.961      13.013      12.695      11.629      10.161      8.6344      7.2153      5.9988      5.0230    
  4.2894      3.7847      3.4952      3.4127      3.5367      3.8758      4.4473      5.2710      6.3525      7.6596    
  9.1025      10.516      11.547      11.897      11.602      11.035      10.702      10.938      11.694      12.563    
  11.954      12.852      12.751      11.703      10.149      8.5371      7.0600      5.8154      4.8370      4.1199    
  3.6456      3.3977      3.3677      3.5574      3.9794      4.6546      5.6008      6.8111      8.2269      9.7190    
  10.973      11.513      11.139      10.106      9.0414      8.6143      9.1618      10.485      9.1546      11.245    
  12.563      12.643      11.600      9.9824      8.3196      6.8208      5.5815      4.6283      3.9499      3.5237    
  3.3321      3.3677      3.6358      4.1532      4.9430      6.0175      7.3513      8.8529      10.312      11.205    
  11.050      9.8124      8.0165      6.5378      6.1653      7.1720      5.3203      7.9707      10.608      12.239    
  12.412      11.340      9.6778      7.9994      6.5149      5.3119      4.4086      3.7876      3.4242      3.3008    
  3.4128      3.7695      4.3920      5.3034      6.5064      7.9523      9.5100      10.805      11.171      10.202    
  8.0827      5.6168      3.8927      3.7473      1.7874      3.9559      7.1770      10.187      11.952      12.095    
  10.949      9.2597      7.5998      6.1621      5.0223      4.1891      3.6404      3.3508      3.3047      3.5010    
  3.9538      4.6874      5.7225      7.0488      8.5904      10.154      11.163      10.912      9.1269      6.2382    
  3.3031      1.5528      4.8871      5.3311      7.1770      9.6284      11.656      12.508      12.026      10.624    
  8.9555      7.3848      6.0490      5.0006      4.2390      3.7417      3.4866      3.4616      3.6673      4.1171    
  4.8328      5.8329      7.1067      8.5840      10.102      11.205      11.289      10.119      8.0611      5.9897    
  5.0694      4.1036      4.8282      6.9300      9.4825      11.430      12.095      11.442      9.9754      8.3457    
  6.8532      5.6146      4.6682      4.0058      3.6034      3.4407      3.5090      3.8130      4.3698      5.2033    
  6.3277      7.7190      9.2832      10.795      11.670      11.332      9.6814      7.2595      6.9302      4.8283    
  4.1035      5.0692      7.2592      9.6812      11.332      11.670      10.795      9.2831      7.7190      6.3277    
  5.2033      4.3698      3.8130      3.5090      3.4406      3.6033      4.0057      4.6681      5.6145      6.8531    
  8.3457      9.9755      11.442      12.096      11.430      9.4827      9.6285      7.1771      5.3311      4.8869    
  5.9895      8.0609      10.119      11.289      11.205      10.102      8.5839      7.1067      5.8329      4.8328    