unknown system                          
   1.00000000000000     
    -2.450000    2.450000    1.274000
     2.450000   -2.450000    1.274000
     2.450000    2.450000   -1.274000
   Si
     2
Direct
  0.250000  0.750000  0.500000
  0.000000  0.000000  0.000000
 
   28   28   28
 -.55810305676E+01 -.40489339913E+01 -.56563743552E-01 0.48865435601E+01 0.90912907601E+01
 0.11426138433E+02 0.11689523290E+02 0.10491939495E+02 0.87852088878E+01 0.71672507437E+01
 0.58153815928E+01 0.47896510159E+01 0.40868582684E+01 0.36808523713E+01 0.35484479757E+01
 0.36809725485E+01 0.40870569813E+01 0.47898423217E+01 0.58154815144E+01 0.71672454339E+01
 0.87851534659E+01 0.10491886969E+02 0.11689480103E+02 0.11426084052E+02 0.90912053019E+01
 0.48864171248E+01 -.56711514791E-01 -.40490400864E+01 -.40490400864E+01 -.48374578298E+01
 -.26859863936E+01 0.15524496697E+01 0.62890384335E+01 0.99534829934E+01 0.11654339095E+02
 0.11424488787E+02 0.10000368843E+02 0.82937583109E+01 0.67428749310E+01 0.54820561862E+01
 0.45500771263E+01 0.39342312094E+01 0.36071710987E+01 0.35485632057E+01 0.37536898915E+01
 0.42347158762E+01 0.50163818172E+01 0.61218133361E+01 0.75433372200E+01 0.92007160228E+01
 0.10868020240E+02 0.11833541848E+02 0.11183799284E+02 0.84689882774E+01 0.41030056582E+01
 -.62993629113E+00 -.56711514792E-01 -.26860689295E+01 -.27423072575E+01 -.21012193473E+00
 0.38924166369E+01 0.80238665234E+01 0.10844119399E+02 0.11755426121E+02 0.11012548829E+02
 0.94212613748E+01 0.77550663416E+01 0.62954881970E+01 0.51411330956E+01 0.43107849605E+01
 0.37846454839E+01 0.35361089926E+01 0.35485952564E+01 0.38212625715E+01 0.43689430657E+01
 0.52165053613E+01 0.63825000131E+01 0.78480591112E+01 0.95160608907E+01 0.11118080299E+02
 0.11896619229E+02 0.11031656568E+02 0.82425234920E+01 0.41030056582E+01 0.48864171248E+01
 0.15523489489E+01 -.21016671860E+00 0.32976641892E+00 0.29378716454E+01 0.65376883379E+01
 0.97533813997E+01 0.11552739770E+02 0.11643592921E+02 0.10458016980E+02 0.87941546564E+01
 0.71997186787E+01 0.58502952325E+01 0.48111337093E+01 0.40842358792E+01 0.36456679823E+01
 0.34712696782E+01 0.35485988677E+01 0.38801217177E+01 0.44821620731E+01 0.53782491856E+01
 0.65813490853E+01 0.80624374786E+01 0.97128285706E+01 0.11241879431E+02 0.11913162834E+02
 0.11031656568E+02 0.84689882774E+01 0.90912053019E+01 0.62889640695E+01 0.38923736928E+01
 0.29378660208E+01 0.38524953323E+01 0.62289211264E+01 0.90416284135E+01 0.11170607785E+02
 0.11924719576E+02 0.11288123363E+02 0.98026647095E+01 0.81541215729E+01 0.66577164109E+01
 0.54303946549E+01 0.45083159200E+01 0.38811422890E+01 0.35238034213E+01 0.34157947368E+01
 0.35486461235E+01 0.39271937969E+01 0.45679541267E+01 0.54918439081E+01 0.67058872815E+01
 0.81730778583E+01 0.97796903807E+01 0.11241879431E+02 0.11896619229E+02 0.11183799284E+02
 0.11426084052E+02 0.99534449526E+01 0.80238448581E+01 0.65376969758E+01 0.62289458727E+01
 0.72673804406E+01 0.91638521232E+01 0.11035913619E+02 0.12068468847E+02 0.11898483269E+02
 0.10724562320E+02 0.91160211803E+01 0.75352576283E+01 0.61562321576E+01 0.50552962089E+01
 0.42458262674E+01 0.37100099413E+01 0.34242192566E+01 0.33721770779E+01 0.35487507743E+01
 0.39600192444E+01 0.46214510780E+01 0.55504113059E+01 0.67482874205E+01 0.81730778583E+01
 0.97128285706E+01 0.11118080299E+02 0.11833541848E+02 0.11689480103E+02 0.11654329649E+02
 0.10844123225E+02 0.97534018045E+01 0.90416723762E+01 0.91638931859E+01 0.10103453621E+02
 0.11376477589E+02 0.12303774411E+02 0.12379139236E+02 0.11515884776E+02 0.10046447413E+02
 0.84502534224E+01 0.69693484045E+01 0.57180737183E+01 0.47401942128E+01 0.40334333373E+01
 0.35770435013E+01 0.33506690311E+01 0.33421859335E+01 0.35488578033E+01 0.39768743285E+01
 0.46396250288E+01 0.55504113059E+01 0.67058872815E+01 0.80624374786E+01 0.95160608907E+01
 0.10868020240E+02 0.10491886969E+02 0.11424485716E+02 0.11755453068E+02 0.11552774840E+02
 0.11170655190E+02 0.11035973373E+02 0.11376520624E+02 0.12067196631E+02 0.12696609274E+02
 0.12810486843E+02 0.12175605021E+02 0.10904819225E+02 0.93661997006E+01 0.78443615543E+01
 0.64838970362E+01 0.53609847944E+01 0.44959633831E+01 0.38777713422E+01 0.34863737407E+01
 0.33056173748E+01 0.33269250354E+01 0.35489020862E+01 0.39768743285E+01 0.46214510780E+01
 0.54918439081E+01 0.65813490853E+01 0.78480591112E+01 0.92007160228E+01 0.87851534659E+01
 0.10000345782E+02 0.11012576220E+02 0.11643644053E+02 0.11924773481E+02 0.12068527819E+02
 0.12303832885E+02 0.12696643945E+02 0.13082561866E+02 0.13160914528E+02 0.12687592599E+02
 0.11638649192E+02 0.10237172790E+02 0.87476759722E+01 0.73336042866E+01 0.61009676489E+01
 0.50977166481E+01 0.43297200811E+01 0.37829292269E+01 0.34404644301E+01 0.32904504671E+01
 0.33269250354E+01 0.35488578033E+01 0.39600192444E+01 0.45679541267E+01 0.53782491856E+01
 0.63825000131E+01 0.75433372200E+01 0.71672454339E+01 0.82937219306E+01 0.94212603328E+01
 0.10458060995E+02 0.11288184455E+02 0.11898543647E+02 0.12379197354E+02 0.12810533722E+02
 0.13160936874E+02 0.13276382551E+02 0.12974801920E+02 0.12180091401E+02 0.10999642652E+02
 0.96314232940E+01 0.82377642703E+01 0.69471021229E+01 0.58368323608E+01 0.49366328983E+01
 0.42456394740E+01 0.37510871556E+01 0.34404644301E+01 0.33056173748E+01 0.33421859335E+01
 0.35487507743E+01 0.39271937969E+01 0.44821620731E+01 0.52165053613E+01 0.61218133361E+01
 0.58154815144E+01 0.67428705610E+01 0.77550411639E+01 0.87941646878E+01 0.98027111149E+01
 0.10724620791E+02 0.11515941708E+02 0.12175654826E+02 0.12687625413E+02 0.12974813998E+02
 0.12919474452E+02 0.12440933503E+02 0.11571505941E+02 0.10427920960E+02 0.91499556185E+01
 0.78750117825E+01 0.67063911598E+01 0.57021331450E+01 0.48824328807E+01 0.42456394740E+01
 0.37829292269E+01 0.34863737407E+01 0.33506690311E+01 0.33721770779E+01 0.35486461235E+01
 0.38801217177E+01 0.43689430657E+01 0.50163818172E+01 0.47898423217E+01 0.54821055011E+01
 0.62954657086E+01 0.71996973847E+01 0.81541357353E+01 0.91160617640E+01 0.10046495244E+02
 0.10904865666E+02 0.11638687682E+02 0.12180113914E+02 0.12440941315E+02 0.12343626161E+02
 0.11866360102E+02 0.11052482740E+02 0.10001852506E+02 0.88407343405E+01 0.76866145947E+01
 0.66246707728E+01 0.57021331450E+01 0.49366328983E+01 0.43297200811E+01 0.38777713422E+01
 0.35770435013E+01 0.34242192566E+01 0.34157947368E+01 0.35485988677E+01 0.38212625715E+01
 0.42347158762E+01 0.40870569813E+01 0.45501272583E+01 0.51410993012E+01 0.58502490388E+01
 0.66577028091E+01 0.75352784097E+01 0.84502868853E+01 0.93662322771E+01 0.10237204097E+02
 0.10999670941E+02 0.11571525958E+02 0.11866370790E+02 0.11820521959E+02 0.11419240787E+02
 0.10706882099E+02 0.97748602030E+01 0.87341896410E+01 0.76866145947E+01 0.67063911598E+01
 0.58368323608E+01 0.50977166481E+01 0.44959633831E+01 0.40334333373E+01 0.37100099413E+01
 0.35238034213E+01 0.34712696782E+01 0.35485952564E+01 0.37536898915E+01 0.36809725485E+01
 0.39341934825E+01 0.43106674643E+01 0.48110224193E+01 0.54303425179E+01 0.61562407378E+01
 0.69693829242E+01 0.78443892443E+01 0.87476915804E+01 0.96314394541E+01 0.10427944688E+02
 0.11052508715E+02 0.11419258940E+02 0.11465917833E+02 0.11175877357E+02 0.10585832550E+02
 0.97748602030E+01 0.88407343405E+01 0.78750117825E+01 0.69471021229E+01 0.61009676489E+01
 0.53609847944E+01 0.47401942128E+01 0.42458262674E+01 0.38811422890E+01 0.36456679823E+01
 0.35361089926E+01 0.35485632057E+01 0.35484479757E+01 0.36069962532E+01 0.37843775533E+01
 0.40839882402E+01 0.45081705655E+01 0.50552680261E+01 0.57181180078E+01 0.64839502377E+01
 0.73336292173E+01 0.82377668114E+01 0.91499628380E+01 0.10001878784E+02 0.10706917546E+02
 0.11175901804E+02 0.11340743683E+02 0.11175877357E+02 0.10706882099E+02 0.10001852506E+02
 0.91499556185E+01 0.82377642703E+01 0.73336042866E+01 0.64838970362E+01 0.57180737183E+01
 0.50552962089E+01 0.45083159200E+01 0.40842358792E+01 0.37846454839E+01 0.36071710987E+01
 0.36808523713E+01 0.35482625184E+01 0.35356884820E+01 0.36452499014E+01 0.38808446663E+01
 0.42457012441E+01 0.47402133036E+01 0.53610702551E+01 0.61010422385E+01 0.69471303087E+01
 0.78750097286E+01 0.88407401509E+01 0.97748911332E+01 0.10585872590E+02 0.11175901804E+02
 0.11465917833E+02 0.11419240787E+02 0.11052482740E+02 0.10427920960E+02 0.96314232940E+01
 0.87476759722E+01 0.78443615543E+01 0.69693484045E+01 0.61562321576E+01 0.54303946549E+01
 0.48111337093E+01 0.43107849605E+01 0.39342312094E+01 0.40868582684E+01 0.37533146301E+01
 0.35480780324E+01 0.34707146074E+01 0.35233449584E+01 0.37097425841E+01 0.40333679058E+01
 0.44960388901E+01 0.50978420920E+01 0.58369290808E+01 0.67064271583E+01 0.76866135147E+01
 0.87341962407E+01 0.97748911332E+01 0.10706917546E+02 0.11419258940E+02 0.11820521959E+02
 0.11866360102E+02 0.11571505941E+02 0.10999642652E+02 0.10237172790E+02 0.93661997006E+01
 0.84502534224E+01 0.75352576283E+01 0.66577164109E+01 0.58502952325E+01 0.51411330956E+01
 0.45500771263E+01 0.47896510159E+01 0.42343486090E+01 0.38207347167E+01 0.35479853043E+01
 0.34152215618E+01 0.34238106646E+01 0.35768565467E+01 0.38777796764E+01 0.43298473903E+01
 0.49367898494E+01 0.57022454392E+01 0.66247110748E+01 0.76866135147E+01 0.88407401509E+01
 0.10001878784E+02 0.11052508715E+02 0.11866370790E+02 0.12343626161E+02 0.12440933503E+02
 0.12180091401E+02 0.11638649192E+02 0.10904819225E+02 0.10046447413E+02 0.91160211803E+01
 0.81541215729E+01 0.71997186787E+01 0.62954881970E+01 0.54820561862E+01 0.58153815928E+01
 0.50161189098E+01 0.43685063981E+01 0.38795513600E+01 0.35480387003E+01 0.33716649601E+01
 0.33503546517E+01 0.34862765474E+01 0.37829986519E+01 0.42457989599E+01 0.48826022626E+01
 0.57022454392E+01 0.67064271583E+01 0.78750097286E+01 0.91499628380E+01 0.10427944688E+02
 0.11571525958E+02 0.12440941315E+02 0.12919474452E+02 0.12974801920E+02 0.12687592599E+02
 0.12175605021E+02 0.11515884776E+02 0.10724562320E+02 0.98026647095E+01 0.87941546564E+01
 0.77550663416E+01 0.67428749310E+01 0.71672507437E+01 0.61217077245E+01 0.52162426265E+01
 0.44817397136E+01 0.39266579764E+01 0.35482058357E+01 0.33417605414E+01 0.33053894110E+01
 0.34404258780E+01 0.37511805215E+01 0.42457989599E+01 0.49367898494E+01 0.58369290808E+01
 0.69471303087E+01 0.82377668114E+01 0.96314394541E+01 0.10999670941E+02 0.12180113914E+02
 0.12974813998E+02 0.13276382551E+02 0.13160914528E+02 0.12810486843E+02 0.12379139236E+02
 0.11898483269E+02 0.11288123363E+02 0.10458016980E+02 0.94212613748E+01 0.82937583109E+01
 0.87852088878E+01 0.75433591673E+01 0.63824221817E+01 0.53780332796E+01 0.45675909163E+01
 0.39595473491E+01 0.35483796769E+01 0.33265600182E+01 0.32902572702E+01 0.34404258780E+01
 0.37829986519E+01 0.43298473903E+01 0.50978420920E+01 0.61010422385E+01 0.73336292173E+01
 0.87476915804E+01 0.10237204097E+02 0.11638687682E+02 0.12687625413E+02 0.13160936874E+02
 0.13082561866E+02 0.12696609274E+02 0.12303774411E+02 0.12068468847E+02 0.11924719576E+02
 0.11643592921E+02 0.11012548829E+02 0.10000368843E+02 0.10491939495E+02 0.92007930066E+01
 0.78481046874E+01 0.65813137184E+01 0.54916883246E+01 0.46211483411E+01 0.39764495664E+01
 0.35484520382E+01 0.33265600182E+01 0.33053894110E+01 0.34862765474E+01 0.38777796764E+01
 0.44960388901E+01 0.53610702551E+01 0.64839502377E+01 0.78443892443E+01 0.93662322771E+01
 0.10904865666E+02 0.12175654826E+02 0.12810533722E+02 0.12696643945E+02 0.12067196631E+02
 0.11376477589E+02 0.11035913619E+02 0.11170607785E+02 0.11552739770E+02 0.11755426121E+02
 0.11424488787E+02 0.11689523290E+02 0.10868105447E+02 0.95161591904E+01 0.80625070096E+01
 0.67058898791E+01 0.55502970603E+01 0.46393474681E+01 0.39764495664E+01 0.35483796769E+01
 0.33417605414E+01 0.33503546517E+01 0.35768565467E+01 0.40333679058E+01 0.47402133036E+01
 0.57181180078E+01 0.69693829242E+01 0.84502868853E+01 0.10046495244E+02 0.11515941708E+02
 0.12379197354E+02 0.12303832885E+02 0.11376520624E+02 0.10103453621E+02 0.91638521232E+01
 0.90416284135E+01 0.97533813997E+01 0.10844119399E+02 0.11654339095E+02 0.11426138433E+02
 0.11833629316E+02 0.11118197058E+02 0.97129449045E+01 0.81731635149E+01 0.67483054152E+01
 0.55502970603E+01 0.46211483411E+01 0.39595473491E+01 0.35482058357E+01 0.33716649601E+01
 0.34238106646E+01 0.37097425841E+01 0.42457012441E+01 0.50552680261E+01 0.61562407378E+01
 0.75352784097E+01 0.91160617640E+01 0.10724620791E+02 0.11898543647E+02 0.12068527819E+02
 0.11035973373E+02 0.91638931859E+01 0.72673804406E+01 0.62289211264E+01 0.65376883379E+01
 0.80238665234E+01 0.99534829934E+01 0.90912907601E+01 0.11183898936E+02 0.11896744230E+02
 0.11242017135E+02 0.97798142269E+01 0.81731635149E+01 0.67058898791E+01 0.54916883246E+01
 0.45675909163E+01 0.39266579764E+01 0.35480387003E+01 0.34152215618E+01 0.35233449584E+01
 0.38808446663E+01 0.45081705655E+01 0.54303425179E+01 0.66577028091E+01 0.81541357353E+01
 0.98027111149E+01 0.11288184455E+02 0.11924773481E+02 0.11170655190E+02 0.90416723762E+01
 0.62289458727E+01 0.38524953323E+01 0.29378716454E+01 0.38924166369E+01 0.62890384335E+01
 0.48865435601E+01 0.84691140965E+01 0.11031786155E+02 0.11913303009E+02 0.11242017135E+02
 0.97129449045E+01 0.80625070096E+01 0.65813137184E+01 0.53780332796E+01 0.44817397136E+01
 0.38795513600E+01 0.35479853043E+01 0.34707146074E+01 0.36452499014E+01 0.40839882402E+01
 0.48110224193E+01 0.58502490388E+01 0.71996973847E+01 0.87941646878E+01 0.10458060995E+02
 0.11643644053E+02 0.11552774840E+02 0.97534018045E+01 0.65376969758E+01 0.29378660208E+01
 0.32976641892E+00 -.21012193473E+00 0.15524496697E+01 -.56563743552E-01 0.41031656130E+01
 0.82426655564E+01 0.11031786155E+02 0.11896744230E+02 0.11118197058E+02 0.95161591904E+01
 0.78481046874E+01 0.63824221817E+01 0.52162426265E+01 0.43685063981E+01 0.38207347167E+01
 0.35480780324E+01 0.35356884820E+01 0.37843775533E+01 0.43106674643E+01 0.51410993012E+01
 0.62954657086E+01 0.77550411639E+01 0.94212603328E+01 0.11012576220E+02 0.11755453068E+02
 0.10844123225E+02 0.80238448581E+01 0.38923736928E+01 -.21016671860E+00 -.27423072575E+01
 -.26859863936E+01 -.40489339913E+01 -.62977017532E+00 0.41031656130E+01 0.84691140965E+01
 0.11183898936E+02 0.11833629316E+02 0.10868105447E+02 0.92007930066E+01 0.75433591673E+01
 0.61217077245E+01 0.50161189098E+01 0.42343486090E+01 0.37533146301E+01 0.35482625184E+01
 0.36069962532E+01 0.39341934825E+01 0.45501272583E+01 0.54821055011E+01 0.67428705610E+01
 0.82937219306E+01 0.10000345782E+02 0.11424485716E+02 0.11654329649E+02 0.99534449526E+01
 0.62889640695E+01 0.15523489489E+01 -.26860689295E+01 -.48374578298E+01 -.40488091257E+01
 -.29398632331E+01 0.54858243348E+00 0.50689166368E+01 0.90217111936E+01 0.11272146651E+02
 0.11551465739E+02 0.10390796266E+02 0.86954206854E+01 0.70728079097E+01 0.57061328114E+01
 0.46590975981E+01 0.39307476515E+01 0.34949528850E+01 0.33269477832E+01 0.34158410247E+01
 0.37681268828E+01 0.44057245653E+01 0.53562498462E+01 0.66301271732E+01 0.81835039196E+01
 0.98745611773E+01 0.11232317340E+02 0.11359612193E+02 0.95925766874E+01 0.59891481434E+01
 0.14969856007E+01 -.23396609570E+01 -.29399299560E+01 -.40487993702E+01 -.23395910422E+01
 0.14970386049E+01 0.59891230886E+01 0.95924675781E+01 0.11359454190E+02 0.11232168247E+02
 0.98744768604E+01 0.81834875256E+01 0.66301092206E+01 0.53561574956E+01 0.44055700019E+01
 0.37680011378E+01 0.34158309624E+01 0.33270828661E+01 0.34952061211E+01 0.39310420564E+01
 0.46593264691E+01 0.57062295062E+01 0.70728074125E+01 0.86954230082E+01 0.10390867006E+02
 0.11551591546E+02 0.11272270658E+02 0.90217779526E+01 0.50688977206E+01 0.54850197524E+00
 0.64938475729E+00 -.22320667198E+01 -.26858186975E+01 -.54696305895E+00 0.33028380908E+01
 0.73810398094E+01 0.10312097201E+02 0.11402848913E+02 0.10810679356E+02 0.92881894225E+01
 0.76372244870E+01 0.61752675788E+01 0.50092509340E+01 0.41636382155E+01 0.36206003545E+01
 0.33528876652E+01 0.33423899601E+01 0.35870606182E+01 0.41014104460E+01 0.49115801917E+01
 0.60405357493E+01 0.74789592262E+01 0.91451996116E+01 0.10813641693E+02 0.11793570066E+02
 0.11237136249E+02 0.87671106955E+01 0.48279089791E+01 0.53307124985E+01 0.17870611429E+01
 -.34531803303E+00 -.20988769873E+00 0.21051019774E+01 0.56167108711E+01 0.89477813072E+01
 0.10981410736E+02 0.11310202482E+02 0.10279419347E+02 0.86670425122E+01 0.70847542632E+01
 0.57318134153E+01 0.46827949392E+01 0.39448968038E+01 0.34953689101E+01 0.33090672563E+01
 0.33723391944E+01 0.36872494938E+01 0.42708538224E+01 0.51491047702E+01 0.63403164897E+01
 0.78248653605E+01 0.95067905999E+01 0.11129143090E+02 0.11983065758E+02 0.11321001061E+02
 0.89164547834E+01 0.94524147701E+01 0.64814364413E+01 0.37470959881E+01 0.23768921772E+01
 0.29381941761E+01 0.51456766030E+01 0.80167304700E+01 0.10378207572E+02 0.11424512472E+02
 0.11025564115E+02 0.96605475453E+01 0.80428489349E+01 0.65530005204E+01 0.53210192729E+01
 0.43918500988E+01 0.37590817109E+01 0.33978633784E+01 0.32865190294E+01 0.34158794952E+01
 0.37912414378E+01 0.44307950456E+01 0.53587260860E+01 0.65877254964E+01 0.80889968122E+01
 0.97574426084E+01 0.11326935407E+02 0.12128947382E+02 0.11537367527E+02 0.11839944765E+02
 0.10255998489E+02 0.80478404283E+01 0.61652893767E+01 0.54581346078E+01 0.62293240222E+01
 0.80747628258E+01 0.10106859099E+02 0.11422111059E+02 0.11535356184E+02 0.10549708536E+02
 0.90075527252E+01 0.74444490151E+01 0.60662926527E+01 0.49608379378E+01 0.41485092020E+01
 0.36137170746E+01 0.33321546430E+01 0.32864173560E+01 0.34713092384E+01 0.38941511119E+01
 0.45727697184E+01 0.55282024895E+01 0.67671209173E+01 0.82536023694E+01 0.98793896437E+01
 0.11395156824E+02 0.12216077643E+02 0.12208232895E+02 0.12135715010E+02 0.11138619653E+02
 0.97197080472E+01 0.86145887360E+01 0.83984000838E+01 0.91642908367E+01 0.10472890506E+02
 0.11603015347E+02 0.11945160480E+02 0.11302736525E+02 0.99429410761E+01 0.83739898602E+01
 0.68992691231E+01 0.56453154990E+01 0.46653295778E+01 0.39616469844E+01 0.35139905062E+01
 0.33006973562E+01 0.33088082626E+01 0.35361817738E+01 0.39908273639E+01 0.46888172258E+01
 0.56470144269E+01 0.68662963764E+01 0.83063290502E+01 0.98617327805E+01 0.11320265019E+02
 0.11091815906E+02 0.12061112860E+02 0.12313373256E+02 0.11892847632E+02 0.11185068315E+02
 0.10703126912E+02 0.10782706070E+02 0.11376877674E+02 0.12083302712E+02 0.12385075475E+02
 0.11950225694E+02 0.10807979316E+02 0.93065471708E+01 0.77939642650E+01 0.64319338086E+01
 0.53065211776E+01 0.44445741479E+01 0.38370279785E+01 0.34628506700E+01 0.33043445989E+01
 0.33525881575E+01 0.36073542659E+01 0.40760801148E+01 0.47719788039E+01 0.57072068483E+01
 0.68776910707E+01 0.82417532823E+01 0.97022651194E+01 0.94087294050E+01 0.10710412308E+02
 0.11740819541E+02 0.12278104494E+02 0.12347070194E+02 0.12203248454E+02 0.12157556624E+02
 0.12361377455E+02 0.12696891073E+02 0.12848047716E+02 0.12504332906E+02 0.11562318205E+02
 0.10197858936E+02 0.87154819983E+01 0.72992982885E+01 0.60631580851E+01 0.50620264857E+01
 0.43050149701E+01 0.37777188916E+01 0.34613007269E+01 0.33425052208E+01 0.34156152064E+01
 0.36811674559E+01 0.41450233806E+01 0.48168740036E+01 0.57042268804E+01 0.67994385204E+01
 0.80625329110E+01 0.77797688347E+01 0.89989284745E+01 0.10195335487E+02 0.11241193442E+02
 0.11981870172E+02 0.12408626231E+02 0.12655619975E+02 0.12871351689E+02 0.13084079029E+02
 0.13161034550E+02 0.12893560550E+02 0.12149175511E+02 0.10984720924E+02 0.96138543799E+01
 0.82142539468E+01 0.69182929487E+01 0.58091151539E+01 0.49199530308E+01 0.42500982701E+01
 0.37846449948E+01 0.35087434582E+01 0.34133354090E+01 0.34948785915E+01 0.37537058408E+01
 0.41934932430E+01 0.48202900899E+01 0.56376151799E+01 0.66359894540E+01 0.63980275443E+01
 0.74122638943E+01 0.84993593524E+01 0.95853110717E+01 0.10593742959E+02 0.11440075522E+02
 0.12084051029E+02 0.12562328568E+02 0.12908881595E+02 0.13083795327E+02 0.12974782359E+02
 0.12475314122E+02 0.11582572254E+02 0.10418608299E+02 0.91260780685E+01 0.78423136932E+01
 0.66738076758E+01 0.56812711263E+01 0.48849832601E+01 0.42809196026E+01 0.38570427320E+01
 0.36032237243E+01 0.35138933350E+01 0.35866924329E+01 0.38210999824E+01 0.42184658590E+01
 0.47816464120E+01 0.55113352718E+01 0.53335821578E+01 0.61015478573E+01 0.69846438780E+01
 0.79424702580E+01 0.89212184016E+01 0.98656442510E+01 0.10729990719E+02 0.11472325000E+02
 0.12063596369E+02 0.12468835468E+02 0.12620617668E+02 0.12440844477E+02 0.11899741160E+02
 0.11042137577E+02 0.99630667470E+01 0.87866339640E+01 0.76309125040E+01 0.65820094478E+01
 0.56864017662E+01 0.49587887360E+01 0.43966132795E+01 0.39926781469E+01 0.37415386500E+01
 0.36402518288E+01 0.36868788966E+01 0.38797933101E+01 0.42183625850E+01 0.47031906152E+01
 0.45898737976E+01 0.51160369627E+01 0.57661696232E+01 0.65246236189E+01 0.73630841635E+01
 0.82434987277E+01 0.91249613019E+01 0.99685862296E+01 0.10734714711E+02 0.11373805990E+02
 0.11820780767E+02 0.12003492182E+02 0.11866267041E+02 0.11396511118E+02 0.10637710221E+02
 0.96800895640E+01 0.86340338072E+01 0.76004680256E+01 0.66514980652E+01 0.58265034035E+01
 0.51401485743E+01 0.45944181358E+01 0.41878274155E+01 0.39192033044E+01 0.37875170222E+01
 0.37908704868E+01 0.39267151392E+01 0.41931939003E+01 0.41445628249E+01 0.44489023861E+01
 0.48726378456E+01 0.54129641531E+01 0.60599937668E+01 0.67948275135E+01 0.75911538704E+01
 0.84185308666E+01 0.92430272421E+01 0.10022613916E+02 0.10700594693E+02 0.11205344296E+02
 0.11462777109E+02 0.11419170548E+02 0.11063071889E+02 0.10433656023E+02 0.96103874124E+01
 0.86894536691E+01 0.77588332159E+01 0.68826384068E+01 0.60985464502E+01 0.54247541983E+01
 0.48694064487E+01 0.44369704251E+01 0.41302048531E+01 0.39497166701E+01 0.38937525344E+01
 0.39594070845E+01 0.39761556689E+01 0.40755131226E+01 0.42889932862E+01 0.46180819336E+01
 0.50622776742E+01 0.56160211089E+01 0.62673389787E+01 0.69986550121E+01 0.77877615643E+01
 0.86057933495E+01 0.94114190294E+01 0.10145381971E+02 0.10732489104E+02 0.11095261356E+02
 0.11175826907E+02 0.10955954654E+02 0.10464683352E+02 0.97693429583E+01 0.89546560510E+01
 0.81003700410E+01 0.72671309122E+01 0.64940867613E+01 0.58046596448E+01 0.52138153223E+01
 0.47321749993E+01 0.43666015763E+01 0.41196826948E+01 0.39903706995E+01 0.40755653366E+01
 0.39760933333E+01 0.39902057023E+01 0.41194745173E+01 0.43664122988E+01 0.47320425789E+01
 0.52137535631E+01 0.58046539562E+01 0.64940954024E+01 0.72671195524E+01 0.81003460848E+01
 0.89546492530E+01 0.97693597606E+01 0.10464704356E+02 0.10955968226E+02 0.11175836499E+02
 0.11095265514E+02 0.10732484458E+02 0.10145383332E+02 0.94114466539E+01 0.86058398547E+01
 0.77877990544E+01 0.69986771869E+01 0.62673723156E+01 0.56160927283E+01 0.50623913674E+01
 0.46182201258E+01 0.42891172224E+01 0.44489233980E+01 0.41444965982E+01 0.39592328945E+01
 0.38935035478E+01 0.39494595473E+01 0.41299957607E+01 0.44368404298E+01 0.48693650922E+01
 0.54247792091E+01 0.60985853891E+01 0.68826510591E+01 0.77588270006E+01 0.86894584409E+01
 0.96104099641E+01 0.10433682281E+02 0.11063097047E+02 0.11419197777E+02 0.11462798366E+02
 0.11205351814E+02 0.10700603299E+02 0.10022644854E+02 0.92430765597E+01 0.84185784137E+01
 0.75911966283E+01 0.67948804179E+01 0.60600633250E+01 0.54130404756E+01 0.48727024333E+01
 0.51160236596E+01 0.45897983357E+01 0.41930289227E+01 0.39264612718E+01 0.37905769920E+01
 0.37872499568E+01 0.39190069206E+01 0.41877232528E+01 0.45944100289E+01 0.51402055942E+01
 0.58265641322E+01 0.66515212614E+01 0.76004661683E+01 0.86340399633E+01 0.96801120870E+01
 0.10637738420E+02 0.11396540041E+02 0.11866290500E+02 0.12003491598E+02 0.11820748672E+02
 0.11373766933E+02 0.10734700392E+02 0.99686027021E+01 0.91249979053E+01 0.82435512047E+01
 0.73631481380E+01 0.65246806410E+01 0.57661983690E+01 0.61015318846E+01 0.53335077708E+01
 0.47030469776E+01 0.42181337927E+01 0.38794978830E+01 0.36865795687E+01 0.36400120645E+01
 0.37413897157E+01 0.39926291476E+01 0.43966557329E+01 0.49588781891E+01 0.56864722447E+01
 0.65820307835E+01 0.76309120596E+01 0.87866485021E+01 0.99630973872E+01 0.11042161871E+02
 0.11899738177E+02 0.12440792702E+02 0.12620499866E+02 0.12468668793E+02 0.12063436637E+02
 0.11472222818E+02 0.10729957964E+02 0.98656680989E+01 0.89212803608E+01 0.79425400425E+01
 0.69846823239E+01 0.74122843206E+01 0.63979828725E+01 0.55112303073E+01 0.47814709524E+01
 0.42182097403E+01 0.38207991419E+01 0.35864235078E+01 0.35137164746E+01 0.36031548120E+01
 0.38570722584E+01 0.42810191571E+01 0.48850954631E+01 0.56813388019E+01 0.66738271854E+01
 0.78423297301E+01 0.91261174916E+01 0.10418643948E+02 0.11582551647E+02 0.12475194477E+02
 0.12974541687E+02 0.13083450465E+02 0.12908506251E+02 0.12562021629E+02 0.12083871316E+02
 0.11440019401E+02 0.10593775671E+02 0.95853896599E+01 0.84994315910E+01 0.89990020759E+01
 0.77797790594E+01 0.66359382526E+01 0.56375098782E+01 0.48201142345E+01 0.41932418938E+01
 0.37534326262E+01 0.34946693221E+01 0.34132404435E+01 0.35087595464E+01 0.37847429275E+01
 0.42502333107E+01 0.49200673662E+01 0.58091759771E+01 0.69183257807E+01 0.82143035277E+01
 0.96139126485E+01 0.10984716990E+02 0.12149028789E+02 0.12893225950E+02 0.13160522137E+02
 0.13083470554E+02 0.12870786795E+02 0.12655222940E+02 0.12408434432E+02 0.11981841388E+02
 0.11241261476E+02 0.10195436419E+02 0.10710536658E+02 0.94088056834E+01 0.80625433993E+01
 0.67993992843E+01 0.57041419406E+01 0.48167193582E+01 0.41448000172E+01 0.36809396872E+01
 0.34154649541E+01 0.33424666248E+01 0.34613574550E+01 0.37778352961E+01 0.43051452732E+01
 0.50621257266E+01 0.60632189830E+01 0.72993567858E+01 0.87155552530E+01 0.10197890626E+02
 0.11562205529E+02 0.12503995566E+02 0.12847469210E+02 0.12696134982E+02 0.12360590308E+02
 0.12156917813E+02 0.12202870189E+02 0.12346943288E+02 0.12278144320E+02 0.11740937520E+02
 0.12061277945E+02 0.11091957783E+02 0.97023437983E+01 0.82417717155E+01 0.68776742641E+01
 0.57071502396E+01 0.47718502491E+01 0.40758830777E+01 0.36071518282E+01 0.33524486417E+01
 0.33042919592E+01 0.34628743411E+01 0.38371042776E+01 0.44446668198E+01 0.53065980418E+01
 0.64319984457E+01 0.77940388366E+01 0.93066079022E+01 0.10807935436E+02 0.11949975588E+02
 0.12384569387E+02 0.12082565554E+02 0.11376017597E+02 0.10781903669E+02 0.10702559441E+02
 0.11184805952E+02 0.11892832180E+02 0.12313494516E+02 0.12135899198E+02 0.12208423048E+02
 0.11320408534E+02 0.98618093496E+01 0.83063588115E+01 0.68663023042E+01 0.56469753941E+01
 0.46886916505E+01 0.39906189245E+01 0.35359477605E+01 0.33086073224E+01 0.33005594828E+01
 0.35139271685E+01 0.39616516965E+01 0.46653717374E+01 0.56453669728E+01 0.68993313526E+01
 0.83740618737E+01 0.99429670010E+01 0.11302618582E+02 0.11944824619E+02 0.11602449820E+02
 0.10472149091E+02 0.91634993366E+01 0.83977370588E+01 0.86141972474E+01 0.97196067424E+01
 0.11138717148E+02 0.10256169638E+02 0.11840147065E+02 0.12216254629E+02 0.11395278244E+02
 0.98794563852E+01 0.82536409955E+01 0.67671361858E+01 0.55281496498E+01 0.45726018018E+01
 0.38938781758E+01 0.34709894995E+01 0.32861116458E+01 0.33319103300E+01 0.36135666889E+01
 0.41484515785E+01 0.49608379491E+01 0.60663225842E+01 0.74445078633E+01 0.90076224419E+01
 0.10549718554E+02 0.11535221150E+02 0.11421788992E+02 0.10106362948E+02 0.80741545504E+01
 0.62287245462E+01 0.54576968276E+01 0.61651071629E+01 0.80478865258E+01 0.64815711032E+01
 0.94525949942E+01 0.11537530385E+02 0.12129067863E+02 0.11327010641E+02 0.97574911223E+01
 0.80890360671E+01 0.65877276061E+01 0.53586233099E+01 0.44305470357E+01 0.37908769025E+01
 0.34154680388E+01 0.32861318645E+01 0.33975622237E+01 0.37589019730E+01 0.43917761379E+01
 0.53210050454E+01 0.65530239968E+01 0.80429151887E+01 0.96606332341E+01 0.11025598417E+02
 0.11424427966E+02 0.10377982973E+02 0.80163847731E+01 0.51452664653E+01 0.29378259036E+01
 0.23766831553E+01 0.37470889157E+01 0.17871533319E+01 0.53308585218E+01 0.89165783622E+01
 0.11321074664E+02 0.11983097693E+02 0.11129158516E+02 0.95068174881E+01 0.78248971445E+01
 0.63402869509E+01 0.51489341618E+01 0.42705251567E+01 0.36868215910E+01 0.33718985331E+01
 0.33086923637E+01 0.34951173868E+01 0.39447791248E+01 0.46827636891E+01 0.57318142341E+01
 0.70847831544E+01 0.86671225958E+01 0.10279533747E+02 0.11310288410E+02 0.10981413592E+02
 0.89476834413E+01 0.56165239627E+01 0.21048752528E+01 -.21006169382E+00 -.34535783195E+00
 -.22320207373E+01 0.64949589299E+00 0.48280027951E+01 0.87671369198E+01 0.11237100120E+02
 0.11793509249E+02 0.10813603479E+02 0.91452095804E+01 0.74789782462E+01 0.60404678951E+01
 0.49113552471E+01 0.41010510783E+01 0.35866581985E+01 0.33420394894E+01 0.33526559592E+01
 0.36205120585E+01 0.41636551078E+01 0.50092922116E+01 0.61752872245E+01 0.76372530376E+01
 0.92882766282E+01 0.10810819440E+02 0.11402986143E+02 0.10312178654E+02 0.73810384846E+01
 0.33027569686E+01 -.54707412678E+00 -.26858754756E+01 -.56148937104E-01 0.64974396769E+00
 0.33414325165E+01 0.69299449398E+01 0.10057892382E+02 0.11733635344E+02 0.11710165990E+02
 0.10450937535E+02 0.87572525734E+01 0.71464982431E+01 0.57833023239E+01 0.47280002843E+01
 0.39799922371E+01 0.35141695089E+01 0.33059183609E+01 0.33429482479E+01 0.36287359828E+01
 0.41816229420E+01 0.50278892412E+01 0.61834751167E+01 0.76224251055E+01 0.92399573300E+01
 0.10743054764E+02 0.11399810859E+02 0.10540388875E+02 0.80608582880E+01 0.46299956672E+01
 0.14973576377E+01 0.54887958702E+00 -.62936764930E+00 0.54884194800E+00 0.35884103329E+01
 0.72591289144E+01 0.10206962495E+02 0.11567447598E+02 0.11261524670E+02 0.98714626453E+01
 0.82013571318E+01 0.66659013062E+01 0.53988280891E+01 0.44433913651E+01 0.37905551742E+01
 0.34137347007E+01 0.32908432525E+01 0.34137913425E+01 0.37906507224E+01 0.44434775159E+01
 0.53988608318E+01 0.66659004035E+01 0.82013957127E+01 0.98715887789E+01 0.11261721346E+02
 0.11567668342E+02 0.10207168988E+02 0.72592905329E+01 0.35885066901E+01 0.33414740810E+01
 0.64975524852E+00 -.56148671805E-01 0.14973304779E+01 0.46299158548E+01 0.80607286829E+01