   2   2   0   0
  0.1529437E+02  0.3691622E-09  0.3691622E-09  0.3691622E-09  0.5000000E-15
  1.000000000000000E-004
  CAR 
 unknown system                          
     23.21997326     -6.55382254  301      9.08908935      1.00000000
     -6.554  0.0000E+00  0.0000E+00
     -6.455  0.0000E+00  0.0000E+00
     -6.355  0.0000E+00  0.0000E+00
     -6.256  0.0000E+00  0.0000E+00
     -6.157  0.0000E+00  0.0000E+00
     -6.058  0.0000E+00  0.0000E+00
     -5.958  0.0000E+00  0.0000E+00
     -5.859  0.0000E+00  0.0000E+00
     -5.760  0.0000E+00  0.0000E+00
     -5.661  0.1342E-16  0.1332E-17
     -5.561  0.2796E-14  0.2788E-15
     -5.462  0.3572E-12  0.3573E-13
     -5.363  0.2813E-10  0.2828E-11
     -5.264  0.1368E-08  0.1386E-09
     -5.164  0.4112E-07  0.4219E-08
     -5.065  0.7661E-06  0.8025E-07
     -4.966  0.8879E-05  0.9614E-06
     -4.867  0.6447E-04  0.7360E-05
     -4.767  0.2982E-03  0.3696E-04
     -4.668  0.9166E-03  0.1279E-03
     -4.569  0.2052E-02  0.3316E-03
     -4.470  0.3826E-02  0.7113E-03
     -4.370  0.6317E-02  0.1338E-02
     -4.271  0.8717E-02  0.2203E-02
     -4.172  0.9646E-02  0.3161E-02
     -4.073  0.9343E-02  0.4088E-02
     -3.973  0.9874E-02  0.5068E-02
     -3.874  0.1222E-01  0.6281E-02
     -3.775  0.1446E-01  0.7716E-02
     -3.676  0.1470E-01  0.9175E-02
     -3.576  0.1413E-01  0.1058E-01
     -3.477  0.1482E-01  0.1205E-01
     -3.378  0.1668E-01  0.1370E-01
     -3.279  0.1847E-01  0.1554E-01
     -3.179  0.1940E-01  0.1746E-01
     -3.080  0.1917E-01  0.1936E-01
     -2.981  0.1891E-01  0.2124E-01
     -2.882  0.1931E-01  0.2316E-01
     -2.782  0.1861E-01  0.2500E-01
     -2.683  0.1649E-01  0.2664E-01
     -2.584  0.1590E-01  0.2822E-01
     -2.485  0.1918E-01  0.3012E-01
     -2.385  0.2476E-01  0.3258E-01
     -2.286  0.2918E-01  0.3548E-01
     -2.187  0.3127E-01  0.3858E-01
     -2.088  0.3158E-01  0.4171E-01
     -1.989  0.2888E-01  0.4458E-01
     -1.889  0.2190E-01  0.4675E-01
     -1.790  0.1501E-01  0.4824E-01
     -1.691  0.1466E-01  0.4970E-01
     -1.592  0.2162E-01  0.5185E-01
     -1.492  0.3031E-01  0.5485E-01
     -1.393  0.3379E-01  0.5821E-01
     -1.294  0.3074E-01  0.6126E-01
     -1.195  0.2696E-01  0.6393E-01
     -1.095  0.2754E-01  0.6667E-01
     -0.996  0.3023E-01  0.6967E-01
     -0.897  0.3132E-01  0.7278E-01
     -0.798  0.3187E-01  0.7594E-01
     -0.698  0.3297E-01  0.7921E-01
     -0.599  0.3294E-01  0.8248E-01
     -0.500  0.3110E-01  0.8557E-01
     -0.401  0.2931E-01  0.8847E-01
     -0.301  0.2941E-01  0.9139E-01
     -0.202  0.3152E-01  0.9452E-01
     -0.103  0.3423E-01  0.9792E-01
     -0.004  0.3535E-01  0.1014E+00
      0.096  0.3538E-01  0.1049E+00
      0.195  0.3790E-01  0.1087E+00
      0.294  0.4265E-01  0.1129E+00
      0.393  0.4428E-01  0.1173E+00
      0.493  0.4067E-01  0.1214E+00
      0.592  0.3532E-01  0.1249E+00
      0.691  0.3141E-01  0.1280E+00
      0.790  0.2928E-01  0.1309E+00
      0.890  0.2938E-01  0.1338E+00
      0.989  0.3207E-01  0.1370E+00
      1.088  0.3542E-01  0.1405E+00
      1.187  0.3876E-01  0.1444E+00
      1.287  0.4365E-01  0.1487E+00
      1.386  0.4786E-01  0.1534E+00
      1.485  0.4750E-01  0.1581E+00
      1.584  0.4413E-01  0.1625E+00
      1.684  0.4181E-01  0.1667E+00
      1.783  0.4200E-01  0.1708E+00
      1.882  0.4413E-01  0.1752E+00
      1.981  0.4349E-01  0.1795E+00
      2.081  0.3468E-01  0.1830E+00
      2.180  0.2218E-01  0.1852E+00
      2.279  0.1638E-01  0.1868E+00
      2.378  0.2062E-01  0.1889E+00
      2.478  0.2944E-01  0.1918E+00
      2.577  0.3649E-01  0.1954E+00
      2.676  0.3968E-01  0.1993E+00
      2.775  0.4077E-01  0.2034E+00
      2.875  0.4326E-01  0.2077E+00
      2.974  0.4815E-01  0.2125E+00
      3.073  0.5156E-01  0.2176E+00
      3.172  0.5012E-01  0.2225E+00
      3.272  0.4508E-01  0.2270E+00
      3.371  0.3832E-01  0.2308E+00
      3.470  0.3227E-01  0.2340E+00
      3.569  0.3197E-01  0.2372E+00
      3.669  0.3801E-01  0.2410E+00
      3.768  0.4399E-01  0.2453E+00
      3.867  0.4614E-01  0.2499E+00
      3.966  0.4594E-01  0.2545E+00
      4.065  0.4413E-01  0.2589E+00
      4.165  0.4055E-01  0.2629E+00
      4.264  0.3796E-01  0.2666E+00
      4.363  0.4206E-01  0.2708E+00
      4.462  0.5383E-01  0.2762E+00
      4.562  0.6446E-01  0.2826E+00
      4.661  0.6514E-01  0.2890E+00
      4.760  0.5705E-01  0.2947E+00
      4.859  0.4764E-01  0.2994E+00
      4.959  0.4208E-01  0.3036E+00
      5.058  0.4062E-01  0.3076E+00
      5.157  0.4187E-01  0.3118E+00
      5.256  0.4412E-01  0.3162E+00
      5.356  0.4524E-01  0.3207E+00
      5.455  0.4561E-01  0.3252E+00
      5.554  0.4864E-01  0.3300E+00
      5.653  0.5421E-01  0.3354E+00
      5.753  0.5568E-01  0.3409E+00
      5.852  0.5096E-01  0.3460E+00
      5.951  0.4838E-01  0.3508E+00
      6.050  0.5413E-01  0.3561E+00
      6.150  0.6279E-01  0.3624E+00
      6.249  0.6590E-01  0.3689E+00
      6.348  0.6294E-01  0.3752E+00
      6.447  0.5984E-01  0.3811E+00
      6.547  0.6043E-01  0.3871E+00
      6.646  0.6201E-01  0.3933E+00
      6.745  0.6080E-01  0.3993E+00
      6.844  0.5867E-01  0.4051E+00
      6.944  0.5768E-01  0.4108E+00
      7.043  0.5640E-01  0.4164E+00
      7.142  0.5582E-01  0.4220E+00
      7.241  0.5797E-01  0.4277E+00
      7.341  0.6294E-01  0.4340E+00
      7.440  0.7084E-01  0.4410E+00
      7.539  0.7944E-01  0.4489E+00
      7.638  0.8319E-01  0.4571E+00
      7.738  0.7802E-01  0.4649E+00
      7.837  0.6680E-01  0.4715E+00
      7.936  0.5533E-01  0.4770E+00
      8.035  0.4568E-01  0.4815E+00
      8.135  0.3932E-01  0.4854E+00
      8.234  0.3780E-01  0.4892E+00
      8.333  0.4021E-01  0.4932E+00
      8.432  0.4500E-01  0.4976E+00
      8.532  0.5049E-01  0.5027E+00
      8.631  0.5529E-01  0.5081E+00
      8.730  0.5867E-01  0.5140E+00
      8.829  0.5841E-01  0.5198E+00
      8.929  0.5355E-01  0.5251E+00
      9.028  0.5031E-01  0.5301E+00
      9.127  0.5444E-01  0.5355E+00
      9.226  0.5838E-01  0.5413E+00
      9.326  0.5164E-01  0.5464E+00
      9.425  0.3758E-01  0.5501E+00
      9.524  0.2656E-01  0.5528E+00
      9.623  0.2475E-01  0.5552E+00
      9.723  0.3307E-01  0.5585E+00
      9.822  0.4592E-01  0.5631E+00
      9.921  0.5374E-01  0.5684E+00
     10.020  0.5225E-01  0.5736E+00
     10.120  0.4515E-01  0.5781E+00
     10.219  0.4025E-01  0.5821E+00
     10.318  0.4563E-01  0.5866E+00
     10.417  0.6155E-01  0.5927E+00
     10.516  0.7640E-01  0.6003E+00
     10.616  0.7726E-01  0.6079E+00
     10.715  0.6403E-01  0.6143E+00
     10.814  0.4898E-01  0.6192E+00
     10.913  0.4327E-01  0.6235E+00
     11.013  0.4735E-01  0.6282E+00
     11.112  0.5326E-01  0.6334E+00
     11.211  0.5368E-01  0.6388E+00
     11.310  0.4837E-01  0.6436E+00
     11.410  0.4467E-01  0.6480E+00
     11.509  0.4903E-01  0.6529E+00
     11.608  0.5849E-01  0.6587E+00
     11.707  0.6459E-01  0.6651E+00
     11.807  0.6365E-01  0.6714E+00
     11.906  0.6074E-01  0.6774E+00
     12.005  0.6252E-01  0.6836E+00
     12.104  0.6609E-01  0.6902E+00
     12.204  0.6334E-01  0.6965E+00
     12.303  0.5619E-01  0.7020E+00
     12.402  0.5362E-01  0.7074E+00
     12.501  0.5710E-01  0.7130E+00
     12.601  0.6231E-01  0.7192E+00
     12.700  0.6873E-01  0.7260E+00
     12.799  0.7698E-01  0.7337E+00
     12.898  0.8314E-01  0.7419E+00
     12.998  0.8368E-01  0.7502E+00
     13.097  0.7934E-01  0.7581E+00
     13.196  0.7292E-01  0.7654E+00
     13.295  0.6937E-01  0.7722E+00
     13.395  0.7175E-01  0.7794E+00
     13.494  0.7613E-01  0.7869E+00
     13.593  0.7772E-01  0.7946E+00
     13.692  0.7596E-01  0.8022E+00
     13.792  0.6953E-01  0.8091E+00
     13.891  0.6022E-01  0.8150E+00
     13.990  0.5776E-01  0.8208E+00
     14.089  0.6412E-01  0.8271E+00
     14.189  0.6839E-01  0.8339E+00
     14.288  0.6766E-01  0.8406E+00
     14.387  0.7099E-01  0.8477E+00
     14.486  0.7761E-01  0.8554E+00
     14.586  0.7578E-01  0.8629E+00
     14.685  0.6380E-01  0.8692E+00
     14.784  0.5175E-01  0.8744E+00
     14.883  0.4671E-01  0.8790E+00
     14.983  0.4850E-01  0.8838E+00
     15.082  0.5445E-01  0.8892E+00
     15.181  0.6266E-01  0.8954E+00
     15.280  0.7235E-01  0.9026E+00
     15.380  0.7931E-01  0.9105E+00
     15.479  0.7620E-01  0.9181E+00
     15.578  0.6410E-01  0.9244E+00
     15.677  0.5391E-01  0.9298E+00
     15.777  0.5261E-01  0.9350E+00
     15.876  0.5560E-01  0.9405E+00
     15.975  0.5494E-01  0.9460E+00
     16.074  0.5012E-01  0.9509E+00
     16.174  0.4662E-01  0.9556E+00
     16.273  0.4705E-01  0.9602E+00
     16.372  0.4880E-01  0.9651E+00
     16.471  0.4977E-01  0.9700E+00
     16.570  0.5060E-01  0.9750E+00
     16.670  0.5065E-01  0.9801E+00
     16.769  0.4842E-01  0.9849E+00
     16.868  0.4496E-01  0.9893E+00
     16.967  0.4078E-01  0.9934E+00
     17.067  0.3391E-01  0.9967E+00
     17.166  0.2609E-01  0.9993E+00
     17.265  0.2240E-01  0.1002E+01
     17.364  0.2303E-01  0.1004E+01
     17.464  0.2540E-01  0.1006E+01
     17.563  0.2950E-01  0.1009E+01
     17.662  0.3327E-01  0.1013E+01
     17.761  0.3266E-01  0.1016E+01
     17.861  0.3046E-01  0.1019E+01
     17.960  0.3265E-01  0.1022E+01
     18.059  0.3719E-01  0.1026E+01
     18.158  0.3700E-01  0.1029E+01
     18.258  0.3109E-01  0.1033E+01
     18.357  0.2503E-01  0.1035E+01
     18.456  0.2183E-01  0.1037E+01
     18.555  0.2044E-01  0.1039E+01
     18.655  0.2061E-01  0.1041E+01
     18.754  0.2119E-01  0.1043E+01
     18.853  0.2001E-01  0.1045E+01
     18.952  0.1887E-01  0.1047E+01
     19.052  0.2071E-01  0.1049E+01
     19.151  0.2340E-01  0.1052E+01
     19.250  0.2297E-01  0.1054E+01
     19.349  0.1961E-01  0.1056E+01
     19.449  0.1557E-01  0.1057E+01
     19.548  0.1197E-01  0.1059E+01
     19.647  0.9382E-02  0.1060E+01
     19.746  0.7771E-02  0.1060E+01
     19.846  0.6711E-02  0.1061E+01
     19.945  0.6264E-02  0.1062E+01
     20.044  0.6643E-02  0.1062E+01
     20.143  0.7331E-02  0.1063E+01
     20.243  0.7015E-02  0.1064E+01
     20.342  0.5104E-02  0.1064E+01
     20.441  0.2647E-02  0.1064E+01
     20.540  0.9967E-03  0.1065E+01
     20.640  0.5257E-03  0.1065E+01
     20.739  0.9854E-03  0.1065E+01
     20.838  0.1960E-02  0.1065E+01
     20.937  0.2812E-02  0.1065E+01
     21.037  0.3210E-02  0.1065E+01
     21.136  0.3464E-02  0.1066E+01
     21.235  0.3552E-02  0.1066E+01
     21.334  0.2874E-02  0.1066E+01
     21.434  0.1589E-02  0.1067E+01
     21.533  0.5645E-03  0.1067E+01
     21.632  0.1262E-03  0.1067E+01
     21.731  0.1761E-04  0.1067E+01
     21.831  0.1527E-05  0.1067E+01
     21.930  0.8211E-07  0.1067E+01
     22.029  0.2734E-08  0.1067E+01
     22.128  0.5625E-10  0.1067E+01
     22.228  0.7143E-12  0.1067E+01
     22.327  0.5591E-14  0.1067E+01
     22.426  0.2625E-16  0.1067E+01
     22.525  0.0000E+00  0.1067E+01
     22.624  0.0000E+00  0.1067E+01
     22.724  0.0000E+00  0.1067E+01
     22.823  0.0000E+00  0.1067E+01
     22.922  0.0000E+00  0.1067E+01
     23.021  0.0000E+00  0.1067E+01
     23.121  0.0000E+00  0.1067E+01
     23.220  0.0000E+00  0.1067E+01
