   2   2   0   0
  0.1529437E+02  0.3691622E-09  0.3691622E-09  0.3691622E-09  0.5000000E-15
  1.000000000000000E-004
  CAR 
 unknown system                          
     23.02441894     -6.55383514  301      9.08891216      1.00000000
     -6.554  0.0000E+00  0.0000E+00
     -6.455  0.0000E+00  0.0000E+00
     -6.357  0.0000E+00  0.0000E+00
     -6.258  0.0000E+00  0.0000E+00
     -6.159  0.0000E+00  0.0000E+00
     -6.061  0.0000E+00  0.0000E+00
     -5.962  0.0000E+00  0.0000E+00
     -5.864  0.0000E+00  0.0000E+00
     -5.765  0.0000E+00  0.0000E+00
     -5.666  0.9909E-17  0.9770E-18
     -5.568  0.2012E-14  0.1993E-15
     -5.469  0.2573E-12  0.2557E-13
     -5.371  0.2042E-10  0.2039E-11
     -5.272  0.1006E-08  0.1013E-09
     -5.174  0.3086E-07  0.3144E-08
     -5.075  0.5898E-06  0.6130E-07
     -4.976  0.7052E-05  0.7566E-06
     -4.878  0.5309E-04  0.5991E-05
     -4.779  0.2554E-03  0.3118E-04
     -4.681  0.8150E-03  0.1115E-03
     -4.582  0.1875E-02  0.2964E-03
     -4.483  0.3542E-02  0.6456E-03
     -4.385  0.5938E-02  0.1231E-02
     -4.286  0.8430E-02  0.2062E-02
     -4.188  0.9620E-02  0.3011E-02
     -4.089  0.9396E-02  0.3937E-02
     -3.990  0.9647E-02  0.4888E-02
     -3.892  0.1174E-01  0.6045E-02
     -3.793  0.1418E-01  0.7444E-02
     -3.695  0.1479E-01  0.8902E-02
     -3.596  0.1419E-01  0.1030E-01
     -3.497  0.1455E-01  0.1174E-01
     -3.399  0.1626E-01  0.1334E-01
     -3.300  0.1814E-01  0.1513E-01
     -3.202  0.1930E-01  0.1703E-01
     -3.103  0.1928E-01  0.1893E-01
     -3.004  0.1889E-01  0.2080E-01
     -2.906  0.1923E-01  0.2269E-01
     -2.807  0.1897E-01  0.2456E-01
     -2.709  0.1703E-01  0.2624E-01
     -2.610  0.1571E-01  0.2779E-01
     -2.511  0.1795E-01  0.2956E-01
     -2.413  0.2323E-01  0.3185E-01
     -2.314  0.2820E-01  0.3463E-01
     -2.216  0.3087E-01  0.3767E-01
     -2.117  0.3169E-01  0.4080E-01
     -2.019  0.3015E-01  0.4377E-01
     -1.920  0.2435E-01  0.4617E-01
     -1.821  0.1669E-01  0.4782E-01
     -1.723  0.1386E-01  0.4918E-01
     -1.624  0.1882E-01  0.5104E-01
     -1.526  0.2773E-01  0.5377E-01
     -1.427  0.3347E-01  0.5707E-01
     -1.328  0.3226E-01  0.6025E-01
     -1.230  0.2791E-01  0.6301E-01
     -1.131  0.2683E-01  0.6565E-01
     -1.033  0.2934E-01  0.6854E-01
     -0.934  0.3112E-01  0.7161E-01
     -0.835  0.3158E-01  0.7473E-01
     -0.737  0.3256E-01  0.7794E-01
     -0.638  0.3319E-01  0.8121E-01
     -0.540  0.3197E-01  0.8436E-01
     -0.441  0.2987E-01  0.8731E-01
     -0.342  0.2909E-01  0.9017E-01
     -0.244  0.3045E-01  0.9318E-01
     -0.145  0.3318E-01  0.9645E-01
     -0.047  0.3517E-01  0.9992E-01
      0.052  0.3531E-01  0.1034E+00
      0.151  0.3634E-01  0.1070E+00
      0.249  0.4054E-01  0.1110E+00
      0.348  0.4420E-01  0.1153E+00
      0.446  0.4284E-01  0.1196E+00
      0.545  0.3778E-01  0.1233E+00
      0.644  0.3305E-01  0.1265E+00
      0.742  0.3011E-01  0.1295E+00
      0.841  0.2899E-01  0.1324E+00
      0.939  0.3047E-01  0.1354E+00
      1.038  0.3376E-01  0.1387E+00
      1.137  0.3692E-01  0.1423E+00
      1.235  0.4093E-01  0.1464E+00
      1.334  0.4607E-01  0.1509E+00
      1.432  0.4833E-01  0.1557E+00
      1.531  0.4604E-01  0.1602E+00
      1.629  0.4280E-01  0.1644E+00
      1.728  0.4156E-01  0.1685E+00
      1.827  0.4284E-01  0.1728E+00
      1.925  0.4460E-01  0.1772E+00
      2.024  0.4066E-01  0.1812E+00
      2.122  0.2914E-01  0.1840E+00
      2.221  0.1847E-01  0.1859E+00
      2.320  0.1708E-01  0.1876E+00
      2.418  0.2405E-01  0.1899E+00
      2.517  0.3267E-01  0.1931E+00
      2.615  0.3821E-01  0.1969E+00
      2.714  0.4025E-01  0.2009E+00
      2.813  0.4145E-01  0.2050E+00
      2.911  0.4493E-01  0.2094E+00
      3.010  0.4979E-01  0.2143E+00
      3.108  0.5154E-01  0.2194E+00
      3.207  0.4859E-01  0.2242E+00
      3.306  0.4286E-01  0.2284E+00
      3.404  0.3594E-01  0.2319E+00
      3.503  0.3127E-01  0.2350E+00
      3.601  0.3344E-01  0.2383E+00
      3.700  0.4026E-01  0.2423E+00
      3.799  0.4513E-01  0.2467E+00
      3.897  0.4635E-01  0.2513E+00
      3.996  0.4569E-01  0.2558E+00
      4.094  0.4327E-01  0.2601E+00
      4.193  0.3944E-01  0.2640E+00
      4.292  0.3812E-01  0.2677E+00
      4.390  0.4469E-01  0.2721E+00
      4.489  0.5734E-01  0.2778E+00
      4.587  0.6582E-01  0.2843E+00
      4.686  0.6363E-01  0.2906E+00
      4.784  0.5444E-01  0.2959E+00
      4.883  0.4577E-01  0.3004E+00
      4.982  0.4138E-01  0.3045E+00
      5.080  0.4071E-01  0.3085E+00
      5.179  0.4240E-01  0.3127E+00
      5.277  0.4459E-01  0.3171E+00
      5.376  0.4536E-01  0.3216E+00
      5.475  0.4591E-01  0.3261E+00
      5.573  0.4960E-01  0.3310E+00
      5.672  0.5495E-01  0.3364E+00
      5.770  0.5514E-01  0.3418E+00
      5.869  0.5003E-01  0.3468E+00
      5.968  0.4870E-01  0.3516E+00
      6.066  0.5554E-01  0.3571E+00
      6.165  0.6380E-01  0.3634E+00
      6.263  0.6586E-01  0.3698E+00
      6.362  0.6247E-01  0.3760E+00
      6.461  0.5974E-01  0.3819E+00
      6.559  0.6067E-01  0.3879E+00
      6.658  0.6195E-01  0.3940E+00
      6.756  0.6043E-01  0.3999E+00
      6.855  0.5847E-01  0.4057E+00
      6.954  0.5757E-01  0.4114E+00
      7.052  0.5623E-01  0.4169E+00
      7.151  0.5584E-01  0.4224E+00
      7.249  0.5823E-01  0.4282E+00
      7.348  0.6345E-01  0.4344E+00
      7.447  0.7148E-01  0.4415E+00
      7.545  0.7988E-01  0.4494E+00
      7.644  0.8313E-01  0.4575E+00
      7.742  0.7758E-01  0.4652E+00
      7.841  0.6633E-01  0.4717E+00
      7.940  0.5496E-01  0.4772E+00
      8.038  0.4546E-01  0.4816E+00
      8.137  0.3925E-01  0.4855E+00
      8.235  0.3782E-01  0.4892E+00
      8.334  0.4025E-01  0.4932E+00
      8.432  0.4507E-01  0.4976E+00
      8.531  0.5054E-01  0.5026E+00
      8.630  0.5527E-01  0.5081E+00
      8.728  0.5863E-01  0.5139E+00
      8.827  0.5852E-01  0.5196E+00
      8.925  0.5379E-01  0.5249E+00
      9.024  0.5031E-01  0.5299E+00
      9.123  0.5413E-01  0.5352E+00
      9.221  0.5835E-01  0.5410E+00
      9.320  0.5226E-01  0.5461E+00
      9.418  0.3842E-01  0.5499E+00
      9.517  0.2704E-01  0.5526E+00
      9.616  0.2449E-01  0.5550E+00
      9.714  0.3211E-01  0.5582E+00
      9.813  0.4493E-01  0.5626E+00
      9.911  0.5352E-01  0.5679E+00
     10.010  0.5286E-01  0.5731E+00
     10.109  0.4599E-01  0.5776E+00
     10.207  0.4038E-01  0.5816E+00
     10.306  0.4428E-01  0.5860E+00
     10.404  0.5925E-01  0.5918E+00
     10.503  0.7505E-01  0.5992E+00
     10.602  0.7822E-01  0.6069E+00
     10.700  0.6646E-01  0.6135E+00
     10.799  0.5078E-01  0.6185E+00
     10.897  0.4328E-01  0.6228E+00
     10.996  0.4620E-01  0.6273E+00
     11.095  0.5246E-01  0.6325E+00
     11.193  0.5413E-01  0.6378E+00
     11.292  0.4951E-01  0.6427E+00
     11.390  0.4483E-01  0.6471E+00
     11.489  0.4752E-01  0.6518E+00
     11.587  0.5655E-01  0.6574E+00
     11.686  0.6383E-01  0.6637E+00
     11.785  0.6419E-01  0.6700E+00
     11.883  0.6107E-01  0.6760E+00
     11.982  0.6168E-01  0.6821E+00
     12.080  0.6567E-01  0.6886E+00
     12.179  0.6481E-01  0.6950E+00
     12.278  0.5793E-01  0.7007E+00
     12.376  0.5367E-01  0.7060E+00
     12.475  0.5594E-01  0.7115E+00
     12.573  0.6085E-01  0.7175E+00
     12.672  0.6664E-01  0.7241E+00
     12.771  0.7454E-01  0.7314E+00
     12.869  0.8185E-01  0.7395E+00
     12.968  0.8414E-01  0.7478E+00
     13.066  0.8104E-01  0.7558E+00
     13.165  0.7486E-01  0.7631E+00
     13.264  0.6987E-01  0.7700E+00
     13.362  0.7042E-01  0.7770E+00
     13.461  0.7475E-01  0.7843E+00
     13.559  0.7742E-01  0.7920E+00
     13.658  0.7684E-01  0.7996E+00
     13.757  0.7237E-01  0.8067E+00
     13.855  0.6343E-01  0.8129E+00
     13.954  0.5754E-01  0.8186E+00
     14.052  0.6151E-01  0.8247E+00
     14.151  0.6766E-01  0.8314E+00
     14.250  0.6788E-01  0.8380E+00
     14.348  0.6870E-01  0.8448E+00
     14.447  0.7528E-01  0.8522E+00
     14.545  0.7806E-01  0.8599E+00
     14.644  0.6941E-01  0.8668E+00
     14.743  0.5616E-01  0.8723E+00
     14.841  0.4793E-01  0.8770E+00
     14.940  0.4714E-01  0.8817E+00
     15.038  0.5158E-01  0.8868E+00
     15.137  0.5884E-01  0.8926E+00
     15.235  0.6796E-01  0.8993E+00
     15.334  0.7698E-01  0.9069E+00
     15.433  0.7909E-01  0.9147E+00
     15.531  0.7020E-01  0.9216E+00
     15.630  0.5771E-01  0.9273E+00
     15.728  0.5211E-01  0.9324E+00
     15.827  0.5420E-01  0.9378E+00
     15.926  0.5605E-01  0.9433E+00
     16.024  0.5280E-01  0.9485E+00
     16.123  0.4790E-01  0.9532E+00
     16.221  0.4639E-01  0.9578E+00
     16.320  0.4796E-01  0.9625E+00
     16.419  0.4941E-01  0.9674E+00
     16.517  0.5019E-01  0.9723E+00
     16.616  0.5083E-01  0.9773E+00
     16.714  0.4989E-01  0.9823E+00
     16.813  0.4693E-01  0.9869E+00
     16.912  0.4333E-01  0.9912E+00
     17.010  0.3816E-01  0.9949E+00
     17.109  0.3034E-01  0.9979E+00
     17.207  0.2386E-01  0.1000E+01
     17.306  0.2234E-01  0.1002E+01
     17.405  0.2386E-01  0.1005E+01
     17.503  0.2683E-01  0.1007E+01
     17.602  0.3127E-01  0.1011E+01
     17.700  0.3357E-01  0.1014E+01
     17.799  0.3160E-01  0.1017E+01
     17.898  0.3068E-01  0.1020E+01
     17.996  0.3451E-01  0.1023E+01
     18.095  0.3800E-01  0.1027E+01
     18.193  0.3543E-01  0.1031E+01
     18.292  0.2912E-01  0.1034E+01
     18.390  0.2481E-01  0.1036E+01
     18.489  0.2313E-01  0.1038E+01
     18.588  0.2172E-01  0.1040E+01
     18.686  0.2041E-01  0.1042E+01
     18.785  0.1917E-01  0.1044E+01
     18.883  0.1781E-01  0.1046E+01
     18.982  0.1833E-01  0.1048E+01
     19.081  0.2144E-01  0.1050E+01
     19.179  0.2364E-01  0.1052E+01
     19.278  0.2218E-01  0.1054E+01
     19.376  0.1844E-01  0.1056E+01
     19.475  0.1449E-01  0.1058E+01
     19.574  0.1115E-01  0.1059E+01
     19.672  0.8899E-02  0.1060E+01
     19.771  0.7533E-02  0.1060E+01
     19.869  0.6814E-02  0.1061E+01
     19.968  0.7191E-02  0.1062E+01
     20.067  0.8846E-02  0.1063E+01
     20.165  0.1028E-01  0.1064E+01
     20.264  0.9304E-02  0.1065E+01
     20.362  0.6027E-02  0.1065E+01
     20.461  0.2725E-02  0.1065E+01
     20.560  0.9255E-03  0.1066E+01
     20.658  0.5695E-03  0.1066E+01
     20.757  0.1148E-02  0.1066E+01
     20.855  0.2102E-02  0.1066E+01
     20.954  0.2641E-02  0.1066E+01
     21.053  0.2288E-02  0.1066E+01
     21.151  0.1382E-02  0.1067E+01
     21.250  0.5809E-03  0.1067E+01
     21.348  0.1667E-03  0.1067E+01
     21.447  0.3193E-04  0.1067E+01
     21.546  0.3989E-05  0.1067E+01
     21.644  0.3199E-06  0.1067E+01
     21.743  0.1627E-07  0.1067E+01
     21.841  0.5211E-09  0.1067E+01
     21.940  0.1045E-10  0.1067E+01
     22.038  0.1306E-12  0.1067E+01
     22.137  0.1016E-14  0.1067E+01
     22.236  0.4804E-17  0.1067E+01
     22.334  0.0000E+00  0.1067E+01
     22.433  0.0000E+00  0.1067E+01
     22.531  0.0000E+00  0.1067E+01
     22.630  0.0000E+00  0.1067E+01
     22.729  0.0000E+00  0.1067E+01
     22.827  0.0000E+00  0.1067E+01
     22.926  0.0000E+00  0.1067E+01
     23.024  0.0000E+00  0.1067E+01
