    2    2   15    1
  0.1529437E+02  0.3691622E-09  0.3691622E-09  0.3691622E-09  0.5000000E-15
  1.000000000000000E-004
  CAR 
 unknown system                          
      8     99      8
 
  0.5000000E-01  0.5000000E-01  0.5000000E-01  0.8000000E-02
    1       -4.271519   1.000000
    2        4.736716   1.000000
    3        6.605062   1.000000
    4        7.752040   1.000000
    5       11.543454   0.000000
    6       15.093687   0.000000
    7       16.137669   0.000000
    8       17.004628   0.000000
 
  0.1500000E+00  0.5000000E-01  0.5000000E-01  0.1600000E-01
    1       -3.427303   1.000000
    2        4.462323   1.000000
    3        6.864261   1.000000
    4        9.153777   0.323688
    5       12.634612   0.000000
    6       13.081794   0.000000
    7       13.457176   0.000000
    8       15.403578   0.000000
 
  0.2500000E+00  0.5000000E-01  0.5000000E-01  0.1600000E-01
    1       -2.030191   1.000000
    2        4.668228   1.000000
    3        7.180728   1.000000
    4        8.597375   0.999746
    5       10.717918   0.000000
    6       12.025165   0.000000
    7       13.727308   0.000000
    8       14.447892   0.000000
 
  0.3500000E+00  0.5000000E-01  0.5000000E-01  0.1600000E-01
    1       -0.096860   1.000000
    2        5.119157   1.000000
    3        5.613458   1.000000
    4        7.602428   1.000000
    5        8.901430   0.907738
    6       11.825250   0.000000
    7       13.754363   0.000000
    8       14.202079   0.000000
 
  0.4500000E+00  0.5000000E-01  0.5000000E-01  0.8000000E-02
    1        2.094675   1.000000
    2        2.646946   1.000000
    3        6.521424   1.000000
    4        6.671943   1.000000
    5        8.816783   0.972916
    6       10.806744   0.000000
    7       13.565905   0.000000
    8       14.578565   0.000000
 
 -0.5000000E-01  0.5000000E-01  0.5000000E-01  0.4000000E-02
    1       -4.553823   1.000000
    2        5.177943   1.000000
    3        6.058522   1.000000
    4        7.430358   1.000000
    5       10.951298   0.000000
    6       15.541796   0.000000
    7       17.426185   0.000000
    8       18.131505   0.000000
 
  0.1500000E+00  0.1500000E+00  0.5000000E-01  0.8000000E-02
    1       -2.147401   1.000000
    2        4.630148   1.000000
    3        8.164122   1.000000
    4        9.080547   0.524084
    5       10.153787   0.000000
    6       11.003751   0.000000
    7       14.547140   0.000000
    8       14.547328   0.000000
 
  0.2500000E+00  0.1500000E+00  0.5000000E-01  0.1600000E-01
    1       -0.326833   1.000000
    2        5.226177   1.000000
    3        6.209353   1.000000
    4        7.136847   1.000000
    5        9.798097   0.000000
    6       12.409573   0.000000
    7       12.835689   0.000000
    8       13.716166   0.000000
 
  0.3500000E+00  0.1500000E+00  0.5000000E-01  0.1600000E-01
    1        1.963845   1.000000
    2        3.220074   1.000000
    3        5.346117   1.000000
    4        6.378207   1.000000
    5        9.881687   0.000000
    6       11.784180   0.000000
    7       12.836601   0.000000
    8       15.320034   0.000000
 
  0.4500000E+00  0.1500000E+00  0.5000000E-01  0.1600000E-01
    1        0.593181   1.000000
    2        3.904908   1.000000
    3        4.962102   1.000000
    4        7.647089   1.000000
    5        9.212299   0.191815
    6       12.203416   0.000000
    7       13.473702   0.000000
    8       15.202193   0.000000
 
 -0.4500000E+00  0.1500000E+00  0.5000000E-01  0.1600000E-01
    1       -1.444348   1.000000
    2        3.098092   1.000000
    3        7.572885   1.000000
    4        8.211251   1.000000
    5       10.357596   0.000000
    6       12.575215   0.000000
    7       12.851150   0.000000
    8       15.329112   0.000000
 
 -0.3500000E+00  0.1500000E+00  0.5000000E-01  0.1600000E-01
    1       -2.954403   1.000000
    2        2.770300   1.000000
    3        7.278825   1.000000
    4        9.834162   0.000000
    5       12.016765   0.000000
    6       12.526767   0.000000
    7       14.073936   0.000000
    8       15.548393   0.000000
 
 -0.2500000E+00  0.1500000E+00  0.5000000E-01  0.8000000E-02
    1       -3.914927   1.000000
    2        2.960073   1.000000
    3        6.935380   1.000000
    4        8.574022   0.999865
    5       13.257154   0.000000
    6       13.543082   0.000000
    7       15.008091   0.000000
    8       16.506587   0.000000
 
 -0.1500000E+00  0.1500000E+00  0.5000000E-01  0.8000000E-02
    1       -4.315758   1.000000
    2        3.625105   1.000000
    3        6.093076   1.000000
    4        8.484287   0.999991
    5       12.254696   0.000000
    6       13.743580   0.000000
    7       16.293471   0.000000
    8       19.379378   0.000000
 
 -0.5000000E-01  0.1500000E+00  0.5000000E-01  0.8000000E-02
    1       -4.152680   1.000000
    2        4.414638   1.000000
    3        5.694221   1.000000
    4        8.872629   0.937066
    5       12.069173   0.000000
    6       13.862611   0.000000
    7       15.979796   0.000000
    8       17.670033   0.000000
 
  0.2500000E+00  0.2500000E+00  0.5000000E-01  0.8000000E-02
    1        1.870272   1.000000
    2        4.143492   1.000000
    3        4.225375   1.000000
    4        6.300465   1.000000
    5       10.529702   0.000000
    6       11.698779   0.000000
    7       13.552015   0.000000
    8       14.203095   0.000000
 
  0.3500000E+00  0.2500000E+00  0.5000000E-01  0.1600000E-01
    1        1.503275   1.000000
    2        2.620476   1.000000
    3        4.718010   1.000000
    4        7.622274   1.000000
    5        9.803801   0.000000
    6       11.187858   0.000000
    7       14.868788   0.000000
    8       15.779138   0.000000
 
  0.4500000E+00  0.2500000E+00  0.5000000E-01  0.1600000E-01
    1       -0.629040   1.000000
    2        1.658174   1.000000
    3        7.744099   1.000000
    4        8.365641   1.000000
    5        9.951555   0.000000
    6       11.685691   0.000000
    7       13.442577   0.000000
    8       15.435000   0.000000
 
 -0.4500000E+00  0.2500000E+00  0.5000000E-01  0.1600000E-01
    1       -2.248192   1.000000
    2        1.213327   1.000000
    3        7.915778   1.000000
    4       10.346693   0.000000
    5       11.074044   0.000000
    6       12.125515   0.000000
    7       13.475703   0.000000
    8       14.480641   0.000000
 
 -0.3500000E+00  0.2500000E+00  0.5000000E-01  0.8000000E-02
    1       -3.322548   1.000000
    2        1.303591   1.000000
    3        7.486176   1.000000
    4        9.308340   0.060530
    5       11.833609   0.000000
    6       13.659869   0.000000
    7       15.472006   0.000000
    8       16.112883   0.000000
 
 -0.2500000E+00  0.2500000E+00  0.5000000E-01  0.8000000E-02
    1       -3.840600   1.000000
    2        1.917658   1.000000
    3        6.520359   1.000000
    4        9.252575   0.123837
    5       12.037703   0.000000
    6       14.458072   0.000000
    7       14.800413   0.000000
    8       19.077188   0.000000
 
 -0.1500000E+00  0.2500000E+00  0.5000000E-01  0.1600000E-01
    1       -3.796607   1.000000
    2        2.998919   1.000000
    3        5.665785   1.000000
    4        9.926818   0.000000
    5       12.162896   0.000000
    6       13.660718   0.000000
    7       15.363854   0.000000
    8       16.969529   0.000000
 
 -0.5000000E-01  0.2500000E+00  0.5000000E-01  0.8000000E-02
    1       -3.190941   1.000000
    2        4.180425   1.000000
    3        5.643497   1.000000
    4       10.328270   0.000000
    5       12.354806   0.000000
    6       12.619662   0.000000
    7       13.829926   0.000000
    8       15.078179   0.000000
 
  0.3500000E+00  0.3500000E+00  0.5000000E-01  0.8000000E-02
    1        0.404545   1.000000
    2        0.412640   1.000000
    3        7.686464   1.000000
    4        8.756718   0.990619
    5        9.645283   0.000042
    6       11.265021   0.000000
    7       14.063901   0.000000
    8       14.837142   0.000000
 
  0.4500000E+00  0.3500000E+00  0.5000000E-01  0.1600000E-01
    1       -1.312666   1.000000
    2       -0.154931   1.000000
    3        8.751498   0.991510
    4        9.745198   0.000002
    5       10.954048   0.000000
    6       12.155177   0.000000
    7       13.193707   0.000000
    8       13.515781   0.000000
 
 -0.4500000E+00  0.3500000E+00  0.5000000E-01  0.8000000E-02
    1       -2.497771   1.000000
    2       -0.174157   1.000000
    3        8.254937   1.000000
    4       10.145681   0.000000
    5       10.445769   0.000000
    6       12.348384   0.000000
    7       15.855343   0.000000
    8       15.867532   0.000000
 
 -0.3500000E+00  0.3500000E+00  0.5000000E-01  0.8000000E-02
    1       -3.131009   1.000000
    2        0.348792   1.000000
    3        7.186559   1.000000
    4       10.041434   0.000000
    5       10.508238   0.000000
    6       13.374546   0.000000
    7       16.984085   0.000000
    8       18.886286   0.000000
 
 -0.2500000E+00  0.3500000E+00  0.5000000E-01  0.1600000E-01
    1       -3.205334   1.000000
    2        1.394958   1.000000
    3        6.169727   1.000000
    4       10.543927   0.000000
    5       10.749496   0.000000
    6       14.470817   0.000000
    7       15.788194   0.000000
    8       16.242155   0.000000
 
 -0.1500000E+00  0.3500000E+00  0.5000000E-01  0.1600000E-01
    1       -2.719704   1.000000
    2        2.897641   1.000000
    3        5.642918   1.000000
    4       10.498464   0.000000
    5       11.109493   0.000000
    6       12.721651   0.000000
    7       14.625757   0.000000
    8       15.846078   0.000000
 
 -0.5000000E-01  0.3500000E+00  0.5000000E-01  0.8000000E-02
    1       -1.678688   1.000000
    2        4.471959   1.000000
    3        6.014969   1.000000
    4        7.955693   1.000000
    5       10.928461   0.000000
    6       12.985761   0.000000
    7       13.750014   0.000000
    8       13.830743   0.000000
 
  0.4500000E+00  0.4500000E+00  0.5000000E-01  0.4000000E-02
    1       -1.445642   1.000000
    2       -1.445641   1.000000
    3        9.240216   0.142619
    4        9.240222   0.142610
    5       11.172448   0.000000
    6       11.172449   0.000000
    7       15.790482   0.000000
    8       15.790484   0.000000
 
 -0.4500000E+00  0.4500000E+00  0.5000000E-01  0.8000000E-02
    1       -2.191225   1.000000
    2       -1.027692   1.000000
    3        8.075494   1.000000
    4        9.185410   0.247906
    5       10.977027   0.000000
    6       12.088238   0.000000
    7       18.612706   0.000000
    8       18.700375   0.000000
 
 -0.3500000E+00  0.4500000E+00  0.5000000E-01  0.1600000E-01
    1       -2.382305   1.000000
    2       -0.067659   1.000000
    3        6.937042   1.000000
    4        9.147141   0.340725
    5       11.566226   0.000000
    6       13.570221   0.000000
    7       15.377348   0.000000
    8       16.828415   0.000000
 
 -0.2500000E+00  0.4500000E+00  0.5000000E-01  0.1600000E-01
    1       -2.016311   1.000000
    2        1.410041   1.000000
    3        6.229469   1.000000
    4        9.425158   0.008742
    5       10.587144   0.000000
    6       13.324285   0.000000
    7       14.377613   0.000000
    8       16.367045   0.000000
 
 -0.1500000E+00  0.4500000E+00  0.5000000E-01  0.1600000E-01
    1       -1.096618   1.000000
    2        3.325338   1.000000
    3        6.072987   1.000000
    4        7.458780   1.000000
    5       10.053604   0.000000
    6       12.455997   0.000000
    7       14.413902   0.000000
    8       15.203481   0.000000
 
 -0.5000000E-01  0.4500000E+00  0.5000000E-01  0.8000000E-02
    1        0.361718   1.000000
    2        4.567327   1.000000
    3        5.444906   1.000000
    4        6.795935   1.000000
    5        9.272911   0.096832
    6       11.786223   0.000000
    7       12.432973   0.000000
    8       15.632619   0.000000
 
 -0.4500000E+00 -0.4500000E+00  0.5000000E-01  0.8000000E-02
    1       -1.334085   1.000000
    2       -1.332537   1.000000
    3        7.924320   1.000000
    4        7.942205   1.000000
    5       12.345584   0.000000
    6       12.714784   0.000000
    7       15.199707   0.000000
    8       16.799927   0.000000
 
 -0.3500000E+00 -0.4500000E+00  0.5000000E-01  0.1600000E-01
    1       -1.085637   1.000000
    2        0.063013   1.000000
    3        7.088980   1.000000
    4        8.169800   1.000000
    5       10.427542   0.000000
    6       14.091595   0.000000
    7       14.223912   0.000000
    8       15.375038   0.000000
 
 -0.2500000E+00 -0.4500000E+00  0.5000000E-01  0.1600000E-01
    1       -0.287830   1.000000
    2        1.963086   1.000000
    3        6.676177   1.000000
    4        7.199475   1.000000
    5        8.867487   0.941439
    6       12.100982   0.000000
    7       15.392038   0.000000
    8       16.489433   0.000000
 
 -0.1500000E+00 -0.4500000E+00  0.5000000E-01  0.1600000E-01
    1        1.042576   1.000000
    2        3.989939   1.000000
    3        4.563931   1.000000
    4        6.953004   1.000000
    5        9.151422   0.329693
    6       11.208341   0.000000
    7       12.900510   0.000000
    8       16.727292   0.000000
 
 -0.5000000E-01 -0.4500000E+00  0.5000000E-01  0.8000000E-02
    1        1.736389   1.000000
    2        3.000613   1.000000
    3        6.597537   1.000000
    4        7.706363   1.000000
    5        7.903854   1.000000
    6       10.576192   0.000000
    7       12.487716   0.000000
    8       15.597825   0.000000
 
 -0.3500000E+00 -0.3500000E+00  0.5000000E-01  0.8000000E-02
    1        0.729996   1.000000
    2        0.746939   1.000000
    3        6.923113   1.000000
    4        7.618906   1.000000
    5        7.906639   1.000000
    6       11.983616   0.000000
    7       15.977370   0.000000
    8       16.973735   0.000000
 
 -0.2500000E+00 -0.3500000E+00  0.5000000E-01  0.1600000E-01
    1        1.932688   1.000000
    2        3.000654   1.000000
    3        4.104762   1.000000
    4        7.598826   1.000000
    5        8.564931   0.999895
    6       10.585605   0.000000
    7       14.473966   0.000000
    8       16.260525   0.000000
 
 -0.1500000E+00 -0.3500000E+00  0.5000000E-01  0.1600000E-01
    1        1.420967   1.000000
    2        3.746815   1.000000
    3        5.793989   1.000000
    4        7.503425   1.000000
    5        8.696134   0.997270
    6       10.987371   0.000000
    7       11.732068   0.000000
    8       15.120817   0.000000
 
 -0.5000000E-01 -0.3500000E+00  0.5000000E-01  0.8000000E-02
    1       -0.559600   1.000000
    2        5.892209   1.000000
    3        6.662705   1.000000
    4        7.727662   1.000000
    5        8.669715   0.998489
    6       11.218330   0.000000
    7       12.818416   0.000000
    8       14.072594   0.000000
 
 -0.2500000E+00 -0.2500000E+00  0.5000000E-01  0.8000000E-02
    1        1.311863   1.000000
    2        4.682077   1.000000
    3        4.731098   1.000000
    4        7.510242   1.000000
    5        9.157021   0.315489
    6       10.454981   0.000000
    7       12.854027   0.000000
    8       13.695404   0.000000
 
 -0.1500000E+00 -0.2500000E+00  0.5000000E-01  0.1600000E-01
    1       -0.792256   1.000000
    2        6.656827   1.000000
    3        6.929463   1.000000
    4        7.609191   1.000000
    5        9.132302   0.379969
    6       11.606312   0.000000
    7       11.646643   0.000000
    8       12.794678   0.000000
 
 -0.5000000E-01 -0.2500000E+00  0.5000000E-01  0.8000000E-02
    1       -2.382790   1.000000
    2        6.034302   1.000000
    3        7.210727   1.000000
    4        9.008725   0.715072
    5       10.683159   0.000000
    6       11.505813   0.000000
    7       13.023365   0.000000
    8       14.354446   0.000000
 
 -0.1500000E+00 -0.1500000E+00  0.5000000E-01  0.8000000E-02
    1       -2.500576   1.000000
    2        6.339753   1.000000
    3        7.975905   1.000000
    4        8.877965   0.932265
    5       10.488318   0.000000
    6       11.056950   0.000000
    7       13.092068   0.000000
    8       13.793268   0.000000
 
 -0.5000000E-01 -0.1500000E+00  0.5000000E-01  0.8000000E-02
    1       -3.664463   1.000000
    2        5.989134   1.000000
    3        6.826286   1.000000
    4        8.162426   1.000000
    5       11.819555   0.000000
    6       13.380296   0.000000
    7       13.746642   0.000000
    8       16.104428   0.000000
 
 -0.5000000E-01 -0.5000000E-01  0.5000000E-01  0.2000000E-02
    1       -4.390496   1.000000
    2        6.415313   1.000000
    3        6.494949   1.000000
    4        6.494963   1.000000
    5       10.820631   0.000000
    6       16.385186   0.000000
    7       16.581513   0.000000
    8       17.332104   0.000000
 
  0.1500000E+00  0.1500000E+00  0.1500000E+00  0.8000000E-02
    1       -1.560133   1.000000
    2        3.008083   1.000000
    3        8.351888   1.000000
    4        8.878693   0.931588
    5       10.096145   0.000000
    6       11.349846   0.000000
    7       14.047120   0.000000
    8       14.749215   0.000000
 
  0.2500000E+00  0.1500000E+00  0.1500000E+00  0.1600000E-01
    1        0.366953   1.000000
    2        3.742229   1.000000
    3        5.783150   1.000000
    4        6.782724   1.000000
    5       10.543800   0.000000
    6       13.227659   0.000000
    7       13.697927   0.000000
    8       14.498231   0.000000
 
  0.3500000E+00  0.1500000E+00  0.1500000E+00  0.8000000E-02
    1        2.554407   1.000000
    2        3.073483   1.000000
    3        4.903376   1.000000
    4        5.226165   1.000000
    5       11.167683   0.000000
    6       12.933139   0.000000
    7       14.077377   0.000000
    8       14.380087   0.000000
 
 -0.1500000E+00  0.1500000E+00  0.1500000E+00  0.4000000E-02
    1       -4.078427   1.000000
    2        3.339002   1.000000
    3        4.835428   1.000000
    4       10.047236   0.000000
    5       11.999846   0.000000
    6       13.080461   0.000000
    7       18.044409   0.000000
    8       19.068401   0.000000
 
  0.2500000E+00  0.2500000E+00  0.1500000E+00  0.8000000E-02
    1        2.623752   1.000000
    2        3.772242   1.000000
    3        3.947732   1.000000
    4        5.013019   1.000000
    5       11.939523   0.000000
    6       13.337769   0.000000
    7       14.412761   0.000000
    8       14.467640   0.000000
 
  0.3500000E+00  0.2500000E+00  0.1500000E+00  0.1600000E-01
    1        1.283939   1.000000
    2        2.414939   1.000000
    3        5.569108   1.000000
    4        6.595904   1.000000
    5       11.412092   0.000000
    6       12.694885   0.000000
    7       13.977123   0.000000
    8       15.042423   0.000000
 
  0.4500000E+00  0.2500000E+00  0.1500000E+00  0.8000000E-02
    1       -0.743624   1.000000
    2        1.553385   1.000000
    3        8.429542   0.999998
    4        8.636707   0.999310
    5       10.510570   0.000000
    6       11.863454   0.000000
    7       12.800002   0.000000
    8       14.012186   0.000000
 
 -0.2500000E+00  0.2500000E+00  0.1500000E+00  0.8000000E-02
    1       -3.604808   1.000000
    2        2.044728   1.000000
    3        4.832388   1.000000
    4       10.286646   0.000000
    5       11.181912   0.000000
    6       14.921227   0.000000
    7       16.627539   0.000000
    8       18.703696   0.000000
 
 -0.1500000E+00  0.2500000E+00  0.1500000E+00  0.8000000E-02
    1       -3.442342   1.000000
    2        2.795664   1.000000
    3        4.404983   1.000000
    4       10.415901   0.000000
    5       11.545837   0.000000
    6       14.702940   0.000000
    7       14.949302   0.000000
    8       18.147015   0.000000
 
  0.3500000E+00  0.3500000E+00  0.1500000E+00  0.4000000E-02
    1        0.297604   1.000000
    2        0.297605   1.000000
    3        8.489621   0.999989
    4        8.489635   0.999989
    5       11.313158   0.000000
    6       11.313160   0.000000
    7       13.083206   0.000000
    8       13.083220   0.000000
 
 -0.3500000E+00  0.3500000E+00  0.1500000E+00  0.8000000E-02
    1       -2.898186   1.000000
    2        0.545932   1.000000
    3        5.427368   1.000000
    4        8.751645   0.991486
    5       12.079452   0.000000
    6       15.325098   0.000000
    7       17.246320   0.000000
    8       18.346633   0.000000
 
 -0.2500000E+00  0.3500000E+00  0.1500000E+00  0.1600000E-01
    1       -2.854527   1.000000
    2        1.624811   1.000000
    3        4.470547   1.000000
    4        8.800660   0.979300
    5       12.538332   0.000000
    6       14.616562   0.000000
    7       16.681494   0.000000
    8       17.647702   0.000000
 
 -0.1500000E+00  0.3500000E+00  0.1500000E+00  0.8000000E-02
    1       -2.251988   1.000000
    2        2.795273   1.000000
    3        4.459821   1.000000
    4        9.263873   0.108246
    5       10.443112   0.000000
    6       14.181009   0.000000
    7       15.648599   0.000000
    8       16.311428   0.000000
 
 -0.4500000E+00  0.4500000E+00  0.1500000E+00  0.8000000E-02
    1       -1.963261   1.000000
    2       -0.809097   1.000000
    3        6.305787   1.000000
    4        7.420575   1.000000
    5       13.033297   0.000000
    6       14.117393   0.000000
    7       18.081676   0.000000
    8       18.165043   0.000000
 
 -0.3500000E+00  0.4500000E+00  0.1500000E+00  0.1600000E-01
    1       -2.037566   1.000000
    2        0.240985   1.000000
    3        5.164330   1.000000
    4        7.369199   1.000000
    5       13.046617   0.000000
    6       14.687523   0.000000
    7       16.627715   0.000000
    8       17.969333   0.000000
 
 -0.2500000E+00  0.4500000E+00  0.1500000E+00  0.1600000E-01
    1       -1.554824   1.000000
    2        1.748599   1.000000
    3        4.611220   1.000000
    4        7.791621   1.000000
    5       10.065031   0.000000
    6       15.295125   0.000000
    7       15.755209   0.000000
    8       17.695514   0.000000
 
 -0.1500000E+00  0.4500000E+00  0.1500000E+00  0.8000000E-02
    1       -0.521480   1.000000
    2        3.327360   1.000000
    3        5.012484   1.000000
    4        6.920261   1.000000
    5        8.713082   0.996079
    6       13.215421   0.000000
    7       14.808957   0.000000
    8       16.586729   0.000000
 
 -0.4500000E+00 -0.4500000E+00  0.1500000E+00  0.8000000E-02
    1       -1.001347   1.000000
    2       -0.998232   1.000000
    3        6.146854   1.000000
    4        6.149607   1.000000
    5       13.172878   0.000000
    6       14.996267   0.000000
    7       15.993615   0.000000
    8       17.987557   0.000000
 
 -0.3500000E+00 -0.4500000E+00  0.1500000E+00  0.1600000E-01
    1       -0.636580   1.000000
    2        0.484914   1.000000
    3        5.405365   1.000000
    4        6.485464   1.000000
    5        9.869370   0.000000
    6       15.517306   0.000000
    7       16.365228   0.000000
    8       17.594415   0.000000
 
 -0.2500000E+00 -0.4500000E+00  0.1500000E+00  0.1600000E-01
    1        0.274112   1.000000
    2        2.410057   1.000000
    3        5.250819   1.000000
    4        6.576061   1.000000
    5        7.393668   1.000000
    6       13.391509   0.000000
    7       15.913864   0.000000
    8       17.627981   0.000000
 
 -0.1500000E+00 -0.4500000E+00  0.1500000E+00  0.8000000E-02
    1        1.702929   1.000000
    2        3.675309   1.000000
    3        4.580335   1.000000
    4        6.043359   1.000000
    5        8.466468   0.999995
    6       11.542355   0.000000
    7       12.901880   0.000000
    8       17.098905   0.000000
 
 -0.3500000E+00 -0.3500000E+00  0.1500000E+00  0.8000000E-02
    1        1.257961   1.000000
    2        1.285491   1.000000
    3        6.020845   1.000000
    4        6.139066   1.000000
    5        6.673748   1.000000
    6       13.366002   0.000000
    7       17.283232   0.000000
    8       17.306540   0.000000
 
 -0.2500000E+00 -0.3500000E+00  0.1500000E+00  0.1600000E-01
    1        2.529384   1.000000
    2        3.342829   1.000000
    3        3.928695   1.000000
    4        6.400897   1.000000
    5        7.356449   1.000000
    6       11.680259   0.000000
    7       14.091420   0.000000
    8       15.941766   0.000000
 
 -0.1500000E+00 -0.3500000E+00  0.1500000E+00  0.8000000E-02
    1        1.085742   1.000000
    2        4.488463   1.000000
    3        6.038626   1.000000
    4        7.416922   1.000000
    5        8.419551   0.999999
    6       10.683564   0.000000
    7       11.538123   0.000000
    8       14.209223   0.000000
 
 -0.2500000E+00 -0.2500000E+00  0.1500000E+00  0.8000000E-02
    1        0.972947   1.000000
    2        5.346118   1.000000
    3        5.397397   1.000000
    4        7.685624   1.000000
    5        7.942695   1.000000
    6       10.622602   0.000000
    7       12.440409   0.000000
    8       13.069274   0.000000
 
 -0.1500000E+00 -0.2500000E+00  0.1500000E+00  0.8000000E-02
    1       -1.026620   1.000000
    2        7.477200   1.000000
    3        7.771218   1.000000
    4        8.368825   1.000000
    5        8.472314   0.999994
    6       10.556104   0.000000
    7       11.440545   0.000000
    8       12.017282   0.000000
 
 -0.1500000E+00 -0.1500000E+00  0.1500000E+00  0.2000000E-02
    1       -2.618571   1.000000
    2        7.901784   1.000000
    3        7.901797   1.000000
    4        7.917903   1.000000
    5       10.708868   0.000000
    6       11.171072   0.000000
    7       12.588070   0.000000
    8       13.407062   0.000000
 
  0.2500000E+00  0.2500000E+00  0.2500000E+00  0.2000000E-02
    1        3.405092   1.000000
    2        3.405094   1.000000
    3        4.068342   1.000000
    4        4.068346   1.000000
    5       13.252405   0.000000
    6       13.252405   0.000000
    7       15.047224   0.000000
    8       15.047224   0.000000
 
 -0.2500000E+00  0.2500000E+00  0.2500000E+00  0.4000000E-02
    1       -3.134900   1.000000
    2        1.937325   1.000000
    3        3.631075   1.000000
    4        8.564258   0.999897
    5       12.939904   0.000000
    6       16.117264   0.000000
    7       17.367230   0.000000
    8       18.306529   0.000000
 
 -0.3500000E+00  0.3500000E+00  0.2500000E+00  0.8000000E-02
    1       -2.434932   1.000000
    2        0.884934   1.000000
    3        3.781589   1.000000
    4        7.018770   1.000000
    5       14.164856   0.000000
    6       16.770505   0.000000
    7       17.782620   0.000000
    8       18.476169   0.000000
 
 -0.2500000E+00  0.3500000E+00  0.2500000E+00  0.8000000E-02
    1       -2.273478   1.000000
    2        1.624315   1.000000
    3        3.363047   1.000000
    4        7.166060   1.000000
    5       13.136130   0.000000
    6       15.503260   0.000000
    7       17.931664   0.000000
    8       18.980569   0.000000
 
 -0.4500000E+00  0.4500000E+00  0.2500000E+00  0.8000000E-02
    1       -1.512582   1.000000
    2       -0.385732   1.000000
    3        4.584841   1.000000
    4        5.682992   1.000000
    5       15.117921   0.000000
    6       15.993783   0.000000
    7       17.882328   0.000000
    8       18.091419   0.000000
 
 -0.3500000E+00  0.4500000E+00  0.2500000E+00  0.1600000E-01
    1       -1.469644   1.000000
    2        0.692613   1.000000
    3        3.612020   1.000000
    4        5.726431   1.000000
    5       13.046326   0.000000
    6       16.602998   0.000000
    7       18.728994   0.000000
    8       19.166891   0.000000
 
 -0.2500000E+00  0.4500000E+00  0.2500000E+00  0.8000000E-02
    1       -0.870845   1.000000
    2        1.860816   1.000000
    3        3.614492   1.000000
    4        6.278503   1.000000
    5        9.665190   0.000023
    6       16.521750   0.000000
    7       17.499536   0.000000
    8       18.067638   0.000000
 
 -0.4500000E+00 -0.4500000E+00  0.2500000E+00  0.8000000E-02
    1       -0.462819   1.000000
    2       -0.457764   1.000000
    3        4.518026   1.000000
    4        4.520751   1.000000
    5       12.986200   0.000000
    6       17.321261   0.000000
    7       18.090277   0.000000
    8       19.197949   0.000000
 
 -0.3500000E+00 -0.4500000E+00  0.2500000E+00  0.1600000E-01
    1        0.017934   1.000000
    2        1.050242   1.000000
    3        3.965991   1.000000
    4        4.975290   1.000000
    5        9.460350   0.004330
    6       16.928585   0.000000
    7       18.424212   0.000000
    8       19.108776   0.000000
 
 -0.2500000E+00 -0.4500000E+00  0.2500000E+00  0.8000000E-02
    1        1.039395   1.000000
    2        2.631960   1.000000
    3        4.381212   1.000000
    4        5.863274   1.000000
    5        6.398445   1.000000
    6       14.569800   0.000000
    7       16.092252   0.000000
    8       18.179333   0.000000
 
 -0.3500000E+00 -0.3500000E+00  0.2500000E+00  0.8000000E-02
    1        1.925260   1.000000
    2        1.968366   1.000000
    3        4.813781   1.000000
    4        4.838820   1.000000
    5        6.233059   1.000000
    6       14.891545   0.000000
    7       16.999535   0.000000
    8       17.404010   0.000000
 
 -0.2500000E+00 -0.3500000E+00  0.2500000E+00  0.8000000E-02
    1        2.983355   1.000000
    2        3.585579   1.000000
    3        4.157386   1.000000
    4        5.642350   1.000000
    5        6.207027   1.000000
    6       12.963138   0.000000
    7       14.099590   0.000000
    8       15.113110   0.000000
 
 -0.2500000E+00 -0.2500000E+00  0.2500000E+00  0.2000000E-02
    1        0.859369   1.000000
    2        5.787602   1.000000
    3        5.876356   1.000000
    4        7.276818   1.000000
    5        7.276824   1.000000
    6       11.594587   0.000000
    7       12.304486   0.000000
    8       12.304506   0.000000
 