    2    2   15    1
  0.1529437E+02  0.3691622E-09  0.3691622E-09  0.3691622E-09  0.5000000E-15
  1.000000000000000E-004
  CAR 
 unknown system                          
      8     99      8
 
  0.5000000E-01  0.5000000E-01  0.5000000E-01  0.8000000E-02
    1       -4.271525   1.000000
    2        4.735614   1.000000
    3        6.606010   1.000000
    4        7.750397   1.000000
    5       11.546912   0.000000
    6       15.095286   0.000000
    7       16.135898   0.000000
    8       17.005171   0.000000
 
  0.1500000E+00  0.5000000E-01  0.5000000E-01  0.1600000E-01
    1       -3.427288   1.000000
    2        4.461409   1.000000
    3        6.865253   1.000000
    4        9.152308   0.326978
    5       12.636274   0.000000
    6       13.081320   0.000000
    7       13.458627   0.000000
    8       15.403320   0.000000
 
  0.2500000E+00  0.5000000E-01  0.5000000E-01  0.1600000E-01
    1       -2.030132   1.000000
    2        4.667484   1.000000
    3        7.182083   1.000000
    4        8.596392   0.999752
    5       10.716453   0.000000
    6       12.025451   0.000000
    7       13.728708   0.000000
    8       14.448325   0.000000
 
  0.3500000E+00  0.5000000E-01  0.5000000E-01  0.1600000E-01
    1       -0.096687   1.000000
    2        5.120502   1.000000
    3        5.610915   1.000000
    4        7.603254   1.000000
    5        8.900888   0.908163
    6       11.825926   0.000000
    7       13.754764   0.000000
    8       14.202737   0.000000
 
  0.4500000E+00  0.5000000E-01  0.5000000E-01  0.8000000E-02
    1        2.096403   1.000000
    2        2.645437   1.000000
    3        6.518543   1.000000
    4        6.673093   1.000000
    5        8.818173   0.972216
    6       10.806788   0.000000
    7       13.566434   0.000000
    8       14.579383   0.000000
 
 -0.5000000E-01  0.5000000E-01  0.5000000E-01  0.4000000E-02
    1       -4.553835   1.000000
    2        5.176256   1.000000
    3        6.059593   1.000000
    4        7.428883   1.000000
    5       10.954992   0.000000
    6       15.542997   0.000000
    7       17.426475   0.000000
    8       18.131980   0.000000
 
  0.1500000E+00  0.1500000E+00  0.5000000E-01  0.8000000E-02
    1       -2.147337   1.000000
    2        4.629630   1.000000
    3        8.165752   1.000000
    4        9.078743   0.528661
    5       10.152104   0.000000
    6       11.004762   0.000000
    7       14.547846   0.000000
    8       14.549436   0.000000
 
  0.2500000E+00  0.1500000E+00  0.5000000E-01  0.1600000E-01
    1       -0.326658   1.000000
    2        5.226481   1.000000
    3        6.208369   1.000000
    4        7.136237   1.000000
    5        9.798756   0.000000
    6       12.409598   0.000000
    7       12.836526   0.000000
    8       13.715827   0.000000
 
  0.3500000E+00  0.1500000E+00  0.5000000E-01  0.1600000E-01
    1        1.964733   1.000000
    2        3.219454   1.000000
    3        5.345700   1.000000
    4        6.377212   1.000000
    5        9.882953   0.000000
    6       11.784193   0.000000
    7       12.836930   0.000000
    8       15.320449   0.000000
 
  0.4500000E+00  0.1500000E+00  0.5000000E-01  0.1600000E-01
    1        0.593348   1.000000
    2        3.905303   1.000000
    3        4.961048   1.000000
    4        7.647002   1.000000
    5        9.212500   0.191086
    6       12.203958   0.000000
    7       13.473800   0.000000
    8       15.202933   0.000000
 
 -0.4500000E+00  0.1500000E+00  0.5000000E-01  0.1600000E-01
    1       -1.444318   1.000000
    2        3.097725   1.000000
    3        7.574370   1.000000
    4        8.210103   1.000000
    5       10.356888   0.000000
    6       12.574923   0.000000
    7       12.851733   0.000000
    8       15.329736   0.000000
 
 -0.3500000E+00  0.1500000E+00  0.5000000E-01  0.1600000E-01
    1       -2.954413   1.000000
    2        2.769771   1.000000
    3        7.279767   1.000000
    4        9.832947   0.000000
    5       12.018535   0.000000
    6       12.525052   0.000000
    7       14.074096   0.000000
    8       15.549520   0.000000
 
 -0.2500000E+00  0.1500000E+00  0.5000000E-01  0.8000000E-02
    1       -3.914951   1.000000
    2        2.959392   1.000000
    3        6.936342   1.000000
    4        8.572783   0.999869
    5       13.259349   0.000000
    6       13.544937   0.000000
    7       15.006784   0.000000
    8       16.506735   0.000000
 
 -0.1500000E+00  0.1500000E+00  0.5000000E-01  0.8000000E-02
    1       -4.315783   1.000000
    2        3.624125   1.000000
    3        6.093912   1.000000
    4        8.482996   0.999991
    5       12.257749   0.000000
    6       13.744562   0.000000
    7       16.293256   0.000000
    8       19.378813   0.000000
 
 -0.5000000E-01  0.1500000E+00  0.5000000E-01  0.8000000E-02
    1       -4.152693   1.000000
    2        4.413024   1.000000
    3        5.695601   1.000000
    4        8.871095   0.938244
    5       12.072617   0.000000
    6       13.863610   0.000000
    7       15.978479   0.000000
    8       17.668949   0.000000
 
  0.2500000E+00  0.2500000E+00  0.5000000E-01  0.8000000E-02
    1        1.870965   1.000000
    2        4.143705   1.000000
    3        4.224393   1.000000
    4        6.299512   1.000000
    5       10.530940   0.000000
    6       11.699391   0.000000
    7       13.551360   0.000000
    8       14.202968   0.000000
 
  0.3500000E+00  0.2500000E+00  0.5000000E-01  0.1600000E-01
    1        1.503443   1.000000
    2        2.620653   1.000000
    3        4.717329   1.000000
    4        7.621930   1.000000
    5        9.804336   0.000000
    6       11.188199   0.000000
    7       14.868928   0.000000
    8       15.779500   0.000000
 
  0.4500000E+00  0.2500000E+00  0.5000000E-01  0.1600000E-01
    1       -0.629055   1.000000
    2        1.657987   1.000000
    3        7.744774   1.000000
    4        8.365387   1.000000
    5        9.951236   0.000000
    6       11.685450   0.000000
    7       13.442787   0.000000
    8       15.435237   0.000000
 
 -0.4500000E+00  0.2500000E+00  0.5000000E-01  0.1600000E-01
    1       -2.248241   1.000000
    2        1.213006   1.000000
    3        7.916757   1.000000
    4       10.345968   0.000000
    5       11.074967   0.000000
    6       12.124229   0.000000
    7       13.475462   0.000000
    8       14.481058   0.000000
 
 -0.3500000E+00  0.2500000E+00  0.5000000E-01  0.8000000E-02
    1       -3.322604   1.000000
    2        1.303157   1.000000
    3        7.487167   1.000000
    4        9.307383   0.061194
    5       11.834910   0.000000
    6       13.658834   0.000000
    7       15.473350   0.000000
    8       16.112820   0.000000
 
 -0.2500000E+00  0.2500000E+00  0.5000000E-01  0.8000000E-02
    1       -3.840650   1.000000
    2        1.917071   1.000000
    3        6.521122   1.000000
    4        9.251724   0.124813
    5       12.038598   0.000000
    6       14.460398   0.000000
    7       14.800035   0.000000
    8       19.076659   0.000000
 
 -0.1500000E+00  0.2500000E+00  0.5000000E-01  0.1600000E-01
    1       -3.796639   1.000000
    2        2.997995   1.000000
    3        5.666743   1.000000
    4        9.925616   0.000000
    5       12.163723   0.000000
    6       13.663541   0.000000
    7       15.362840   0.000000
    8       16.970115   0.000000
 
 -0.5000000E-01  0.2500000E+00  0.5000000E-01  0.8000000E-02
    1       -3.190940   1.000000
    2        4.178879   1.000000
    3        5.645154   1.000000
    4       10.326920   0.000000
    5       12.356068   0.000000
    6       12.617875   0.000000
    7       13.833382   0.000000
    8       15.077206   0.000000
 
  0.3500000E+00  0.3500000E+00  0.5000000E-01  0.8000000E-02
    1        0.404504   1.000000
    2        0.412517   1.000000
    3        7.686720   1.000000
    4        8.757033   0.990531
    5        9.645065   0.000042
    6       11.264604   0.000000
    7       14.064161   0.000000
    8       14.837225   0.000000
 
  0.4500000E+00  0.3500000E+00  0.5000000E-01  0.1600000E-01
    1       -1.312772   1.000000
    2       -0.155124   1.000000
    3        8.752554   0.991306
    4        9.746444   0.000002
    5       10.952271   0.000000
    6       12.154149   0.000000
    7       13.193734   0.000000
    8       13.516351   0.000000
 
 -0.4500000E+00  0.3500000E+00  0.5000000E-01  0.8000000E-02
    1       -2.497875   1.000000
    2       -0.174435   1.000000
    3        8.255972   1.000000
    4       10.144877   0.000000
    5       10.446919   0.000000
    6       12.347491   0.000000
    7       15.855092   0.000000
    8       15.867349   0.000000
 
 -0.3500000E+00  0.3500000E+00  0.5000000E-01  0.8000000E-02
    1       -3.131099   1.000000
    2        0.348419   1.000000
    3        7.187316   1.000000
    4       10.040827   0.000000
    5       10.509083   0.000000
    6       13.374121   0.000000
    7       16.985935   0.000000
    8       18.885589   0.000000
 
 -0.2500000E+00  0.3500000E+00  0.5000000E-01  0.1600000E-01
    1       -3.205399   1.000000
    2        1.394437   1.000000
    3        6.170480   1.000000
    4       10.544568   0.000000
    5       10.748815   0.000000
    6       14.470282   0.000000
    7       15.789199   0.000000
    8       16.243133   0.000000
 
 -0.1500000E+00  0.3500000E+00  0.5000000E-01  0.1600000E-01
    1       -2.719730   1.000000
    2        2.896784   1.000000
    3        5.644047   1.000000
    4       10.498790   0.000000
    5       11.108712   0.000000
    6       12.720790   0.000000
    7       14.625982   0.000000
    8       15.848015   0.000000
 
 -0.5000000E-01  0.3500000E+00  0.5000000E-01  0.8000000E-02
    1       -1.678649   1.000000
    2        4.470609   1.000000
    3        6.016896   1.000000
    4        7.955021   1.000000
    5       10.927633   0.000000
    6       12.984770   0.000000
    7       13.751930   0.000000
    8       13.830708   0.000000
 
  0.4500000E+00  0.4500000E+00  0.5000000E-01  0.4000000E-02
    1       -1.445817   1.000000
    2       -1.445817   1.000000
    3        9.241310   0.140603
    4        9.241315   0.140594
    5       11.171621   0.000000
    6       11.171623   0.000000
    7       15.790211   0.000000
    8       15.790212   0.000000
 
 -0.4500000E+00  0.4500000E+00  0.5000000E-01  0.8000000E-02
    1       -2.191377   1.000000
    2       -1.027932   1.000000
    3        8.076267   1.000000
    4        9.186215   0.245714
    5       10.976531   0.000000
    6       12.087789   0.000000
    7       18.612415   0.000000
    8       18.699813   0.000000
 
 -0.3500000E+00  0.4500000E+00  0.5000000E-01  0.1600000E-01
    1       -2.382424   1.000000
    2       -0.067978   1.000000
    3        6.937734   1.000000
    4        9.147845   0.338443
    5       11.565621   0.000000
    6       13.569700   0.000000
    7       15.377468   0.000000
    8       16.828027   0.000000
 
 -0.2500000E+00  0.4500000E+00  0.5000000E-01  0.1600000E-01
    1       -2.016382   1.000000
    2        1.409595   1.000000
    3        6.230327   1.000000
    4        9.426186   0.008542
    5       10.585821   0.000000
    6       13.323673   0.000000
    7       14.377481   0.000000
    8       16.367205   0.000000
 
 -0.1500000E+00  0.4500000E+00  0.5000000E-01  0.1600000E-01
    1       -1.096613   1.000000
    2        3.324637   1.000000
    3        6.074426   1.000000
    4        7.458155   1.000000
    5       10.053570   0.000000
    6       12.455075   0.000000
    7       14.414457   0.000000
    8       15.203840   0.000000
 
 -0.5000000E-01  0.4500000E+00  0.5000000E-01  0.8000000E-02
    1        0.361890   1.000000
    2        4.568304   1.000000
    3        5.441750   1.000000
    4        6.798236   1.000000
    5        9.271803   0.097965
    6       11.787244   0.000000
    7       12.433035   0.000000
    8       15.633550   0.000000
 
 -0.4500000E+00 -0.4500000E+00  0.5000000E-01  0.8000000E-02
    1       -1.334275   1.000000
    2       -1.332742   1.000000
    3        7.924923   1.000000
    4        7.942970   1.000000
    5       12.344832   0.000000
    6       12.714533   0.000000
    7       15.199741   0.000000
    8       16.799438   0.000000
 
 -0.3500000E+00 -0.4500000E+00  0.5000000E-01  0.1600000E-01
    1       -1.085777   1.000000
    2        0.062760   1.000000
    3        7.089764   1.000000
    4        8.170638   1.000000
    5       10.426462   0.000000
    6       14.090100   0.000000
    7       14.224776   0.000000
    8       15.375093   0.000000
 
 -0.2500000E+00 -0.4500000E+00  0.5000000E-01  0.1600000E-01
    1       -0.287881   1.000000
    2        1.962768   1.000000
    3        6.677753   1.000000
    4        7.198565   1.000000
    5        8.867550   0.941240
    6       12.100285   0.000000
    7       15.392170   0.000000
    8       16.489797   0.000000
 
 -0.1500000E+00 -0.4500000E+00  0.5000000E-01  0.1600000E-01
    1        1.042754   1.000000
    2        3.991220   1.000000
    3        4.561461   1.000000
    4        6.954248   1.000000
    5        9.151042   0.330214
    6       11.208301   0.000000
    7       12.900921   0.000000
    8       16.727828   0.000000
 
 -0.5000000E-01 -0.4500000E+00  0.5000000E-01  0.8000000E-02
    1        1.737251   1.000000
    2        2.999926   1.000000
    3        6.594876   1.000000
    4        7.709264   1.000000
    5        7.903056   1.000000
    6       10.576492   0.000000
    7       12.488232   0.000000
    8       15.598459   0.000000
 
 -0.3500000E+00 -0.3500000E+00  0.5000000E-01  0.8000000E-02
    1        0.729938   1.000000
    2        0.746705   1.000000
    3        6.923990   1.000000
    4        7.619459   1.000000
    5        7.905918   1.000000
    6       11.982986   0.000000
    7       15.977549   0.000000
    8       16.973790   0.000000
 
 -0.2500000E+00 -0.3500000E+00  0.5000000E-01  0.1600000E-01
    1        1.932928   1.000000
    2        3.001030   1.000000
    3        4.103556   1.000000
    4        7.599426   1.000000
    5        8.565328   0.999893
    6       10.585209   0.000000
    7       14.474018   0.000000
    8       16.260397   0.000000
 
 -0.1500000E+00 -0.3500000E+00  0.5000000E-01  0.1600000E-01
    1        1.421557   1.000000
    2        3.746328   1.000000
    3        5.792794   1.000000
    4        7.503553   1.000000
    5        8.696934   0.997212
    6       10.987878   0.000000
    7       11.731982   0.000000
    8       15.119935   0.000000
 
 -0.5000000E-01 -0.3500000E+00  0.5000000E-01  0.8000000E-02
    1       -0.559420   1.000000
    2        5.893025   1.000000
    3        6.659400   1.000000
    4        7.730137   1.000000
    5        8.668504   0.998524
    6       11.219063   0.000000
    7       12.819453   0.000000
    8       14.071216   0.000000
 
 -0.2500000E+00 -0.2500000E+00  0.5000000E-01  0.8000000E-02
    1        1.312397   1.000000
    2        4.681796   1.000000
    3        4.730170   1.000000
    4        7.509797   1.000000
    5        9.158286   0.311873
    6       10.455324   0.000000
    7       12.853436   0.000000
    8       13.694930   0.000000
 
 -0.1500000E+00 -0.2500000E+00  0.5000000E-01  0.1600000E-01
    1       -0.792072   1.000000
    2        6.658184   1.000000
    3        6.926668   1.000000
    4        7.608929   1.000000
    5        9.133008   0.377594
    6       11.607115   0.000000
    7       11.646806   0.000000
    8       12.793723   0.000000
 
 -0.5000000E-01 -0.2500000E+00  0.5000000E-01  0.8000000E-02
    1       -2.382716   1.000000
    2        6.032869   1.000000
    3        7.212480   1.000000
    4        9.007453   0.717694
    5       10.681039   0.000000
    6       11.506298   0.000000
    7       13.026039   0.000000
    8       14.356143   0.000000
 
 -0.1500000E+00 -0.1500000E+00  0.5000000E-01  0.8000000E-02
    1       -2.500496   1.000000
    2        6.338833   1.000000
    3        7.977494   1.000000
    4        8.875804   0.934082
    5       10.486524   0.000000
    6       11.057711   0.000000
    7       13.095368   0.000000
    8       13.793832   0.000000
 
 -0.5000000E-01 -0.1500000E+00  0.5000000E-01  0.8000000E-02
    1       -3.664437   1.000000
    2        5.987523   1.000000
    3        6.827527   1.000000
    4        8.160879   1.000000
    5       11.823312   0.000000
    6       13.378918   0.000000
    7       13.746610   0.000000
    8       16.105869   0.000000
 
 -0.5000000E-01 -0.5000000E-01  0.5000000E-01  0.2000000E-02
    1       -4.390496   1.000000
    2        6.411215   1.000000
    3        6.495891   1.000000
    4        6.495902   1.000000
    5       10.824502   0.000000
    6       16.386823   0.000000
    7       16.579581   0.000000
    8       17.332831   0.000000
 
  0.1500000E+00  0.1500000E+00  0.1500000E+00  0.8000000E-02
    1       -1.560096   1.000000
    2        3.007793   1.000000
    3        8.353273   1.000000
    4        8.877670   0.932374
    5       10.094740   0.000000
    6       11.350520   0.000000
    7       14.047300   0.000000
    8       14.749711   0.000000
 
  0.2500000E+00  0.1500000E+00  0.1500000E+00  0.1600000E-01
    1        0.367116   1.000000
    2        3.742383   1.000000
    3        5.782526   1.000000
    4        6.782192   1.000000
    5       10.544418   0.000000
    6       13.227866   0.000000
    7       13.698322   0.000000
    8       14.498689   0.000000
 
  0.3500000E+00  0.1500000E+00  0.1500000E+00  0.8000000E-02
    1        2.556211   1.000000
    2        3.072183   1.000000
    3        4.904353   1.000000
    4        5.223766   1.000000
    5       11.169003   0.000000
    6       12.932736   0.000000
    7       14.077864   0.000000
    8       14.381173   0.000000
 
 -0.1500000E+00  0.1500000E+00  0.1500000E+00  0.4000000E-02
    1       -4.078465   1.000000
    2        3.337396   1.000000
    3        4.836990   1.000000
    4       10.045703   0.000000
    5       12.000527   0.000000
    6       13.083677   0.000000
    7       18.043636   0.000000
    8       19.067901   0.000000
 
  0.2500000E+00  0.2500000E+00  0.1500000E+00  0.8000000E-02
    1        2.624902   1.000000
    2        3.773157   1.000000
    3        3.946277   1.000000
    4        5.011564   1.000000
    5       11.940803   0.000000
    6       13.338552   0.000000
    7       14.412921   0.000000
    8       14.467099   0.000000
 
  0.3500000E+00  0.2500000E+00  0.1500000E+00  0.1600000E-01
    1        1.284089   1.000000
    2        2.415079   1.000000
    3        5.568583   1.000000
    4        6.595425   1.000000
    5       11.412706   0.000000
    6       12.695374   0.000000
    7       13.977472   0.000000
    8       15.042605   0.000000
 
  0.4500000E+00  0.2500000E+00  0.1500000E+00  0.8000000E-02
    1       -0.743628   1.000000
    2        1.553232   1.000000
    3        8.430265   0.999998
    4        8.636294   0.999314
    5       10.509777   0.000000
    6       11.863738   0.000000
    7       12.800168   0.000000
    8       14.012555   0.000000
 
 -0.2500000E+00  0.2500000E+00  0.1500000E+00  0.8000000E-02
    1       -3.604875   1.000000
    2        2.043810   1.000000
    3        4.833430   1.000000
    4       10.287266   0.000000
    5       11.180770   0.000000
    6       14.923922   0.000000
    7       16.627242   0.000000
    8       18.523490   0.000000
 
 -0.1500000E+00  0.2500000E+00  0.1500000E+00  0.8000000E-02
    1       -3.442396   1.000000
    2        2.794084   1.000000
    3        4.406698   1.000000
    4       10.416569   0.000000
    5       11.544303   0.000000
    6       14.706094   0.000000
    7       14.948540   0.000000
    8       18.145747   0.000000
 
  0.3500000E+00  0.3500000E+00  0.1500000E+00  0.4000000E-02
    1        0.297541   1.000000
    2        0.297541   1.000000
    3        8.489729   0.999989
    4        8.489742   0.999989
    5       11.312855   0.000000
    6       11.312858   0.000000
    7       13.083564   0.000000
    8       13.083580   0.000000
 
 -0.3500000E+00  0.3500000E+00  0.1500000E+00  0.8000000E-02
    1       -2.898300   1.000000
    2        0.545430   1.000000
    3        5.428121   1.000000
    4        8.752245   0.991358
    5       12.078758   0.000000
    6       15.324813   0.000000
    7       17.248268   0.000000
    8       18.346259   0.000000
 
 -0.2500000E+00  0.3500000E+00  0.1500000E+00  0.1600000E-01
    1       -2.854623   1.000000
    2        1.623918   1.000000
    3        4.471685   1.000000
    4        8.801281   0.979017
    5       12.537158   0.000000
    6       14.616125   0.000000
    7       16.683922   0.000000
    8       17.647833   0.000000
 
 -0.1500000E+00  0.3500000E+00  0.1500000E+00  0.8000000E-02
    1       -2.252048   1.000000
    2        2.793758   1.000000
    3        4.461672   1.000000
    4        9.264866   0.106717
    5       10.441912   0.000000
    6       14.179291   0.000000
    7       15.647844   0.000000
    8       16.314607   0.000000
 
 -0.4500000E+00  0.4500000E+00  0.1500000E+00  0.8000000E-02
    1       -1.963449   1.000000
    2       -0.809401   1.000000
    3        6.306434   1.000000
    4        7.421182   1.000000
    5       13.032842   0.000000
    6       14.117050   0.000000
    7       18.081574   0.000000
    8       18.164741   0.000000
 
 -0.3500000E+00  0.4500000E+00  0.1500000E+00  0.1600000E-01
    1       -2.037729   1.000000
    2        0.240514   1.000000
    3        5.165129   1.000000
    4        7.369824   1.000000
    5       13.045750   0.000000
    6       14.687210   0.000000
    7       16.627864   0.000000
    8       17.968803   0.000000
 
 -0.2500000E+00  0.4500000E+00  0.1500000E+00  0.1600000E-01
    1       -1.554945   1.000000
    2        1.747761   1.000000
    3        4.612465   1.000000
    4        7.792417   1.000000
    5       10.064163   0.000000
    6       15.292935   0.000000
    7       15.755885   0.000000
    8       17.696699   0.000000
 
 -0.1500000E+00  0.4500000E+00  0.1500000E+00  0.8000000E-02
    1       -0.521522   1.000000
    2        3.326053   1.000000
    3        5.014488   1.000000
    4        6.919877   1.000000
    5        8.713201   0.996054
    6       13.213718   0.000000
    7       14.810492   0.000000
    8       16.586370   0.000000
 
 -0.4500000E+00 -0.4500000E+00  0.1500000E+00  0.8000000E-02
    1       -1.001605   1.000000
    2       -0.998522   1.000000
    3        6.147467   1.000000
    4        6.150339   1.000000
    5       13.172099   0.000000
    6       14.995999   0.000000
    7       15.993696   0.000000
    8       17.986820   0.000000
 
 -0.3500000E+00 -0.4500000E+00  0.1500000E+00  0.1600000E-01
    1       -0.636804   1.000000
    2        0.484499   1.000000
    3        5.406260   1.000000
    4        6.486248   1.000000
    5        9.868610   0.000000
    6       15.516306   0.000000
    7       16.365213   0.000000
    8       17.594335   0.000000
 
 -0.2500000E+00 -0.4500000E+00  0.1500000E+00  0.1600000E-01
    1        0.273984   1.000000
    2        2.409375   1.000000
    3        5.252318   1.000000
    4        6.576056   1.000000
    5        7.393465   1.000000
    6       13.390340   0.000000
    7       15.914595   0.000000
    8       17.627829   0.000000
 
 -0.1500000E+00 -0.4500000E+00  0.1500000E+00  0.8000000E-02
    1        1.703168   1.000000
    2        3.676161   1.000000
    3        4.577218   1.000000
    4        6.045596   1.000000
    5        8.466864   0.999995
    6       11.540950   0.000000
    7       12.902737   0.000000
    8       17.098259   0.000000
 
 -0.3500000E+00 -0.3500000E+00  0.1500000E+00  0.8000000E-02
    1        1.257815   1.000000
    2        1.285045   1.000000
    3        6.022946   1.000000
    4        6.139861   1.000000
    5        6.671947   1.000000
    6       13.365066   0.000000
    7       17.283551   0.000000
    8       17.306526   0.000000
 
 -0.2500000E+00 -0.3500000E+00  0.1500000E+00  0.1600000E-01
    1        2.530028   1.000000
    2        3.343510   1.000000
    3        3.926114   1.000000
    4        6.402178   1.000000
    5        7.357189   1.000000
    6       11.679121   0.000000
    7       14.091545   0.000000
    8       15.941041   0.000000
 
 -0.1500000E+00 -0.3500000E+00  0.1500000E+00  0.8000000E-02
    1        1.086238   1.000000
    2        4.487836   1.000000
    3        6.036387   1.000000
    4        7.419594   1.000000
    5        8.419780   0.999999
    6       10.682823   0.000000
    7       11.538246   0.000000
    8       14.207890   0.000000
 
 -0.2500000E+00 -0.2500000E+00  0.1500000E+00  0.8000000E-02
    1        0.973418   1.000000
    2        5.345094   1.000000
    3        5.396098   1.000000
    4        7.686882   1.000000
    5        7.944335   1.000000
    6       10.621519   0.000000
    7       12.439884   0.000000
    8       13.068285   0.000000
 
 -0.1500000E+00 -0.2500000E+00  0.1500000E+00  0.8000000E-02
    1       -1.026432   1.000000
    2        7.476321   1.000000
    3        7.768594   1.000000
    4        8.371530   1.000000
    5        8.472170   0.999994
    6       10.556347   0.000000
    7       11.440338   0.000000
    8       12.016260   0.000000
 
 -0.1500000E+00 -0.1500000E+00  0.1500000E+00  0.2000000E-02
    1       -2.618488   1.000000
    2        7.903339   1.000000
    3        7.903351   1.000000
    4        7.913107   1.000000
    5       10.706959   0.000000
    6       11.171410   0.000000
    7       12.591984   0.000000
    8       13.407758   0.000000
 
  0.2500000E+00  0.2500000E+00  0.2500000E+00  0.2000000E-02
    1        3.407291   1.000000
    2        3.407293   1.000000
    3        4.065754   1.000000
    4        4.065757   1.000000
    5       13.253674   0.000000
    6       13.253674   0.000000
    7       15.047437   0.000000
    8       15.047437   0.000000
 
 -0.2500000E+00  0.2500000E+00  0.2500000E+00  0.4000000E-02
    1       -3.135003   1.000000
    2        1.935744   1.000000
    3        3.632861   1.000000
    4        8.564833   0.999895
    5       12.938421   0.000000
    6       16.120276   0.000000
    7       17.366558   0.000000
    8       18.306113   0.000000
 
 -0.3500000E+00  0.3500000E+00  0.2500000E+00  0.8000000E-02
    1       -2.435098   1.000000
    2        0.884031   1.000000
    3        3.782768   1.000000
    4        7.019363   1.000000
    5       14.163725   0.000000
    6       16.769934   0.000000
    7       17.783720   0.000000
    8       18.477286   0.000000
 
 -0.2500000E+00  0.3500000E+00  0.2500000E+00  0.8000000E-02
    1       -2.273631   1.000000
    2        1.622757   1.000000
    3        3.364904   1.000000
    4        7.166679   1.000000
    5       13.135282   0.000000
    6       15.502082   0.000000
    7       17.934724   0.000000
    8       18.979333   0.000000
 
 -0.4500000E+00  0.4500000E+00  0.2500000E+00  0.8000000E-02
    1       -1.512857   1.000000
    2       -0.386202   1.000000
    3        4.585648   1.000000
    4        5.683650   1.000000
    5       15.117164   0.000000
    6       15.993195   0.000000
    7       17.882268   0.000000
    8       18.091333   0.000000
 
 -0.3500000E+00  0.4500000E+00  0.2500000E+00  0.1600000E-01
    1       -1.469901   1.000000
    2        0.691731   1.000000
    3        3.613251   1.000000
    4        5.727114   1.000000
    5       13.045702   0.000000
    6       16.602093   0.000000
    7       18.729271   0.000000
    8       19.165687   0.000000
 
 -0.2500000E+00  0.4500000E+00  0.2500000E+00  0.8000000E-02
    1       -0.871061   1.000000
    2        1.859320   1.000000
    3        3.616425   1.000000
    4        6.279290   1.000000
    5        9.664487   0.000024
    6       16.519413   0.000000
    7       17.499358   0.000000
    8       18.069620   0.000000
 
 -0.4500000E+00 -0.4500000E+00  0.2500000E+00  0.8000000E-02
    1       -0.463245   1.000000
    2       -0.458240   1.000000
    3        4.518907   1.000000
    4        4.521550   1.000000
    5       12.985623   0.000000
    6       17.320775   0.000000
    7       18.089953   0.000000
    8       19.196811   0.000000
 
 -0.3500000E+00 -0.4500000E+00  0.2500000E+00  0.1600000E-01
    1        0.017533   1.000000
    2        1.049414   1.000000
    3        3.967292   1.000000
    4        4.976206   1.000000
    5        9.459714   0.004371
    6       16.927069   0.000000
    7       18.424247   0.000000
    8       19.109238   0.000000
 
 -0.2500000E+00 -0.4500000E+00  0.2500000E+00  0.8000000E-02
    1        1.039110   1.000000
    2        2.630676   1.000000
    3        4.383249   1.000000
    4        5.864801   1.000000
    5        6.396983   1.000000
    6       14.568013   0.000000
    7       16.093222   0.000000
    8       18.178848   0.000000
 
 -0.3500000E+00 -0.3500000E+00  0.2500000E+00  0.8000000E-02
    1        1.924845   1.000000
    2        1.967439   1.000000
    3        4.815517   1.000000
    4        4.840110   1.000000
    5        6.231922   1.000000
    6       14.890022   0.000000
    7       16.999830   0.000000
    8       17.403597   0.000000
 
 -0.2500000E+00 -0.3500000E+00  0.2500000E+00  0.8000000E-02
    1        2.985460   1.000000
    2        3.584121   1.000000
    3        4.154073   1.000000
    4        5.644566   1.000000
    5        6.208302   1.000000
    6       12.961266   0.000000
    7       14.099793   0.000000
    8       15.112182   0.000000
 
 -0.2500000E+00 -0.2500000E+00  0.2500000E+00  0.2000000E-02
    1        0.859823   1.000000
    2        5.785523   1.000000
    3        5.874101   1.000000
    4        7.279413   1.000000
    5        7.279417   1.000000
    6       11.592097   0.000000
    7       12.303984   0.000000
    8       12.304005   0.000000
 