unknown system                          
   1.00000000000000     
     0.000000    2.745595    2.745595
     2.745595    0.000000    2.745595
     2.745595    2.745595   -0.000000
   Si
     2
Direct
  0.500000  0.500000  0.500000
  0.750000  0.750000  0.750000
 
   28   28   28
 0.88926     0.91629     0.99963      1.1463      1.3684      1.6814      2.1014      2.6377      3.2864      4.0225    
  4.7969      5.5376      6.1580      6.5729      6.7190      6.5729      6.1580      5.5376      4.7969      4.0225    
  3.2864      2.6378      2.1014      1.6815      1.3684      1.1463     0.99960     0.91627     0.91629     0.96189    
  1.0565      1.2072      1.4246      1.7207      2.1056      2.5817      3.1374      3.7430      4.3497      4.8940    
  5.3073      5.5311      5.5311      5.3073      4.8940      4.3497      3.7430      3.1374      2.5817      2.1057    
  1.7208      1.4246      1.2072      1.0565     0.96187     0.91629     0.99963      1.0565      1.1558      1.3044    
  1.5107      1.7833      2.1269      2.5379      3.0002      3.4825      3.9399      4.3202      4.5729      4.6617    
  4.5729      4.3202      3.9399      3.4825      3.0002      2.5380      2.1269      1.7833      1.5107      1.3043    
  1.1558      1.0565     0.99964     0.98113      1.1463      1.2072      1.3044      1.4438      1.6322      1.8744    
  2.1709      2.5141      2.8854      3.2551      3.5848      3.8339      3.9683      3.9683      3.8339      3.5848    
  3.2551      2.8855      2.5142      2.1710      1.8744      1.6321      1.4437      1.3043      1.2072      1.1463    
  1.1171      1.1171      1.3684      1.4246      1.5107      1.6322      1.7937      1.9976      2.2410      2.5141    
  2.7985      3.0679      3.2915      3.4400      3.4921      3.4400      3.2915      3.0679      2.7986      2.5141    
  2.2410      1.9975      1.7936      1.6321      1.5107      1.4246      1.3684      1.3370      1.3269      1.3370    
  1.6814      1.7207      1.7833      1.8744      1.9976      2.1531      2.3366      2.5379      2.7404      2.9223    
  3.0606      3.1355      3.1355      3.0606      2.9223      2.7404      2.5379      2.3366      2.1530      1.9975    
  1.8744      1.7833      1.7208      1.6815      1.6596      1.6502      1.6501      1.6596      2.1014      2.1056    
  2.1269      2.1709      2.2410      2.3366      2.4533      2.5817      2.7080      2.8157      2.8885      2.9142    
  2.8885      2.8157      2.7080      2.5817      2.4533      2.3366      2.2410      2.1710      2.1269      2.1057    
  2.1014      2.1066      2.1135      2.1165      2.1135      2.1065      2.6377      2.5817      2.5379      2.5141    
  2.5141      2.5379      2.5817      2.6378      2.6956      2.7432      2.7702      2.7702      2.7433      2.6956    
  2.6377      2.5817      2.5380      2.5142      2.5142      2.5380      2.5817      2.6377      2.6956      2.7433    
  2.7702      2.7702      2.7432      2.6956      3.2864      3.1374      3.0002      2.8854      2.7985      2.7404    
  2.7080      2.6956      2.6953      2.6993      2.7014      2.6993      2.6953      2.6956      2.7081      2.7405    
  2.7986      2.8855      3.0002      3.1373      3.2863      3.4319      3.5555      3.6389      3.6684      3.6390    
  3.5556      3.4319      4.0225      3.7430      3.4825      3.2551      3.0679      2.9223      2.8157      2.7432    
  2.6993      2.6788      2.6788      2.6993      2.7433      2.8158      2.9224      3.0680      3.2552      3.4825    
  3.7429      4.0224      4.2992      4.5456      4.7319      4.8325      4.8325      4.7319      4.5456      4.2993    
  4.7969      4.3497      3.9399      3.5848      3.2915      3.0606      2.8885      2.7702      2.7014      2.6788    
  2.7014      2.7703      2.8886      3.0607      3.2917      3.5848      3.9399      4.3496      4.7967      5.2526    
  5.6779      6.0276      6.2585      6.3393      6.2585      6.0276      5.6780      5.2527      5.5376      4.8940    
  4.3202      3.8339      3.4400      3.1355      2.9142      2.7702      2.6993      2.6993      2.7703      2.9143    
  3.1356      3.4402      3.8340      4.3201      4.8938      5.5374      6.2166      6.8801      7.4640      7.9015    
  8.1365      8.1365      7.9015      7.4640      6.8801      6.2167      6.1580      5.3073      4.5729      3.9683    
  3.4921      3.1355      2.8885      2.7433      2.6953      2.7433      2.8886      3.1356      3.4923      3.9684    
  4.5729      5.3071      6.1578      7.0895      8.0418      8.9318      9.6641      10.148      10.317      10.148    
  9.6640      8.9317      8.0418      7.0897      6.5729      5.5311      4.6617      3.9683      3.4400      3.0606    
  2.8157      2.6956      2.6956      2.8158      3.0607      3.4402      3.9684      4.6616      5.5309      6.5726    
  7.7580      9.0249      10.276      11.389      12.229      12.683      12.683      12.229      11.389      10.276    
  9.0249      7.7582      6.7190      5.5311      4.5729      3.8339      3.2915      2.9223      2.7080      2.6377    
  2.7081      2.9224      3.2917      3.8340      4.5729      5.5309      6.7188      8.1220      9.6879      11.317    
  12.867      14.162      15.027      15.332      15.027      14.162      12.867      11.317      9.6879      8.1222    
  6.5729      5.3073      4.3202      3.5848      3.0679      2.7404      2.5817      2.5817      2.7405      3.0680    
  3.5848      4.3201      5.3071      6.5726      8.1220      9.9225      11.888      13.874      15.675      17.045    
  17.781      17.781      17.045      15.675      13.874      11.888      9.9225      8.1222      6.1580      4.8940    
  3.9399      3.2551      2.7986      2.5379      2.4533      2.5380      2.7986      3.2552      3.9399      4.8938    
  6.1578      7.7580      9.6879      11.888      14.232      16.508      18.408      19.658      20.093      19.658    
  18.408      16.508      14.232      11.888      9.6878      7.7581      5.5376      4.3497      3.4825      2.8855    
  2.5141      2.3366      2.3366      2.5142      2.8855      3.4825      4.3496      5.5374      7.0895      9.0249    
  11.317      13.874      16.508      18.889      20.674      21.627      21.627      20.675      18.889      16.508    
  13.874      11.317      9.0248      7.0895      4.7969      3.7430      3.0002      2.5142      2.2410      2.1530    
  2.2410      2.5142      3.0002      3.7429      4.7967      6.2166      8.0418      10.276      12.867      15.675    
  18.408      20.674      22.164      22.682      22.164      20.675      18.408      15.675      12.867      10.276    
  8.0417      6.2166      4.0225      3.1374      2.5380      2.1710      1.9975      1.9975      2.1710      2.5380    
  3.1373      4.0224      5.2526      6.8801      8.9318      11.389      14.162      17.045      19.658      21.627    
  22.682      22.682      21.627      19.658      17.045      14.162      11.389      8.9316      6.8800      5.2526    
  3.2864      2.5817      2.1269      1.8744      1.7936      1.8744      2.1269      2.5817      3.2863      4.2992    
  5.6779      7.4640      9.6641      12.229      15.027      17.781      20.093      21.627      22.164      21.627    
  20.093      17.781      15.027      12.229      9.6639      7.4638      5.6779      4.2992      2.6378      2.1057    
  1.7833      1.6321      1.6321      1.7833      2.1057      2.6377      3.4319      4.5456      6.0276      7.9015    
  10.148      12.683      15.332      17.781      19.658      20.675      20.675      19.658      17.781      15.331    
  12.683      10.148      7.9014      6.0275      4.5455      3.4319      2.1014      1.7208      1.5107      1.4437    
  1.5107      1.7208      2.1014      2.6956      3.5555      4.7319      6.2585      8.1365      10.317      12.683    
  15.027      17.045      18.408      18.889      18.408      17.045      15.027      12.683      10.317      8.1364    
  6.2584      4.7318      3.5555      2.6956      1.6815      1.4246      1.3043      1.3043      1.4246      1.6815    
  2.1066      2.7433      3.6389      4.8325      6.3393      8.1365      10.148      12.229      14.162      15.675    
  16.508      16.508      15.675      14.162      12.229      10.148      8.1364      6.3392      4.8324      3.6389    
  2.7433      2.1066      1.3684      1.2072      1.1558      1.2072      1.3684      1.6596      2.1135      2.7702    
  3.6684      4.8325      6.2585      7.9015      9.6640      11.389      12.867      13.874      14.232      13.874    
  12.867      11.389      9.6639      7.9014      6.2584      4.8324      3.6684      2.7703      2.1136      1.6597    
  1.1463      1.0565      1.0565      1.1463      1.3370      1.6502      2.1165      2.7702      3.6390      4.7319    
  6.0276      7.4640      8.9317      10.276      11.317      11.888      11.888      11.317      10.276      8.9316    
  7.4638      6.0275      4.7318      3.6389      2.7703      2.1166      1.6502      1.3370     0.99960     0.96187    
 0.99964      1.1171      1.3269      1.6501      2.1135      2.7432      3.5556      4.5456      5.6780      6.8801    
  8.0418      9.0249      9.6879      9.9225      9.6878      9.0248      8.0417      6.8800      5.6779      4.5455    
  3.5555      2.7433      2.1136      1.6502      1.3269      1.1170     0.91627     0.91629     0.98113      1.1171    
  1.3370      1.6596      2.1065      2.6956      3.4319      4.2993      5.2527      6.2167      7.0897      7.7582    
  8.1222      8.1222      7.7581      7.0895      6.2166      5.2526      4.2992      3.4319      2.6956      2.1066    
  1.6597      1.3370      1.1170     0.98108     0.91629     0.96189      1.0565      1.2072      1.4246      1.7207    
  2.1056      2.5817      3.1374      3.7430      4.3497      4.8940      5.3073      5.5311      5.5311      5.3073    
  4.8940      4.3497      3.7430      3.1374      2.5817      2.1057      1.7208      1.4246      1.2072      1.0565    
 0.96187     0.91629     0.96189      1.0173      1.1138      1.2579      1.4578      1.7219      2.0548      2.4533    
  2.9015      3.3689      3.8121      4.1801      4.4246      4.5104      4.4246      4.1801      3.8121      3.3689    
  2.9015      2.4534      2.0549      1.7219      1.4578      1.2579      1.1138      1.0173     0.96189     0.94384    
  1.0565      1.1138      1.2048      1.3350      1.5108      1.7372      2.0149      2.3366      2.6849      3.0313    
  3.3397      3.5724      3.6978      3.6978      3.5724      3.3397      3.0313      2.6849      2.3367      2.0149    
  1.7372      1.5108      1.3350      1.2047      1.1138      1.0565      1.0289      1.0289      1.2072      1.2579    
  1.3350      1.4437      1.5887      1.7725      1.9930      2.2410      2.4992      2.7433      2.9453      3.0791    
  3.1259      3.0791      2.9453      2.7433      2.4992      2.2410      1.9930      1.7725      1.5887      1.4436    
  1.3350      1.2579      1.2073      1.1788      1.1696      1.1788      1.4246      1.4578      1.5108      1.5887    
  1.6952      1.8312      1.9930      2.1709      2.3497      2.5099      2.6311      2.6965      2.6965      2.6311    
  2.5099      2.3497      2.1709      1.9930      1.8312      1.6952      1.5886      1.5108      1.4578      1.4246    
  1.4060      1.3979      1.3979      1.4060      1.7207      1.7219      1.7372      1.7725      1.8312      1.9134    
  2.0149      2.1269      2.2369      2.3302      2.3930      2.4151      2.3930      2.3302      2.2369      2.1269    
  2.0148      1.9134      1.8312      1.7725      1.7372      1.7219      1.7207      1.7269      1.7338      1.7367    
  1.7338      1.7269      2.1056      2.0548      2.0149      1.9930      1.9930      2.0149      2.0548      2.1056    
  2.1576      2.2001      2.2239      2.2240      2.2001      2.1576      2.1056      2.0548      2.0149      1.9930    
  1.9930      2.0149      2.0548      2.1056      2.1576      2.2001      2.2240      2.2239      2.2001      2.1576    
  2.5817      2.4533      2.3366      2.2410      2.1709      2.1269      2.1056      2.1014      2.1065      2.1135    
  2.1165      2.1135      2.1065      2.1014      2.1057      2.1269      2.1710      2.2410      2.3366      2.4533    
  2.5817      2.7080      2.8157      2.8885      2.9142      2.8885      2.8157      2.7080      3.1374      2.9015    
  2.6849      2.4992      2.3497      2.2369      2.1576      2.1065      2.0774      2.0646      2.0646      2.0775    
  2.1066      2.1576      2.2369      2.3498      2.4992      2.6848      2.9014      3.1373      3.3739      3.5866    
  3.7485      3.8363      3.8363      3.7485      3.5866      3.3739      3.7430      3.3689      3.0313      2.7433    
  2.5099      2.3302      2.2001      2.1135      2.0646      2.0488      2.0646      2.1136      2.2001      2.3303    
  2.5099      2.7432      3.0312      3.3688      3.7429      4.1299      4.4960      4.8004      5.0031      5.0743    
  5.0031      4.8004      4.4960      4.1300      4.3497      3.8121      3.3397      2.9453      2.6311      2.3930    
  2.2239      2.1165      2.0646      2.0646      2.1166      2.2240      2.3931      2.6311      2.9452      3.3395    
  3.8119      4.3496      4.9258      5.4974      6.0077      6.3946      6.6040      6.6040      6.3946      6.0077    
  5.4974      4.9259      4.8940      4.1801      3.5724      3.0791      2.6965      2.4151      2.2240      2.1135    
  2.0775      2.1136      2.2240      2.4152      2.6965      3.0790      3.5722      4.1799      4.8938      5.6875    
  6.5117      7.2939      7.9464      8.3819      8.5352      8.3819      7.9464      7.2939      6.5116      5.6876    
  5.3073      4.4246      3.6978      3.1259      2.6965      2.3930      2.2001      2.1065      2.1066      2.2001    
  2.3931      2.6965      3.1258      3.6976      4.4244      5.3071      6.3259      7.4314      8.5406      9.5405    
  10.304      10.720      10.720      10.304      9.5404      8.5405      7.4314      6.3260      5.5311      4.5104    
  3.6978      3.0791      2.6311      2.3302      2.1576      2.1014      2.1576      2.3303      2.6311      3.0790    
  3.6976      4.5102      5.5308      6.7530      8.1367      9.5981      11.007      12.198      13.001      13.285    
  13.001      12.198      11.007      9.5979      8.1366      6.7531      5.5311      4.4246      3.5724      2.9453    
  2.5099      2.2369      2.1056      2.1057      2.2369      2.5099      2.9452      3.5722      4.4244      5.5308    
  6.9035      8.5210      10.312      12.145      13.828      15.133      15.849      15.849      15.133      13.828    
  12.145      10.312      8.5209      6.9036      5.3073      4.1801      3.3397      2.7433      2.3497      2.1269    
  2.0548      2.1269      2.3498      2.7432      3.3395      4.1799      5.3071      6.7530      8.5210      10.565    
  12.771      14.942      16.810      18.087      18.541      18.087      16.810      14.942      12.771      10.565    
  8.5208      6.7531      4.8940      3.8121      3.0313      2.4992      2.1709      2.0148      2.0149      2.1710    
  2.4992      3.0312      3.8119      4.8938      6.3259      8.1367      10.312      12.771      15.339      17.740    
  19.629      20.673      20.673      19.630      17.740      15.339      12.771      10.312      8.1365      6.3259    
  4.3497      3.3689      2.6849      2.2410      1.9930      1.9134      1.9930      2.2410      2.6848      3.3688    
  4.3496      5.6875      7.4314      9.5981      12.145      14.942      17.740      20.181      21.854      22.449    
  21.854      20.181      17.740      14.942      12.145      9.5978      7.4313      5.6875      3.7430      2.9015    
  2.3367      1.9930      1.8312      1.8312      1.9930      2.3366      2.9014      3.7429      4.9258      6.5117    
  8.5406      11.007      13.828      16.810      19.629      21.854      23.082      23.082      21.854      19.630    
  16.810      13.828      11.007      8.5404      6.5116      4.9258      3.1374      2.4534      2.0149      1.7725    
  1.6952      1.7725      2.0149      2.4533      3.1373      4.1299      5.4974      7.2939      9.5405      12.198    
  15.133      18.087      20.673      22.449      23.082      22.449      20.673      18.086      15.132      12.198    
  9.5403      7.2938      5.4974      4.1300      2.5817      2.0549      1.7372      1.5887      1.5886      1.7372    
  2.0548      2.5817      3.3739      4.4960      6.0077      7.9464      10.304      13.001      15.849      18.541    
  20.673      21.854      21.854      20.673      18.541      15.849      13.001      10.304      7.9463      6.0077    
  4.4960      3.3739      2.1057      1.7219      1.5108      1.4436      1.5108      1.7219      2.1056      2.7080    
  3.5866      4.8004      6.3946      8.3819      10.720      13.285      15.849      18.087      19.630      20.181    
  19.630      18.086      15.849      13.285      10.720      8.3819      6.3946      4.8004      3.5866      2.7081    
  1.7208      1.4578      1.3350      1.3350      1.4578      1.7207      2.1576      2.8157      3.7485      5.0031    
  6.6040      8.5352      10.720      13.001      15.133      16.810      17.740      17.740      16.810      15.132    
  13.001      10.720      8.5352      6.6040      5.0030      3.7485      2.8158      2.1577      1.4246      1.2579    
  1.2047      1.2579      1.4246      1.7269      2.2001      2.8885      3.8363      5.0743      6.6040      8.3819    
  10.304      12.198      13.828      14.942      15.339      14.942      13.828      12.198      10.304      8.3819    
  6.6040      5.0743      3.8364      2.8886      2.2002      1.7270      1.2072      1.1138      1.1138      1.2073    
  1.4060      1.7338      2.2240      2.9142      3.8363      5.0031      6.3946      7.9464      9.5404      11.007    
  12.145      12.771      12.771      12.145      11.007      9.5403      7.9463      6.3946      5.0030      3.8364    
  2.9143      2.2241      1.7339      1.4061      1.0565      1.0173      1.0565      1.1788      1.3979      1.7367    
  2.2239      2.8885      3.7485      4.8004      6.0077      7.2939      8.5405      9.5979      10.312      10.565    
  10.312      9.5978      8.5404      7.2938      6.0077      4.8004      3.7485      2.8886      2.2241      1.7367    
  1.3979      1.1787     0.96187     0.96189      1.0289      1.1696      1.3979      1.7338      2.2001      2.8157    
  3.5866      4.4960      5.4974      6.5116      7.4314      8.1366      8.5209      8.5208      8.1365      7.4313    
  6.5116      5.4974      4.4960      3.5866      2.8158      2.2002      1.7339      1.3979      1.1696      1.0288    
 0.91629     0.94384      1.0289      1.1788      1.4060      1.7269      2.1576      2.7080      3.3739      4.1300    
  4.9259      5.6876      6.3260      6.7531      6.9036      6.7531      6.3259      5.6875      4.9258      4.1300    
  3.3739      2.7081      2.1577      1.7270      1.4061      1.1787      1.0288     0.94380     0.99963      1.0565    
  1.1558      1.3044      1.5107      1.7833      2.1269      2.5379      3.0002      3.4825      3.9399      4.3202    
  4.5729      4.6617      4.5729      4.3202      3.9400      3.4825      3.0002      2.5380      2.1269      1.7833    
  1.5107      1.3043      1.1558      1.0565     0.99964     0.98113      1.0565      1.1138      1.2048      1.3350    
  1.5108      1.7372      2.0149      2.3366      2.6849      3.0313      3.3397      3.5724      3.6978      3.6978    
  3.5724      3.3397      3.0313      2.6849      2.3367      2.0149      1.7372      1.5108      1.3350      1.2047    
  1.1138      1.0565      1.0289      1.0289      1.1558      1.2048      1.2791      1.3837      1.5233      1.7005    
  1.9134      2.1531      2.4026      2.6383      2.8331      2.9620      3.0070      2.9619      2.8331      2.6383    
  2.4026      2.1531      1.9135      1.7005      1.5232      1.3836      1.2790      1.2048      1.1559      1.1282    
  1.1193      1.1282      1.3044      1.3350      1.3837      1.4553      1.5538      1.6803      1.8312      1.9976    
  2.1645      2.3136      2.4261      2.4866      2.4866      2.4261      2.3136      2.1645      1.9976      1.8313    
  1.6803      1.5538      1.4553      1.3836      1.3350      1.3044      1.2870      1.2793      1.2793      1.2870    
  1.5107      1.5108      1.5233      1.5538      1.6061      1.6803      1.7725      1.8744      1.9741      2.0581    
  2.1143      2.1341      2.1143      2.0581      1.9741      1.8744      1.7725      1.6803      1.6060      1.5538    
  1.5232      1.5108      1.5107      1.5166      1.5227      1.5253      1.5227      1.5166      1.7833      1.7372    
  1.7005      1.6803      1.6803      1.7005      1.7372      1.7833      1.8297      1.8672      1.8881      1.8881    
  1.8672      1.8297      1.7833      1.7372      1.7005      1.6803      1.6803      1.7005      1.7372      1.7833    
  1.8297      1.8672      1.8881      1.8881      1.8672      1.8297      2.1269      2.0149      1.9134      1.8312    
  1.7725      1.7372      1.7219      1.7207      1.7269      1.7338      1.7367      1.7338      1.7269      1.7207    
  1.7219      1.7372      1.7725      1.8312      1.9134      2.0148      2.1269      2.2369      2.3302      2.3930    
  2.4151      2.3930      2.3302      2.2369      2.5379      2.3366      2.1531      1.9976      1.8744      1.7833    
  1.7207      1.6814      1.6596      1.6501      1.6502      1.6596      1.6815      1.7207      1.7833      1.8744    
  1.9975      2.1530      2.3366      2.5379      2.7404      2.9223      3.0606      3.1355      3.1355      3.0606    
  2.9223      2.7404      3.0002      2.6849      2.4026      2.1645      1.9741      1.8297      1.7269      1.6596    
  1.6221      1.6101      1.6221      1.6596      1.7269      1.8297      1.9740      2.1644      2.4025      2.6848    
  3.0002      3.3282      3.6392      3.8981      4.0706      4.1312      4.0706      3.8981      3.6392      3.3281    
  3.4825      3.0313      2.6383      2.3136      2.0581      1.8672      1.7338      1.6501      1.6101      1.6101    
  1.6502      1.7338      1.8672      2.0580      2.3134      2.6381      3.0312      3.4824      3.9691      4.4542    
  4.8885      5.2183      5.3970      5.3970      5.2183      4.8884      4.4541      3.9691      3.9399      3.3397    
  2.8331      2.4261      2.1143      1.8881      1.7367      1.6502      1.6221      1.6502      1.7367      1.8882    
  2.1142      2.4259      2.8329      3.3395      3.9399      4.6119      5.3134      5.9819      6.5411      6.9150    
  7.0467      6.9150      6.5411      5.9819      5.3133      4.6119      4.3202      3.5724      2.9620      2.4866    
  2.1341      1.8881      1.7338      1.6596      1.6596      1.7338      1.8882      2.1340      2.4865      2.9617    
  3.5722      4.3201      5.1891      6.1373      7.0925      7.9563      8.6176      8.9777      8.9777      8.6176    
  7.9563      7.0925      6.1372      5.1891      4.5729      3.6978      3.0070      2.4866      2.1143      1.8672    
  1.7269      1.6815      1.7269      1.8672      2.1142      2.4865      3.0068      3.6976      4.5729      5.6281    
  6.8290      8.1024      9.3335      10.376      11.079      11.328      11.079      10.376      9.3335      8.1023    
  6.8289      5.6280      4.6617      3.6978      2.9619      2.4261      2.0581      1.8297      1.7207      1.7207    
  1.8297      2.0580      2.4259      2.9617      3.6976      4.6616      5.8658      7.2924      8.8785      10.506    
  12.001      13.161      13.798      13.798      13.161      12.001      10.505      8.8783      7.2923      5.8658    
  4.5729      3.5724      2.8331      2.3136      1.9741      1.7833      1.7219      1.7833      1.9740      2.3134    
  2.8329      3.5722      4.5729      5.8658      7.4558      9.3020      11.299      13.266      14.960      16.116    
  16.528      16.116      14.960      13.267      11.299      9.3018      7.4557      5.8658      4.3202      3.3397    
  2.6383      2.1645      1.8744      1.7372      1.7372      1.8744      2.1644      2.6381      3.3395      4.3201    
  5.6281      7.2924      9.3020      11.580      13.963      16.192      17.946      18.917      18.917      17.946    
  16.192      13.963      11.580      9.3018      7.2923      5.6280      3.9400      3.0313      2.4026      1.9976    
  1.7725      1.7005      1.7725      1.9975      2.4025      3.0312      3.9399      5.1891      6.8290      8.8785    
  11.299      13.963      16.632      18.962      20.569      21.144      20.569      18.962      16.632      13.963    
  11.299      8.8784      6.8288      5.1891      3.4825      2.6849      2.1531      1.8313      1.6803      1.6803    
  1.8312      2.1530      2.6848      3.4824      4.6119      6.1373      8.1024      10.506      13.266      16.192    
  18.962      21.160      22.386      22.386      21.160      18.961      16.192      13.267      10.505      8.1023    
  6.1372      4.6119      3.0002      2.3367      1.9135      1.6803      1.6060      1.6803      1.9134      2.3366    
  3.0002      3.9691      5.3134      7.0925      9.3335      12.001      14.960      17.946      20.569      22.386    
  23.038      22.386      20.568      17.946      14.960      12.001      9.3335      7.0925      5.3133      3.9691    
  2.5380      2.0149      1.7005      1.5538      1.5538      1.7005      2.0148      2.5379      3.3282      4.4542    
  5.9819      7.9563      10.376      13.161      16.116      18.917      21.144      22.386      22.386      21.144    
  18.917      16.116      13.161      10.376      7.9563      5.9819      4.4541      3.3282      2.1269      1.7372    
  1.5232      1.4553      1.5232      1.7372      2.1269      2.7404      3.6392      4.8885      6.5411      8.6176    
  11.079      13.798      16.528      18.917      20.569      21.160      20.568      18.917      16.528      13.798    
  11.079      8.6176      6.5411      4.8885      3.6393      2.7404      1.7833      1.5108      1.3836      1.3836    
  1.5108      1.7833      2.2369      2.9223      3.8981      5.2183      6.9150      8.9777      11.328      13.798    
  16.116      17.946      18.962      18.961      17.946      16.116      13.798      11.328      8.9777      6.9150    
  5.2184      3.8982      2.9224      2.2370      1.5107      1.3350      1.2790      1.3350      1.5107      1.8297    
  2.3302      3.0606      4.0706      5.3970      7.0467      8.9777      11.079      13.161      14.960      16.192    
  16.632      16.192      14.960      13.161      11.079      8.9777      7.0467      5.3970      4.0707      3.0608    
  2.3303      1.8298      1.3043      1.2047      1.2048      1.3044      1.5166      1.8672      2.3930      3.1355    
  4.1312      5.3970      6.9150      8.6176      10.376      12.001      13.267      13.963      13.963      13.267    
  12.001      10.376      8.6176      6.9150      5.3970      4.1313      3.1357      2.3931      1.8673      1.5166    
  1.1558      1.1138      1.1559      1.2870      1.5227      1.8881      2.4151      3.1355      4.0706      5.2183    
  6.5411      7.9563      9.3335      10.505      11.299      11.580      11.299      10.505      9.3335      7.9563    
  6.5411      5.2184      4.0707      3.1357      2.4152      1.8882      1.5227      1.2870      1.0565      1.0565    
  1.1282      1.2793      1.5253      1.8881      2.3930      3.0606      3.8981      4.8884      5.9819      7.0925    
  8.1023      8.8783      9.3018      9.3018      8.8784      8.1023      7.0925      5.9819      4.8885      3.8982    
  3.0608      2.3931      1.8882      1.5253      1.2793      1.1282     0.99964      1.0289      1.1193      1.2793    
  1.5227      1.8672      2.3302      2.9223      3.6392      4.4541      5.3133      6.1372      6.8289      7.2923    
  7.4557      7.2923      6.8288      6.1372      5.3133      4.4541      3.6393      2.9224      2.3303      1.8673    
  1.5227      1.2793      1.1192      1.0288     0.98113      1.0289      1.1282      1.2870      1.5166      1.8297    
  2.2369      2.7404      3.3281      3.9691      4.6119      5.1891      5.6280      5.8658      5.8658      5.6280    
  5.1891      4.6119      3.9691      3.3282      2.7404      2.2370      1.8298      1.5166      1.2870      1.1282    
  1.0288     0.98112      1.1463      1.2072      1.3044      1.4438      1.6322      1.8744      2.1709      2.5141    
  2.8854      3.2551      3.5848      3.8339      3.9683      3.9683      3.8339      3.5848      3.2551      2.8855    
  2.5142      2.1710      1.8744      1.6321      1.4437      1.3043      1.2072      1.1463      1.1171      1.1171    
  1.2072      1.2579      1.3350      1.4437      1.5887      1.7725      1.9930      2.2410      2.4992      2.7433    
  2.9453      3.0791      3.1259      3.0791      2.9453      2.7433      2.4992      2.2410      1.9930      1.7725    
  1.5887      1.4436      1.3350      1.2579      1.2073      1.1788      1.1696      1.1788      1.3044      1.3350    
  1.3837      1.4553      1.5538      1.6803      1.8312      1.9976      2.1645      2.3136      2.4261      2.4866    
  2.4866      2.4261      2.3136      2.1645      1.9976      1.8313      1.6803      1.5538      1.4553      1.3836    
  1.3350      1.3044      1.2870      1.2793      1.2793      1.2870      1.4438      1.4437      1.4553      1.4843    
  1.5345      1.6061      1.6952      1.7937      1.8899      1.9708      2.0248      2.0437      2.0247      1.9708    