unknown system                          
   1.00000000000000     
     0.000000    2.733525    2.733525
     2.733525    0.000000    2.733525
     2.733525    2.733525   -0.000000
   Si
     2
Direct
  0.500000  0.500000  0.500000
  0.750000  0.750000  0.750000
 
   28   28   28
 0.86418695795E+00 0.89077311766E+00 0.97280505262E+00 0.11173285307E+01 0.13363072698E+01
 0.16454718464E+01 0.20607212342E+01 0.25919164585E+01 0.32352804245E+01 0.39665291310E+01
 0.47369963051E+01 0.54748820506E+01 0.60935719059E+01 0.65076346699E+01 0.66535136124E+01
 0.65076235106E+01 0.60935827117E+01 0.54749294962E+01 0.47370476349E+01 0.39665390207E+01
 0.32352424380E+01 0.25918662321E+01 0.20606947824E+01 0.16454741438E+01 0.13363204059E+01
 0.11173369129E+01 0.97280631140E+00 0.89077192564E+00 0.89077311766E+00 0.93558216083E+00
 0.10286372904E+01 0.11770220695E+01 0.13912187094E+01 0.16834193756E+01 0.20637683777E+01
 0.25347996599E+01 0.30853911637E+01 0.36862409134E+01 0.42889124201E+01 0.48300420009E+01
 0.52413380106E+01 0.54640789526E+01 0.54640805877E+01 0.52413509261E+01 0.48300703036E+01
 0.42889333000E+01 0.36862256485E+01 0.30853451342E+01 0.25347611502E+01 0.20637653086E+01
 0.16834423928E+01 0.13912408279E+01 0.11770308684E+01 0.10286392201E+01 0.93558461998E+00
 0.89077481119E+00 0.97280505262E+00 0.10286372904E+01 0.11262251378E+01 0.12723034470E+01
 0.14755031615E+01 0.17443428216E+01 0.20837078873E+01 0.24902528977E+01 0.29480227389E+01
 0.34261198188E+01 0.38800646830E+01 0.42576542893E+01 0.45087813517E+01 0.45969566930E+01
 0.45087868712E+01 0.42576608467E+01 0.38800598993E+01 0.34260947730E+01 0.29479898467E+01
 0.24902391104E+01 0.20837243684E+01 0.17443715835E+01 0.14755193792E+01 0.12723020340E+01
 0.11262189350E+01 0.10286366666E+01 0.97280797935E+00 0.95464501989E+00 0.11173285307E+01
 0.11770220695E+01 0.12723034470E+01 0.14093387423E+01 0.15947585964E+01 0.18336428446E+01
 0.21265419907E+01 0.24659979060E+01 0.28337609147E+01 0.32002439067E+01 0.35273410771E+01
 0.37746972525E+01 0.39081907489E+01 0.39081912499E+01 0.37746970561E+01 0.35273364888E+01
 0.32002346867E+01 0.28337551142E+01 0.24660050645E+01 0.21265590364E+01 0.18336540872E+01
 0.15947539945E+01 0.14093253451E+01 0.12722941641E+01 0.11770203270E+01 0.11173295956E+01
 0.10886717686E+01 0.10886712756E+01 0.13363072698E+01 0.13912187094E+01 0.14755031615E+01
 0.15947585964E+01 0.17538014266E+01 0.19549053365E+01 0.21955350325E+01 0.24659966756E+01
 0.27480151072E+01 0.30154116018E+01 0.32375391312E+01 0.33851047290E+01 0.34368819182E+01
 0.33851066166E+01 0.32375454839E+01 0.30154228243E+01 0.27480273804E+01 0.24660042477E+01
 0.21955328021E+01 0.19548920981E+01 0.17537841024E+01 0.15947495370E+01 0.14755076900E+01
 0.13912282422E+01 0.13363105962E+01 0.13057068737E+01 0.12959241555E+01 0.13057091694E+01
 0.16454718464E+01 0.16834193756E+01 0.17443428216E+01 0.18336428446E+01 0.19549053365E+01
 0.21085635565E+01 0.22904068351E+01 0.24902520648E+01 0.26915368606E+01 0.28726657128E+01
 0.30104526735E+01 0.30850826095E+01 0.30850853998E+01 0.30104618752E+01 0.28726788286E+01
 0.26915432074E+01 0.24902407782E+01 0.22903802116E+01 0.21085379757E+01 0.19548974960E+01
 0.18336562235E+01 0.17443664375E+01 0.16834374966E+01 0.16454760096E+01 0.16245588849E+01
 0.16155878698E+01 0.16155916769E+01 0.16245643671E+01 0.20607212342E+01 0.20637683777E+01
 0.20837078873E+01 0.21265419907E+01 0.21955350325E+01 0.22904068351E+01 0.24066022752E+01
 0.25348021132E+01 0.26611942851E+01 0.27690890249E+01 0.28420484031E+01 0.28678780387E+01
 0.28420560894E+01 0.27690942470E+01 0.26611836380E+01 0.25347716652E+01 0.24065664424E+01
 0.22903903206E+01 0.21955505004E+01 0.21265762694E+01 0.20837342473E+01 0.20637723643E+01
 0.20607106423E+01 0.20668886963E+01 0.20745470270E+01 0.20778297268E+01 0.20745504968E+01
 0.20668985311E+01 0.25919164585E+01 0.25347996599E+01 0.24902528977E+01 0.24659979060E+01
 0.24659966756E+01 0.24902520648E+01 0.25348021132E+01 0.25919193752E+01 0.26508427452E+01
 0.26994560818E+01 0.27269785547E+01 0.27269842333E+01 0.26994606814E+01 0.26508262874E+01
 0.25918837133E+01 0.25347746032E+01 0.24902585478E+01 0.24660343419E+01 0.24660363551E+01
 0.24902616154E+01 0.25347754867E+01 0.25918846491E+01 0.26508294933E+01 0.26994628919E+01
 0.27269824896E+01 0.27269758792E+01 0.26994557231E+01 0.26508423459E+01 0.32352804245E+01
 0.30853911637E+01 0.29480227389E+01 0.28337609147E+01 0.27480151072E+01 0.26915368606E+01
 0.26611942851E+01 0.26508427452E+01 0.26524429605E+01 0.26577084999E+01 0.26602718307E+01
 0.26577132067E+01 0.26524306435E+01 0.26508107858E+01 0.26611747305E+01 0.26915583791E+01
 0.27480637634E+01 0.28337931490E+01 0.29480116790E+01 0.30853501910E+01 0.32352447666E+01
 0.33821508975E+01 0.35072070844E+01 0.35916798040E+01 0.36215653376E+01 0.35916597241E+01
 0.35071882583E+01 0.33821572889E+01 0.39665291310E+01 0.36862409134E+01 0.34261198188E+01
 0.32002439067E+01 0.30154116018E+01 0.28726657128E+01 0.27690890249E+01 0.26994560818E+01
 0.26577084999E+01 0.26384486520E+01 0.26384467458E+01 0.26576932924E+01 0.26994231309E+01
 0.27690655285E+01 0.28726832424E+01 0.30154592288E+01 0.32002749638E+01 0.34261068849E+01
 0.36862041541E+01 0.39665062450E+01 0.42451296334E+01 0.44938638618E+01 0.46822963400E+01
 0.47841760881E+01 0.47841704031E+01 0.46822800298E+01 0.44938442805E+01 0.42451245445E+01
 0.47369963051E+01 0.42889124201E+01 0.38800646830E+01 0.35273410771E+01 0.32375391312E+01
 0.30104526735E+01 0.28420484031E+01 0.27269785547E+01 0.26602718307E+01 0.26384467458E+01
 0.26602479067E+01 0.27269365392E+01 0.28420148418E+01 0.30104599413E+01 0.32375848838E+01
 0.35273833261E+01 0.38800690138E+01 0.42888886116E+01 0.47369777283E+01 0.51955502985E+01
 0.56248109057E+01 0.59785882886E+01 0.62126092077E+01 0.62945750370E+01 0.62126104833E+01
 0.59785840191E+01 0.56248010154E+01 0.51955488069E+01 0.54748820506E+01 0.48300420009E+01
 0.42576542893E+01 0.37746972525E+01 0.33851047290E+01 0.30850826095E+01 0.28678780387E+01
 0.27269842333E+01 0.26577132067E+01 0.26576932924E+01 0.27269365392E+01 0.28678367352E+01
 0.30850852798E+01 0.33851564044E+01 0.37747586746E+01 0.42576792719E+01 0.48300217303E+01
 0.54748441619E+01 0.61580820861E+01 0.68278895594E+01 0.74190614216E+01 0.78630031928E+01
 0.81016919452E+01 0.81016828964E+01 0.78629834351E+01 0.74190464576E+01 0.68278925184E+01
 0.61581078764E+01 0.60935719059E+01 0.52413380106E+01 0.45087813517E+01 0.39081907489E+01
 0.34368819182E+01 0.30850853998E+01 0.28420560894E+01 0.26994606814E+01 0.26524306435E+01
 0.26994231309E+01 0.28420148418E+01 0.30850852798E+01 0.34369383927E+01 0.39082670513E+01
 0.45088174089E+01 0.52413067255E+01 0.60935008194E+01 0.70308050467E+01 0.79924418462E+01
 0.88939396870E+01 0.96374672562E+01 0.10129461945E+02 0.10301781345E+02 0.10129407915E+02
 0.96373957595E+01 0.88938957146E+01 0.79924515626E+01 0.70308638045E+01 0.65076346699E+01
 0.54640789526E+01 0.45969566930E+01 0.39081912499E+01 0.33851066166E+01 0.30104618752E+01
 0.27690942470E+01 0.26508262874E+01 0.26508107858E+01 0.27690655285E+01 0.30104599413E+01
 0.33851564044E+01 0.39082670513E+01 0.45969937165E+01 0.54640355265E+01 0.65075395721E+01
 0.76998963000E+01 0.89791709171E+01 0.10247101527E+02 0.11376761897E+02 0.12231496127E+02
 0.12693340253E+02 0.12693313886E+02 0.12231424092E+02 0.11376668895E+02 0.10247031545E+02
 0.89791687331E+01 0.76999687069E+01 0.66535136124E+01 0.54640805877E+01 0.45087868712E+01
 0.37746970561E+01 0.32375454839E+01 0.28726788286E+01 0.26611836380E+01 0.25918837133E+01
 0.26611747305E+01 0.28726832424E+01 0.32375848838E+01 0.37747586746E+01 0.45088174089E+01
 0.54640355265E+01 0.66534180667E+01 0.80644290860E+01 0.96451692158E+01 0.11295686343E+02
 0.12868928009E+02 0.14185809130E+02 0.15067036182E+02 0.15377193145E+02 0.15067059733E+02
 0.14185799778E+02 0.12868851323E+02 0.11295587925E+02 0.96451348332E+01 0.80644896666E+01
 0.65076235106E+01 0.52413509261E+01 0.42576608467E+01 0.35273364888E+01 0.30154228243E+01
 0.26915432074E+01 0.25347716652E+01 0.25347746032E+01 0.26915583791E+01 0.30154592288E+01
 0.35273833261E+01 0.42576792719E+01 0.52413067255E+01 0.65075395721E+01 0.80644290860E+01
 0.98809356625E+01 0.11871251092E+02 0.13886203523E+02 0.15717611197E+02 0.17114916429E+02
 0.17867058588E+02 0.17867125991E+02 0.17115045948E+02 0.15717664281E+02 0.13886124186E+02
 0.11871118318E+02 0.98808703717E+01 0.80644702441E+01 0.60935827117E+01 0.48300703036E+01
 0.38800598993E+01 0.32002346867E+01 0.27480273804E+01 0.24902407782E+01 0.24065664424E+01
 0.24902585478E+01 0.27480637634E+01 0.32002749638E+01 0.38800690138E+01 0.48300217303E+01
 0.60935008194E+01 0.76998963000E+01 0.96451692158E+01 0.11871251092E+02 0.14248333743E+02
 0.16562084252E+02 0.18500550022E+02 0.19778818565E+02 0.20223940371E+02 0.19778973213E+02
 0.18500718683E+02 0.16562121822E+02 0.14248222417E+02 0.11871100123E+02 0.96450990722E+01
 0.76999344690E+01 0.54749294962E+01 0.42889333000E+01 0.34260947730E+01 0.28337551142E+01
 0.24660042477E+01 0.22903802116E+01 0.22903903206E+01 0.24660343419E+01 0.28337931490E+01
 0.34261068849E+01 0.42888886116E+01 0.54748441619E+01 0.70308050467E+01 0.89791709171E+01
 0.11295686343E+02 0.13886203523E+02 0.16562084252E+02 0.18990036080E+02 0.20814753769E+02
 0.21788800333E+02 0.21788885251E+02 0.20814936984E+02 0.18990167388E+02 0.16562065824E+02
 0.13886065458E+02 0.11295545930E+02 0.89791256698E+01 0.70308601699E+01 0.47370476349E+01
 0.36862256485E+01 0.29479898467E+01 0.24660050645E+01 0.21955328021E+01 0.21085379757E+01
 0.21955505004E+01 0.24660363551E+01 0.29480116790E+01 0.36862041541E+01 0.47369777283E+01
 0.61580820861E+01 0.79924418462E+01 0.10247101527E+02 0.12868928009E+02 0.15717611197E+02
 0.18500550022E+02 0.20814753769E+02 0.22336371861E+02 0.22865933917E+02 0.22336528041E+02
 0.20814940650E+02 0.18500627855E+02 0.15717539711E+02 0.12868783215E+02 0.10246997545E+02
 0.79924381755E+01 0.61581513636E+01 0.39665390207E+01 0.30853451342E+01 0.24902391104E+01
 0.21265590364E+01 0.19548920981E+01 0.19548974960E+01 0.21265762694E+01 0.24902616154E+01
 0.30853501910E+01 0.39665062450E+01 0.51955502985E+01 0.68278895594E+01 0.88939396870E+01
 0.11376761897E+02 0.14185809130E+02 0.17114916429E+02 0.19778818565E+02 0.21788800333E+02
 0.22865933917E+02 0.22866026552E+02 0.21788999801E+02 0.19778966458E+02 0.17114919384E+02
 0.14185702393E+02 0.11376650223E+02 0.88938996422E+01 0.68279234697E+01 0.51956083749E+01
 0.32352424380E+01 0.25347611502E+01 0.20837243684E+01 0.18336540872E+01 0.17537841024E+01
 0.18336562235E+01 0.20837342473E+01 0.25347754867E+01 0.32352447666E+01 0.42451296334E+01
 0.56248109057E+01 0.74190614216E+01 0.96374672562E+01 0.12231496127E+02 0.15067036182E+02
 0.17867058588E+02 0.20223940371E+02 0.21788885251E+02 0.22336528041E+02 0.21788999801E+02
 0.20224061388E+02 0.17867087798E+02 0.15066976862E+02 0.12231424708E+02 0.96374446099E+01
 0.74190889490E+01 0.56248527365E+01 0.42451532259E+01 0.25918662321E+01 0.20637653086E+01
 0.17443715835E+01 0.15947539945E+01 0.15947495370E+01 0.17443664375E+01 0.20637723643E+01
 0.25918846491E+01 0.33821508975E+01 0.44938638618E+01 0.59785882886E+01 0.78630031928E+01
 0.10129461945E+02 0.12693340253E+02 0.15377193145E+02 0.17867125991E+02 0.19778973213E+02
 0.20814936984E+02 0.20814940650E+02 0.19778966458E+02 0.17867087798E+02 0.15377143426E+02
 0.12693324276E+02 0.10129497140E+02 0.78630623601E+01 0.59786324755E+01 0.44938755199E+01
 0.33821376378E+01 0.20606947824E+01 0.16834423928E+01 0.14755193792E+01 0.14093253451E+01
 0.14755076900E+01 0.16834374966E+01 0.20607106423E+01 0.26508294933E+01 0.35072070844E+01
 0.46822963400E+01 0.62126092077E+01 0.81016919452E+01 0.10301781345E+02 0.12693313886E+02
 0.15067059733E+02 0.17115045948E+02 0.18500718683E+02 0.18990167388E+02 0.18500627855E+02
 0.17114919384E+02 0.15066976862E+02 0.12693324276E+02 0.10301867300E+02 0.81017890692E+01
 0.62126642546E+01 0.46822998319E+01 0.35071799052E+01 0.26507980390E+01 0.16454741438E+01
 0.13912408279E+01 0.12723020340E+01 0.12722941641E+01 0.13912282422E+01 0.16454760096E+01
 0.20668886963E+01 0.26994628919E+01 0.35916798040E+01 0.47841760881E+01 0.62945750370E+01
 0.81016828964E+01 0.10129407915E+02 0.12231424092E+02 0.14185799778E+02 0.15717664281E+02
 0.16562121822E+02 0.16562065824E+02 0.15717539711E+02 0.14185702393E+02 0.12231424708E+02
 0.10129497140E+02 0.81017890692E+01 0.62946337116E+01 0.47841756718E+01 0.35916468476E+01
 0.26994260734E+01 0.20668655377E+01 0.13363204059E+01 0.11770308684E+01 0.11262189350E+01
 0.11770203270E+01 0.13363105962E+01 0.16245588849E+01 0.20745470270E+01 0.27269824896E+01
 0.36215653376E+01 0.47841704031E+01 0.62126104833E+01 0.78629834351E+01 0.96373957595E+01
 0.11376668895E+02 0.12868851323E+02 0.13886124186E+02 0.14248222417E+02 0.13886065458E+02
 0.12868783215E+02 0.11376650223E+02 0.96374446099E+01 0.78630623601E+01 0.62126642546E+01
 0.47841756718E+01 0.36215394317E+01 0.27269535986E+01 0.20745303347E+01 0.16245573299E+01
 0.11173369129E+01 0.10286392201E+01 0.10286366666E+01 0.11173295956E+01 0.13057068737E+01
 0.16155878698E+01 0.20778297268E+01 0.27269758792E+01 0.35916597241E+01 0.46822800298E+01
 0.59785840191E+01 0.74190464576E+01 0.88938957146E+01 0.10247031545E+02 0.11295587925E+02
 0.11871118318E+02 0.11871100123E+02 0.11295545930E+02 0.10246997545E+02 0.88938996422E+01
 0.74190889490E+01 0.59786324755E+01 0.46822998319E+01 0.35916468476E+01 0.27269535986E+01
 0.20778194172E+01 0.16155919618E+01 0.13057163443E+01 0.97280631140E+00 0.93558461998E+00
 0.97280797935E+00 0.10886717686E+01 0.12959241555E+01 0.16155916769E+01 0.20745504968E+01
 0.26994557231E+01 0.35071882583E+01 0.44938442805E+01 0.56248010154E+01 0.68278925184E+01
 0.79924515626E+01 0.89791687331E+01 0.96451348332E+01 0.98808703717E+01 0.96450990722E+01
 0.89791256698E+01 0.79924381755E+01 0.68279234697E+01 0.56248527365E+01 0.44938755199E+01
 0.35071799052E+01 0.26994260734E+01 0.20745303347E+01 0.16155919618E+01 0.12959328130E+01
 0.10886752627E+01 0.89077192564E+00 0.89077481119E+00 0.95464501989E+00 0.10886712756E+01
 0.13057091694E+01 0.16245643671E+01 0.20668985311E+01 0.26508423459E+01 0.33821572889E+01
 0.42451245445E+01 0.51955488069E+01 0.61581078764E+01 0.70308638045E+01 0.76999687069E+01
 0.80644896666E+01 0.80644702441E+01 0.76999344690E+01 0.70308601699E+01 0.61581513636E+01
 0.51956083749E+01 0.42451532259E+01 0.33821376378E+01 0.26507980390E+01 0.20668655377E+01
 0.16245573299E+01 0.13057163443E+01 0.10886752627E+01 0.95464166662E+00 0.89077370959E+00
 0.93558346259E+00 0.10286383393E+01 0.11770228261E+01 0.13912199115E+01 0.16834209384E+01
 0.20637694223E+01 0.25348000015E+01 0.30853912637E+01 0.36862405034E+01 0.42889107598E+01
 0.48300394592E+01 0.52413358914E+01 0.54640778035E+01 0.54640801024E+01 0.52413513089E+01
 0.48300721243E+01 0.42889360508E+01 0.36862279827E+01 0.30853465221E+01 0.25347619073E+01
 0.20637652036E+01 0.16834408221E+01 0.13912382919E+01 0.11770287120E+01 0.10286379162E+01
 0.93558371224E+00 0.89077437257E+00 0.93558346259E+00 0.98998674142E+00 0.10848521178E+01
 0.12265528040E+01 0.14234208760E+01 0.16838098308E+01 0.20125961625E+01 0.24066013701E+01
 0.28502831658E+01 0.33135284816E+01 0.37531157046E+01 0.41185131582E+01 0.43613892480E+01
 0.44466397885E+01 0.43613985402E+01 0.41185280994E+01 0.37531191971E+01 0.33135019384E+01
 0.28502353276E+01 0.24065683357E+01 0.20126029780E+01 0.16838435148E+01 0.14234498044E+01
 0.12265623455E+01 0.10848513278E+01 0.98998774495E+00 0.93558673389E+00 0.91786049267E+00
 0.10286383393E+01 0.10848521178E+01 0.11741280596E+01 0.13021030533E+01 0.14751249005E+01
 0.16982791704E+01 0.19723646338E+01 0.22904088233E+01 0.26350262758E+01 0.29781229520E+01
 0.32838551841E+01 0.35146630532E+01 0.36390710435E+01 0.36390738483E+01 0.35146654998E+01
 0.32838444453E+01 0.29780936420E+01 0.26349926222E+01 0.22903957769E+01 0.19723817455E+01
 0.16983093700E+01 0.14751443020E+01 0.13021053867E+01 0.11741237955E+01 0.10848507147E+01
 0.10286400002E+01 0.10015272138E+01 0.10015261114E+01 0.11770228261E+01 0.12265528040E+01
 0.13021030533E+01 0.14088204548E+01 0.15514835645E+01 0.17326675265E+01 0.19503439077E+01
 0.21955370209E+01 0.24511486903E+01 0.26929818506E+01 0.28932547670E+01 0.30259250671E+01
 0.30723997045E+01 0.30259259166E+01 0.28932482058E+01 0.26929660418E+01 0.24511363844E+01
 0.21955426670E+01 0.19503642846E+01 0.17326831872E+01 0.15514817887E+01 0.14088090470E+01
 0.13020967191E+01 0.12265538751E+01 0.11770237218E+01 0.11491852075E+01 0.11402299030E+01
 0.11491868546E+01 0.13912199115E+01 0.14234208760E+01 0.14751249005E+01 0.15514835645E+01
 0.16562923831E+01 0.17904561250E+01 0.19503431361E+01 0.21265419764E+01 0.23037988214E+01
 0.24627029510E+01 0.25830358114E+01 0.26479823565E+01 0.26479835637E+01 0.25830364442E+01
 0.24627001061E+01 0.23037970230E+01 0.21265474274E+01 0.19503521663E+01 0.17904572126E+01
 0.16562818456E+01 0.15514724410E+01 0.14751252004E+01 0.14234298034E+01 0.13912248103E+01
 0.13733076900E+01 0.13655098533E+01 0.13655131152E+01 0.13733111311E+01 0.16834209384E+01
 0.16838098308E+01 0.16982791704E+01 0.17326675265E+01 0.17904561250E+01 0.18717297698E+01
 0.19723641913E+01 0.20837085821E+01 0.21931977333E+01 0.22861700002E+01 0.23487038299E+01
 0.23707687809E+01 0.23487049700E+01 0.22861682149E+01 0.21931914098E+01 0.20837005636E+01
 0.19723570702E+01 0.18717239655E+01 0.17904534267E+01 0.17326714158E+01 0.16982891630E+01
 0.16838191803E+01 0.16834229575E+01 0.16901513049E+01 0.16973957878E+01 0.17003925990E+01
 0.16974012174E+01 0.16901562564E+01 0.20637694223E+01 0.20125961625E+01 0.19723646338E+01
 0.19503439077E+01 0.19503431361E+01 0.19723641913E+01 0.20125979686E+01 0.20637716849E+01
 0.21160725330E+01 0.21588417244E+01 0.21828997947E+01 0.21828996859E+01 0.21588371833E+01
 0.21160588425E+01 0.20637542136E+01 0.20125883368E+01 0.19723683244E+01 0.19503571710E+01
 0.19503586965E+01 0.19723709205E+01 0.20125897504E+01 0.20637556735E+01 0.21160615657E+01
 0.21588389062E+01 0.21828984613E+01 0.21828976673E+01 0.21588409590E+01 0.21160717681E+01
 0.25348000015E+01 0.24066013701E+01 0.22904088233E+01 0.21955370209E+01 0.21265419764E+01
 0.20837085821E+01 0.20637716849E+01 0.20607242529E+01 0.20668989113E+01 0.20745504012E+01
 0.20778306424E+01 0.20745461314E+01 0.20668843843E+01 0.20607063338E+01 0.20637708766E+01
 0.20837336394E+01 0.21265750204E+01 0.21955512853E+01 0.22903946375E+01 0.24065708546E+01
 0.25347733718E+01 0.26611845619E+01 0.27690958622E+01 0.28420557042E+01 0.28678741894E+01
 0.28420445379E+01 0.27690878190E+01 0.26611935255E+01 0.30853912637E+01 0.28502831658E+01
 0.26350262758E+01 0.24511486903E+01 0.23037988214E+01 0.21931977333E+01 0.21160725330E+01
 0.20668989113E+01 0.20391930337E+01 0.20270984090E+01 0.20270947934E+01 0.20391801683E+01
 0.20668832466E+01 0.21160770143E+01 0.21932347817E+01 0.23038430797E+01 0.24511582879E+01
 0.26349908812E+01 0.28502350248E+01 0.30853678787E+01 0.33217186582E+01 0.35345730698E+01
 0.36968357844E+01 0.37848924362E+01 0.37848852138E+01 0.36968156000E+01 0.35345485655E+01
 0.33217092462E+01 0.36862405034E+01 0.33135284816E+01 0.29781229520E+01 0.26929818506E+01
 0.24627029510E+01 0.22861700002E+01 0.21588417244E+01 0.20745504012E+01 0.20270984090E+01
 0.20118516924E+01 0.20270853442E+01 0.20745348602E+01 0.21588461684E+01 0.22862071089E+01
 0.24627481081E+01 0.26929892713E+01 0.29780796635E+01 0.33134753713E+01 0.36862273154E+01
 0.40728434547E+01 0.44392670228E+01 0.47444440424E+01 0.49478619194E+01 0.50193963148E+01
 0.49478606678E+01 0.47444245954E+01 0.44392264137E+01 0.40728117180E+01 0.42889107598E+01
 0.37531157046E+01 0.32838551841E+01 0.28932547670E+01 0.25830358114E+01 0.23487038299E+01
 0.21828997947E+01 0.20778306424E+01 0.20270947934E+01 0.20270853442E+01 0.20778145420E+01
 0.21829038100E+01 0.23487414826E+01 0.25830833160E+01 0.28932668070E+01 0.32838159111E+01
 0.37530636948E+01 0.42888990556E+01 0.48646782728E+01 0.54372450853E+01 0.59493728259E+01
 0.63381838469E+01 0.65487466275E+01 0.65487554680E+01 0.63381937047E+01 0.59493545836E+01
 0.54371976525E+01 0.48646405888E+01 0.48300394592E+01 0.41185131582E+01 0.35146630532E+01
 0.30259250671E+01 0.26479823565E+01 0.23707687809E+01 0.21828996859E+01 0.20745461314E+01
 0.20391801683E+01 0.20745348602E+01 0.21829038100E+01 0.23708075004E+01 0.26480359915E+01
 0.30259471823E+01 0.35146308847E+01 0.41184583484E+01 0.48300168260E+01 0.56234697749E+01
 0.64495676850E+01 0.72354087736E+01 0.78920083298E+01 0.83307292364E+01 0.84852148809E+01
 0.83307435927E+01 0.78920130137E+01 0.72353814777E+01 0.64495184698E+01 0.56234407303E+01
 0.52413358914E+01 0.43613892480E+01 0.36390710435E+01 0.30723997045E+01 0.26479835637E+01
 0.23487049700E+01 0.21588371833E+01 0.20668843843E+01 0.20668832466E+01 0.21588461684E+01
 0.23487414826E+01 0.26480359915E+01 0.30724262265E+01 0.36390419891E+01 0.43613265225E+01
 0.52412978064E+01 0.62600482757E+01 0.73687703891E+01 0.84839294680E+01 0.94911538600E+01
 0.10261721727E+02 0.10681091046E+02 0.10681105096E+02 0.10261745208E+02 0.94911492153E+01
 0.84838808277E+01 0.73687080670E+01 0.62600254157E+01 0.54640778035E+01 0.44466397885E+01
 0.36390738483E+01 0.30259259166E+01 0.25830364442E+01 0.22861682149E+01 0.21160588425E+01
 0.20607063338E+01 0.21160770143E+01 0.22862071089E+01 0.25830833160E+01 0.30259471823E+01
 0.36390419891E+01 0.44465703625E+01 0.54640302956E+01 0.66862811304E+01 0.80743056635E+01
 0.95442776666E+01 0.10964428247E+02 0.12166707343E+02 0.12977862633E+02 0.13264991165E+02
 0.12977936285E+02 0.12166779300E+02 0.10964422970E+02 0.95441931888E+01 0.80742128747E+01
 0.66862535246E+01 0.54640801024E+01 0.43613985402E+01 0.35146654998E+01 0.28932482058E+01
 0.24627001061E+01 0.21931914098E+01 0.20637542136E+01 0.20637708766E+01 0.21932347817E+01
 0.24627481081E+01 0.28932668070E+01 0.35146308847E+01 0.43613265225E+01 0.54640302956E+01
 0.68364947922E+01 0.84589748222E+01 0.10261104659E+02 0.12109450072E+02 0.13808719439E+02
 0.15127540197E+02 0.15852103733E+02 0.15852188468E+02 0.15127720491E+02 0.13808844286E+02
 0.12109429286E+02 0.10260976556E+02 0.84588520586E+01 0.68364597704E+01 0.52413513089E+01
 0.41185280994E+01 0.32838444453E+01 0.26929660418E+01 0.23037970230E+01 0.20837005636E+01
 0.20125883368E+01 0.20837336394E+01 0.23038430797E+01 0.26929892713E+01 0.32838159111E+01
 0.41184583484E+01 0.52412978064E+01 0.66862811304E+01 0.84589748222E+01 0.10515067285E+02
 0.12739026353E+02 0.14931438936E+02 0.16820434547E+02 0.18111664673E+02 0.18571939195E+02
 0.18111847778E+02 0.16820660257E+02 0.14931549080E+02 0.12738969451E+02 0.10514917141E+02
 0.84588502239E+01 0.66862524430E+01 0.48300721243E+01 0.37531191971E+01 0.29780936420E+01
 0.24511363844E+01 0.21265474274E+01 0.19723570702E+01 0.19723683244E+01 0.21265750204E+01
 0.24511582879E+01 0.29780796635E+01 0.37530636948E+01 0.48300168260E+01 0.62600482757E+01
 0.80743056635E+01 0.10261104659E+02 0.12739026353E+02 0.15331655043E+02 0.17759389690E+02
 0.19671219363E+02 0.20728584374E+02 0.20728659639E+02 0.19671393332E+02 0.17759547609E+02
 0.15331704266E+02 0.12738955436E+02 0.10260979641E+02 0.80742159378E+01 0.62600419831E+01
 0.42889360508E+01 0.33135019384E+01 0.26349926222E+01 0.21955426670E+01 0.19503521663E+01
 0.18717239655E+01 0.19503571710E+01 0.21955512853E+01 0.26349908812E+01 0.33134753713E+01
 0.42888990556E+01 0.56234697749E+01 0.73687703891E+01 0.95442776666E+01 0.12109450072E+02
 0.14931438936E+02 0.17759389690E+02 0.20229046932E+02 0.21924440377E+02 0.22528245493E+02
 0.21924492938E+02 0.20229127716E+02 0.17759459434E+02 0.14931460808E+02 0.12109413115E+02
 0.95442116421E+01 0.73687272379E+01 0.56234771840E+01 0.36862279827E+01 0.28502353276E+01
 0.22903957769E+01 0.19503642846E+01 0.17904572126E+01 0.17904534267E+01 0.19503586965E+01
 0.22903946375E+01 0.28502350248E+01 0.36862273154E+01 0.48646782728E+01 0.64495676850E+01
 0.84839294680E+01 0.10964428247E+02 0.13808719439E+02 0.16820434547E+02 0.19671219363E+02
 0.21924440377E+02 0.23169849924E+02 0.23169841898E+02 0.21924428735E+02 0.19671228791E+02
 0.16820473730E+02 0.13808765626E+02 0.10964448295E+02 0.84839166742E+01 0.64495460408E+01
 0.48646691244E+01 0.30853465221E+01 0.24065683357E+01 0.19723817455E+01 0.17326831872E+01
 0.16562818456E+01 0.17326714158E+01 0.19723709205E+01 0.24065708546E+01 0.30853678787E+01
 0.40728434547E+01 0.54372450853E+01 0.72354087736E+01 0.94911538600E+01 0.12166707343E+02
 0.15127540197E+02 0.18111664673E+02 0.20728584374E+02 0.22528245493E+02 0.23169841898E+02
 0.22528185716E+02 0.20728513233E+02 0.18111644773E+02 0.15127595904E+02 0.12166800016E+02
 0.94912182068E+01 0.72354137848E+01 0.54372107974E+01 0.40728058785E+01 0.25347619073E+01
 0.20126029780E+01 0.16983093700E+01 0.15514817887E+01 0.15514724410E+01 0.16982891630E+01
 0.20125897504E+01 0.25347733718E+01 0.33217186582E+01 0.44392670228E+01 0.59493728259E+01
 0.78920083298E+01 0.10261721727E+02 0.12977862633E+02 0.15852103733E+02 0.18571939195E+02
 0.20728659639E+02 0.21924492938E+02 0.21924428735E+02 0.20728513233E+02 0.18571817792E+02
 0.15852096445E+02 0.12977968392E+02 0.10261853571E+02 0.78920759179E+01 0.59493566365E+01
 0.44392119670E+01 0.33216755519E+01 0.20637652036E+01 0.16838435148E+01 0.14751443020E+01
 0.14088090470E+01 0.14751252004E+01 0.16838191803E+01 0.20637556735E+01 0.26611845619E+01
 0.35345730698E+01 0.47444440424E+01 0.63381838469E+01 0.83307292364E+01 0.10681091046E+02
 0.13264991165E+02 0.15852188468E+02 0.18111847778E+02 0.19671393332E+02 0.20229127716E+02
 0.19671228791E+02 0.18111644773E+02 0.15852096445E+02 0.13265062065E+02 0.10681246885E+02
 0.83308456531E+01 0.63382003028E+01 0.47443919487E+01 0.35345171207E+01 0.26611615856E+01
 0.16834408221E+01 0.14234498044E+01 0.13021053867E+01 0.13020967191E+01 0.14234298034E+01
 0.16834229575E+01 0.21160615657E+01 0.27690958622E+01 0.36968357844E+01 0.49478619194E+01
 0.65487466275E+01 0.84852148809E+01 0.10681105096E+02 0.12977936285E+02 0.15127720491E+02
 0.16820660257E+02 0.17759547609E+02 0.17759459434E+02 0.16820473730E+02 0.15127595904E+02
 0.12977968392E+02 0.10681246885E+02 0.84853407236E+01 0.65487757376E+01 0.49478117633E+01
 0.36967724412E+01 0.27690627650E+01 0.21160614729E+01 0.13912382919E+01 0.12265623455E+01
 0.11741237955E+01 0.12265538751E+01 0.13912248103E+01 0.16901513049E+01 0.21588389062E+01
 0.28420557042E+01 0.37848924362E+01 0.50193963148E+01 0.65487554680E+01 0.83307435927E+01
 0.10261745208E+02 0.12166779300E+02 0.13808844286E+02 0.14931549080E+02 0.15331704266E+02
 0.14931460808E+02 0.13808765626E+02 0.12166800016E+02 0.10261853571E+02 0.83308456531E+01
 0.65487757376E+01 0.50193428758E+01 0.37848265640E+01 0.28420218535E+01 0.21588377973E+01
 0.16901640417E+01 0.11770287120E+01 0.10848513278E+01 0.10848507147E+01 0.11770237218E+01
 0.13733076900E+01 0.16973957878E+01 0.21828984613E+01 0.28678741894E+01 0.37848852138E+01
 0.49478606678E+01 0.63381937047E+01 0.78920130137E+01 0.94911492153E+01 0.10964422970E+02
 0.12109429286E+02 0.12738969451E+02 0.12738955436E+02 0.12109413115E+02 0.10964448295E+02
 0.94912182068E+01 0.78920759179E+01 0.63382003028E+01 0.49478117633E+01 0.37848265640E+01
 0.28678471833E+01 0.21829068797E+01 0.16974170516E+01 0.13733224484E+01 0.10286379162E+01
 0.98998774495E+00 0.10286400002E+01 0.11491852075E+01 0.13655098533E+01 0.17003925990E+01
 0.21828976673E+01 0.28420445379E+01 0.36968156000E+01 0.47444245954E+01 0.59493545836E+01
 0.72353814777E+01 0.84838808277E+01 0.95441931888E+01 0.10260976556E+02 0.10514917141E+02
 0.10260979641E+02 0.95442116421E+01 0.84839166742E+01 0.72354137848E+01 0.59493566365E+01
 0.47443919487E+01 0.36967724412E+01 0.28420218535E+01 0.21829068797E+01 0.17004196748E+01
 0.13655320711E+01 0.11491919515E+01 0.93558371224E+00 0.93558673389E+00 0.10015272138E+01
 0.11402299030E+01 0.13655131152E+01 0.16974012174E+01 0.21588409590E+01 0.27690878190E+01
 0.35345485655E+01 0.44392264137E+01 0.54371976525E+01 0.64495184698E+01 0.73687080670E+01
 0.80742128747E+01 0.84588520586E+01 0.84588502239E+01 0.80742159378E+01 0.73687272379E+01
 0.64495460408E+01 0.54372107974E+01 0.44392119670E+01 0.35345171207E+01 0.27690627650E+01
 0.21588377973E+01 0.16974170516E+01 0.13655320711E+01 0.11402381087E+01 0.10015245350E+01
 0.89077437257E+00 0.91786049267E+00 0.10015261114E+01 0.11491868546E+01 0.13733111311E+01
 0.16901562564E+01 0.21160717681E+01 0.26611935255E+01 0.33217092462E+01 0.40728117180E+01
 0.48646405888E+01 0.56234407303E+01 0.62600254157E+01 0.66862535246E+01 0.68364597704E+01
 0.66862524430E+01 0.62600419831E+01 0.56234771840E+01 0.48646691244E+01 0.40728058785E+01
 0.33216755519E+01 0.26611615856E+01 0.21160614729E+01 0.16901640417E+01 0.13733224484E+01
 0.11491919515E+01 0.10015245350E+01 0.91785733377E+00 0.97280721178E+00 0.10286398665E+01
 0.11262266492E+01 0.12723041761E+01 0.14755044041E+01 0.17443441849E+01 0.20837078713E+01
 0.24902515515E+01 0.29480212045E+01 0.34261179222E+01 0.38800616274E+01 0.42576511362E+01
 0.45087801481E+01 0.45969576023E+01 0.45087886095E+01 0.42576632593E+01 0.38800634948E+01
 0.34260983716E+01 0.29479914225E+01 0.24902385427E+01 0.20837229278E+01 0.17443693755E+01
 0.14755158705E+01 0.12722984126E+01 0.11262172047E+01 0.10286368408E+01 0.97280864570E+00
 0.95464604966E+00 0.10286398665E+01 0.10848533442E+01 0.11741284870E+01 0.13021030112E+01
 0.14751249401E+01 0.16982789832E+01 0.19723636049E+01 0.22904071784E+01 0.26350246759E+01
 0.29781214859E+01 0.32838538053E+01 0.35146624559E+01 0.36390719637E+01 0.36390759061E+01
 0.35146677313E+01 0.32838464907E+01 0.29780954261E+01 0.26349934703E+01 0.22903950195E+01
 0.19723797919E+01 0.16983071662E+01 0.14751421882E+01 0.13021034463E+01 0.11741227154E+01
 0.10848511385E+01 0.10286414643E+01 0.10015287690E+01 0.10015275546E+01 0.11262266492E+01
 0.11741284870E+01 0.12469428724E+01 0.13496392654E+01 0.14869729330E+01 0.16616214737E+01