unknown system                          
   1.00000000000000     
    -2.450000    2.450000    1.274000
     2.450000   -2.450000    1.274000
     2.450000    2.450000   -1.274000
   Si
     2
Direct
  0.250000  0.750000  0.500000
  0.000000  0.000000  0.000000
 
   28   28   28
 -5.4776     -3.9427     0.42992E-01  4.9475      9.0877      11.369      11.624      10.458      8.7873      7.1847    
  5.8250      4.7780      4.0518      3.6284      3.4895      3.6283      4.0519      4.7781      5.8251      7.1847    
  8.7873      10.458      11.624      11.369      9.0878      4.9476     0.42943E-01 -3.9429     -3.9429     -4.7474    
 -2.6074      1.6099      6.3014      9.9115      11.583      11.369      9.9883      8.3164      6.7742      5.4995    
  4.5426      3.9014      3.5556      3.4895      3.6996      4.1957      4.9973      6.1187      7.5414      9.1782    
  10.811      11.760      11.140      8.4936      4.1917     -.51526     0.42943E-01 -2.6075     -2.6906     -.18234    
  3.8885      7.9767      10.762      11.674      10.969      9.4267      7.7901      6.3324      5.1598      4.3031    
  3.7516      3.4848      3.4896      3.7658      4.3256      5.1886      6.3648      7.8255      9.4700      11.042    
  11.818      10.996      8.2773      4.1917      4.9476      1.6099     -.18236     0.32354      2.8993      6.4641    
  9.6477      11.438      11.557      10.425      8.8097      7.2375      5.8836      4.8240      4.0716      3.6099    
  3.4193      3.4898      3.8236      4.4346      5.3418      6.5502      8.0228      9.6500      11.156      11.832    
  10.996      8.4936      9.0878      6.3014      3.8885      2.8994      3.7768      6.1186      8.9018      11.018    
  11.791      11.204      9.7788      8.1724      6.6892      5.4523      4.5095      3.8597      3.4832      3.3624    
  3.4900      3.8699      4.5170      5.4487      6.6654      8.1237      9.7108      11.156      11.818      11.140    
  11.369      9.9115      7.9767      6.4641      6.1187      7.1208      8.9875      10.845      11.889      11.762    
  10.651      9.1001      7.5507      6.1754      5.0608      4.2316      3.6773      3.3776      3.3170      3.4901    
  3.9022      4.5683      5.5036      6.7044      8.1237      9.6500      11.042      11.760      11.624      11.583    
  10.762      9.6476      8.9019      8.9876      9.8961      11.151      12.084      12.196      11.394      9.9906    
  8.4419      6.9791      5.7222      4.7275      4.0030      3.5331      3.2983      3.2853      3.4902      3.9188    
  4.5858      5.5036      6.6654      8.0228      9.4700      10.811      10.458      11.369      11.674      11.438    
  11.018      10.845      11.151      11.820      12.449      12.591      12.012      10.811      9.3326      7.8440    
  6.4877      5.3506      4.4666      3.8332      3.4333      3.2491      3.2691      3.4902      3.9188      4.5683    
  5.4487      6.5502      7.8255      9.1782      8.7873      9.9884      10.969      11.557      11.791      11.889    
  12.084      12.449      12.825      12.920      12.493      11.512      10.179      8.7383      7.3416      6.1001    
  5.0758      4.2877      3.7288      3.3823      3.2324      3.2691      3.4902      3.9022      4.5170      5.3418    
  6.3648      7.5414      7.1847      8.3164      9.4267      10.425      11.204      11.762      12.196      12.591    
  12.920      13.038      12.767      12.029      10.918      9.6111      8.2511      6.9627      5.8331      4.9074    
  4.1970      3.6936      3.3823      3.2491      3.2853      3.4901      3.8699      4.4346      5.1886      6.1187    
  5.8251      6.7742      7.7901      8.8097      9.7789      10.651      11.394      12.012      12.493      12.767    
  12.721      12.280      11.470      10.391      9.1620      7.9059      6.7275      5.6972      4.8507      4.1970    
  3.7288      3.4333      3.2983      3.3170      3.4900      3.8236      4.3256      4.9973      4.7781      5.4996    
  6.3323      7.2374      8.1724      9.1001      9.9907      10.811      11.512      12.029      12.280      12.196    
  11.756      10.997      10.000      8.8743      7.7271      6.6477      5.6972      4.9074      4.2877      3.8332    
  3.5331      3.3776      3.3624      3.4898      3.7658      4.1957      4.0519      4.5427      5.1598      5.8836    
  6.6892      7.5507      8.4419      9.3326      10.179      10.918      11.470      11.756      11.719      11.349    
  10.682      9.7920      8.7753      7.7271      6.7275      5.8331      5.0758      4.4666      4.0030      3.6773    
  3.4832      3.4193      3.4896      3.6996      3.6283      3.9013      4.3031      4.8240      5.4523      6.1754    
  6.9791      7.8440      8.7383      9.6111      10.392      10.997      11.349      11.397      11.128      10.571    
  9.7920      8.8743      7.9059      6.9627      6.1001      5.3506      4.7275      4.2316      3.8597      3.6099    
  3.4848      3.4895      3.4895      3.5555      3.7515      4.0716      4.5095      5.0608      5.7222      6.4877    
  7.3415      8.2511      9.1620      10.000      10.682      11.128      11.283      11.128      10.682      10.000    
  9.1620      8.2511      7.3416      6.4877      5.7222      5.0608      4.5095      4.0716      3.7516      3.5556    
  3.6284      3.4895      3.4847      3.6098      3.8596      4.2316      4.7275      5.3507      6.1001      6.9627    
  7.9059      8.8743      9.7920      10.571      11.128      11.397      11.349      10.997      10.391      9.6111    
  8.7383      7.8440      6.9791      6.1754      5.4523      4.8240      4.3031      3.9014      4.0518      3.6996    
  3.4896      3.4192      3.4831      3.6773      4.0030      4.4666      5.0758      5.8331      6.7274      7.7270    
  8.7753      9.7920      10.682      11.349      11.719      11.756      11.470      10.918      10.179      9.3326    
  8.4419      7.5507      6.6892      5.8836      5.1598      4.5426      4.7780      4.1956      3.7657      3.4898    
  3.3624      3.3775      3.5330      3.8332      4.2878      4.9075      5.6972      6.6477      7.7270      8.8743    
  10.000      10.997      11.756      12.196      12.280      12.029      11.512      10.811      9.9906      9.1001    
  8.1724      7.2375      6.3324      5.4995      5.8250      4.9972      4.3255      3.8235      3.4899      3.3170    
  3.2983      3.4333      3.7288      4.1970      4.8508      5.6972      6.7274      7.9059      9.1620      10.392    
  11.470      12.280      12.721      12.767      12.493      12.012      11.394      10.651      9.7788      8.8097    
  7.7901      6.7742      7.1847      6.1187      5.1885      4.4345      3.8698      3.4901      3.2854      3.2492    
  3.3823      3.6936      4.1970      4.9075      5.8331      6.9627      8.2511      9.6111      10.918      12.029    
  12.767      13.038      12.920      12.591      12.196      11.762      11.204      10.425      9.4267      8.3164    
  8.7873      7.5414      6.3648      5.3418      4.5170      3.9022      3.4902      3.2692      3.2326      3.3823    
  3.7288      4.2878      5.0758      6.1001      7.3415      8.7383      10.179      11.512      12.493      12.920    
  12.825      12.449      12.084      11.889      11.791      11.557      10.969      9.9883      10.458      9.1781    
  7.8255      6.5503      5.4488      4.5684      3.9188      3.4902      3.2692      3.2492      3.4333      3.8332    
  4.4666      5.3507      6.4877      7.8440      9.3326      10.811      12.012      12.591      12.449      11.820    
  11.151      10.845      11.018      11.438      11.674      11.369      11.624      10.811      9.4700      8.0227    
  6.6654      5.5038      4.5858      3.9188      3.4902      3.2854      3.2983      3.5330      4.0030      4.7275    
  5.7222      6.9791      8.4419      9.9907      11.394      12.196      12.084      11.151      9.8961      8.9875    
  8.9018      9.6477      10.762      11.583      11.369      11.760      11.042      9.6500      8.1237      6.7045    
  5.5038      4.5684      3.9022      3.4901      3.3170      3.3775      3.6773      4.2316      5.0608      6.1754    
  7.5507      9.1001      10.651      11.762      11.889      10.845      8.9876      7.1208      6.1186      6.4641    
  7.9767      9.9115      9.0877      11.140      11.818      11.156      9.7108      8.1237      6.6654      5.4488    
  4.5170      3.8698      3.4899      3.3624      3.4831      3.8596      4.5095      5.4523      6.6892      8.1724    
  9.7789      11.204      11.791      11.018      8.9019      6.1187      3.7768      2.8993      3.8885      6.3014    
  4.9475      8.4934      10.996      11.832      11.156      9.6500      8.0227      6.5503      5.3418      4.4345    
  3.8235      3.4898      3.4192      3.6098      4.0716      4.8240      5.8836      7.2374      8.8097      10.425    
  11.557      11.438      9.6476      6.4641      2.8994     0.32354     -.18234      1.6099     0.42992E-01  4.1915    
  8.2771      10.996      11.818      11.042      9.4700      7.8255      6.3648      5.1885      4.3255      3.7657    
  3.4896      3.4847      3.7515      4.3031      5.1598      6.3323      7.7901      9.4267      10.969      11.674    
  10.762      7.9767      3.8885     -.18236     -2.6906     -2.6074     -3.9427     -.51520      4.1915      8.4934    
  11.140      11.760      10.811      9.1781      7.5414      6.1187      4.9972      4.1956      3.6996      3.4895    
  3.5555      3.9013      4.5427      5.4996      6.7742      8.3164      9.9884      11.369      11.583      9.9115    
  6.3014      1.6099     -2.6075     -4.7474     -3.9422     -2.8251     0.64228      5.1075      8.9899      11.192    
  11.471      10.348      8.6915      7.0842      5.7091      4.6415      3.8921      3.4417      3.2688      3.3634    
  3.7314      4.3916      5.3659      6.6543      8.1996      9.8537      11.161      11.261      9.5113      5.9612    
  1.5293     -2.2611     -2.8252     -3.9422     -2.2609      1.5294      5.9612      9.5115      11.261      11.161    
  9.8537      8.1997      6.6545      5.3660      4.3915      3.7314      3.3635      3.2688      3.4416      3.8921    
  4.6415      5.7090      7.0840      8.6914      10.348      11.471      11.192      8.9898      5.1075     0.64219    
 0.77883     -2.1105     -2.6069     -.52668      3.2603      7.2836      10.187      11.293      10.753      9.2868    
  7.6674      6.2065      5.0218      4.1513      3.5857      3.3022      3.2851      3.5335      4.0607      4.8892    
  6.0338      7.4736      9.1188      10.750      11.709      11.179      8.7794      4.9165      5.4417      1.9189    
 -.24806     -.18204      2.0547      5.4988      8.7899      10.825      11.199      10.235      8.6787      7.1205    
  5.7628      4.6935      3.9316      3.4611      3.2601      3.3170      3.6347      4.2290      5.1218      6.3232    
  7.8030      9.4607      11.051      11.900      11.282      8.9577      9.5008      6.5827      3.8475      2.4226    
  2.8994      5.0225      7.8337      10.177      11.254      10.921      9.6286      8.0602      6.5861      5.3451    
  4.3960      3.7419      3.3626      3.2387      3.3626      3.7401      4.3882      5.3270      6.5615      8.0544    
  9.6993      11.244      12.052      11.512      11.818      10.289      8.1106      6.2076      5.4343      6.1185    
  7.8866      9.8769      11.200      11.367      10.458      8.9853      7.4609      6.0901      4.9729      4.1423    
  3.5897      3.2939      3.2387      3.4197      3.8442      4.5294      5.4931      6.7353      8.2135      9.8200    
  11.319      12.149      12.154      12.108      11.141      9.7259      8.5852      8.3001      8.9873      10.236    
  11.349      11.724      11.151      9.8694      8.3592      6.9107      5.6562      4.6625      3.9426      3.4812    
  3.2580      3.2602      3.4853      3.9414      4.6448      5.6104      6.8340      8.2698      9.8129      11.260    
  11.054      12.019      12.276      11.857      11.131      10.604      10.619      11.151      11.822      12.133    
  11.750      10.684      9.2541      7.7858      6.4369      5.3036      4.4262      3.8046      3.4208      3.2568    
  3.3023      3.5561      4.0263      4.7276      5.6718      6.8509      8.2178      9.6736      9.4054      10.697    
  11.711      12.230      12.277      12.099      12.005      12.155      12.449      12.590      12.277      11.399    
  10.110      8.6859      7.2980      6.0624      5.0468      4.2729      3.7337      3.4115      3.2910      3.3636    
  3.6287      4.0943      4.7730      5.6732      6.7836      8.0578      7.7965      9.0203      10.204      11.222    
  11.928      12.317      12.522      12.693      12.865      12.920      12.663      11.965      10.869      9.5641    
  8.2076      6.9243      5.8046      4.8956      4.2082      3.7331      3.4548      3.3600      3.4416      3.6998    
  4.1418      4.7782      5.6138      6.6347      6.4118      7.4478      8.5394      9.6084      10.583      11.387    
  11.988      12.425      12.734      12.881      12.766      12.292      11.451      10.351      9.1125      7.8561    
  6.6868      5.6753      4.8558      4.2350      3.8041      3.5502      3.4618      3.5333      3.7657      4.1662    
  4.7428      5.4966      5.3277      6.1271      7.0317      7.9915      8.9509      9.8609      10.685      11.389    
  11.946      12.322      12.456      12.280      11.769      10.963      9.9387      8.8021      7.6602      6.6005    
  5.6809      4.9299      4.3535      3.9454      3.6948      3.5923      3.6343      3.8233      4.1662      4.6685    
  4.5593      5.1166      5.7971      6.5733      7.4105      8.2724      9.1257      9.9395      10.678      11.291    
  11.716      11.887      11.756      11.315      10.600      9.6860      8.6676      7.6378      6.6726      5.8233    
  5.1170      4.5615      4.1530      3.8832      3.7457      3.7396      3.8695      4.1417      4.0941      4.4211    
  4.8750      5.4411      6.1003      6.8317      7.6142      8.4247      9.2336      9.9980      10.659      11.145    
  11.390      11.349      11.015      10.420      9.6300      8.7275      7.7954      6.9031      6.0996      5.4127    
  4.8529      4.4193      4.1073      3.9145      3.8438      3.9017      3.9184      4.0260      4.2617      4.6167    
  5.0798      5.6401      6.2883      7.0137      7.7996      8.6165      9.4175      10.139      10.706      11.052    
  11.128      10.921      10.455      9.7845      8.9831      8.1275      7.2842      6.5014      5.8081      5.2175    
  4.7332      4.3561      4.0897      3.9411      4.0261      3.9184      3.9410      4.0896      4.3560      4.7331    
  5.2174      5.8081      6.5014      7.2841      8.1275      8.9831      9.7845      10.455      10.921      11.128    
  11.052      10.706      10.139      9.4176      8.6166      7.7997      7.0138      6.2883      5.6402      5.0798    
  4.6168      4.2618      4.4212      4.0942      3.9018      3.8437      3.9144      4.1072      4.4192      4.8528    
  5.4127      6.0996      6.9031      7.7954      8.7275      9.6301      10.420      11.015      11.349      11.390    
  11.145      10.659      9.9981      9.2337      8.4248      7.6143      6.8318      6.1004      5.4412      4.8751    
  5.1165      4.5592      4.1417      3.8695      3.7396      3.7457      3.8832      4.1529      4.5614      5.1170    
  5.8234      6.6726      7.6378      8.6676      9.6860      10.600      11.315      11.756      11.887      11.716    
  11.291      10.678      9.9396      9.1257      8.2724      7.4106      6.5734      5.7971      6.1270      5.3276    
  4.6684      4.1661      3.8233      3.6343      3.5924      3.6948      3.9454      4.3535      4.9299      5.6809    
  6.6004      7.6601      8.8022      9.9387      10.963      11.769      12.280      12.456      12.322      11.946    
  11.389      10.686      9.8609      8.9509      7.9916      7.0317      7.4477      6.4116      5.4965      4.7427    
  4.1661      3.7657      3.5333      3.4619      3.5502      3.8041      4.2349      4.8558      5.6753      6.6868    
  7.8561      9.1126      10.351      11.451      12.292      12.766      12.881      12.734      12.425      11.988    
  11.387      10.583      9.6084      8.5394      9.0203      7.7964      6.6346      5.6137      4.7782      4.1417    
  3.6997      3.4417      3.3601      3.4548      3.7331      4.2082      4.8956      5.8046      6.9243      8.2076    
  9.5642      10.869      11.965      12.664      12.920      12.865      12.693      12.522      12.317      11.928    
  11.222      10.204      10.697      9.4053      8.0576      6.7835      5.6732      4.7730      4.0942      3.6287    
  3.3636      3.2911      3.4115      3.7337      4.2730      5.0468      6.0624      7.2980      8.6860      10.110    
  11.399      12.277      12.590      12.449      12.155      12.005      12.099      12.277      12.230      11.711    
  12.019      11.054      9.6735      8.2177      6.8508      5.6719      4.7277      4.0262      3.5560      3.3023    
  3.2568      3.4207      3.8046      4.4264      5.3037      6.4369      7.7859      9.2542      10.684      11.750    
  12.133      11.822      11.151      10.619      10.604      11.131      11.857      12.276      12.108      12.154    
  11.260      9.8128      8.2697      6.8340      5.6105      4.6448      3.9413      3.4853      3.2602      3.2580    
  3.4812      3.9427      4.6626      5.6563      6.9107      8.3593      9.8696      11.151      11.724      11.349    
  10.236      8.9872      8.3000      8.5851      9.7259      11.140      10.289      11.818      12.150      11.319    
  9.8199      8.2134      6.7354      5.4932      4.5295      3.8442      3.4198      3.2388      3.2939      3.5898    
  4.1424      4.9731      6.0901      7.4609      8.9854      10.458      11.367      11.200      9.8769      7.8867    
  6.1184      5.4342      6.2076      8.1106      6.5825      9.5006      11.512      12.052      11.244      9.6992    
  8.0544      6.5617      5.3271      4.3882      3.7402      3.3627      3.2387      3.3625      3.7420      4.3962    
  5.3452      6.5860      8.0602      9.6287      10.921      11.254      10.177      7.8338      5.0225      2.8994    
  2.4225      3.8475      1.9190      5.4416      8.9575      11.282      11.900      11.051      9.4607      7.8031    
  6.3234      5.1219      4.2290      3.6347      3.3171      3.2601      3.4611      3.9317      4.6936      5.7628    
  7.1204      8.6787      10.235      11.199      10.825      8.7898      5.4988      2.0546     -.18211     -.24804    
 -2.1104     0.77891      4.9164      8.7793      11.179      11.709      10.750      9.1188      7.4738      6.0339    
  4.8892      4.0607      3.5336      3.2852      3.3021      3.5857      4.1514      5.0219      6.2064      7.6673    
  9.2868      10.753      11.293      10.187      7.2835      3.2603     -.52676     -2.6070     0.44206E-01 0.77971    
  3.4483      6.9679      10.015      11.642      11.623      10.408      8.7561      7.1612      5.7886      4.7117    
  3.9423      3.4622      3.2492      3.2911      3.5907      4.1646      5.0353      6.2102      7.6490      9.2342    
  10.676      11.274      10.392      7.9423      4.5805      1.5300     0.64300     -.51381     0.64311      3.6242    
  7.2191      10.107      11.453      11.181      9.8471      8.2159      6.6882      5.4056      4.4260      3.7514    
  3.3604      3.2324      3.3602      3.7514      4.4261      5.4055      6.6881      8.2159      9.8472      11.181    
  11.453      10.107      7.2192      3.6242      3.4482     0.77964     0.44290E-01  1.5300      4.5804      7.9423    
  10.392      11.274      10.676      9.2341      7.6491      6.2103      5.0353      4.1645      3.5908      3.2912    
  3.2490      3.4620      3.9423      4.7117      5.7885      7.1610      8.7562      10.408      11.623      11.641    
  10.015      6.9679      7.2756      4.1043      1.9196      1.6108      3.2607      6.1057      8.9439      10.734    
  11.038      10.103      8.5991      7.0820      5.7500      4.6944      3.9379      3.4661      3.2569      3.2982    
  3.5926      4.1553      5.0084      6.1654      7.6052      9.2428      10.891      12.009      11.889      10.198    
  10.658      8.0995      5.4721      3.8479      3.8889      5.4988      7.8827      9.9771      10.982      10.690    
  9.4744      7.9691      6.5396      5.3275      4.3968      3.7544      3.3811      3.2580      3.3776      3.7460    
  4.3802      5.3007      6.5159      7.9963      9.6491      11.276      12.336      12.205      12.552      11.311    
  9.2779      7.2901      6.2077      6.4639      7.8334      9.5674      10.808      11.022      10.213      8.8291    
  7.3696      6.0450      4.9601      4.1534      3.6195      3.3381      3.2938      3.4832      3.9147      4.6051    
  5.5725      6.8199      8.3112      9.9495      11.539      12.583      12.711      12.853      12.012      10.572    
  9.2192      8.5849      8.9013      9.8764      10.874      11.276      10.809      9.6385      8.2105      6.8256    
  5.6185      4.6615      3.9722      3.5375      3.3380      3.3624      3.6099      4.0897      4.8173      5.8077    
  7.0585      8.5291      10.122      11.657      11.606      12.675      13.017      12.595      11.726      10.924    
  10.604      10.844      11.349      11.636      11.332      10.378      9.0403      7.6476      6.3603      5.2770    
  4.4423      3.8591      3.5108      3.3809      3.4609      3.7516      4.2616      5.0046      5.9918      7.2163    
  8.6341      10.150      10.025      11.376      12.440      12.961      12.914      12.529      12.147      12.005    
  12.084      12.132      11.839      11.041      9.8347      8.4863      7.1681      5.9940      5.0331      4.3097    
  3.8178      3.5411      3.4657      3.5854      3.9014      4.4210      5.1558      6.1131      7.2818      8.6161    
  8.4733      9.7518      10.973      11.995      12.643      12.885      12.860      12.761      12.692      12.590    
  12.277      11.598      10.551      9.3044      8.0143      6.7979      5.7430      4.8962      4.2686      3.8509    
  3.6285      3.5903      3.7311      4.0518      4.5591      5.2619      6.1637      7.2496      7.1201      8.2125    
  9.3445      10.426      11.368      12.074      12.504      12.714      12.784      12.733      12.493      11.965    
  11.119      10.043      8.8530      7.6587      6.5585      5.6191      4.8719      4.3216      3.9590      3.7719    
  3.7509      3.8917      4.1956      4.6684      5.3167      6.1400      6.0430      6.9007      7.8492      8.8293    
  9.7730      10.619      11.322      11.848      12.192      12.359      12.322      12.029      11.451      10.624    
  9.6175      8.5260      7.4484      6.4658      5.6296      4.9630      4.4692      4.1407      3.9675      3.9418    
  4.0603      4.3254      4.7429      5.3169      5.2624      5.8782      6.6045      7.4068      8.2407      9.0593    
  9.8215      10.495      11.055      11.470      11.705      11.716      11.470      10.963      10.226      9.3295    
  8.3602      7.4043      6.5291      5.7775      5.1694      4.7092      4.3917      4.2089      4.1549      4.2286    
  4.4345      4.7785      4.7734      5.1564      5.6554      6.2501      6.9141      7.6176      8.3319      9.0301    
  9.6861      10.269      10.740      11.048      11.145      10.997      10.600      9.9871      9.2214      8.3800    
  7.5371      6.7514      6.0615      5.4875      5.0357      4.7038      4.4862      4.3800      4.3879      4.5170    
  4.5684      4.7280      5.0053      5.3881      5.8596      6.4020      6.9990      7.6352      8.2928      8.9484    
  9.5677      10.104      10.501      10.706      10.682      10.420      9.9473      9.3164      8.5945      7.8474    
  7.1286      6.4753      5.9090      5.4384      5.0644      4.7860      4.6052      4.5294      4.6450      4.5859    
  4.6451      4.8178      5.0925      5.4566      5.9011      6.4200      7.0067      7.6491      8.3248      8.9976    
  9.6169      10.122      10.455      10.571      10.455      10.122      9.6168      8.9976      8.3249      7.6491    
  7.0066      6.4199      5.9011      5.4566      5.0924      4.8177      5.0052      4.7280      4.5685      4.5295    
  4.6053      4.7860      5.0644      5.4383      5.9090      6.4754      7.1286      7.8473      8.5945      9.3164    
  9.9473      10.420      10.682      10.706      10.501      10.104      9.5677      8.9485      8.2929      7.6351    
  6.9990      6.4020      5.8596      5.3881      5.6554      5.1565      4.7735      4.5170      4.3880      4.3801    
  4.4862      4.7037      5.0357      5.4875      6.0615      6.7514      7.5371      8.3800      9.2214      9.9871    
  10.600      10.997      11.145      11.048      10.740      10.269      9.6862      9.0302      8.3319      7.6176    
  6.9140      6.2501      6.6045      5.8782      5.2625      4.7786      4.4345      4.2286      4.1550      4.2090    
  4.3916      4.7091      5.1695      5.7775      6.5291      7.4042      8.3603      9.3295      10.226      10.963    
  11.470      11.716      11.705      11.470      11.055      10.495      9.8215      9.0593      8.2407      7.4068    
  7.8492      6.9007      6.0431      5.3170      4.7429      4.3253      4.0603      3.9418      3.9675      4.1406    
  4.4691      4.9631      5.6296      6.4657      7.4484      8.5260      9.6175      10.624      11.451      12.029    
  12.322      12.359      12.192      11.848      11.322      10.619      9.7730      8.8293      9.3445      8.2124    
  7.1201      6.1401      5.3169      4.6684      4.1955      3.8917      3.7509      3.7718      3.9589      4.3215    
  4.8720      5.6191      6.5585      7.6587      8.8530      10.043      11.119      11.965      12.493      12.734    
  12.784      12.714      12.504      12.074      11.368      10.426      10.973      9.7519      8.4732      7.2495    
  6.1638      5.2620      4.5590      4.0517      3.7310      3.5903      3.6284      3.8508      4.2686      4.8962    
  5.7430      6.7979      8.0143      9.3045      10.551      11.598      12.277      12.590      12.692      12.761    
  12.860      12.885      12.643      11.995      12.440      11.376      10.025      8.6160      7.2818      6.1132    
  5.1559      4.4209      3.9012      3.5854      3.4656      3.5410      3.8178      4.3098      5.0332      5.9939    
  7.1681      8.4864      9.8348      11.041      11.839      12.132      12.084      12.005      12.147      12.529    
  12.914      12.961      13.017      12.675      11.606      10.150      8.6339      7.2162      5.9919      5.0046    
  4.2615      3.7516      3.4609      3.3808      3.5108      3.8591      4.4424      5.2769      6.3602      7.6476    
  9.0404      10.378      11.332      11.637      11.349      10.844      10.603      10.924      11.727      12.595    
  12.012      12.853      12.711      11.657      10.122      8.5290      7.0585      5.8077      4.8173      4.0896    
  3.6100      3.3624      3.3380      3.5375      3.9723      4.6616      5.6185      6.8255      8.2106      9.6385    
  10.809      11.276      10.874      9.8765      8.9011      8.5848      9.2193      10.572      9.2780      11.311    
  12.552      12.583      11.539      9.9494      8.3111      6.8199      5.5725      4.6050      3.9147      3.4834    
  3.2939      3.3381      3.6196      4.1535      4.9602      6.0449      7.3696      8.8292      10.213      11.022    
  10.808      9.5676      7.8335      6.4638      6.2076      7.2902      5.4723      8.0995      10.658      12.205    
  12.336      11.276      9.6490      7.9963      6.5160      5.3007      4.3801      3.7461      3.3778      3.2580    
  3.3811      3.7544      4.3969      5.3275      6.5395      7.9691      9.4745      10.690      10.982      9.9772    
  7.8828      5.4988      3.8888      3.8478      1.9196      4.1044      7.2756      10.198      11.889      12.009    
  10.891      9.2428      7.6053      6.1655      5.0083      4.1552      3.5928      3.2984      3.2569      3.4660    
  3.9380      4.6945      5.7499      7.0819      8.5991      10.103      11.038      10.734      8.9440      6.1059    
  3.2607      1.6107      4.9484      5.4421      7.2754      9.6612      11.611      12.420      11.951      10.597    
  8.9712      7.4158      6.0684      4.9952      4.2090      3.6949      3.4332      3.4114      3.6287      4.0965    
  4.8346      5.8550      7.1351      8.5897      10.051      11.082      11.115      9.9452      7.9424      5.9616    
  5.1081      4.1927      4.9171      6.9677      9.4435      11.329      11.983      11.367      9.9575      8.3667    
  6.8813      5.6256      4.6533      3.9678      3.5504      3.3822      3.4548      3.7722      4.3499      5.2083    
  6.3527      7.7448      9.2776      10.729      11.544      11.186      9.5682      7.2191      6.9677      4.9171    
  4.1928      5.1081      7.2189      9.5680      11.186      11.545      10.729      9.2774      7.7447      6.3528    
  5.2083      4.3498      3.7722      3.4550      3.3822      3.5502      3.9678      4.6535      5.6256      6.8811    
  8.3667      9.9578      11.367      11.983      11.329      9.4436      9.6612      7.2753      5.4422      4.9485    
  5.9616      7.9421      9.9449      11.115      11.082      10.050      8.5895      7.1352      5.8551      4.8345    