unknown system                          
   1.00000000000000     
    -2.450000    2.450000    1.274000
     2.450000   -2.450000    1.274000
     2.450000    2.450000   -1.274000
   Si
     2
Direct
  0.250000  0.750000  0.500000
  0.000000  0.000000  0.000000
 
   28   28   28
 -5.4763     -3.9409     0.46035E-01  4.9515      9.0917      11.372      11.625      10.457      8.7853      7.1825    
  5.8232      4.7769      4.0513      3.6282      3.4894      3.6282      4.0513      4.7770      5.8232      7.1824    
  8.7853      10.457      11.625      11.372      9.0916      4.9514     0.45799E-01 -3.9411     -3.9411     -4.7473    
 -2.6077      1.6102      6.3026      9.9132      11.585      11.370      9.9874      8.3147      6.7723      5.4980    
  4.5417      3.9010      3.5556      3.4895      3.6994      4.1951      4.9960      6.1167      7.5389      9.1761    
  10.810      11.761      11.144      8.4990      4.1970     -.51141     0.45799E-01 -2.6079     -2.6936     -.18629    
  3.8852      7.9750      10.762      11.674      10.969      9.4259      7.7888      6.3309      5.1586      4.3025    
  3.7514      3.4848      3.4896      3.7656      4.3249      5.1872      6.3626      7.8229      9.4680      11.042    
  11.820      11.001      8.2834      4.1970      4.9514      1.6101     -.18636     0.31649      2.8914      6.4575    
  9.6436      11.436      11.557      10.425      8.8092      7.2365      5.8826      4.8233      4.0713      3.6099    
  3.4194      3.4898      3.8234      4.4340      5.3404      6.5480      8.0201      9.6480      11.155      11.835    
  11.001      8.4990      9.0916      6.3026      3.8852      2.8915      3.7660      6.1076      8.8932      11.013    
  11.789      11.204      9.7792      8.1724      6.6889      5.4518      4.5092      3.8597      3.4833      3.3625    
  3.4899      3.8696      4.5164      5.4473      6.6631      8.1210      9.7088      11.155      11.820      11.144    
  11.372      9.9132      7.9750      6.4575      6.1078      7.1078      8.9754      10.836      11.884      11.761    
  10.652      9.1012      7.5514      6.1756      5.0608      4.2317      3.6776      3.3778      3.3171      3.4900    
  3.9020      4.5677      5.5022      6.7021      8.1210      9.6480      11.042      11.761      11.625      11.585    
  10.762      9.6436      8.8933      8.9755      9.8831      11.140      12.077      12.193      11.394      9.9926    
  8.4440      6.9805      5.7229      4.7279      4.0035      3.5335      3.2985      3.2854      3.4901      3.9186    
  4.5851      5.5022      6.6631      8.0201      9.4680      10.810      10.457      11.370      11.674      11.436    
  11.013      10.836      11.140      11.810      12.441      12.587      12.012      10.813      9.3359      7.8470    
  6.4897      5.3518      4.4674      3.8340      3.4339      3.2494      3.2692      3.4901      3.9186      4.5677    
  5.4473      6.5480      7.8229      9.1761      8.7853      9.9875      10.969      11.557      11.789      11.884    
  12.077      12.441      12.818      12.916      12.493      11.514      10.184      8.7429      7.3452      6.1025    
  5.0774      4.2889      3.7298      3.3830      3.2328      3.2692      3.4901      3.9020      4.5164      5.3404    
  6.3626      7.5389      7.1824      8.3146      9.4259      10.425      11.204      11.761      12.193      12.587    
  12.916      13.035      12.767      12.032      10.924      9.6174      8.2567      6.9668      5.8358      4.9092    
  4.1983      3.6946      3.3830      3.2494      3.2854      3.4900      3.8696      4.4340      5.1872      6.1167    
  5.8232      6.7722      7.7887      8.8092      9.7793      10.652      11.394      12.012      12.493      12.767    
  12.724      12.285      11.477      10.399      9.1695      7.9121      6.7319      5.7001      4.8526      4.1983    
  3.7298      3.4339      3.2985      3.3171      3.4899      3.8234      4.3249      4.9960      4.7770      5.4980    
  6.3308      7.2364      8.1724      9.1013      9.9927      10.813      11.515      12.032      12.285      12.202    
  11.764      11.006      10.009      8.8825      7.7336      6.6523      5.7001      4.9092      4.2889      3.8340    
  3.5335      3.3778      3.3625      3.4898      3.7656      4.1951      4.0513      4.5417      5.1586      5.8825    
  6.6888      7.5513      8.4440      9.3360      10.184      10.924      11.477      11.764      11.728      11.359    
  10.692      9.8018      8.7838      7.7336      6.7319      5.8358      5.0774      4.4674      4.0035      3.6776    
  3.4833      3.4194      3.4896      3.6994      3.6282      3.9009      4.3024      4.8232      5.4518      6.1755    
  6.9804      7.8469      8.7429      9.6174      10.399      11.006      11.359      11.408      11.139      10.582    
  9.8018      8.8825      7.9121      6.9668      6.1025      5.3518      4.7279      4.2317      3.8597      3.6099    
  3.4848      3.4895      3.4894      3.5554      3.7512      4.0712      4.5091      5.0607      5.7229      6.4896    
  7.3452      8.2567      9.1695      10.009      10.692      11.139      11.295      11.139      10.692      10.009    
  9.1695      8.2567      7.3452      6.4897      5.7229      5.0608      4.5092      4.0713      3.7514      3.5556    
  3.6282      3.4894      3.4846      3.6096      3.8595      4.2316      4.7279      5.3518      6.1025      6.9668    
  7.9121      8.8826      9.8019      10.582      11.139      11.408      11.359      11.006      10.399      9.6174    
  8.7429      7.8470      6.9805      6.1756      5.4518      4.8233      4.3025      3.9010      4.0513      3.6994    
  3.4895      3.4192      3.4831      3.6774      4.0034      4.4674      5.0774      5.8358      6.7319      7.7335    
  8.7838      9.8019      10.692      11.359      11.728      11.764      11.477      10.924      10.184      9.3359    
  8.4440      7.5514      6.6889      5.8826      5.1586      4.5417      4.7769      4.1950      3.7655      3.4896    
  3.3624      3.3776      3.5334      3.8339      4.2889      4.9092      5.7001      6.6522      7.7335      8.8826    
  10.009      11.006      11.764      12.202      12.285      12.032      11.514      10.813      9.9926      9.1012    
  8.1724      7.2365      6.3309      5.4980      5.8232      4.9958      4.3247      3.8232      3.4898      3.3170    
  3.2985      3.4338      3.7297      4.1982      4.8526      5.7001      6.7319      7.9121      9.1695      10.399    
  11.477      12.285      12.724      12.767      12.493      12.012      11.394      10.652      9.7792      8.8092    
  7.7888      6.7723      7.1825      6.1166      5.1870      4.4337      3.8695      3.4899      3.2854      3.2495    
  3.3830      3.6945      4.1982      4.9092      5.8358      6.9668      8.2567      9.6174      10.924      12.032    
  12.767      13.035      12.916      12.587      12.193      11.761      11.204      10.425      9.4259      8.3147    
  8.7853      7.5389      6.3625      5.3402      4.5162      3.9018      3.4900      3.2692      3.2329      3.3830    
  3.7297      4.2889      5.0774      6.1025      7.3452      8.7429      10.184      11.515      12.493      12.916    
  12.818      12.441      12.077      11.884      11.789      11.557      10.969      9.9874      10.457      9.1760    
  7.8228      6.5479      5.4472      4.5675      3.9184      3.4900      3.2692      3.2495      3.4338      3.8339    
  4.4674      5.3518      6.4896      7.8469      9.3360      10.813      12.012      12.587      12.441      11.810    
  11.140      10.836      11.013      11.436      11.674      11.370      11.625      10.810      9.4678      8.0199    
  6.6630      5.5021      4.5850      3.9184      3.4900      3.2854      3.2985      3.5334      4.0034      4.7279    
  5.7229      6.9804      8.4440      9.9927      11.394      12.193      12.077      11.140      9.8831      8.9754    
  8.8932      9.6436      10.762      11.585      11.372      11.761      11.042      9.6478      8.1208      6.7020    
  5.5021      4.5675      3.9018      3.4899      3.3170      3.3776      3.6774      4.2316      5.0607      6.1755    
  7.5513      9.1013      10.652      11.761      11.884      10.836      8.9755      7.1078      6.1076      6.4575    
  7.9750      9.9132      9.0917      11.144      11.820      11.155      9.7086      8.1208      6.6630      5.4472    
  4.5162      3.8695      3.4898      3.3624      3.4831      3.8595      4.5091      5.4518      6.6888      8.1724    
  9.7793      11.204      11.789      11.013      8.8933      6.1078      3.7660      2.8914      3.8852      6.3026    
  4.9515      8.4991      11.001      11.835      11.155      9.6478      8.0199      6.5479      5.3402      4.4337    
  3.8232      3.4896      3.4192      3.6096      4.0712      4.8232      5.8825      7.2364      8.8092      10.425    
  11.557      11.436      9.6436      6.4575      2.8915     0.31649     -.18629      1.6102     0.46035E-01  4.1971    
  8.2834      11.001      11.820      11.042      9.4678      7.8228      6.3625      5.1870      4.3247      3.7655    
  3.4895      3.4846      3.7512      4.3024      5.1586      6.3308      7.7887      9.4259      10.969      11.674    
  10.762      7.9750      3.8852     -.18636     -2.6936     -2.6077     -3.9409     -.51114      4.1971      8.4991    
  11.144      11.761      10.810      9.1760      7.5389      6.1166      4.9958      4.1950      3.6994      3.4894    
  3.5554      3.9009      4.5417      5.4980      6.7722      8.3146      9.9875      11.370      11.585      9.9132    
  6.3026      1.6101     -2.6079     -4.7473     -3.9404     -2.8223     0.64629      5.1121      8.9941      11.195    
  11.472      10.347      8.6895      7.0820      5.7073      4.6404      3.8917      3.4418      3.2690      3.3636    
  3.7311      4.3907      5.3644      6.6524      8.1979      9.8527      11.161      11.262      9.5133      5.9633    
  1.5310     -2.2596     -2.8225     -3.9404     -2.2595      1.5311      5.9633      9.5135      11.262      11.161    
  9.8527      8.1980      6.6526      5.3644      4.3906      3.7311      3.3636      3.2690      3.4417      3.8917    
  4.6405      5.7072      7.0818      8.6895      10.347      11.472      11.195      8.9939      5.1121     0.64611    
 0.78312     -2.1086     -2.6073     -.52830      3.2587      7.2827      10.187      11.293      10.752      9.2859    
  7.6660      6.2050      5.0207      4.1507      3.5856      3.3023      3.2853      3.5334      4.0602      4.8879    
  6.0318      7.4712      9.1167      10.749      11.710      11.183      8.7850      4.9223      5.4472      1.9217    
 -.24893     -.18605      2.0491      5.4936      8.7863      10.824      11.198      10.235      8.6781      7.1196    
  5.7617      4.6927      3.9313      3.4612      3.2603      3.3171      3.6345      4.2284      5.1205      6.3210    
  7.8004      9.4586      11.051      11.902      11.287      8.9637      9.5062      6.5864      3.8475      2.4181    
  2.8915      5.0135      7.8259      10.172      11.251      10.920      9.6286      8.0601      6.5856      5.3445    
  4.3956      3.7419      3.3628      3.2389      3.3627      3.7399      4.3875      5.3256      6.5593      8.0517    
  9.6971      11.244      12.054      11.516      11.822      10.293      8.1118      6.2043      5.4264      6.1076    
  7.8755      9.8680      11.194      11.365      10.458      8.9861      7.4614      6.0902      4.9728      4.1423    
  3.5900      3.2942      3.2389      3.4197      3.8440      4.5287      5.4916      6.7329      8.2107      9.8178    
  11.318      12.151      12.155      12.111      11.142      9.7245      8.5792      8.2900      8.9753      10.225    
  11.341      11.720      11.150      9.8707      8.3609      6.9118      5.6568      4.6628      3.9429      3.4816    
  3.2584      3.2603      3.4852      3.9411      4.6440      5.6089      6.8315      8.2669      9.8106      11.259    
  11.053      12.020      12.277      11.857      11.128      10.597      10.609      11.140      11.813      12.127    
  11.749      10.686      9.2568      7.7884      6.4386      5.3046      4.4269      3.8052      3.4213      3.2571    
  3.3024      3.5559      4.0259      4.7268      5.6702      6.8484      8.2150      9.6713      9.4031      10.696    
  11.711      12.231      12.276      12.095      11.999      12.147      12.441      12.584      12.275      11.401    
  10.113      8.6900      7.3013      6.0646      5.0482      4.2740      3.7345      3.4121      3.2913      3.3635    
  3.6285      4.0939      4.7722      5.6716      6.7811      8.0550      7.7938      9.0181      10.203      11.222    
  11.928      12.316      12.519      12.688      12.860      12.916      12.662      11.967      10.873      9.5696    
  8.2127      6.9282      5.8072      4.8972      4.2094      3.7341      3.4554      3.3602      3.4416      3.6996    
  4.1414      4.7774      5.6123      6.6324      6.4096      7.4453      8.5374      9.6075      10.583      11.387    
  11.988      12.424      12.732      12.880      12.767      12.295      11.457      10.358      9.1195      7.8620    
  6.6910      5.6780      4.8575      4.2362      3.8050      3.5506      3.4619      3.5331      3.7655      4.1658    
  4.7420      5.4951      5.3263      6.1251      7.0296      7.9899      8.9503      9.8615      10.687      11.391    
  11.948      12.324      12.459      12.285      11.776      10.971      9.9472      8.8100      7.6664      6.6048    
  5.6837      4.9316      4.3546      3.9461      3.6951      3.5923      3.6341      3.8231      4.1658      4.6676    
  4.5585      5.1153      5.7955      6.5717      7.4094      8.2724      9.1270      9.9421      10.681      11.296    
  11.722      11.893      11.764      11.324      10.610      9.6954      8.6758      7.6441      6.6769      5.8260    
  5.1184      4.5623      4.1534      3.8833      3.7456      3.7394      3.8692      4.1413      4.0937      4.4204    
  4.8740      5.4399      6.0992      6.8312      7.6149      8.4269      9.2375      10.003      10.665      11.153    
  11.399      11.359      11.026      10.431      9.6397      8.7357      7.8016      6.9072      6.1019      5.4138    
  4.8533      4.4193      4.1071      3.9143      3.8435      3.9015      3.9180      4.0256      4.2610      4.6159    
  5.0789      5.6394      6.2883      7.0150      7.8026      8.6214      9.4243      10.147      10.716      11.062    
  11.139      10.932      10.466      9.7938      8.9908      8.1332      7.2878      6.5033      5.8088      5.2175    
  4.7328      4.3557      4.0893      3.9407      4.0257      3.9180      3.9406      4.0891      4.3554      4.7326    
  5.2173      5.8087      6.5032      7.2878      8.1332      8.9908      9.7939      10.466      10.932      11.139    
  11.062      10.716      10.147      9.4243      8.6214      7.8027      7.0151      6.2884      5.6396      5.0791    
  4.6161      4.2612      4.4205      4.0938      3.9014      3.8433      3.9140      4.1069      4.4191      4.8531    
  5.4138      6.1019      6.9072      7.8015      8.7357      9.6398      10.431      11.025      11.359      11.399    
  11.153      10.665      10.003      9.2375      8.4270      7.6149      6.8313      6.0993      5.4400      4.8741    
  5.1153      4.5585      4.1412      3.8691      3.7392      3.7454      3.8831      4.1532      4.5621      5.1184    
  5.8260      6.6769      7.6441      8.6758      9.6954      10.609      11.324      11.764      11.893      11.721    
  11.296      10.681      9.9421      9.1270      8.2724      7.4096      6.5718      5.7955      6.1251      5.3262    
  4.6675      4.1656      3.8229      3.6340      3.5922      3.6950      3.9460      4.3545      4.9316      5.6837    
  6.6048      7.6664      8.8100      9.9471      10.971      11.776      12.285      12.459      12.324      11.947    
  11.391      10.687      9.8615      8.9504      7.9900      7.0297      7.4453      6.4095      5.4949      4.7418    
  4.1656      3.7653      3.5331      3.4619      3.5506      3.8049      4.2361      4.8576      5.6780      6.6910    
  7.8620      9.1195      10.358      11.456      12.294      12.767      12.880      12.732      12.424      11.988    
  11.387      10.583      9.6075      8.5375      9.0181      7.7938      6.6322      5.6121      4.7773      4.1412    
  3.6994      3.4415      3.3603      3.4554      3.7340      4.2094      4.8973      5.8072      6.9281      8.2127    
  9.5696      10.873      11.967      12.662      12.916      12.860      12.688      12.519      12.316      11.928    
  11.222      10.203      10.696      9.4030      8.0548      6.7810      5.6715      4.7721      4.0937      3.6284    
  3.3636      3.2913      3.4121      3.7345      4.2740      5.0482      6.0646      7.3013      8.6900      10.113    
  11.401      12.275      12.584      12.441      12.147      11.998      12.095      12.276      12.231      11.711    
  12.020      11.053      9.6711      8.2147      6.8482      5.6702      4.7268      4.0258      3.5558      3.3024    
  3.2572      3.4213      3.8053      4.4271      5.3047      6.4386      7.7884      9.2569      10.686      11.748    
  12.127      11.813      11.140      10.609      10.597      11.128      11.857      12.277      12.111      12.155    
  11.259      9.8104      8.2667      6.8314      5.6089      4.6440      3.9410      3.4852      3.2604      3.2584    
  3.4816      3.9431      4.6630      5.6568      6.9118      8.3609      9.8708      11.150      11.720      11.341    
  10.225      8.9752      8.2898      8.5791      9.7244      11.142      10.293      11.821      12.152      11.318    
  9.8176      8.2105      6.7329      5.4916      4.5286      3.8439      3.4197      3.2390      3.2942      3.5900    
  4.1425      4.9730      6.0902      7.4614      8.9861      10.458      11.365      11.194      9.8680      7.8756    
  6.1075      5.4263      6.2043      8.1117      6.5864      9.5060      11.516      12.055      11.244      9.6970    
  8.0516      6.5593      5.3256      4.3874      3.7399      3.3628      3.2390      3.3628      3.7420      4.3958    
  5.3446      6.5855      8.0600      9.6287      10.920      11.251      10.172      7.8259      5.0135      2.8915    
  2.4181      3.8476      1.9219      5.4472      8.9637      11.287      11.902      11.051      9.4585      7.8004    
  6.3211      5.1205      4.2283      3.6346      3.3172      3.2603      3.4612      3.9315      4.6928      5.7617    
  7.1195      8.6781      10.235      11.198      10.823      8.7862      5.4937      2.0492     -.18602     -.24878    
 -2.1084     0.78334      4.9224      8.7851      11.183      11.710      10.749      9.1167      7.4713      6.0319    
  4.8879      4.0602      3.5335      3.2854      3.3023      3.5856      4.1508      5.0207      6.2049      7.6659    
  9.2859      10.752      11.293      10.187      7.2826      3.2587     -.52833     -2.6073     0.47203E-01 0.78406    
  3.4537      6.9733      10.019      11.644      11.624      10.406      8.7539      7.1589      5.7868      4.7106    
  3.9419      3.4624      3.2496      3.2915      3.5908      4.1641      5.0341      6.2086      7.6474      9.2329    
  10.675      11.273      10.393      7.9430      4.5816      1.5318     0.64701     -.50987     0.64703      3.6280    
  7.2225      10.109      11.454      11.181      9.8457      8.2140      6.6862      5.4040      4.4251      3.7513    
  3.3607      3.2329      3.3605      3.7513      4.4252      5.4040      6.6861      8.2139      9.8458      11.181    
  11.454      10.109      7.2226      3.6281      3.4537     0.78398     0.47201E-01  1.5318      4.5814      7.9429    
  10.393      11.274      10.675      9.2328      7.6475      6.2087      5.0341      4.1639      3.5908      3.2915    
  3.2495      3.4622      3.9419      4.7106      5.7867      7.1587      8.7539      10.406      11.624      11.644    
  10.019      6.9734      7.2819      4.1095      1.9224      1.6111      3.2591      6.1034      8.9418      10.732    
  11.037      10.102      8.5981      7.0808      5.7488      4.6935      3.9376      3.4662      3.2572      3.2985    
  3.5926      4.1547      5.0071      6.1633      7.6026      9.2404      10.890      12.010      11.892      10.204    
  10.664      8.1052      5.4755      3.8478      3.8857      5.4937      7.8774      9.9731      10.980      10.689    
  9.4740      7.9686      6.5389      5.3268      4.3963      3.7543      3.3814      3.2583      3.3777      3.7459    
  4.3795      5.2992      6.5136      7.9935      9.6466      11.275      12.338      12.209      12.556      11.316    
  9.2819      7.2908      6.2044      6.4575      7.8257      9.5605      10.803      11.020      10.213      8.8293    
  7.3697      6.0448      4.9598      4.1532      3.6197      3.3384      3.2940      3.4832      3.9144      4.6042    
  5.5709      6.8173      8.3081      9.9469      11.538      12.585      12.712      12.857      12.016      10.574    
  9.2172      8.5789      8.8928      9.8676      10.867      11.272      10.808      9.6390      8.2116      6.8263    
  5.6188      4.6616      3.9724      3.5378      3.3383      3.3625      3.6098      4.0892      4.8164      5.8059    
  7.0558      8.5259      10.119      11.656      11.605      12.676      13.019      12.596      11.726      10.920    
  10.596      10.835      11.341      11.631      11.330      10.379      9.0421      7.6495      6.3616      5.2777    
  4.4427      3.8595      3.5112      3.3811      3.4608      3.7513      4.2610      5.0035      5.9899      7.2135    
  8.6308      10.147      10.022      11.374      12.440      12.962      12.914      12.527      12.143      11.998    
  12.077      12.127      11.836      11.041      9.8373      8.4895      7.1709      5.9958      5.0342      4.3104    
  3.8184      3.5415      3.4658      3.5852      3.9009      4.4203      5.1547      6.1112      7.2790      8.6128    
  8.4701      9.7490      10.971      11.995      12.643      12.885      12.858      12.758      12.688      12.586    
  12.275      11.599      10.554      9.3089      8.0186      6.8012      5.7452      4.8975      4.2694      3.8515    
  3.6288      3.5902      3.7307      4.0513      4.5584      5.2607      6.1617      7.2467      7.1174      8.2094    
  9.3418      10.424      11.367      12.075      12.504      12.713      12.783      12.732      12.493      11.967    
  11.124      10.049      8.8589      7.6638      6.5622      5.6215      4.8733      4.3225      3.9595      3.7721    
  3.7507      3.8912      4.1950      4.6676      5.3155      6.1381      6.0411      6.8982      7.8465      8.8269    
  9.7717      10.619      11.323      11.849      12.193      12.360      12.324      12.032      11.457      10.631    
  9.6249      8.5329      7.4540      6.4696      5.6320      4.9644      4.4699      4.1410      3.9675      3.9414    
  4.0597      4.3247      4.7420      5.3157      5.2612      5.8764      6.6023      7.4045      8.2388      9.0584    
  9.8219      10.497      11.057      11.474      11.709      11.722      11.477      10.971      10.235      9.3381    
  8.3677      7.4100      6.5330      5.7797      5.1706      4.7097      4.3917      4.2087      4.1543      4.2279    
  4.4337      4.7776      4.7725      5.1553      5.6538      6.2483      6.9122      7.6163      8.3316      9.0313    
  9.6889      10.274      10.745      11.055      11.153      11.006      10.609      9.9968      9.2304      8.3875    
  7.5427      6.7551      6.0635      5.4883      5.0359      4.7035      4.4856      4.3793      4.3871      4.5162    
  4.5676      4.7271      5.0041      5.3868      5.8581      6.4006      6.9983      7.6356      8.2948      8.9522    
  9.5734      10.111      10.510      10.716      10.692      10.430      9.9573      9.3254      8.6018      7.8527    
  7.1318      6.4769      5.9094      5.4381      5.0638      4.7852      4.6043      4.5285      4.6441      4.5850    
  4.6442      4.8168      5.0913      5.4555      5.9002      6.4198      7.0077      7.6518      8.3295      9.0043    
  9.6253      10.132      10.465      10.582      10.465      10.132      9.6252      9.0043      8.3295      7.6518    
  7.0076      6.4197      5.9003      5.4555      5.0914      4.8168      5.0041      4.7271      4.5676      4.5286    
  4.6044      4.7851      5.0637      5.4380      5.9094      6.4770      7.1319      7.8526      8.6018      9.3254    
  9.9573      10.430      10.692      10.716      10.510      10.111      9.5733      8.9523      8.2948      7.6355    
  6.9982      6.4006      5.8581      5.3868      5.6539      5.1553      4.7725      4.5162      4.3871      4.3793    
  4.4856      4.7034      5.0358      5.4883      6.0635      6.7551      7.5427      8.3875      9.2304      9.9967    
  10.609      11.005      11.153      11.055      10.745      10.274      9.6889      9.0313      8.3316      7.6162    
  6.9122      6.2483      6.6023      5.8765      5.2613      4.7777      4.4337      4.2279      4.1543      4.2086    
  4.3916      4.7096      5.1707      5.7798      6.5330      7.4100      8.3677      9.3380      10.235      10.971    
  11.477      11.721      11.709      11.474      11.057      10.497      9.8219      9.0584      8.2388      7.4045    
  7.8465      6.8982      6.0412      5.3158      4.7420      4.3246      4.0596      3.9414      3.9675      4.1409    
  4.4699      4.9645      5.6320      6.4696      7.4540      8.5329      9.6248      10.631      11.456      12.032    
  12.324      12.360      12.193      11.849      11.323      10.619      9.7717      8.8270      9.3419      8.2094    
  7.1175      6.1382      5.3157      4.6676      4.1948      3.8912      3.7507      3.7720      3.9595      4.3225    
  4.8734      5.6215      6.5621      7.6638      8.8589      10.049      11.123      11.967      12.493      12.732    
  12.783      12.713      12.504      12.074      11.367      10.424      10.971      9.7491      8.4701      7.2468    
  6.1619      5.2609      4.5583      4.0511      3.7307      3.5903      3.6288      3.8515      4.2695      4.8976    
  5.7451      6.8011      8.0186      9.3088      10.554      11.598      12.275      12.586      12.688      12.758    
  12.858      12.884      12.643      11.995      12.440      11.374      10.022      8.6128      7.2790      6.1113    
  5.1548      4.4203      3.9008      3.5853      3.4659      3.5415      3.8185      4.3106      5.0342      5.9957    
  7.1708      8.4895      9.8372      11.041      11.836      12.127      12.077      11.998      12.143      12.527    
  12.914      12.962      13.019      12.676      11.605      10.147      8.6307      7.2135      5.9900      5.0036    
  4.2610      3.7514      3.4610      3.3812      3.5113      3.8597      4.4429      5.2777      6.3615      7.6495    
  9.0421      10.378      11.330      11.631      11.341      10.835      10.596      10.920      11.726      12.596    
  12.015      12.856      12.712      11.656      10.119      8.5259      7.0559      5.8060      4.8164      4.0893    
  3.6100      3.3627      3.3384      3.5379      3.9726      4.6618      5.6188      6.8262      8.2116      9.6389    
  10.807      11.272      10.867      9.8676      8.8926      8.5788      9.2173      10.574      9.2819      11.316    
  12.556      12.585      11.538      9.9468      8.3081      6.8174      5.5709      4.6042      3.9145      3.4835    
  3.2943      3.3386      3.6199      4.1535      4.9599      6.0447      7.3696      8.8293      10.213      11.020    
  10.803      9.5607      7.8257      6.4573      6.2043      7.2909      5.4757      8.1052      10.664      12.209    
  12.338      11.275      9.6465      7.9935      6.5137      5.2992      4.3794      3.7461      3.3781      3.2585    
  3.3815      3.7545      4.3965      5.3268      6.5388      7.9686      9.4740      10.689      10.979      9.9731    
  7.8776      5.4938      3.8856      3.8479      1.9225      4.1096      7.2819      10.204      11.892      12.010    
  10.890      9.2404      7.6027      6.1634      5.0070      4.1547      3.5929      3.2988      3.2574      3.4663    
  3.9378      4.6937      5.7488      7.0807      8.5982      10.102      11.037      10.732      8.9419      6.1036    
  3.2592      1.6110      4.9523      5.4476      7.2816      9.6670      11.615      12.422      11.951      10.595    
  8.9686      7.4133      6.0665      4.9941      4.2087      3.6953      3.4338      3.4120      3.6291      4.0963    
  4.8337      5.8537      7.1336      8.5882      10.049      11.080      11.114      9.9449      7.9432      5.9639    
  5.1128      4.1982      4.9228      6.9731      9.4477      11.332      11.983      11.366      9.9556      8.3643    
  6.8791      5.6240      4.6525      3.9677      3.5509      3.3829      3.4554      3.7723      4.3494      5.2070    
  6.3509      7.7428      9.2758      10.728      11.544      11.187      9.5704      7.2227      6.9733      4.9230    
  4.1982      5.1126      7.2223      9.5701      11.186      11.544      10.727      9.2756      7.7427      6.3510    
  5.2070      4.3493      3.7724      3.4555      3.3828      3.5506      3.9677      4.6526      5.6240      6.8789    
  8.3644      9.9558      11.366      11.983      11.332      9.4481      9.6672      7.2817      5.4477      4.9524    
  5.9637      7.9428      9.9446      11.114      11.081      10.049      8.5880      7.1336      5.8538      4.8336    