unknown system                          
   1.00000000000000     
    -2.316231    2.316231    1.388725
     2.316231   -2.316231    1.388725
     2.316231    2.316231   -1.388725
   Si
     2
Direct
  0.250000  0.750000  0.500000
  0.000000  0.000000  0.000000
 
   28   28   28
 -5.4817     -3.9464     0.40441E-01  4.9463      9.0876      11.370      11.624      10.457      8.7863      7.1839    
  5.8249      4.7788      4.0533      3.6303      3.4914      3.6302      4.0533      4.7789      5.8250      7.1839    
  8.7863      10.457      11.624      11.370      9.0876      4.9464     0.40346E-01 -3.9466     -3.9466     -4.7513    
 -2.6105      1.6079      6.3007      9.9116      11.584      11.369      9.9876      8.3155      6.7737      5.4997    
  4.5436      3.9030      3.5576      3.4915      3.7014      4.1970      4.9978      6.1183      7.5404      9.1771    
  10.810      11.760      11.140      8.4931      4.1901     -.51809     0.40346E-01 -2.6107     -2.6937     -.18459    
  3.8874      7.9767      10.763      11.674      10.968      9.4260      7.7894      6.3321      5.1603      4.3044    
  3.7534      3.4868      3.4916      3.7675      4.3267      5.1888      6.3641      7.8243      9.4689      11.042    
  11.817      10.996      8.2768      4.1901      4.9464      1.6079     -.18462     0.32162      2.8982      6.4639    
  9.6483      11.439      11.557      10.425      8.8090      7.2369      5.8837      4.8249      4.0732      3.6119    
  3.4214      3.4918      3.8252      4.4356      5.3418      6.5494      8.0214      9.6489      11.155      11.832    
  10.996      8.4931      9.0876      6.3007      3.8874      2.8983      3.7761      6.1186      8.9025      11.019    
  11.792      11.205      9.7784      8.1718      6.6889      5.4527      4.5106      3.8614      3.4853      3.3646    
  3.4920      3.8715      4.5179      5.4486      6.6644      8.1223      9.7096      11.155      11.817      11.140    
  11.370      9.9116      7.9767      6.4640      6.1187      7.1213      8.9886      10.846      11.890      11.763    
  10.651      9.0997      7.5502      6.1753      5.0614      4.2330      3.6792      3.3797      3.3192      3.4922    
  3.9038      4.5692      5.5035      6.7034      8.1223      9.6489      11.042      11.760      11.624      11.584    
  10.763      9.6482      8.9026      8.9887      9.8976      11.153      12.086      12.197      11.395      9.9906    
  8.4415      6.9788      5.7224      4.7284      4.0045      3.5350      3.3005      3.2876      3.4923      3.9205    
  4.5866      5.5035      6.6644      8.0214      9.4689      10.810      10.457      11.369      11.674      11.439    
  11.019      10.846      11.153      11.822      12.451      12.593      12.013      10.811      9.3324      7.8437    
  6.4875      5.3510      4.4676      3.8348      3.4353      3.2514      3.2714      3.4923      3.9205      4.5692    
  5.4486      6.5494      7.8243      9.1771      8.7863      9.9877      10.969      11.557      11.792      11.890    
  12.086      12.451      12.828      12.922      12.495      11.513      10.180      8.7381      7.3413      6.1001    
  5.0763      4.2889      3.7305      3.3844      3.2347      3.2714      3.4923      3.9038      4.5179      5.3418    
  6.3641      7.5404      7.1839      8.3155      9.4260      10.425      11.205      11.763      12.197      12.593    
  12.922      13.040      12.769      12.031      10.919      9.6114      8.2510      6.9625      5.8332      4.9080    
  4.1981      3.6953      3.3844      3.2514      3.2876      3.4922      3.8715      4.4356      5.1888      6.1183    
  5.8250      6.7736      7.7893      8.8090      9.7785      10.652      11.395      12.013      12.495      12.769    
  12.724      12.282      11.472      10.392      9.1623      7.9058      6.7273      5.6973      4.8514      4.1981    
  3.7305      3.4353      3.3005      3.3192      3.4920      3.8252      4.3267      4.9978      4.7789      5.4998    
  6.3321      7.2368      8.1717      9.0997      9.9907      10.811      11.513      12.031      12.282      12.198    
  11.758      10.998      10.001      8.8747      7.7270      6.6476      5.6973      4.9080      4.2889      3.8348    
  3.5350      3.3797      3.3646      3.4918      3.7675      4.1970      4.0533      4.5437      5.1604      5.8836    
  6.6889      7.5502      8.4415      9.3325      10.180      10.919      11.472      11.758      11.722      11.351    
  10.683      9.7930      8.7757      7.7270      6.7273      5.8332      5.0763      4.4676      4.0045      3.6792    
  3.4853      3.4214      3.4916      3.7014      3.6302      3.9029      4.3044      4.8249      5.4527      6.1753    
  6.9787      7.8436      8.7381      9.6115      10.392      10.998      11.351      11.400      11.130      10.573    
  9.7930      8.8747      7.9058      6.9625      6.1001      5.3510      4.7284      4.2330      3.8614      3.6119    
  3.4868      3.4915      3.4914      3.5574      3.7533      4.0731      4.5106      5.0614      5.7224      6.4875    
  7.3412      8.2509      9.1623      10.001      10.683      11.130      11.286      11.130      10.683      10.001    
  9.1623      8.2510      7.3413      6.4875      5.7224      5.0614      4.5106      4.0732      3.7534      3.5576    
  3.6303      3.4915      3.4867      3.6117      3.8613      4.2329      4.7284      5.3510      6.1001      6.9625    
  7.9058      8.8747      9.7930      10.573      11.130      11.400      11.351      10.998      10.392      9.6114    
  8.7381      7.8437      6.9788      6.1753      5.4527      4.8249      4.3044      3.9030      4.0533      3.7014    
  3.4916      3.4213      3.4851      3.6791      4.0045      4.4676      5.0763      5.8332      6.7273      7.7270    
  8.7757      9.7930      10.683      11.351      11.722      11.758      11.472      10.919      10.180      9.3324    
  8.4415      7.5502      6.6889      5.8837      5.1603      4.5436      4.7788      4.1969      3.7674      3.4917    
  3.3645      3.3796      3.5349      3.8348      4.2889      4.9080      5.6973      6.6476      7.7270      8.8747    
  10.001      10.998      11.758      12.198      12.282      12.031      11.513      10.811      9.9906      9.0997    
  8.1718      7.2369      6.3321      5.4997      5.8249      4.9976      4.3265      3.8251      3.4919      3.3192    
  3.3005      3.4353      3.7304      4.1981      4.8514      5.6973      6.7273      7.9058      9.1623      10.392    
  11.472      12.282      12.724      12.769      12.495      12.013      11.395      10.651      9.7784      8.8090    
  7.7894      6.7737      7.1839      6.1183      5.1887      4.4354      3.8714      3.4921      3.2877      3.2514    
  3.3843      3.6952      4.1981      4.9080      5.8332      6.9625      8.2509      9.6115      10.919      12.031    
  12.769      13.040      12.922      12.593      12.197      11.763      11.205      10.425      9.4260      8.3155    
  8.7863      7.5404      6.3641      5.3417      4.5178      3.9037      3.4922      3.2715      3.2348      3.3843    
  3.7304      4.2889      5.0763      6.1001      7.3412      8.7381      10.180      11.513      12.495      12.922    
  12.828      12.451      12.086      11.890      11.792      11.557      10.968      9.9876      10.457      9.1770    
  7.8243      6.5493      5.4486      4.5691      3.9203      3.4923      3.2715      3.2514      3.4353      3.8348    
  4.4676      5.3510      6.4875      7.8436      9.3325      10.811      12.013      12.593      12.451      11.822    
  11.153      10.846      11.019      11.439      11.674      11.369      11.624      10.810      9.4688      8.0213    
  6.6643      5.5035      4.5865      3.9203      3.4922      3.2877      3.3005      3.5349      4.0045      4.7284    
  5.7224      6.9787      8.4415      9.9907      11.395      12.197      12.086      11.153      9.8976      8.9886    
  8.9025      9.6483      10.763      11.584      11.370      11.760      11.042      9.6487      8.1222      6.7033    
  5.5035      4.5691      3.9037      3.4921      3.3192      3.3796      3.6791      4.2329      5.0614      6.1753    
  7.5502      9.0997      10.652      11.763      11.890      10.846      8.9887      7.1213      6.1186      6.4639    
  7.9767      9.9116      9.0876      11.140      11.818      11.155      9.7095      8.1222      6.6643      5.4486    
  4.5178      3.8714      3.4919      3.3645      3.4851      3.8613      4.5106      5.4527      6.6889      8.1717    
  9.7785      11.205      11.792      11.019      8.9026      6.1187      3.7761      2.8982      3.8874      6.3007    
  4.9463      8.4930      10.996      11.832      11.155      9.6487      8.0213      6.5493      5.3417      4.4354    
  3.8251      3.4917      3.4213      3.6117      4.0731      4.8249      5.8836      7.2368      8.8090      10.425    
  11.557      11.439      9.6482      6.4640      2.8983     0.32162     -.18459      1.6079     0.40441E-01  4.1900    
  8.2767      10.996      11.818      11.042      9.4688      7.8243      6.3641      5.1887      4.3265      3.7674    
  3.4916      3.4867      3.7533      4.3044      5.1604      6.3321      7.7893      9.4260      10.969      11.674    
  10.763      7.9767      3.8874     -.18462     -2.6937     -2.6105     -3.9464     -.51797      4.1900      8.4930    
  11.140      11.760      10.810      9.1770      7.5404      6.1183      4.9976      4.1969      3.7014      3.4915    
  3.5574      3.9029      4.5437      5.4998      6.7736      8.3155      9.9877      11.369      11.584      9.9116    
  6.3007      1.6079     -2.6107     -4.7513     -3.9459     -2.8285     0.63983      5.1062      8.9896      11.192    
  11.471      10.347      8.6905      7.0834      5.7090      4.6423      3.8937      3.4438      3.2710      3.3656    
  3.7332      4.3928      5.3663      6.6538      8.1988      9.8530      11.161      11.261      9.5112      5.9603    
  1.5272     -2.2643     -2.8287     -3.9459     -2.2641      1.5273      5.9604      9.5114      11.261      11.161    
  9.8530      8.1989      6.6540      5.3663      4.3927      3.7332      3.3657      3.2710      3.4438      3.8938    
  4.6424      5.7090      7.0833      8.6904      10.347      11.471      11.192      8.9895      5.1062     0.63970    
 0.77636     -2.1137     -2.6101     -.52911      3.2590      7.2833      10.187      11.294      10.752      9.2861    
  7.6668      6.2063      5.0225      4.1527      3.5877      3.3044      3.2874      3.5355      4.0622      4.8898    
  6.0334      7.4726      9.1177      10.749      11.708      11.179      8.7789      4.9151      5.4405      1.9169    
 -.25050     -.18425      2.0532      5.4983      8.7902      10.826      11.199      10.235      8.6781      7.1201    
  5.7630      4.6945      3.9334      3.4633      3.2624      3.3192      3.6366      4.2303      5.1221      6.3225    
  7.8018      9.4596      11.051      11.900      11.282      8.9573      9.5006      6.5819      3.8463      2.4212    
  2.8984      5.0222      7.8341      10.178      11.254      10.921      9.6283      8.0597      6.5859      5.3456    
  4.3973      3.7438      3.3649      3.2411      3.3648      3.7419      4.3892      5.3270      6.5607      8.0530    
  9.6981      11.244      12.052      11.512      11.818      10.290      8.1105      6.2073      5.4340      6.1186    
  7.8873      9.8779      11.201      11.367      10.458      8.9850      7.4605      6.0902      4.9737      4.1438    
  3.5918      3.2963      3.2411      3.4219      3.8459      4.5303      5.4930      6.7343      8.2120      9.8188    
  11.318      12.149      12.154      12.109      11.141      9.7264      8.5857      8.3009      8.9884      10.238    
  11.351      11.725      11.151      9.8695      8.3589      6.9104      5.6565      4.6635      3.9442      3.4833    
  3.2604      3.2625      3.4874      3.9430      4.6456      5.6102      6.8329      8.2684      9.8117      11.259    
  11.053      12.019      12.276      11.857      11.132      10.605      10.621      11.153      11.824      12.134    
  11.751      10.685      9.2541      7.7855      6.4368      5.3041      4.4274      3.8063      3.4229      3.2591    
  3.3046      3.5581      4.0278      4.7283      5.6715      6.8498      8.2164      9.6724      9.4042      10.696    
  11.711      12.231      12.278      12.100      12.007      12.157      12.451      12.592      12.279      11.401    
  10.110      8.6858      7.2978      6.0624      5.0474      4.2741      3.7354      3.4136      3.2933      3.3658    
  3.6307      4.0957      4.7737      5.6729      6.7826      8.0565      7.7953      9.0192      10.203      11.222    
  11.928      12.318      12.524      12.695      12.867      12.922      12.666      11.967      10.870      9.5644    
  8.2075      6.9241      5.8047      4.8962      4.2094      3.7348      3.4568      3.3622      3.4437      3.7016    
  4.1431      4.7789      5.6137      6.6339      6.4112      7.4468      8.5383      9.6076      10.582      11.387    
  11.989      12.426      12.735      12.883      12.769      12.294      11.453      10.352      9.1128      7.8560    
  6.6867      5.6754      4.8564      4.2361      3.8057      3.5520      3.4638      3.5352      3.7674      4.1675    
  4.7434      5.4966      5.3280      6.1268      7.0310      7.9906      8.9501      9.8604      10.685      11.390    
  11.947      12.323      12.458      12.282      11.771      10.964      9.9396      8.8025      7.6601      6.6003    
  5.6810      4.9304      4.3545      3.9469      3.6965      3.5941      3.6360      3.8249      4.1674      4.6692    
  4.5602      5.1170      5.7971      6.5729      7.4098      8.2716      9.1251      9.9393      10.678      11.292    
  11.718      11.889      11.758      11.317      10.601      9.6869      8.6679      7.6377      6.6724      5.8233    
  5.1174      4.5623      4.1542      3.8848      3.7474      3.7413      3.8710      4.1430      4.0954      4.4222    
  4.8757      5.4414      6.1002      6.8312      7.6135      8.4241      9.2334      9.9983      10.659      11.146    
  11.392      11.351      11.017      10.422      9.6309      8.7278      7.7953      6.9028      6.0995      5.4129    
  4.8535      4.4203      4.1086      3.9160      3.8453      3.9032      3.9198      4.0274      4.2629      4.6176    
  5.0803      5.6402      6.2880      7.0132      7.7991      8.6162      9.4177      10.139      10.708      11.054    
  11.130      10.923      10.457      9.7853      8.9833      8.1273      7.2838      6.5011      5.8081      5.2179    
  4.7340      4.3573      4.0910      3.9425      4.0275      3.9198      3.9424      4.0910      4.3572      4.7339    
  5.2179      5.8081      6.5010      7.2837      8.1273      8.9833      9.7854      10.457      10.923      11.130    
  11.054      10.708      10.139      9.4178      8.6163      7.7992      7.0133      6.2881      5.6403      5.0804    
  4.6177      4.2630      4.4223      4.0955      3.9033      3.8453      3.9160      4.1086      4.4202      4.8534    
  5.4129      6.0995      6.9028      7.7953      8.7278      9.6309      10.422      11.017      11.351      11.392    
  11.146      10.659      9.9983      9.2335      8.4242      7.6136      6.8313      6.1002      5.4415      4.8758    
  5.1170      4.5602      4.1430      3.8710      3.7413      3.7474      3.8847      4.1541      4.5622      5.1173    
  5.8234      6.6724      7.6377      8.6679      9.6869      10.601      11.317      11.758      11.889      11.718    
  11.292      10.678      9.9394      9.1252      8.2716      7.4099      6.5730      5.7971      6.1267      5.3279    
  4.6692      4.1674      3.8249      3.6361      3.5942      3.6965      3.9468      4.3544      4.9304      5.6810    
  6.6003      7.6601      8.8025      9.9396      10.964      11.771      12.282      12.458      12.323      11.947    
  11.390      10.685      9.8604      8.9501      7.9907      7.0310      7.4468      6.4111      5.4965      4.7434    
  4.1674      3.7674      3.5353      3.4639      3.5520      3.8056      4.2360      4.8564      5.6754      6.6867    
  7.8561      9.1129      10.352      11.453      12.294      12.769      12.883      12.735      12.426      11.989    
  11.387      10.582      9.6076      8.5384      9.0192      7.7953      6.6338      5.6136      4.7788      4.1430    
  3.7015      3.4438      3.3622      3.4568      3.7347      4.2094      4.8962      5.8047      6.9241      8.2075    
  9.5645      10.870      11.967      12.666      12.922      12.867      12.695      12.523      12.318      11.928    
  11.221      10.203      10.696      9.4041      8.0563      6.7825      5.6729      4.7736      4.0956      3.6306    
  3.3658      3.2933      3.4135      3.7353      4.2742      5.0474      6.0624      7.2978      8.6859      10.110    
  11.401      12.279      12.592      12.451      12.157      12.007      12.100      12.278      12.231      11.711    
  12.019      11.053      9.6723      8.2162      6.8497      5.6715      4.7283      4.0277      3.5580      3.3046    
  3.2591      3.4228      3.8063      4.4275      5.3041      6.4368      7.7856      9.2542      10.685      11.751    
  12.134      11.824      11.153      10.621      10.605      11.132      11.857      12.276      12.109      12.154    
  11.259      9.8115      8.2682      6.8328      5.6102      4.6455      3.9429      3.4873      3.2625      3.2603    
  3.4832      3.9443      4.6636      5.6565      6.9104      8.3590      9.8696      11.151      11.725      11.351    
  10.238      8.9882      8.3006      8.5855      9.7263      11.141      10.289      11.818      12.149      11.318    
  9.8187      8.2119      6.7343      5.4930      4.5302      3.8458      3.4218      3.2410      3.2961      3.5917    
  4.1439      4.9738      6.0902      7.4605      8.9851      10.458      11.367      11.201      9.8779      7.8873    
  6.1184      5.4338      6.2071      8.1103      6.5818      9.5004      11.512      12.052      11.244      9.6980    
  8.0530      6.5607      5.3271      4.3891      3.7418      3.3648      3.2410      3.3647      3.7438      4.3974    
  5.3457      6.5858      8.0597      9.6284      10.921      11.254      10.178      7.8341      5.0221      2.8982    
  2.4210      3.8462      1.9169      5.4404      8.9572      11.282      11.900      11.051      9.4595      7.8018    
  6.3226      5.1221      4.2301      3.6365      3.3192      3.2623      3.4632      3.9334      4.6946      5.7630    
  7.1200      8.6782      10.235      11.199      10.826      8.7900      5.4983      2.0531     -.18437     -.25052    
 -2.1136     0.77646      4.9151      8.7789      11.179      11.709      10.749      9.1177      7.4727      6.0335    
  4.8897      4.0621      3.5355      3.2874      3.3044      3.5876      4.1528      5.0226      6.2063      7.6667    
  9.2862      10.752      11.293      10.187      7.2831      3.2589     -.52925     -2.6102     0.41703E-01 0.77730    
  3.4465      6.9669      10.015      11.642      11.623      10.407      8.7551      7.1603      5.7884      4.7124    
  3.9438      3.4642      3.2514      3.2934      3.5927      4.1660      5.0359      6.2100      7.6484      9.2335    
  10.676      11.273      10.392      7.9419      4.5793      1.5279     0.64059     -.51653     0.64070      3.6226    
  7.2184      10.107      11.453      11.181      9.8463      8.2151      6.6877      5.4058      4.4270      3.7532    
  3.3625      3.2347      3.3624      3.7532      4.4272      5.4058      6.6875      8.2150      9.8465      11.181    
  11.453      10.107      7.2184      3.6225      3.4464     0.77724     0.41811E-01  1.5281      4.5792      7.9419    
  10.392      11.274      10.676      9.2334      7.6484      6.2101      5.0359      4.1659      3.5927      3.2934    
  3.2513      3.4641      3.9439      4.7125      5.7884      7.1602      8.7551      10.407      11.623      11.641    
  10.015      6.9670      7.2748      4.1027      1.9176      1.6090      3.2594      6.1052      8.9440      10.734    
  11.038      10.102      8.5985      7.0815      5.7501      4.6953      3.9396      3.4682      3.2592      3.3005    
  3.5945      4.1566      5.0088      6.1649      7.6041      9.2417      10.891      12.009      11.889      10.198    
  10.658      8.0990      5.4711      3.8467      3.8880      5.4984      7.8828      9.9776      10.982      10.690    
  9.4741      7.9686      6.5394      5.3280      4.3980      3.7562      3.3834      3.2603      3.3797      3.7478    
  4.3812      5.3008      6.5151      7.9950      9.6479      11.275      12.336      12.205      12.552      11.311    
  9.2779      7.2898      6.2073      6.4639      7.8339      9.5682      10.809      11.023      10.213      8.8288    
  7.3692      6.0451      4.9608      4.1549      3.6216      3.3404      3.2961      3.4853      3.9163      4.6059    
  5.5723      6.8188      8.3097      9.9482      11.539      12.583      12.711      12.854      12.013      10.573    
  9.2197      8.5855      8.9021      9.8775      10.875      11.277      10.809      9.6385      8.2103      6.8253    
  5.6188      4.6625      3.9738      3.5396      3.3403      3.3646      3.6119      4.0911      4.8179      5.8073    
  7.0573      8.5276      10.120      11.656      11.605      12.675      13.017      12.595      11.727      10.925    
  10.605      10.845      11.350      11.638      11.333      10.378      9.0402      7.6474      6.3602      5.2774    
  4.4434      3.8607      3.5129      3.3831      3.4630      3.7535      4.2629      5.0050      5.9913      7.2150    
  8.6325      10.148      10.024      11.375      12.440      12.961      12.915      12.530      12.149      12.007    
  12.085      12.134      11.840      11.041      9.8351      8.4862      7.1679      5.9940      5.0337      4.3109    
  3.8195      3.5430      3.4677      3.5874      3.9030      4.4221      5.1561      6.1125      7.2806      8.6146    
  8.4719      9.7506      10.972      11.995      12.643      12.886      12.861      12.763      12.694      12.592    
  12.278      11.599      10.552      9.3046      8.0142      6.7977      5.7431      4.8968      4.2697      3.8524    
  3.6303      3.5922      3.7328      4.0533      4.5600      5.2621      6.1631      7.2484      7.1191      8.2112    
  9.3432      10.425      11.367      12.074      12.505      12.715      12.786      12.735      12.495      11.967    
  11.121      10.044      8.8532      7.6586      6.5584      5.6192      4.8724      4.3225      3.9603      3.7735    
  3.7526      3.8933      4.1968      4.6692      5.3168      6.1395      6.0426      6.8998      7.8481      8.8281    
  9.7721      10.618      11.322      11.849      12.193      12.360      12.323      12.030      11.453      10.625    
  9.6181      8.5262      7.4483      6.4656      5.6296      4.9634      4.4700      4.1418      3.9689      3.9432    
  4.0616      4.3264      4.7435      5.3170      5.2626      5.8779      6.6039      7.4059      8.2396      9.0583    
  9.8208      10.495      11.055      11.471      11.706      11.718      11.472      10.964      10.227      9.3302    
  8.3604      7.4041      6.5288      5.7773      5.1696      4.7097      4.3926      4.2101      4.1560      4.2296    
  4.4353      4.7791      4.7740      5.1567      5.6554      6.2498      6.9134      7.6167      8.3309      9.0293    
  9.6857      10.269      10.740      11.049      11.146      10.998      10.601      9.9882      9.2220      8.3801    
  7.5368      6.7510      6.0612      5.4875      5.0361      4.7044      4.4870      4.3809      4.3887      4.5177    
  4.5691      4.7286      5.0057      5.3883      5.8595      6.4016      6.9983      7.6343      8.2920      8.9479    
  9.5677      10.104      10.502      10.708      10.683      10.422      9.9484      9.3170      8.5946      7.8470    
  7.1280      6.4749      5.9088      5.4385      5.0648      4.7866      4.6059      4.5301      4.6457      4.5866    
  4.6458      4.8184      5.0929      5.4568      5.9009      6.4195      7.0060      7.6484      8.3243      8.9976    
  9.6174      10.123      10.457      10.573      10.457      10.123      9.6174      8.9976      8.3244      7.6484    
  7.0059      6.4194      5.9009      5.4567      5.0928      4.8183      5.0057      4.7286      4.5692      4.5303    
  4.6061      4.7867      5.0649      5.4385      5.9088      6.4749      7.1281      7.8470      8.5946      9.3170    
  9.9484      10.422      10.683      10.708      10.502      10.104      9.5677      8.9480      8.2921      7.6343    
  6.9983      6.4015      5.8595      5.3883      5.6554      5.1568      4.7741      4.5179      4.3889      4.3811    
  4.4872      4.7044      5.0361      5.4875      6.0613      6.7510      7.5368      8.3801      9.2220      9.9882    
  10.601      10.998      11.146      11.049      10.740      10.269      9.6858      9.0294      8.3309      7.6167    
  6.9133      6.2498      6.6039      5.8780      5.2628      4.7792      4.4355      4.2298      4.1562      4.2102    
  4.3926      4.7097      5.1697      5.7774      6.5288      7.4040      8.3604      9.3302      10.227      10.964    
  11.472      11.718      11.706      11.471      11.055      10.495      9.8208      9.0583      8.2396      7.4059    
  7.8481      6.8999      6.0428      5.3173      4.7437      4.3265      4.0617      3.9433      3.9690      4.1418    
  4.4699      4.9635      5.6296      6.4655      7.4483      8.5262      9.6181      10.625      11.453      12.031    
  12.323      12.360      12.193      11.849      11.322      10.618      9.7721      8.8281      9.3433      8.2112    
  7.1191      6.1397      5.3171      4.6692      4.1968      3.8933      3.7526      3.7735      3.9602      4.3225    
  4.8725      5.6192      6.5583      7.6586      8.8532      10.044      11.121      11.967      12.495      12.735    
  12.786      12.715      12.504      12.074      11.367      10.425      10.972      9.7507      8.4719      7.2484    
  6.1634      5.2623      4.5600      4.0532      3.7328      3.5922      3.6303      3.8523      4.2697      4.8968    
  5.7431      6.7977      8.0142      9.3047      10.552      11.599      12.278      12.592      12.694      12.763    
  12.861      12.886      12.643      11.995      12.440      11.375      10.024      8.6146      7.2806      6.1127    
  5.1562      4.4220      3.9029      3.5874      3.4677      3.5429      3.8195      4.3109      5.0337      5.9939    
  7.1679      8.4863      9.8351      11.041      11.840      12.134      12.085      12.006      12.149      12.530    
  12.915      12.961      13.017      12.675      11.606      10.148      8.6324      7.2150      5.9914      5.0050    
  4.2628      3.7534      3.4630      3.3830      3.5128      3.8608      4.4435      5.2774      6.3601      7.6474    
  9.0403      10.378      11.333      11.638      11.350      10.845      10.605      10.925      11.727      12.595    
  12.012      12.854      12.711      11.656      10.120      8.5275      7.0574      5.8073      4.8179      4.0910    
  3.6120      3.3646      3.3402      3.5395      3.9739      4.6626      5.6188      6.8253      8.2103      9.6385    
  10.809      11.277      10.875      9.8774      8.9018      8.5852      9.2196      10.573      9.2779      11.311    
  12.552      12.583      11.539      9.9482      8.3097      6.8188      5.5723      4.6058      3.9162      3.4854    
  3.2961      3.3403      3.6215      4.1550      4.9609      6.0450      7.3692      8.8288      10.213      11.022    
  10.809      9.5682      7.8338      6.4636      6.2071      7.2898      5.4711      8.0989      10.658      12.205    
  12.336      11.275      9.6478      7.9950      6.5151      5.3007      4.3811      3.7478      3.3799      3.2603    
  3.3833      3.7563      4.3982      5.3280      6.5393      7.9686      9.4741      10.690      10.982      9.9775    
  7.8829      5.4983      3.8877      3.8465      1.9176      4.1028      7.2747      10.198      11.889      12.009    
  10.891      9.2416      7.6042      6.1650      5.0087      4.1565      3.5946      3.3006      3.2591      3.4681    
  3.9397      4.6954      5.7501      7.0814      8.5985      10.102      11.037      10.734      8.9439      6.1052    
  3.2593      1.6088      4.9473      5.4410      7.2746      9.6609      11.611      12.420      11.951      10.596    
  8.9701      7.4148      6.0680      4.9956      4.2102      3.6967      3.4352      3.4134      3.6306      4.0979    
  4.8352      5.8549      7.1345      8.5890      10.050      11.081      11.115      9.9451      7.9420      5.9608    
  5.1069      4.1913      4.9158      6.9668      9.4431      11.329      11.982      11.367      9.9567      8.3657    
  6.8805      5.6256      4.6540      3.9692      3.5522      3.3843      3.4568      3.7739      4.3510      5.2086    
  6.3523      7.7439      9.2768      10.728      11.544      11.186      9.5680      7.2184      6.9669      4.9158    
  4.1914      5.1069      7.2182      9.5677      11.186      11.544      10.728      9.2766      7.7439      6.3524    
  5.2086      4.3509      3.7739      3.4570      3.3842      3.5521      3.9693      4.6543      5.6256      6.8804    
  8.3657      9.9570      11.367      11.982      11.329      9.4432      9.6609      7.2746      5.4411      4.9474    
  5.9608      7.9417      9.9449      11.115      11.081      10.050      8.5888      7.1346      5.8551      4.8352    