unknown system                          
   1.00000000000000     
    -2.378153    2.378153    1.343723
     2.378153   -2.378153    1.343723
     2.378153    2.378153   -1.343723
   Si
     2
Direct
  0.250000  0.750000  0.500000
  0.000000  0.000000  0.000000
 
   28   28   28
 -.54942113196E+01 -.40173395683E+01 -.15368582338E+00 0.46785868518E+01 0.88830497626E+01
 0.11360604369E+02 0.11853764395E+02 0.10861480619E+02 0.92494255009E+01 0.76450006570E+01
 0.62520050929E+01 0.51600650433E+01 0.43932594649E+01 0.39428436709E+01 0.37946015138E+01
 0.39427746209E+01 0.43932802777E+01 0.51601778106E+01 0.62520426445E+01 0.76449382696E+01
 0.92494105887E+01 0.10861543871E+02 0.11853789991E+02 0.11360589406E+02 0.88831029830E+01
 0.46786706503E+01 -.15371788667E+00 -.40174485442E+01 -.40174485442E+01 -.46791330948E+01
 -.25281947347E+01 0.15995416068E+01 0.62055761893E+01 0.98253546519E+01 0.11615147361E+02
 0.11563297570E+02 0.10304194294E+02 0.86796506267E+01 0.71450638533E+01 0.58530685810E+01
 0.48701877904E+01 0.42075023823E+01 0.38529283798E+01 0.37946546934E+01 0.40310598065E+01
 0.45717285219E+01 0.54316969428E+01 0.66142923908E+01 0.80817490491E+01 0.97238113859E+01
 0.11272902029E+02 0.11990011382E+02 0.11066407689E+02 0.81776730486E+01 0.38063862463E+01
 -.78700355958E+00 -.15371788667E+00 -.25282621200E+01 -.24130288863E+01 0.12217671921E+00
 0.40772181967E+01 0.80194321282E+01 0.10734970035E+02 0.11684436549E+02 0.11080502329E+02
 0.96296170123E+01 0.80457227433E+01 0.66104614469E+01 0.54397642222E+01 0.45773601838E+01
 0.40237392597E+01 0.37657209302E+01 0.37947830968E+01 0.41132309860E+01 0.47334354873E+01
 0.56699138272E+01 0.69194170611E+01 0.84311235430E+01 0.10078688466E+02 0.11535929518E+02
 0.12034291823E+02 0.10875448730E+02 0.79165920053E+01 0.38063862463E+01 0.46786706503E+01
 0.15995363824E+01 0.12217257631E+00 0.81964166013E+00 0.33744956338E+01 0.67517108172E+01
 0.97125214179E+01 0.11365130260E+02 0.11472129913E+02 0.10414323197E+02 0.88888518255E+01
 0.73839778870E+01 0.60715442600E+01 0.50344580588E+01 0.42965073667E+01 0.38509448411E+01
 0.36854267283E+01 0.37949355855E+01 0.41850081463E+01 0.48696516296E+01 0.58614950039E+01
 0.71502674644E+01 0.86743884099E+01 0.10297247048E+02 0.11662118164E+02 0.12041787508E+02
 0.10875448730E+02 0.81776730486E+01 0.88831029830E+01 0.62055986224E+01 0.40772396597E+01
 0.33745483210E+01 0.43688529681E+01 0.65966851409E+01 0.91109611585E+01 0.10951420568E+02
 0.11563206948E+02 0.10964038039E+02 0.96266788428E+01 0.81282998765E+01 0.67323943683E+01
 0.55577491767E+01 0.46578650939E+01 0.40412287581E+01 0.36973425658E+01 0.36159231670E+01
 0.37950610512E+01 0.42425504388E+01 0.49728268664E+01 0.59956019294E+01 0.72940312840E+01
 0.87991031505E+01 0.10370844534E+02 0.11662118164E+02 0.12034291823E+02 0.11066407689E+02
 0.11360589406E+02 0.98253229873E+01 0.80193907809E+01 0.67517449309E+01 0.65967673474E+01
 0.75963265749E+01 0.92495299776E+01 0.10787171969E+02 0.11557310486E+02 0.11306372550E+02
 0.10231870393E+02 0.88101458335E+01 0.73925365351E+01 0.61266884468E+01 0.50950397402E+01
 0.43277035202E+01 0.38231778201E+01 0.35700813444E+01 0.35605907066E+01 0.37951348006E+01
 0.42827370582E+01 0.50371616584E+01 0.60646167217E+01 0.73428359633E+01 0.87991031505E+01
 0.10297247048E+02 0.11535929518E+02 0.11990011382E+02 0.11853789991E+02 0.11615136238E+02
 0.10734875390E+02 0.97124346433E+01 0.91109901258E+01 0.92496095118E+01 0.10031022503E+02
 0.11006510282E+02 0.11628181404E+02 0.11531493071E+02 0.10694430176E+02 0.94090073834E+01
 0.80279949672E+01 0.67227319342E+01 0.55970514670E+01 0.47042006197E+01 0.40579575778E+01
 0.36516912501E+01 0.34749507821E+01 0.35221326923E+01 0.37951639744E+01 0.43033874773E+01
 0.50590189918E+01 0.60646167217E+01 0.72940312840E+01 0.86743884099E+01 0.10078688466E+02
 0.11272902029E+02 0.10861543871E+02 0.11563385294E+02 0.11684437361E+02 0.11365014047E+02
 0.10951318849E+02 0.10787184595E+02 0.11006564413E+02 0.11457098768E+02 0.11797283733E+02
 0.11698474573E+02 0.11026990684E+02 0.99085209695E+01 0.86172169651E+01 0.73273605107E+01
 0.61528063403E+01 0.51663539102E+01 0.44002900361E+01 0.38587725852E+01 0.35336538271E+01
 0.34161730694E+01 0.35024252007E+01 0.37951700328E+01 0.43033874773E+01 0.50371616584E+01
 0.59956019294E+01 0.71502674644E+01 0.84311235430E+01 0.97238113859E+01 0.92494105887E+01
 0.10304268545E+02 0.11080614362E+02 0.11472145718E+02 0.11563109683E+02 0.11557224093E+02
 0.11628177032E+02 0.11797304982E+02 0.11918563397E+02 0.11775517330E+02 0.11222985797E+02
 0.10284886798E+02 0.91340679064E+01 0.79173354117E+01 0.67467991299E+01 0.57076702938E+01
 0.48500290497E+01 0.41931175747E+01 0.37368065287E+01 0.34735406778E+01 0.33962972879E+01
 0.35024252007E+01 0.37951639744E+01 0.42827370582E+01 0.49728268664E+01 0.58614950039E+01
 0.69194170611E+01 0.80817490491E+01 0.76449382696E+01 0.86796005408E+01 0.96296664947E+01
 0.10414420070E+02 0.10964064852E+02 0.11306318618E+02 0.11531441564E+02 0.11698459988E+02
 0.11775510862E+02 0.11656049932E+02 0.11236767974E+02 0.10502304654E+02 0.95430764191E+01
 0.84603978430E+01 0.73546014257E+01 0.63144610378E+01 0.54035233555E+01 0.46572335991E+01
 0.40882920880E+01 0.36957586140E+01 0.34735406778E+01 0.34161730694E+01 0.35221326923E+01
 0.37951348006E+01 0.42425504388E+01 0.48696516296E+01 0.56699138272E+01 0.66142923908E+01
 0.62520426445E+01 0.71450002818E+01 0.80456506988E+01 0.88888592320E+01 0.96267356024E+01
 0.10231900032E+02 0.10694423230E+02 0.11026978403E+02 0.11222969424E+02 0.11236745164E+02
 0.11009494761E+02 0.10520439162E+02 0.98022234207E+01 0.89153871693E+01 0.79409655459E+01
 0.69620445299E+01 0.60485366720E+01 0.52494802057E+01 0.45925215255E+01 0.40882920880E+01
 0.37368065287E+01 0.35336538271E+01 0.34749507821E+01 0.35605907066E+01 0.37950610512E+01
 0.41850081463E+01 0.47334354873E+01 0.54316969428E+01 0.51601778106E+01 0.58531209012E+01
 0.66104187166E+01 0.73839066400E+01 0.81282710703E+01 0.88101584159E+01 0.94090319192E+01
 0.99085485009E+01 0.10284905209E+02 0.10502292560E+02 0.10520411707E+02 0.10311161806E+02
 0.98735173887E+01 0.92384811131E+01 0.84624681298E+01 0.76140836796E+01 0.67607068745E+01
 0.59588715101E+01 0.52494802057E+01 0.46572335991E+01 0.41931175747E+01 0.38587725852E+01
 0.36516912501E+01 0.35700813444E+01 0.36159231670E+01 0.37949355855E+01 0.41132309860E+01
 0.45717285219E+01 0.43932802777E+01 0.48702542135E+01 0.54398129701E+01 0.60715323855E+01
 0.67323452087E+01 0.73924920894E+01 0.80279756001E+01 0.86172311763E+01 0.91341100912E+01
 0.95431109409E+01 0.98022183750E+01 0.98734935989E+01 0.97358804053E+01 0.93932480449E+01
 0.88742498110E+01 0.82255715000E+01 0.75025968691E+01 0.67607068745E+01 0.60485366720E+01
 0.54035233555E+01 0.48500290497E+01 0.44002900361E+01 0.40579575778E+01 0.38231778201E+01
 0.36973425658E+01 0.36854267283E+01 0.37947830968E+01 0.40310598065E+01 0.39427746209E+01
 0.42074410542E+01 0.45773560726E+01 0.50344865508E+01 0.55577640296E+01 0.61266715783E+01
 0.67226936431E+01 0.73273271146E+01 0.79173366757E+01 0.84604363237E+01 0.89154245878E+01
 0.92384832358E+01 0.93932311345E+01 0.93596406884E+01 0.91381205166E+01 0.87484496845E+01
 0.82255715000E+01 0.76140836796E+01 0.69620445299E+01 0.63144610378E+01 0.57076702938E+01
 0.51663539102E+01 0.47042006197E+01 0.43277035202E+01 0.40412287581E+01 0.38509448411E+01
 0.37657209302E+01 0.37946546934E+01 0.37946015138E+01 0.38528232157E+01 0.40236138569E+01
 0.42964411583E+01 0.46578669028E+01 0.50950677291E+01 0.55970637410E+01 0.61527874865E+01
 0.67467658259E+01 0.73545890714E+01 0.79409897345E+01 0.84625013685E+01 0.88742572338E+01
 0.91381086452E+01 0.92289614577E+01 0.91381205166E+01 0.88742498110E+01 0.84624681298E+01
 0.79409655459E+01 0.73546014257E+01 0.67467991299E+01 0.61528063403E+01 0.55970514670E+01
 0.50950397402E+01 0.46578650939E+01 0.42965073667E+01 0.40237392597E+01 0.38529283798E+01
 0.39428436709E+01 0.37946454577E+01 0.37656106246E+01 0.38508021895E+01 0.40411362331E+01
 0.43276845658E+01 0.47042267031E+01 0.51663840218E+01 0.57076733831E+01 0.63144341455E+01
 0.69620202345E+01 0.76140933700E+01 0.82256004480E+01 0.87484590694E+01 0.91381086452E+01
 0.93596406884E+01 0.93932480449E+01 0.92384811131E+01 0.89153871693E+01 0.84603978430E+01
 0.79173354117E+01 0.73273605107E+01 0.67227319342E+01 0.61266884468E+01 0.55577491767E+01
 0.50344580588E+01 0.45773601838E+01 0.42075023823E+01 0.43932594649E+01 0.40310765928E+01
 0.37947669712E+01 0.36853449414E+01 0.36972376232E+01 0.38231037391E+01 0.40579309146E+01
 0.44003044407E+01 0.48500654313E+01 0.54035433522E+01 0.60485158924E+01 0.67606754056E+01
 0.75026005910E+01 0.82256004480E+01 0.88742572338E+01 0.93932311345E+01 0.97358804053E+01
 0.98735173887E+01 0.98022234207E+01 0.95430764191E+01 0.91340679064E+01 0.86172169651E+01
 0.80279949672E+01 0.73925365351E+01 0.67323943683E+01 0.60715442600E+01 0.54397642222E+01
 0.48701877904E+01 0.51600650433E+01 0.45716442967E+01 0.41132008804E+01 0.37949179216E+01
 0.36158947415E+01 0.35700546187E+01 0.36516681018E+01 0.38587498925E+01 0.41931184633E+01
 0.46572698214E+01 0.52495089449E+01 0.59588530802E+01 0.67606754056E+01 0.76140933700E+01
 0.84625013685E+01 0.92384832358E+01 0.98734935989E+01 0.10311161806E+02 0.10520439162E+02
 0.10502304654E+02 0.10284886798E+02 0.99085209695E+01 0.94090073834E+01 0.88101458335E+01
 0.81282998765E+01 0.73839778870E+01 0.66104614469E+01 0.58530685810E+01 0.62520050929E+01
 0.54315836747E+01 0.47333338696E+01 0.41849544867E+01 0.37950493595E+01 0.35606246266E+01
 0.34750136304E+01 0.35336881492E+01 0.37367918546E+01 0.40882844032E+01 0.45925568981E+01
 0.52495089449E+01 0.60485158924E+01 0.69620202345E+01 0.79409897345E+01 0.89154245878E+01
 0.98022183750E+01 0.10520411707E+02 0.11009494761E+02 0.11236767974E+02 0.11222985797E+02
 0.11026990684E+02 0.10694430176E+02 0.10231870393E+02 0.96266788428E+01 0.88888518255E+01
 0.80457227433E+01 0.71450638533E+01 0.76450006570E+01 0.66142801956E+01 0.56698465679E+01
 0.48695831365E+01 0.42425012112E+01 0.37951350823E+01 0.35222204717E+01 0.34163052712E+01
 0.34736120458E+01 0.36957477689E+01 0.40882844032E+01 0.46572698214E+01 0.54035433522E+01
 0.63144341455E+01 0.73545890714E+01 0.84604363237E+01 0.95431109409E+01 0.10502292560E+02
 0.11236745164E+02 0.11656049932E+02 0.11775517330E+02 0.11698474573E+02 0.11531493071E+02
 0.11306372550E+02 0.10964038039E+02 0.10414323197E+02 0.96296170123E+01 0.86796506267E+01
 0.92494255009E+01 0.80817849889E+01 0.69194292759E+01 0.58615011052E+01 0.49728217939E+01
 0.42827089759E+01 0.37951763213E+01 0.35025439458E+01 0.33964554114E+01 0.34736120458E+01
 0.37367918546E+01 0.41931184633E+01 0.48500654313E+01 0.57076733831E+01 0.67467658259E+01
 0.79173366757E+01 0.91341100912E+01 0.10284905209E+02 0.11222969424E+02 0.11775510862E+02
 0.11918563397E+02 0.11797283733E+02 0.11628181404E+02 0.11557310486E+02 0.11563206948E+02
 0.11472129913E+02 0.11080502329E+02 0.10304194294E+02 0.10861480619E+02 0.97237922359E+01
 0.84311158398E+01 0.71502954037E+01 0.59956797745E+01 0.50372158731E+01 0.43033774785E+01
 0.37951874617E+01 0.35025439458E+01 0.34163052712E+01 0.35336881492E+01 0.38587498925E+01
 0.44003044407E+01 0.51663840218E+01 0.61527874865E+01 0.73273271146E+01 0.86172311763E+01
 0.99085485009E+01 0.11026978403E+02 0.11698459988E+02 0.11797304982E+02 0.11457098768E+02
 0.11006510282E+02 0.10787171969E+02 0.10951420568E+02 0.11365130260E+02 0.11684436549E+02
 0.11563297570E+02 0.11853764395E+02 0.11272885715E+02 0.10078646379E+02 0.86743361934E+01
 0.72940658403E+01 0.60647381094E+01 0.50590971272E+01 0.43033774785E+01 0.37951763213E+01
 0.35222204717E+01 0.34750136304E+01 0.36516681018E+01 0.40579309146E+01 0.47042267031E+01
 0.55970637410E+01 0.67226936431E+01 0.80279756001E+01 0.94090319192E+01 0.10694423230E+02
 0.11531441564E+02 0.11628177032E+02 0.11006564413E+02 0.10031022503E+02 0.92495299776E+01
 0.91109611585E+01 0.97125214179E+01 0.10734970035E+02 0.11615147361E+02 0.11360604369E+02
 0.11990065641E+02 0.11535974310E+02 0.10297194331E+02 0.87990231003E+01 0.73428719606E+01
 0.60647381094E+01 0.50372158731E+01 0.42827089759E+01 0.37951350823E+01 0.35606246266E+01
 0.35700546187E+01 0.38231037391E+01 0.43276845658E+01 0.50950677291E+01 0.61266715783E+01
 0.73924920894E+01 0.88101584159E+01 0.10231900032E+02 0.11306318618E+02 0.11557224093E+02
 0.10787184595E+02 0.92496095118E+01 0.75963265749E+01 0.65966851409E+01 0.67517108172E+01
 0.80194321282E+01 0.98253546519E+01 0.88830497626E+01 0.11066419346E+02 0.12034412761E+02
 0.11662205505E+02 0.10370789161E+02 0.87990231003E+01 0.72940658403E+01 0.59956797745E+01
 0.49728217939E+01 0.42425012112E+01 0.37950493595E+01 0.36158947415E+01 0.36972376232E+01
 0.40411362331E+01 0.46578669028E+01 0.55577640296E+01 0.67323452087E+01 0.81282710703E+01
 0.96267356024E+01 0.10964064852E+02 0.11563109683E+02 0.10951318849E+02 0.91109901258E+01
 0.65967673474E+01 0.43688529681E+01 0.33744956338E+01 0.40772181967E+01 0.62055761893E+01
 0.46785868518E+01 0.81775469412E+01 0.10875455947E+02 0.12041934342E+02 0.11662205505E+02
 0.10297194331E+02 0.86743361934E+01 0.71502954037E+01 0.58615011052E+01 0.48695831365E+01
 0.41849544867E+01 0.37949179216E+01 0.36853449414E+01 0.38508021895E+01 0.42964411583E+01
 0.50344865508E+01 0.60715323855E+01 0.73839066400E+01 0.88888592320E+01 0.10414420070E+02
 0.11472145718E+02 0.11365014047E+02 0.97124346433E+01 0.67517449309E+01 0.33745483210E+01
 0.81964166013E+00 0.12217671921E+00 0.15995416068E+01 -.15368582338E+00 0.38062649964E+01
 0.79164372027E+01 0.10875455947E+02 0.12034412761E+02 0.11535974310E+02 0.10078646379E+02
 0.84311158398E+01 0.69194292759E+01 0.56698465679E+01 0.47333338696E+01 0.41132008804E+01
 0.37947669712E+01 0.37656106246E+01 0.40236138569E+01 0.45773560726E+01 0.54398129701E+01
 0.66104187166E+01 0.80456506988E+01 0.96296664947E+01 0.11080614362E+02 0.11684437361E+02
 0.10734875390E+02 0.80193907809E+01 0.40772396597E+01 0.12217257631E+00 -.24130288863E+01
 -.25281947347E+01 -.40173395683E+01 -.78696025578E+00 0.38062649964E+01 0.81775469412E+01
 0.11066419346E+02 0.11990065641E+02 0.11272885715E+02 0.97237922359E+01 0.80817849889E+01
 0.66142801956E+01 0.54315836747E+01 0.45716442967E+01 0.40310765928E+01 0.37946454577E+01
 0.38528232157E+01 0.42074410542E+01 0.48702542135E+01 0.58531209012E+01 0.71450002818E+01
 0.86796005408E+01 0.10304268545E+02 0.11563385294E+02 0.11615136238E+02 0.98253229873E+01
 0.62055986224E+01 0.15995363824E+01 -.25282621200E+01 -.46791330948E+01 -.40168988272E+01
 -.29886650253E+01 0.34094203653E+00 0.47353756017E+01 0.86974083933E+01 0.11117991771E+02
 0.11656920503E+02 0.10720808357E+02 0.91229478319E+01 0.75076947046E+01 0.60925213362E+01
 0.49731033096E+01 0.41764195437E+01 0.36922397123E+01 0.35021730723E+01 0.35965914099E+01
 0.39799239086E+01 0.46679232211E+01 0.56747956355E+01 0.69870826726E+01 0.85307690547E+01
 0.10139217954E+02 0.11310195879E+02 0.11217898687E+02 0.93114743487E+01 0.57136116299E+01
 0.13433983819E+01 -.23559292938E+01 -.29887882338E+01 -.40168981352E+01 -.23558210662E+01
 0.13434828659E+01 0.57136838668E+01 0.93116250619E+01 0.11218061911E+02 0.11310246290E+02
 0.10139222610E+02 0.85308731147E+01 0.69872261627E+01 0.56748144946E+01 0.46678498429E+01
 0.39799138277E+01 0.35966321402E+01 0.35021409416E+01 0.36921660865E+01 0.41764218200E+01
 0.49731256196E+01 0.60924211574E+01 0.75075181814E+01 0.91228491906E+01 0.10720768193E+02
 0.11656811853E+02 0.11117848676E+02 0.86973564415E+01 0.47353707066E+01 0.34085215838E+00
 0.49953595547E+00 -.21826355173E+01 -.25278249161E+01 -.43237424190E+00 0.32611155925E+01
 0.71821119016E+01 0.10064663057E+02 0.11249497461E+02 0.10834075062E+02 0.94664593385E+01
 0.78940019013E+01 0.64487406546E+01 0.52590437942E+01 0.43763621188E+01 0.38025952648E+01
 0.35217212807E+01 0.35219431087E+01 0.38045037432E+01 0.43834097970E+01 0.52774414015E+01
 0.64907318407E+01 0.79830615274E+01 0.96410062158E+01 0.11191360485E+02 0.11916099925E+02
 0.11079658716E+02 0.84399013356E+01 0.45141309121E+01 0.51279064050E+01 0.17944199633E+01
 -.11327390532E+00 0.12241727960E+00 0.23536433718E+01 0.56516105192E+01 0.87690929915E+01
 0.10708371240E+02 0.11095764030E+02 0.10214722951E+02 0.87430175498E+01 0.72437560634E+01
 0.59192938916E+01 0.48651894986E+01 0.41115460191E+01 0.36516582616E+01 0.34703252726E+01
 0.35605784924E+01 0.39285125506E+01 0.45908980604E+01 0.55651843071E+01 0.68483802730E+01
 0.83882975701E+01 0.10058994148E+02 0.11545484041E+02 0.12131276222E+02 0.11196186757E+02
 0.86529637626E+01 0.93060766065E+01 0.64400917222E+01 0.39365060210E+01 0.27716314803E+01
 0.33745744533E+01 0.54199584167E+01 0.80068041389E+01 0.10110181909E+02 0.11043618422E+02
 0.10698753555E+02 0.94833296591E+01 0.80101652165E+01 0.66122963787E+01 0.54244110656E+01
 0.45108755008E+01 0.38842109791E+01 0.35328328637E+01 0.34442256776E+01 0.36160983793E+01
 0.40581112610E+01 0.47880702318E+01 0.58205235120E+01 0.71451543348E+01 0.87003951587E+01
 0.10353619560E+02 0.11779224368E+02 0.12319908240E+02 0.11484255754E+02 0.11874728541E+02
 0.10232593629E+02 0.81413078368E+01 0.64591818172E+01 0.58825825274E+01 0.65966067523E+01
 0.81919400222E+01 0.98920351991E+01 0.10948184143E+02 0.10977430838E+02 0.10080317681E+02
 0.87128332151E+01 0.73042293304E+01 0.60302583420E+01 0.49864503159E+01 0.42106524305E+01
 0.37029988637E+01 0.34505188942E+01 0.34442740458E+01 0.36857386999E+01 0.41865729811E+01
 0.49639896536E+01 0.60285563339E+01 0.73632075388E+01 0.89001380408E+01 0.10506122390E+02
 0.11880319884E+02 0.12459776207E+02 0.12493864293E+02 0.12235239988E+02 0.11183112606E+02
 0.98431300232E+01 0.88524049964E+01 0.86499837278E+01 0.92493384173E+01 0.10246089428E+02
 0.11048901341E+02 0.11189937101E+02 0.10540916495E+02 0.93351054350E+01 0.79694121621E+01
 0.66606665419E+01 0.55244002334E+01 0.46234343137E+01 0.39757541815E+01 0.35745177359E+01
 0.34079029608E+01 0.34704510503E+01 0.37660917307E+01 0.43069808081E+01 0.51084154137E+01
 0.61764282106E+01 0.74883026224E+01 0.89731581925E+01 0.10502440974E+02 0.11826569480E+02
 0.11594059238E+02 0.12352743158E+02 0.12416684852E+02 0.11904068759E+02 0.11189909058E+02
 0.10698180388E+02 0.10663565580E+02 0.11006273836E+02 0.11392122784E+02 0.11433657932E+02
 0.10907601721E+02 0.98673505958E+01 0.85885289148E+01 0.72955266795E+01 0.61108056693E+01
 0.51159332482E+01 0.43486651519E+01 0.38143056690E+01 0.35035513434E+01 0.34069884683E+01
 0.35218658927E+01 0.38532808718E+01 0.44126994912E+01 0.52126007908E+01 0.62543937089E+01
 0.75110437679E+01 0.89114478220E+01 0.10335543565E+02 0.10009215573E+02 0.11171727300E+02
 0.11985105773E+02 0.12305561784E+02 0.12213218790E+02 0.11950897783E+02 0.11764429788E+02
 0.11748868780E+02 0.11797067245E+02 0.11678083780E+02 0.11190362659E+02 0.10293611861E+02
 0.91396549520E+01 0.79123916623E+01 0.67286469849E+01 0.56794939725E+01 0.48200058820E+01
 0.41711172329E+01 0.37317875239E+01 0.34932084256E+01 0.34485176869E+01 0.35967062046E+01
 0.39431131765E+01 0.44978010192E+01 0.52699873875E+01 0.62567156887E+01 0.74279841772E+01
 0.87149396029E+01 0.83926983137E+01 0.95391142544E+01 0.10575437513E+02 0.11383884654E+02
 0.11862975239E+02 0.12047152982E+02 0.12065695894E+02 0.12034034348E+02 0.11967664989E+02
 0.11775358385E+02 0.11332048773E+02 0.10579999118E+02 0.95889890293E+01 0.84802146348E+01
 0.73530755489E+01 0.62988154911E+01 0.53843330846E+01 0.46462984886E+01 0.40962826823E+01
 0.37314744754E+01 0.35449054606E+01 0.35317893273E+01 0.36921549940E+01 0.40312146141E+01
 0.45574339902E+01 0.52767451925E+01 0.61822970241E+01 0.72424111597E+01 0.69645800537E+01
 0.79631788447E+01 0.89529781462E+01 0.98526835786E+01 0.10597518117E+02 0.11137527901E+02
 0.11468584455E+02 0.11635765168E+02 0.11671570843E+02 0.11557204381E+02 0.11236670968E+02
 0.10671485576E+02 0.98901609253E+01 0.89566547750E+01 0.79480692202E+01 0.69478002213E+01
 0.60274607986E+01 0.52363461020E+01 0.46002371550E+01 0.41269957079E+01 0.38146009124E+01
 0.36581333998E+01 0.36543935369E+01 0.38043076559E+01 0.41131820679E+01 0.45881438400E+01
 0.52321145996E+01 0.60349451957E+01 0.58232032447E+01 0.66112110581E+01 0.74531401970E+01
 0.82884894947E+01 0.90587793571E+01 0.97204538867E+01 0.10250020761E+02 0.10636646870E+02
 0.10873956866E+02 0.10950098664E+02 0.10839333224E+02 0.10520386596E+02 0.99954813768E+01
 0.92931810189E+01 0.84678658839E+01 0.75883319637E+01 0.67229765927E+01 0.59279148261E+01
 0.52413678138E+01 0.46841423963E+01 0.42638226779E+01 0.39801343022E+01 0.38300387207E+01
 0.38119287579E+01 0.39281510727E+01 0.41847848241E+01 0.45881265351E+01 0.51385057894E+01
 0.50013339323E+01 0.55597381385E+01 0.62041843694E+01 0.68951600139E+01 0.75890629159E+01
 0.82467303670E+01 0.88390549164E+01 0.93461819019E+01 0.97509658464E+01 0.10031911218E+02
 0.10161736771E+02 0.10113860058E+02 0.98734865750E+01 0.94469223173E+01 0.88640939523E+01
 0.81734020131E+01 0.74317959424E+01 0.66943471273E+01 0.60066415990E+01 0.54012483537E+01
 0.48977080338E+01 0.45047995423E+01 0.42241902456E+01 0.40549366938E+01 0.39978184802E+01
 0.40576793118E+01 0.42422163706E+01 0.45573728933E+01 0.44976697969E+01 0.48286151854E+01
 0.52603433151E+01 0.57685506915E+01 0.63241540572E+01 0.68986236146E+01 0.74676592067E+01
 0.80113413776E+01 0.85105206934E+01 0.89418306049E+01 0.92754169046E+01 0.94782619465E+01
 0.95222921130E+01 0.93932221967E+01 0.90958316949E+01 0.86537986053E+01 0.81050035358E+01
 0.74945610930E+01 0.68677242976E+01 0.62641227032E+01 0.57141108750E+01 0.52374827160E+01
 0.48445309659E+01 0.45392524796E+01 0.43239399121E+01 0.42033637035E+01 0.41861878317E+01
 0.42823582821E+01 0.43030042968E+01 0.44124645969E+01 0.46303831128E+01 0.49426631139E+01
 0.53301639336E+01 0.57736721039E+01 0.62567532424E+01 0.67653696207E+01 0.72847814138E+01
 0.77953761008E+01 0.82698359193E+01 0.86739457850E+01 0.89716532001E+01 0.91324777118E+01
 0.91380921302E+01 0.89858662363E+01 0.86890824265E+01 0.82745446004E+01 0.77782029338E+01
 0.72393670705E+01 0.66946531168E+01 0.61733260210E+01 0.56954011256E+01 0.52728866221E+01
 0.49134541043E+01 0.46248934715E+01 0.44181094943E+01 0.43067173954E+01 0.44125604502E+01
 0.43030116194E+01 0.43066265439E+01 0.44179817590E+01 0.46247817072E+01 0.49133677180E+01
 0.52728269563E+01 0.56953694547E+01 0.61732972391E+01 0.66946005800E+01 0.72393135329E+01
 0.77781918327E+01 0.82745668293E+01 0.86890904540E+01 0.89858528637E+01 0.91380908183E+01
 0.91324908977E+01 0.89716502106E+01 0.86739331529E+01 0.82698604077E+01 0.77954490103E+01
 0.72848611914E+01 0.67654278260E+01 0.62568023542E+01 0.57737251252E+01 0.53302221783E+01
 0.49427430025E+01 0.46304945588E+01 0.48286625766E+01 0.44977366977E+01 0.42823745331E+01
 0.41861310065E+01 0.42032723089E+01 0.43238438357E+01 0.45391589975E+01 0.48444648641E+01
 0.52374659790E+01 0.57141118311E+01 0.62640952188E+01 0.68676851576E+01 0.74945589949E+01
 0.81050289428E+01 0.86538009869E+01 0.90958111951E+01 0.93932237994E+01 0.95223193268E+01
 0.94782776906E+01 0.92754247833E+01 0.89418758126E+01 0.85106101967E+01 0.80114348178E+01
 0.74677362184E+01 0.68986925809E+01 0.63242033158E+01 0.57685628869E+01 0.52603498123E+01
 0.55596585889E+01 0.50012989519E+01 0.45573879769E+01 0.42422276701E+01 0.40576677824E+01
 0.39977948612E+01 0.40548855453E+01 0.42241050040E+01 0.45047339963E+01 0.48977082805E+01
 0.54012724776E+01 0.60066282874E+01 0.66943186778E+01 0.74318066634E+01 0.81734318865E+01
 0.88640887945E+01 0.94468991998E+01 0.98735029740E+01 0.10113911800E+02 0.10161778833E+02
 0.10031948546E+02 0.97510349317E+01 0.93462723966E+01 0.88391327041E+01 0.82468041323E+01
 0.75891457280E+01 0.68952043521E+01 0.62041436752E+01 0.66111236723E+01 0.58230614214E+01
 0.51384080821E+01 0.45880875651E+01 0.41847766323E+01 0.39281758901E+01 0.38119708241E+01
 0.38300322687E+01 0.39800633628E+01 0.42637704833E+01 0.46841647096E+01 0.52414048055E+01
 0.59279050885E+01 0.67229627259E+01 0.75883665867E+01 0.84679067849E+01 0.92931746976E+01
 0.99954673072E+01 0.10520425102E+02 0.10839405109E+02 0.10950161440E+02 0.10874024582E+02
 0.10636734175E+02 0.10250087062E+02 0.97204810581E+01 0.90588215600E+01 0.82885666597E+01
 0.74531683999E+01 0.79631709369E+01 0.69644618548E+01 0.60347898255E+01 0.52319992919E+01
 0.45880670520E+01 0.41131469013E+01 0.38043481966E+01 0.36544722801E+01 0.36581488830E+01
 0.38145448798E+01 0.41269718400E+01 0.46002847253E+01 0.52363845428E+01 0.60274506872E+01
 0.69478120490E+01 0.79481386627E+01 0.89567116126E+01 0.98901624829E+01 0.10671490815E+02
 0.11236725328E+02 0.11557273427E+02 0.11671634616E+02 0.11635853073E+02 0.11468675165E+02
 0.11137545718E+02 0.10597471017E+02 0.98526715686E+01 0.89530210987E+01 0.95390991590E+01
 0.83926359435E+01 0.72422829635E+01 0.61821794217E+01 0.52766584517E+01 0.45573435756E+01
 0.40311563625E+01 0.36921920874E+01 0.35318676917E+01 0.35449161290E+01 0.37314360737E+01
 0.40962998153E+01 0.46463682892E+01 0.53843633327E+01 0.62988096846E+01 0.73531247673E+01
 0.84803195229E+01 0.95890580819E+01 0.10580014359E+02 0.11332076105E+02 0.11775408735E+02
 0.11967697335E+02 0.12034072009E+02 0.12065783510E+02 0.12047225785E+02 0.11862932220E+02
 0.11383765877E+02 0.10575368050E+02 0.11171622792E+02 0.10009137970E+02 0.87148203953E+01
 0.74278694117E+01 0.62566699632E+01 0.52699551450E+01 0.44977182187E+01 0.39430469586E+01
 0.35967320716E+01 0.34485693444E+01 0.34932008637E+01 0.37317760823E+01 0.41711811664E+01
 0.48200875424E+01 0.56795111661E+01 0.67286561908E+01 0.79124814096E+01 0.91397787650E+01
 0.10293678519E+02 0.11190391805E+02 0.11678128669E+02 0.11797090358E+02 0.11748836754E+02
 0.11764418960E+02 0.11950958950E+02 0.12213249977E+02 0.12305462938E+02 0.11984947870E+02
 0.12352597152E+02 0.11593960098E+02 0.10335423981E+02 0.89112943928E+01 0.75109673717E+01
 0.62544279498E+01 0.52126218075E+01 0.44126382502E+01 0.38532291050E+01 0.35218855283E+01
 0.34070065547E+01 0.35035319852E+01 0.38143344717E+01 0.43487706067E+01 0.51160109825E+01
 0.61108114100E+01 0.72955617733E+01 0.85886469201E+01 0.98674603521E+01 0.10907644565E+02
 0.11433697052E+02 0.11392177866E+02 0.11006257283E+02 0.10663465378E+02 0.10698115798E+02
 0.11189920124E+02 0.11904038234E+02 0.12416550342E+02 0.12235098637E+02 0.12493778754E+02
 0.11826515228E+02 0.10502316837E+02 0.89730140720E+01 0.74882873475E+01 0.61765271850E+01
 0.51084693069E+01 0.43069496458E+01 0.37660768066E+01 0.34704753057E+01 0.34078971385E+01
 0.35745069781E+01 0.39758316459E+01 0.46235625720E+01 0.55244568560E+01 0.66606679775E+01
 0.79694771295E+01 0.93352232768E+01 0.10540972216E+02 0.11189936411E+02 0.11048944165E+02
 0.10246147374E+02 0.92492887578E+01 0.86498432628E+01 0.88523046886E+01 0.98430794867E+01
 0.11183012153E+02 0.10232435897E+02 0.11874611578E+02 0.12459777481E+02 0.11880329384E+02
 0.10506031392E+02 0.89000514119E+01 0.73632659130E+01 0.60286899153E+01 0.49640512600E+01
 0.41865777130E+01 0.36857736549E+01 0.34443092205E+01 0.34505054067E+01 0.37030180296E+01
 0.42107727707E+01 0.49865710767E+01 0.60302798833E+01 0.73042353253E+01 0.87129201205E+01
 0.10080398259E+02 0.10977401098E+02 0.10948130471E+02 0.98920726999E+01 0.81919917478E+01
 0.65965457197E+01 0.58824524448E+01 0.64590819580E+01 0.81412036203E+01 0.64399617752E+01
 0.93058986619E+01 0.11484191528E+02 0.12319991554E+02 0.11779287657E+02 0.10353584903E+02
 0.87003983365E+01 0.71452793921E+01 0.58206559183E+01 0.47881210122E+01 0.40581536891E+01
 0.36161783866E+01 0.34442661890E+01 0.35328248075E+01 0.38842698518E+01 0.45110147291E+01
 0.54244894563E+01 0.66122759889E+01 0.80101811206E+01 0.94834183617E+01 0.10698764876E+02
 0.11043496113E+02 0.10110081539E+02 0.80068235652E+01 0.54199893302E+01 0.33745251776E+01
 0.27715621066E+01 0.39364454338E+01 0.17944214842E+01 0.51277902022E+01 0.86528194027E+01
 0.11196195079E+02 0.12131410484E+02 0.11545569898E+02 0.10059019011E+02 0.83883931083E+01
 0.68485423198E+01 0.55652824573E+01 0.45909297229E+01 0.39285857029E+01 0.35606786107E+01
 0.34703544886E+01 0.36516605629E+01 0.41116363819E+01 0.48653100824E+01 0.59193014531E+01
 0.72436957999E+01 0.87430405160E+01 0.10214786314E+02 0.11095693949E+02 0.10708182262E+02
 0.87689682699E+01 0.56515976986E+01 0.23536346081E+01 0.12239091480E+00 -.11325732848E+00
 -.21825450474E+01 0.49959545009E+00 0.45140652001E+01 0.84398419995E+01 0.11079743408E+02
 0.11916241510E+02 0.11191434237E+02 0.96410780637E+01 0.79832213498E+01 0.64908855165E+01
 0.52774824661E+01 0.43834222249E+01 0.38045895105E+01 0.35220260328E+01 0.35217202721E+01
 0.38026050493E+01 0.43764597296E+01 0.52591070206E+01 0.64486662463E+01 0.78939118208E+01
 0.94664771549E+01 0.10834088162E+02 0.11249361440E+02 0.10064461420E+02 0.71819961171E+01
 0.32610628981E+01 -.43243579311E+00 -.25278327253E+01 -.15260314556E+00 0.50031005636E+00
 0.30710390598E+01 0.65734632398E+01 0.97447523855E+01 0.11611831841E+02 0.11851907573E+02
 0.10805145437E+02 0.91899969972E+01 0.75701403382E+01 0.61432997925E+01 0.50030486803E+01
 0.41769584214E+01 0.36547392458E+01 0.34162047335E+01 0.34485810246E+01 0.37528222125E+01
 0.43427236616E+01 0.52350986106E+01 0.64268870393E+01 0.78640439169E+01 0.94172980887E+01
 0.10766840053E+02 0.11218815937E+02 0.10205865022E+02 0.76974820816E+01 0.43546743229E+01
 0.13439735800E+01 0.34156711657E+00 -.78573123056E+00 0.34166248196E+00 0.32707851339E+01
 0.68692514699E+01 0.98681495961E+01 0.11412928537E+02 0.11347864782E+02 0.10141970034E+02
 0.85398356689E+01 0.69988345650E+01 0.56796006960E+01 0.46571663754E+01 0.39462904536E+01
 0.35320116544E+01 0.33962591886E+01 0.35319236363E+01 0.39462815935E+01 0.46572365460E+01
 0.56795767015E+01 0.69987110100E+01 0.85397979146E+01 0.10142053041E+02 0.11347900416E+02
 0.11412860082E+02 0.98680992036E+01 0.68692504375E+01 0.32707306981E+01 0.30709565254E+01
 0.50023592912E+00 -.15255858138E+00 0.13440527323E+01 0.43546697735E+01 0.76974710156E+01