unknown system                          
   1.00000000000000     
    -2.450000    2.450000    1.274000
     2.450000   -2.450000    1.274000
     2.450000    2.450000   -1.274000
   Si
     2
Direct
  0.250000  0.750000  0.500000
  0.000000  0.000000  0.000000
 
   28   28   28
 -.54775592059E+01 -.39427208756E+01 0.42992311661E-01 0.49475087798E+01 0.90877382377E+01
 0.11369456209E+02 0.11623930038E+02 0.10457520537E+02 0.87872964566E+01 0.71847367673E+01
 0.58250069777E+01 0.47779991096E+01 0.40518303619E+01 0.36283905971E+01 0.34894601018E+01
 0.36283127376E+01 0.40518583801E+01 0.47781352249E+01 0.58250572192E+01 0.71846701102E+01
 0.87872785759E+01 0.10457584131E+02 0.11623946422E+02 0.11369431859E+02 0.90878005096E+01
 0.49476038327E+01 0.42943338069E-01 -.39428601401E+01 -.39428601401E+01 -.47474154640E+01
 -.26073725534E+01 0.16098837184E+01 0.63013845011E+01 0.99114804431E+01 0.11583495713E+02
 0.11369320510E+02 0.99882796455E+01 0.83164198287E+01 0.67742326260E+01 0.54994908542E+01
 0.45425717008E+01 0.39013516155E+01 0.35556371030E+01 0.34895111545E+01 0.36995718580E+01
 0.41957251198E+01 0.49972909960E+01 0.61187359145E+01 0.75413960753E+01 0.91781541457E+01
 0.10810831046E+02 0.11759693227E+02 0.11140281483E+02 0.84935505838E+01 0.41916513609E+01
 -.51526486828E+00 0.42943338069E-01 -.26074648482E+01 -.26906204819E+01 -.18234071621E+00
 0.38885007790E+01 0.79767378269E+01 0.10762210541E+02 0.11673560846E+02 0.10968637868E+02
 0.94266601084E+01 0.77901494246E+01 0.63323661825E+01 0.51597768705E+01 0.43030760654E+01
 0.37516230332E+01 0.34848184070E+01 0.34896336883E+01 0.37657830364E+01 0.43255729837E+01
 0.51885659116E+01 0.63647972245E+01 0.78255245868E+01 0.94700477333E+01 0.11042207629E+02
 0.11817504213E+02 0.10996023720E+02 0.82773083004E+01 0.41916513609E+01 0.49476038327E+01
 0.16098678522E+01 -.18236012038E+00 0.32353930400E+00 0.28993350252E+01 0.64640714109E+01
 0.96477246776E+01 0.11438123683E+02 0.11556918051E+02 0.10424823556E+02 0.88096777084E+01
 0.72374620380E+01 0.58835981632E+01 0.48240044268E+01 0.40716439762E+01 0.36099391830E+01
 0.34193470287E+01 0.34897936735E+01 0.38235680975E+01 0.44346159387E+01 0.53417687043E+01
 0.65502188277E+01 0.80227838155E+01 0.96500496772E+01 0.11155535405E+02 0.11832256497E+02
 0.10996023720E+02 0.84935505838E+01 0.90878005096E+01 0.63014177825E+01 0.38885201031E+01
 0.28993843202E+01 0.37768011014E+01 0.61185685233E+01 0.89018215390E+01 0.11018125023E+02
 0.11790943253E+02 0.11204334600E+02 0.97787835420E+01 0.81723782496E+01 0.66892443502E+01
 0.54523175526E+01 0.45095026316E+01 0.38596877686E+01 0.34831927440E+01 0.33624497520E+01
 0.34899518814E+01 0.38698774425E+01 0.45170250499E+01 0.54487001427E+01 0.66653856764E+01
 0.81237411010E+01 0.97108343628E+01 0.11155535405E+02 0.11817504213E+02 0.11140281483E+02
 0.11369431859E+02 0.99114556215E+01 0.79767053739E+01 0.64641117873E+01 0.61186588315E+01
 0.71207811154E+01 0.89875270588E+01 0.10844613319E+02 0.11888825123E+02 0.11762284902E+02
 0.10651407969E+02 0.91001000439E+01 0.75507027179E+01 0.61753938494E+01 0.50607641788E+01
 0.42316296543E+01 0.36773451791E+01 0.33775750133E+01 0.33170030709E+01 0.34900777479E+01
 0.39022165706E+01 0.45683361116E+01 0.55036347922E+01 0.67044309378E+01 0.81237411010E+01
 0.96500496772E+01 0.11042207629E+02 0.11759693227E+02 0.11623946422E+02 0.11583480515E+02
 0.10762118792E+02 0.96476427734E+01 0.89018628205E+01 0.89876232863E+01 0.98961099084E+01
 0.11151423103E+02 0.12084418289E+02 0.12195958979E+02 0.11393911236E+02 0.99906385924E+01
 0.84419302301E+01 0.69791431447E+01 0.57221966575E+01 0.47274750973E+01 0.40030058261E+01
 0.35330505695E+01 0.32982514226E+01 0.32853408226E+01 0.34901556746E+01 0.39188345120E+01
 0.45857560679E+01 0.55036347922E+01 0.66653856764E+01 0.80227838155E+01 0.94700477333E+01
 0.10810831046E+02 0.10457584131E+02 0.11369407095E+02 0.11673562852E+02 0.11438005091E+02
 0.11018022489E+02 0.10844640499E+02 0.11151497884E+02 0.11820475303E+02 0.12449007895E+02
 0.12590709048E+02 0.12011735301E+02 0.10810669967E+02 0.93325573280E+01 0.78440418893E+01
 0.64877141889E+01 0.53506221289E+01 0.44665554685E+01 0.38332031090E+01 0.34332525556E+01
 0.32490787487E+01 0.32690933176E+01 0.34901816778E+01 0.39188345120E+01 0.45683361116E+01
 0.54487001427E+01 0.65502188277E+01 0.78255245868E+01 0.91781541457E+01 0.87872785759E+01
 0.99883534762E+01 0.10968757526E+02 0.11556939301E+02 0.11790838294E+02 0.11888731889E+02
 0.12084426700E+02 0.12449048751E+02 0.12825245038E+02 0.12920262257E+02 0.12493104647E+02
 0.11511590378E+02 0.10179139730E+02 0.87382730012E+01 0.73415804241E+01 0.61000966048E+01
 0.50757885307E+01 0.42877420274E+01 0.37287948464E+01 0.33822739188E+01 0.32324229132E+01
 0.32690933176E+01 0.34901556746E+01 0.39022165706E+01 0.45170250499E+01 0.53417687043E+01
 0.63647972245E+01 0.75413960753E+01 0.71846701102E+01 0.83163597276E+01 0.94267100836E+01
 0.10424935185E+02 0.11204369468E+02 0.11762219578E+02 0.12195895984E+02 0.12590702583E+02
 0.12920270456E+02 0.13037632127E+02 0.12766519869E+02 0.12028877401E+02 0.10918367498E+02
 0.96110709364E+01 0.82510720590E+01 0.69626913481E+01 0.58331055394E+01 0.49074113835E+01
 0.41969574439E+01 0.36935794789E+01 0.33822739188E+01 0.32490787487E+01 0.32853408226E+01
 0.34900777479E+01 0.38698774425E+01 0.44346159387E+01 0.51885659116E+01 0.61187359145E+01
 0.58250572192E+01 0.67741632872E+01 0.77900631621E+01 0.88096865115E+01 0.97788584160E+01
 0.10651446479E+02 0.11393892060E+02 0.12011709665E+02 0.12493090800E+02 0.12766504980E+02
 0.12721192323E+02 0.12280283901E+02 0.11470465188E+02 0.10391472969E+02 0.91619500209E+01
 0.79058855019E+01 0.67274501340E+01 0.56971625347E+01 0.48507399772E+01 0.41969574439E+01
 0.37287948464E+01 0.34332525556E+01 0.32982514226E+01 0.33170030709E+01 0.34899518814E+01
 0.38235680975E+01 0.43255729837E+01 0.49972909960E+01 0.47781352249E+01 0.54995593589E+01
 0.63323169301E+01 0.72373749120E+01 0.81723502055E+01 0.91001294549E+01 0.99906712762E+01
 0.10810687512E+02 0.11511596846E+02 0.12028863273E+02 0.12280257989E+02 0.12195631715E+02
 0.11755933297E+02 0.10996662661E+02 0.10000200971E+02 0.88742993773E+01 0.77270562725E+01
 0.66477322550E+01 0.56971625347E+01 0.49074113835E+01 0.42877420274E+01 0.38332031090E+01
 0.35330505695E+01 0.33775750133E+01 0.33624497520E+01 0.34897936735E+01 0.37657830364E+01
 0.41957251198E+01 0.40518583801E+01 0.45426590204E+01 0.51598414314E+01 0.58835801984E+01
 0.66891797569E+01 0.75506566595E+01 0.84419226049E+01 0.93325779177E+01 0.10179176393E+02
 0.10918394184E+02 0.11470455710E+02 0.11755906440E+02 0.11719494469E+02 0.11349264631E+02
 0.10681700014E+02 0.97919757246E+01 0.87752964411E+01 0.77270562725E+01 0.67274501340E+01
 0.58331055394E+01 0.50757885307E+01 0.44665554685E+01 0.40030058261E+01 0.36773451791E+01
 0.34831927440E+01 0.34193470287E+01 0.34896336883E+01 0.36995718580E+01 0.36283127376E+01
 0.39012879168E+01 0.43030857819E+01 0.48240458716E+01 0.54523281353E+01 0.61753640276E+01
 0.69791003926E+01 0.78440134162E+01 0.87382783785E+01 0.96111091195E+01 0.10391507933E+02
 0.10996660007E+02 0.11349242093E+02 0.11397242600E+02 0.11128011637E+02 0.10571390388E+02
 0.97919757246E+01 0.88742993773E+01 0.79058855019E+01 0.69626913481E+01 0.61000966048E+01
 0.53506221289E+01 0.47274750973E+01 0.42316296543E+01 0.38596877686E+01 0.36099391830E+01
 0.34848184070E+01 0.34895111545E+01 0.34894601018E+01 0.35555147286E+01 0.37514858243E+01
 0.40715828673E+01 0.45095134298E+01 0.50607909811E+01 0.57222006261E+01 0.64876892898E+01
 0.73415456872E+01 0.82510615677E+01 0.91619784910E+01 0.10000236655E+02 0.10681703295E+02
 0.11127993128E+02 0.11283473095E+02 0.11128011637E+02 0.10681700014E+02 0.10000200971E+02
 0.91619500209E+01 0.82510720590E+01 0.73415804241E+01 0.64877141889E+01 0.57221966575E+01
 0.50607641788E+01 0.45095026316E+01 0.40716439762E+01 0.37516230332E+01 0.35556371030E+01
 0.36283905971E+01 0.34894956627E+01 0.34846865226E+01 0.36097791226E+01 0.38595926580E+01
 0.42316155520E+01 0.47275038803E+01 0.53506504310E+01 0.61000941825E+01 0.69626584860E+01
 0.79058612752E+01 0.88743163612E+01 0.97920100060E+01 0.10571396019E+02 0.11127993128E+02
 0.11397242600E+02 0.11349264631E+02 0.10996662661E+02 0.10391472969E+02 0.96110709364E+01
 0.87382730012E+01 0.78440418893E+01 0.69791431447E+01 0.61753938494E+01 0.54523175526E+01
 0.48240044268E+01 0.43030760654E+01 0.39013516155E+01 0.40518303619E+01 0.36995888246E+01
 0.34896085080E+01 0.34192462300E+01 0.34830708831E+01 0.36772633922E+01 0.40029801905E+01
 0.44665765476E+01 0.50758301678E+01 0.58331219827E+01 0.67274209224E+01 0.77270238768E+01
 0.87753084924E+01 0.97920100060E+01 0.10681703295E+02 0.11349242093E+02 0.11719494469E+02
 0.11755933297E+02 0.11470465188E+02 0.10918367498E+02 0.10179139730E+02 0.93325573280E+01
 0.84419302301E+01 0.75507027179E+01 0.66892443502E+01 0.58835981632E+01 0.51597768705E+01
 0.45425717008E+01 0.47779991096E+01 0.41956274447E+01 0.37657473280E+01 0.34897695655E+01
 0.33624122763E+01 0.33775376577E+01 0.35330172839E+01 0.38331782653E+01 0.42877528473E+01
 0.49074584331E+01 0.56971893960E+01 0.66477046492E+01 0.77270238768E+01 0.88743163612E+01
 0.10000236655E+02 0.10996660007E+02 0.11755906440E+02 0.12195631715E+02 0.12280283901E+02
 0.12028877401E+02 0.11511590378E+02 0.10810669967E+02 0.99906385924E+01 0.91001000439E+01
 0.81723782496E+01 0.72374620380E+01 0.63323661825E+01 0.54994908542E+01 0.58250069777E+01
 0.49971584576E+01 0.43254568346E+01 0.38235071732E+01 0.34899413116E+01 0.33170426750E+01
 0.32983128893E+01 0.34332761351E+01 0.37287758631E+01 0.41969615232E+01 0.48507883014E+01
 0.56971893960E+01 0.67274209224E+01 0.79058612752E+01 0.91619784910E+01 0.10391507933E+02
 0.11470455710E+02 0.12280257989E+02 0.12721192323E+02 0.12766519869E+02 0.12493104647E+02
 0.12011735301E+02 0.11393911236E+02 0.10651407969E+02 0.97787835420E+01 0.88096777084E+01
 0.77901494246E+01 0.67742326260E+01 0.71847367673E+01 0.61187189302E+01 0.51884897450E+01
 0.44345365651E+01 0.38698227163E+01 0.34900889426E+01 0.32854488323E+01 0.32492175938E+01
 0.33823346206E+01 0.36935635520E+01 0.41969615232E+01 0.49074584331E+01 0.58331219827E+01
 0.69626584860E+01 0.82510615677E+01 0.96111091195E+01 0.10918394184E+02 0.12028863273E+02
 0.12766504980E+02 0.13037632127E+02 0.12920262257E+02 0.12590709048E+02 0.12195958979E+02
 0.11762284902E+02 0.11204334600E+02 0.10424823556E+02 0.94266601084E+01 0.83164198287E+01
 0.87872964566E+01 0.75414345617E+01 0.63648159321E+01 0.53417798547E+01 0.45170151644E+01
 0.39021861649E+01 0.34901870728E+01 0.32692412904E+01 0.32325908335E+01 0.33823346206E+01
 0.37287758631E+01 0.42877528473E+01 0.50758301678E+01 0.61000941825E+01 0.73415456872E+01
 0.87382783785E+01 0.10179176393E+02 0.11511596846E+02 0.12493090800E+02 0.12920270456E+02
 0.12825245038E+02 0.12449007895E+02 0.12084418289E+02 0.11888825123E+02 0.11790943253E+02
 0.11556918051E+02 0.10968637868E+02 0.99882796455E+01 0.10457520537E+02 0.91781286599E+01
 0.78255179111E+01 0.65502652638E+01 0.54487962274E+01 0.45683908908E+01 0.39188245038E+01
 0.34902213059E+01 0.32692412904E+01 0.32492175938E+01 0.34332761351E+01 0.38331782653E+01
 0.44665765476E+01 0.53506504310E+01 0.64876892898E+01 0.78440134162E+01 0.93325779177E+01
 0.10810687512E+02 0.12011709665E+02 0.12590702583E+02 0.12449048751E+02 0.11820475303E+02
 0.11151423103E+02 0.10844613319E+02 0.11018125023E+02 0.11438123683E+02 0.11673560846E+02
 0.11369320510E+02 0.11623930038E+02 0.10810811450E+02 0.94699895991E+01 0.80227315609E+01
 0.66654479505E+01 0.55037824029E+01 0.45858368877E+01 0.39188245038E+01 0.34901870728E+01
 0.32854488323E+01 0.32983128893E+01 0.35330172839E+01 0.40029801905E+01 0.47275038803E+01
 0.57222006261E+01 0.69791003926E+01 0.84419226049E+01 0.99906712762E+01 0.11393892060E+02
 0.12195895984E+02 0.12084426700E+02 0.11151497884E+02 0.98961099084E+01 0.89875270588E+01
 0.89018215390E+01 0.96477246776E+01 0.10762210541E+02 0.11583495713E+02 0.11369456209E+02
 0.11759762578E+02 0.11042245210E+02 0.96499734658E+01 0.81236604783E+01 0.67044981141E+01
 0.55037824029E+01 0.45683908908E+01 0.39021861649E+01 0.34900889426E+01 0.33170426750E+01
 0.33775376577E+01 0.36772633922E+01 0.42316155520E+01 0.50607909811E+01 0.61753640276E+01
 0.75506566595E+01 0.91001294549E+01 0.10651446479E+02 0.11762219578E+02 0.11888731889E+02
 0.10844640499E+02 0.89876232863E+01 0.71207811154E+01 0.61185685233E+01 0.64640714109E+01
 0.79767378269E+01 0.99114804431E+01 0.90877382377E+01 0.11140306820E+02 0.11817643555E+02
 0.11155612751E+02 0.97107526939E+01 0.81236604783E+01 0.66654479505E+01 0.54487962274E+01
 0.45170151644E+01 0.38698227163E+01 0.34899413116E+01 0.33624122763E+01 0.34830708831E+01
 0.38595926580E+01 0.45095134298E+01 0.54523281353E+01 0.66891797569E+01 0.81723502055E+01
 0.97788584160E+01 0.11204369468E+02 0.11790838294E+02 0.11018022489E+02 0.89018628205E+01
 0.61186588315E+01 0.37768011014E+01 0.28993350252E+01 0.38885007790E+01 0.63013845011E+01
 0.49475087798E+01 0.84934145587E+01 0.10996047006E+02 0.11832422767E+02 0.11155612751E+02
 0.96499734658E+01 0.80227315609E+01 0.65502652638E+01 0.53417798547E+01 0.44345365651E+01
 0.38235071732E+01 0.34897695655E+01 0.34192462300E+01 0.36097791226E+01 0.40715828673E+01
 0.48240458716E+01 0.58835801984E+01 0.72373749120E+01 0.88096865115E+01 0.10424935185E+02
 0.11556939301E+02 0.11438005091E+02 0.96476427734E+01 0.64641117873E+01 0.28993843202E+01
 0.32353930400E+00 -.18234071621E+00 0.16098837184E+01 0.42992311661E-01 0.41915190212E+01
 0.82771433938E+01 0.10996047006E+02 0.11817643555E+02 0.11042245210E+02 0.94699895991E+01
 0.78255179111E+01 0.63648159321E+01 0.51884897450E+01 0.43254568346E+01 0.37657473280E+01
 0.34896085080E+01 0.34846865226E+01 0.37514858243E+01 0.43030857819E+01 0.51598414314E+01
 0.63323169301E+01 0.77900631621E+01 0.94267100836E+01 0.10968757526E+02 0.11673562852E+02
 0.10762118792E+02 0.79767053739E+01 0.38885201031E+01 -.18236012038E+00 -.26906204819E+01
 -.26073725534E+01 -.39427208756E+01 -.51520235282E+00 0.41915190212E+01 0.84934145587E+01
 0.11140306820E+02 0.11759762578E+02 0.10810811450E+02 0.91781286599E+01 0.75414345617E+01
 0.61187189302E+01 0.49971584576E+01 0.41956274447E+01 0.36995888246E+01 0.34894956627E+01
 0.35555147286E+01 0.39012879168E+01 0.45426590204E+01 0.54995593589E+01 0.67741632872E+01
 0.83163597276E+01 0.99883534762E+01 0.11369407095E+02 0.11583480515E+02 0.99114556215E+01
 0.63014177825E+01 0.16098678522E+01 -.26074648482E+01 -.47474154640E+01 -.39422277179E+01
 -.28251005920E+01 0.64227754108E+00 0.51074772833E+01 0.89898665436E+01 0.11192060232E+02
 0.11470954744E+02 0.10347733688E+02 0.86914941479E+01 0.70842045646E+01 0.57091242123E+01
 0.46414933852E+01 0.38921033504E+01 0.34417429721E+01 0.32687928272E+01 0.33634320486E+01
 0.37313548929E+01 0.43916059657E+01 0.53659403966E+01 0.66542868680E+01 0.81996370871E+01
 0.98536887295E+01 0.11161050594E+02 0.11260748250E+02 0.95113372799E+01 0.59611900987E+01
 0.15293016974E+01 -.22610790243E+01 -.28252431698E+01 -.39422153152E+01 -.22609474998E+01
 0.15293626497E+01 0.59612209412E+01 0.95114999973E+01 0.11260951813E+02 0.11161091547E+02
 0.98536507794E+01 0.81997427720E+01 0.66544659836E+01 0.53659570021E+01 0.43915015086E+01
 0.37313515276E+01 0.33635057064E+01 0.32687559616E+01 0.34416420281E+01 0.38921181253E+01
 0.46415470251E+01 0.57090084172E+01 0.70839911203E+01 0.86914125432E+01 0.10347743446E+02
 0.11470847358E+02 0.11191879023E+02 0.89898133641E+01 0.51075058916E+01 0.64219177530E+00
 0.77883031256E+00 -.21104937534E+01 -.26069357612E+01 -.52667811134E+00 0.32603152120E+01
 0.72836228343E+01 0.10187214887E+02 0.11293393001E+02 0.10752503291E+02 0.92867571418E+01
 0.76674155233E+01 0.62064972000E+01 0.50218320156E+01 0.41512722964E+01 0.35856777129E+01
 0.33021670784E+01 0.32851060309E+01 0.35334769458E+01 0.40607428814E+01 0.48891805418E+01
 0.60337628936E+01 0.74736133351E+01 0.91187899167E+01 0.10750018213E+02 0.11708638232E+02
 0.11178671135E+02 0.87793644035E+01 0.49165082172E+01 0.54417125204E+01 0.19189193872E+01
 -.24806413411E+00 -.18204386461E+00 0.20546514454E+01 0.54987949616E+01 0.87899332867E+01
 0.10825410715E+02 0.11198903470E+02 0.10235066112E+02 0.86787150709E+01 0.71205342789E+01
 0.57628069673E+01 0.46934704847E+01 0.39316456293E+01 0.34611207710E+01 0.32600689863E+01
 0.33169651686E+01 0.36346678777E+01 0.42290190476E+01 0.51218399712E+01 0.63231808673E+01
 0.78029646887E+01 0.94607337603E+01 0.11051279707E+02 0.11899704735E+02 0.11282393459E+02
 0.89576523243E+01 0.95007818295E+01 0.65826592467E+01 0.38475387451E+01 0.24225927878E+01
 0.28994452195E+01 0.50225115780E+01 0.78337178795E+01 0.10177330684E+02 0.11253847633E+02
 0.10920896874E+02 0.96285781709E+01 0.80601538523E+01 0.65860639556E+01 0.53451139633E+01
 0.43960015671E+01 0.37419197473E+01 0.33625813217E+01 0.32386897893E+01 0.33626280473E+01
 0.37401198217E+01 0.43881609122E+01 0.53269929505E+01 0.65615385382E+01 0.80543956921E+01
 0.96993003629E+01 0.11244387496E+02 0.12052176752E+02 0.11511631794E+02 0.11817674234E+02
 0.10289352621E+02 0.81106335464E+01 0.62076498962E+01 0.54343252582E+01 0.61184882867E+01
 0.78866391995E+01 0.98768574723E+01 0.11199768893E+02 0.11366693834E+02 0.10458294024E+02
 0.89852951508E+01 0.74608860903E+01 0.60901446925E+01 0.49729324009E+01 0.41422802608E+01
 0.35897485626E+01 0.32939243145E+01 0.32387367951E+01 0.34196958450E+01 0.38442455676E+01
 0.45294292125E+01 0.54930979685E+01 0.67353094124E+01 0.82134937814E+01 0.98200384703E+01
 0.11318777686E+02 0.12149491943E+02 0.12153836537E+02 0.12108365413E+02 0.11140520078E+02
 0.97259268615E+01 0.85851876609E+01 0.83001008139E+01 0.89873032374E+01 0.10236362567E+02
 0.11349133126E+02 0.11723690051E+02 0.11150741856E+02 0.98694451964E+01 0.83592154895E+01
 0.69106859301E+01 0.56562196239E+01 0.46624881763E+01 0.39425689507E+01 0.34811850358E+01
 0.32580402155E+01 0.32601913798E+01 0.34852578330E+01 0.39413982067E+01 0.46448134733E+01
 0.56104380426E+01 0.68339926342E+01 0.82698297907E+01 0.98128779610E+01 0.11259870462E+02
 0.11054015760E+02 0.12019438725E+02 0.12275954271E+02 0.11856639724E+02 0.11130866013E+02
 0.10603956079E+02 0.10619353078E+02 0.11151137282E+02 0.11822104645E+02 0.12132568895E+02
 0.11750025303E+02 0.10684098719E+02 0.92540870148E+01 0.77858221971E+01 0.64368830880E+01
 0.53035901018E+01 0.44262284248E+01 0.38045726548E+01 0.34207613263E+01 0.32568141085E+01
 0.33023068840E+01 0.35560782863E+01 0.40262886005E+01 0.47276404419E+01 0.56718368743E+01
 0.68508618281E+01 0.82178407876E+01 0.96735697500E+01 0.94053580487E+01 0.10697159719E+02
 0.11711148347E+02 0.12230377354E+02 0.12276771217E+02 0.12098951291E+02 0.12005294687E+02
 0.12155189063E+02 0.12448742380E+02 0.12589608098E+02 0.12276981865E+02 0.11399403944E+02
 0.10109575013E+02 0.86858943896E+01 0.72979993553E+01 0.60623847481E+01 0.50467558852E+01
 0.42729371905E+01 0.37336741055E+01 0.34115026692E+01 0.32910030902E+01 0.33635711391E+01
 0.36287479384E+01 0.40943161474E+01 0.47730382886E+01 0.56731979992E+01 0.67835949725E+01
 0.80577786737E+01 0.77964979751E+01 0.90202739616E+01 0.10203655291E+02 0.11221869346E+02
 0.11927945803E+02 0.12316860379E+02 0.12522092846E+02 0.12692777947E+02 0.12864846459E+02
 0.12920068321E+02 0.12663480858E+02 0.11965156616E+02 0.10868696747E+02 0.95640654622E+01
 0.82075651639E+01 0.69242726098E+01 0.58045924392E+01 0.48955543955E+01 0.42082138687E+01
 0.37331434339E+01 0.34548044426E+01 0.33600390973E+01 0.34416406081E+01 0.36997898905E+01
 0.41418088527E+01 0.47782465549E+01 0.56138376117E+01 0.66347182197E+01 0.64117725946E+01
 0.74477540730E+01 0.85393761157E+01 0.96084193940E+01 0.10582668389E+02 0.11386912647E+02
 0.11988055195E+02 0.12424980065E+02 0.12733640955E+02 0.12881082716E+02 0.12766406811E+02
 0.12291619999E+02 0.11451265486E+02 0.10351431888E+02 0.91125265458E+01 0.78561152563E+01
 0.66868009917E+01 0.56752542677E+01 0.48557861237E+01 0.42349519527E+01 0.38041395814E+01
 0.35501566301E+01 0.34617837030E+01 0.35332656432E+01 0.37657492535E+01 0.41662029364E+01
 0.47427810313E+01 0.54965981968E+01 0.53277382846E+01 0.61270951698E+01 0.70316891122E+01
 0.79914954665E+01 0.89508883239E+01 0.98609310916E+01 0.10685442613E+02 0.11389307282E+02
 0.11945715166E+02 0.12321702742E+02 0.12456150242E+02 0.12280230856E+02 0.11769415366E+02
 0.10962788652E+02 0.99386826705E+01 0.88021482603E+01 0.76601593470E+01 0.66004536749E+01
 0.56809033948E+01 0.49298506249E+01 0.43535129219E+01 0.39454408206E+01 0.36947689149E+01
 0.35922977270E+01 0.36342645401E+01 0.38233118831E+01 0.41661761931E+01 0.46684550018E+01
 0.45592616652E+01 0.51165985113E+01 0.57971165907E+01 0.65733429971E+01 0.74105155052E+01
 0.82723626828E+01 0.91256803971E+01 0.99394791715E+01 0.10677765720E+02 0.11291160174E+02
 0.11716086582E+02 0.11886705131E+02 0.11755910065E+02 0.11314721307E+02 0.10599833597E+02
 0.96859879595E+01 0.86675794497E+01 0.76377867204E+01 0.66726031571E+01 0.58233317395E+01
 0.51169617327E+01 0.45614554666E+01 0.41529712990E+01 0.38832198148E+01 0.37457394384E+01
 0.37396267119E+01 0.38694745392E+01 0.41417213515E+01 0.40941455115E+01 0.44211406679E+01
 0.48750466565E+01 0.54411495832E+01 0.61003241167E+01 0.68317434467E+01 0.76142125949E+01
 0.84247335373E+01 0.92336219126E+01 0.99979952055E+01 0.10658549833E+02 0.11144833571E+02
 0.11389926022E+02 0.11349247573E+02 0.11015030015E+02 0.10420101217E+02 0.96300238659E+01
 0.87275424004E+01 0.77954403297E+01 0.69031223582E+01 0.60996002638E+01 0.54127194724E+01
 0.48528684932E+01 0.44192837756E+01 0.41072917060E+01 0.39145115155E+01 0.38437915524E+01
 0.39017485488E+01 0.39183528671E+01 0.40260038601E+01 0.42616572523E+01 0.46167110457E+01
 0.50797788018E+01 0.56400882849E+01 0.62882561805E+01 0.70137292987E+01 0.77996306824E+01
 0.86165077208E+01 0.94175179906E+01 0.10138592500E+02 0.10706188544E+02 0.11051732786E+02
 0.11127989778E+02 0.10921256580E+02 0.10455072045E+02 0.97844730685E+01 0.89830831286E+01
 0.81275361952E+01 0.72841774016E+01 0.65013734904E+01 0.58081110897E+01 0.52175199572E+01
 0.47332043678E+01 0.43561306792E+01 0.40897037324E+01 0.39410683946E+01 0.40260924676E+01
 0.39183570756E+01 0.39409847733E+01 0.40895963585E+01 0.43560328014E+01 0.47331068037E+01
 0.52174402004E+01 0.58080791473E+01 0.65013598694E+01 0.72841287459E+01 0.81274725195E+01
 0.89830680451E+01 0.97845010897E+01 0.10455080716E+02 0.10921236919E+02 0.11127986074E+02
 0.11051744928E+02 0.10706177156E+02 0.10138574324E+02 0.94175534379E+01 0.86165938377E+01
 0.77997028624E+01 0.70137690522E+01 0.62883055011E+01 0.56401609358E+01 0.50798490057E+01
 0.46167840995E+01 0.42617568888E+01 0.44211897483E+01 0.40942092450E+01 0.39017562283E+01
 0.38437386856E+01 0.39144432619E+01 0.41072128107E+01 0.44191817222E+01 0.48527867366E+01
 0.54127046619E+01 0.60996115504E+01 0.69030935314E+01 0.77953946045E+01 0.87275436838E+01
 0.96300544495E+01 0.10420096206E+02 0.11014997176E+02 0.11349243428E+02 0.11389945658E+02
 0.11144833883E+02 0.10658552469E+02 0.99980568595E+01 0.92337265985E+01 0.84248174177E+01
 0.76142702383E+01 0.68318107094E+01 0.61003866177E+01 0.54411703601E+01 0.48750548616E+01
 0.51165284629E+01 0.45592436924E+01 0.41417396935E+01 0.38694738316E+01 0.37396154447E+01
 0.37457373351E+01 0.38831841054E+01 0.41528793371E+01 0.45613813946E+01 0.51169673042E+01
 0.58233601062E+01 0.66725828378E+01 0.76377561312E+01 0.86676003740E+01 0.96860206620E+01
 0.10599813662E+02 0.11314683469E+02 0.11755920964E+02 0.11886744887E+02 0.11716107662E+02
 0.11291192436E+02 0.10677853703E+02 0.99395839856E+01 0.91257483386E+01 0.82724202755E+01
 0.74105948445E+01 0.65733892084E+01 0.57970763756E+01 0.61269976159E+01 0.53276114960E+01
 0.46683866749E+01 0.41661457912E+01 0.38232912004E+01 0.36342887650E+01 0.35923573039E+01
 0.36947711317E+01 0.39453631896E+01 0.43534602766E+01 0.49298812294E+01 0.56809373718E+01
 0.66004324679E+01 0.76601494744E+01 0.88021984199E+01 0.99387217915E+01 0.10962762181E+02
 0.11769389600E+02 0.12280268423E+02 0.12456208526E+02 0.12321741806E+02 0.11945778358E+02
 0.11389411552E+02 0.10685518002E+02 0.98609498942E+01 0.89509231486E+01 0.79915698356E+01
 0.70317058974E+01 0.74477234267E+01 0.64116349768E+01 0.54964606532E+01 0.47427002025E+01
 0.41661357166E+01 0.37657042663E+01 0.35333090963E+01 0.34618749197E+01 0.35501706352E+01
 0.38040762051E+01 0.42349357395E+01 0.48558429821E+01 0.56752818865E+01 0.66867780493E+01
 0.78561389423E+01 0.91126139221E+01 0.10351480227E+02 0.11451245184E+02 0.12291622082E+02
 0.12766467550E+02 0.12881139185E+02 0.12733682992E+02 0.12425065651E+02 0.11988156276E+02
 0.11386929680E+02 0.10582616338E+02 0.96084143616E+01 0.85394205296E+01 0.90202665916E+01
 0.77964065499E+01 0.66345669717E+01 0.56137383617E+01 0.47781897994E+01 0.41417232856E+01
 0.36997271836E+01 0.34416875050E+01 0.33601239349E+01 0.34548026769E+01 0.37330987590E+01
 0.42082464968E+01 0.48956317027E+01 0.58046046697E+01 0.69242567318E+01 0.82076344311E+01
 0.95641864005E+01 0.10868749727E+02 0.11965153039E+02 0.12663516729E+02 0.12920131656E+02
 0.12864869271E+02 0.12692802070E+02 0.12522183083E+02 0.12316933431E+02 0.11927889416E+02
 0.11221751149E+02 0.10203609948E+02 0.10697093920E+02 0.94052927415E+01 0.80576303415E+01
 0.67834615157E+01 0.56731694365E+01 0.47730226693E+01 0.40942292317E+01 0.36286843687E+01
 0.33636137232E+01 0.32910533637E+01 0.34114738979E+01 0.37336614619E+01 0.42730234683E+01
 0.50468400598E+01 0.60623786412E+01 0.72980051371E+01 0.86860102331E+01 0.10109708096E+02
 0.11399448260E+02 0.12277000125E+02 0.12589672342E+02 0.12448780259E+02 0.12155151324E+02
 0.12005284517E+02 0.12099022817E+02 0.12276791546E+02 0.12230253488E+02 0.11710998030E+02
 0.12019307458E+02 0.11053961490E+02 0.96734612362E+01 0.82176636052E+01 0.68507785983E+01
 0.56718857040E+01 0.47276593584E+01 0.40262135558E+01 0.35560366136E+01 0.33023462751E+01
 0.32568207729E+01 0.34207167341E+01 0.38046095815E+01 0.44263602607E+01 0.53036623587E+01
 0.64368633942E+01 0.77858626920E+01 0.92542322356E+01 0.10684207038E+02 0.11750043758E+02
 0.12132609025E+02 0.11822184609E+02 0.11151129510E+02 0.10619250551E+02 0.10603909881E+02
 0.11130896161E+02 0.11856588924E+02 0.12275787991E+02 0.12108193339E+02 0.12153771161E+02
 0.11259854844E+02 0.98127560632E+01 0.82696711232E+01 0.68339866764E+01 0.56105472391E+01
 0.46448460369E+01 0.39413470647E+01 0.34852595092E+01 0.32602319701E+01 0.32580117388E+01
 0.34811511890E+01 0.39426660702E+01 0.46626417871E+01 0.56562607853E+01 0.69106637479E+01
 0.83592944142E+01 0.98695848806E+01 0.11150784134E+02 0.11723669485E+02 0.11349190822E+02
 0.10236443059E+02 0.89872489529E+01 0.82999603072E+01 0.85851223325E+01 0.97259016173E+01
 0.11140393706E+02 0.10289167834E+02 0.11817535790E+02 0.12149515468E+02 0.11318807647E+02
 0.98199354696E+01 0.82134039570E+01 0.67353926475E+01 0.54932350638E+01 0.45294546995E+01
 0.38442307344E+01 0.34197516385E+01 0.32387783219E+01 0.32938784953E+01 0.35897529857E+01
 0.41424301732E+01 0.49730708342E+01 0.60901411212E+01 0.74608749762E+01 0.89854021303E+01
 0.10458384780E+02 0.11366640635E+02 0.11199707078E+02 0.98769231671E+01 0.78867037417E+01
 0.61184057248E+01 0.54341965940E+01 0.62075953895E+01 0.81105546852E+01 0.65825463631E+01
 0.95005798236E+01 0.11511561584E+02 0.12052280455E+02 0.11244446060E+02 0.96992395722E+01
 0.80544079999E+01 0.65616987838E+01 0.53271197755E+01 0.43881686312E+01 0.37401502948E+01
 0.33627299602E+01 0.32387227551E+01 0.33625361933E+01 0.37419766401E+01 0.43961747295E+01
 0.53451964484E+01 0.65860127011E+01 0.80601640931E+01 0.96286893029E+01 0.10920902686E+02
 0.11253696730E+02 0.10177239074E+02 0.78337752512E+01 0.50225415328E+01 0.28993606628E+01
 0.24225268173E+01 0.38475239855E+01 0.19189565671E+01 0.54415977517E+01 0.89574902084E+01
 0.11282413704E+02 0.11899853961E+02 0.11051336390E+02 0.94607250378E+01 0.78030814953E+01
 0.63233800185E+01 0.51219220626E+01 0.42290100610E+01 0.36347420443E+01 0.33170846087E+01
 0.32600768941E+01 0.34610887398E+01 0.39317482149E+01 0.46936214636E+01 0.57628022741E+01
 0.71204447108E+01 0.86787480899E+01 0.10235150465E+02 0.11198811764E+02 0.10825193975E+02
 0.87898347418E+01 0.54988235475E+01 0.20546288284E+01 -.18210970122E+00 -.24804039626E+00
 -.21103902716E+01 0.77890724010E+00 0.49164250853E+01 0.87792959837E+01 0.11178783697E+02
 0.11708787115E+02 0.10750046407E+02 0.91188313721E+01 0.74738044978E+01 0.60339465448E+01
 0.48891960507E+01 0.40607257233E+01 0.35335782234E+01 0.32852022142E+01 0.33021353707E+01
 0.35856639450E+01 0.41513941470E+01 0.50219142061E+01 0.62063959733E+01 0.76673065837E+01
 0.92868025674E+01 0.10752532726E+02 0.11293222658E+02 0.10186991666E+02 0.72835456082E+01
 0.32602991905E+01 -.52676153032E+00 -.26069745500E+01 0.44206337355E-01 0.77970718139E+00
 0.34483012630E+01 0.69678669899E+01 0.10014852171E+02 0.11641536857E+02 0.11623390548E+02
 0.10407677446E+02 0.87561367224E+01 0.71611969255E+01 0.57886331863E+01 0.47116596955E+01
 0.39422849515E+01 0.34622187145E+01 0.32491583488E+01 0.32911088979E+01 0.35907427806E+01
 0.41646257537E+01 0.50353078388E+01 0.62101835283E+01 0.76490464873E+01 0.92342222539E+01
 0.10676007095E+02 0.11273524145E+02 0.10392221380E+02 0.79423488561E+01 0.45804865779E+01
 0.15299533112E+01 0.64300352660E+00 -.51381464035E+00 0.64310553275E+00 0.36242122178E+01
 0.72191337594E+01 0.10106928135E+02 0.11452855725E+02 0.11181448399E+02 0.98470510234E+01
 0.82159324527E+01 0.66882310054E+01 0.54055909594E+01 0.44259898587E+01 0.37514397282E+01
 0.33603543567E+01 0.32324243446E+01 0.33602182706E+01 0.37514247226E+01 0.44260923496E+01
 0.54055482185E+01 0.66880514899E+01 0.82159062525E+01 0.98472040575E+01 0.11181492890E+02
 0.11452721101E+02 0.10106850737E+02 0.72191812757E+01 0.36241964505E+01 0.34482261359E+01
 0.77963718621E+00 0.44290121131E-01 0.15300493912E+01 0.45804235654E+01 0.79422847735E+01