   2   2   0   0
  0.1529437E+02  0.3691622E-09  0.3691622E-09  0.3691622E-09  0.5000000E-15
  1.000000000000000E-004
  CAR 
 unknown system                          
     20.96421737     -6.61459079  301      8.71252136      1.00000000
     -6.615  0.0000E+00  0.0000E+00
     -6.523  0.0000E+00  0.0000E+00
     -6.431  0.0000E+00  0.0000E+00
     -6.339  0.0000E+00  0.0000E+00
     -6.247  0.0000E+00  0.0000E+00
     -6.155  0.0000E+00  0.0000E+00
     -6.063  0.0000E+00  0.0000E+00
     -5.971  0.0000E+00  0.0000E+00
     -5.879  0.0000E+00  0.0000E+00
     -5.787  0.2982E-17  0.2741E-18
     -5.695  0.5725E-15  0.5291E-16
     -5.603  0.7236E-13  0.6705E-14
     -5.511  0.6032E-11  0.5612E-12
     -5.420  0.3319E-09  0.3107E-10
     -5.328  0.1206E-07  0.1140E-08
     -5.236  0.2899E-06  0.2779E-07
     -5.144  0.4611E-05  0.4516E-06
     -5.052  0.4858E-04  0.4918E-05
     -4.960  0.3394E-03  0.3612E-04
     -4.868  0.1574E-02  0.1808E-03
     -4.776  0.4848E-02  0.6265E-03
     -4.684  0.9924E-02  0.1539E-02
     -4.592  0.1351E-01  0.2781E-02
     -4.500  0.1223E-01  0.3905E-02
     -4.408  0.7360E-02  0.4581E-02
     -4.316  0.2945E-02  0.4852E-02
     -4.224  0.7832E-03  0.4924E-02
     -4.132  0.1383E-03  0.4937E-02
     -4.041  0.1621E-04  0.4938E-02
     -3.949  0.1674E-05  0.4938E-02
     -3.857  0.7683E-05  0.4939E-02
     -3.765  0.9218E-04  0.4947E-02
     -3.673  0.7394E-03  0.5015E-02
     -3.581  0.3935E-02  0.5377E-02
     -3.489  0.1390E-01  0.6655E-02
     -3.397  0.3265E-01  0.9657E-02
     -3.305  0.5098E-01  0.1434E-01
     -3.213  0.5293E-01  0.1921E-01
     -3.121  0.3655E-01  0.2257E-01
     -3.029  0.1678E-01  0.2411E-01
     -2.937  0.5119E-02  0.2458E-01
     -2.845  0.1037E-02  0.2468E-01
     -2.754  0.1395E-03  0.2469E-01
     -2.662  0.1287E-04  0.2469E-01
     -2.570  0.8675E-05  0.2469E-01
     -2.478  0.9550E-04  0.2470E-01
     -2.386  0.7610E-03  0.2477E-01
     -2.294  0.4024E-02  0.2514E-01
     -2.202  0.1413E-01  0.2644E-01
     -2.110  0.3298E-01  0.2947E-01
     -2.018  0.5122E-01  0.3418E-01
     -1.926  0.5334E-01  0.3908E-01
     -1.834  0.3980E-01  0.4274E-01
     -1.742  0.3205E-01  0.4569E-01
     -1.650  0.4977E-01  0.5027E-01
     -1.558  0.8679E-01  0.5824E-01
     -1.467  0.1095E+00  0.6831E-01
     -1.375  0.9265E-01  0.7682E-01
     -1.283  0.5221E-01  0.8162E-01
     -1.191  0.1956E-01  0.8342E-01
     -1.099  0.4867E-02  0.8387E-01
     -1.007  0.8042E-03  0.8394E-01
     -0.915  0.8814E-04  0.8395E-01
     -0.823  0.6402E-05  0.8395E-01
     -0.731  0.3078E-06  0.8395E-01
     -0.639  0.9790E-08  0.8395E-01
     -0.547  0.2058E-09  0.8395E-01
     -0.455  0.2901E-11  0.8395E-01
     -0.363  0.4522E-11  0.8395E-01
     -0.271  0.2909E-09  0.8395E-01
     -0.180  0.1243E-07  0.8395E-01
     -0.088  0.3513E-06  0.8395E-01
      0.004  0.6565E-05  0.8395E-01
      0.096  0.8125E-04  0.8396E-01
      0.188  0.6666E-03  0.8402E-01
      0.280  0.3628E-02  0.8435E-01
      0.372  0.1311E-01  0.8556E-01
      0.464  0.3150E-01  0.8846E-01
      0.556  0.5046E-01  0.9309E-01
      0.648  0.5506E-01  0.9816E-01
      0.740  0.4806E-01  0.1026E+00
      0.832  0.6044E-01  0.1081E+00
      0.924  0.1234E+00  0.1195E+00
      1.016  0.2190E+00  0.1396E+00
      1.107  0.2703E+00  0.1645E+00
      1.199  0.2252E+00  0.1852E+00
      1.291  0.1263E+00  0.1968E+00
      1.383  0.4766E-01  0.2011E+00
      1.475  0.1212E-01  0.2023E+00
      1.567  0.2074E-02  0.2024E+00
      1.659  0.2391E-03  0.2025E+00
      1.751  0.1853E-04  0.2025E+00
      1.843  0.9642E-06  0.2025E+00
      1.935  0.3378E-07  0.2025E+00
      2.027  0.6841E-08  0.2025E+00
      2.119  0.1758E-06  0.2025E+00
      2.211  0.3416E-05  0.2025E+00
      2.303  0.4473E-04  0.2025E+00
      2.394  0.3983E-03  0.2025E+00
      2.486  0.2439E-02  0.2027E+00
      2.578  0.1039E-01  0.2037E+00
      2.670  0.3105E-01  0.2065E+00
      2.762  0.6547E-01  0.2126E+00
      2.854  0.9713E-01  0.2215E+00
      2.946  0.1006E+00  0.2307E+00
      3.038  0.7207E-01  0.2374E+00
      3.130  0.3532E-01  0.2406E+00
      3.222  0.1174E-01  0.2417E+00
      3.314  0.2627E-02  0.2419E+00
      3.406  0.3940E-03  0.2420E+00
      3.498  0.3945E-04  0.2420E+00
      3.590  0.2629E-05  0.2420E+00
      3.681  0.1164E-06  0.2420E+00
      3.773  0.3908E-08  0.2420E+00
      3.865  0.1996E-07  0.2420E+00
      3.957  0.5319E-06  0.2420E+00
      4.049  0.9408E-05  0.2420E+00
      4.141  0.1102E-03  0.2420E+00
      4.233  0.8559E-03  0.2421E+00
      4.325  0.4410E-02  0.2425E+00
      4.417  0.1509E-01  0.2439E+00
      4.509  0.3432E-01  0.2470E+00
      4.601  0.5189E-01  0.2518E+00
      4.693  0.5221E-01  0.2566E+00
      4.785  0.3519E-01  0.2598E+00
      4.877  0.1727E-01  0.2614E+00
      4.969  0.1180E-01  0.2625E+00
      5.060  0.2244E-01  0.2646E+00
      5.152  0.4918E-01  0.2691E+00
      5.244  0.8723E-01  0.2771E+00
      5.336  0.1184E+00  0.2880E+00
      5.428  0.1172E+00  0.2988E+00
      5.520  0.8134E-01  0.3062E+00
      5.612  0.3993E-01  0.3099E+00
      5.704  0.1951E-01  0.3117E+00
      5.796  0.2444E-01  0.3139E+00
      5.888  0.4466E-01  0.3180E+00
      5.980  0.6553E-01  0.3241E+00
      6.072  0.8394E-01  0.3318E+00
      6.164  0.1124E+00  0.3421E+00
      6.256  0.1452E+00  0.3555E+00
      6.347  0.1474E+00  0.3690E+00
      6.439  0.1071E+00  0.3789E+00
      6.531  0.6158E-01  0.3845E+00
      6.623  0.5138E-01  0.3892E+00
      6.715  0.7833E-01  0.3964E+00
      6.807  0.1070E+00  0.4063E+00
      6.899  0.1010E+00  0.4156E+00
      6.991  0.6381E-01  0.4214E+00
      7.083  0.2809E-01  0.4240E+00
      7.175  0.1554E-01  0.4254E+00
      7.267  0.3242E-01  0.4284E+00
      7.359  0.7994E-01  0.4358E+00
      7.451  0.1380E+00  0.4485E+00
      7.543  0.1608E+00  0.4632E+00
      7.634  0.1266E+00  0.4749E+00
      7.726  0.6747E-01  0.4811E+00
      7.818  0.2485E-01  0.4834E+00
      7.910  0.9694E-02  0.4843E+00
      8.002  0.1719E-01  0.4858E+00
      8.094  0.4621E-01  0.4901E+00
      8.186  0.8712E-01  0.4981E+00
      8.278  0.1095E+00  0.5082E+00
      8.370  0.9182E-01  0.5166E+00
      8.462  0.5348E-01  0.5215E+00
      8.554  0.3124E-01  0.5244E+00
      8.646  0.4314E-01  0.5284E+00
      8.738  0.7986E-01  0.5357E+00
      8.830  0.1081E+00  0.5456E+00
      8.921  0.9820E-01  0.5547E+00
      9.013  0.6042E-01  0.5602E+00
      9.105  0.2965E-01  0.5629E+00
      9.197  0.2488E-01  0.5652E+00
      9.289  0.3984E-01  0.5689E+00
      9.381  0.5387E-01  0.5738E+00
      9.473  0.4961E-01  0.5784E+00
      9.565  0.3044E-01  0.5812E+00
      9.657  0.1243E-01  0.5823E+00
      9.749  0.3417E-02  0.5827E+00
      9.841  0.1102E-02  0.5828E+00
      9.933  0.3376E-02  0.5831E+00
     10.025  0.1463E-01  0.5844E+00
     10.117  0.4302E-01  0.5884E+00
     10.208  0.8431E-01  0.5961E+00
     10.300  0.1107E+00  0.6063E+00
     10.392  0.9923E-01  0.6154E+00
     10.484  0.6440E-01  0.6213E+00
     10.576  0.3570E-01  0.6246E+00
     10.668  0.2523E-01  0.6269E+00
     10.760  0.3611E-01  0.6303E+00
     10.852  0.6998E-01  0.6367E+00
     10.944  0.1105E+00  0.6469E+00
     11.036  0.1286E+00  0.6587E+00
     11.128  0.1163E+00  0.6694E+00
     11.220  0.8830E-01  0.6775E+00
     11.312  0.5642E-01  0.6827E+00
     11.404  0.2799E-01  0.6852E+00
     11.495  0.9948E-02  0.6862E+00
     11.587  0.2422E-02  0.6864E+00
     11.679  0.3959E-03  0.6864E+00
     11.771  0.4312E-04  0.6864E+00
     11.863  0.3119E-05  0.6864E+00
     11.955  0.2273E-06  0.6864E+00
     12.047  0.1929E-05  0.6864E+00
     12.139  0.3140E-04  0.6864E+00
     12.231  0.3395E-03  0.6865E+00
     12.323  0.2434E-02  0.6867E+00
     12.415  0.1158E-01  0.6877E+00
     12.507  0.3663E-01  0.6911E+00
     12.599  0.7733E-01  0.6982E+00
     12.691  0.1108E+00  0.7084E+00
     12.783  0.1164E+00  0.7191E+00
     12.874  0.1145E+00  0.7296E+00
     12.966  0.1370E+00  0.7422E+00
     13.058  0.1649E+00  0.7574E+00
     13.150  0.1513E+00  0.7713E+00
     13.242  0.9576E-01  0.7801E+00
     13.334  0.4094E-01  0.7839E+00
     13.426  0.1177E-01  0.7849E+00
     13.518  0.2356E-02  0.7852E+00
     13.610  0.1089E-02  0.7853E+00
     13.702  0.4853E-02  0.7857E+00
     13.794  0.1944E-01  0.7875E+00
     13.886  0.5200E-01  0.7923E+00
     13.978  0.9246E-01  0.8008E+00
     14.070  0.1093E+00  0.8108E+00
     14.161  0.8598E-01  0.8187E+00
     14.253  0.4496E-01  0.8229E+00
     14.345  0.1563E-01  0.8243E+00
     14.437  0.3609E-02  0.8246E+00
     14.529  0.5542E-03  0.8247E+00
     14.621  0.7492E-04  0.8247E+00
     14.713  0.2110E-03  0.8247E+00
     14.805  0.1529E-02  0.8249E+00
     14.897  0.7521E-02  0.8255E+00
     14.989  0.2474E-01  0.8278E+00
     15.081  0.5482E-01  0.8329E+00
     15.173  0.8420E-01  0.8406E+00
     15.265  0.9819E-01  0.8496E+00
     15.357  0.1054E+00  0.8593E+00
     15.448  0.1170E+00  0.8701E+00
     15.540  0.1154E+00  0.8807E+00
     15.632  0.8602E-01  0.8886E+00
     15.724  0.5090E-01  0.8933E+00
     15.816  0.3879E-01  0.8968E+00
     15.908  0.4831E-01  0.9013E+00
     16.000  0.5541E-01  0.9064E+00
     16.092  0.4580E-01  0.9106E+00
     16.184  0.3250E-01  0.9136E+00
     16.276  0.4110E-01  0.9174E+00
     16.368  0.8417E-01  0.9251E+00
     16.460  0.1422E+00  0.9382E+00
     16.552  0.1720E+00  0.9540E+00
     16.644  0.1561E+00  0.9683E+00
     16.735  0.1205E+00  0.9794E+00
     16.827  0.8873E-01  0.9876E+00
     16.919  0.5951E-01  0.9930E+00
     17.011  0.3241E-01  0.9960E+00
     17.103  0.1524E-01  0.9974E+00
     17.195  0.1202E-01  0.9985E+00
     17.287  0.1902E-01  0.1000E+01
     17.379  0.2657E-01  0.1003E+01
     17.471  0.2550E-01  0.1005E+01
     17.563  0.1635E-01  0.1007E+01
     17.655  0.7219E-02  0.1007E+01
     17.747  0.3743E-02  0.1008E+01
     17.839  0.8095E-02  0.1008E+01
     17.931  0.2236E-01  0.1010E+01
     18.022  0.4282E-01  0.1014E+01
     18.114  0.5465E-01  0.1019E+01
     18.206  0.4638E-01  0.1024E+01
     18.298  0.2618E-01  0.1026E+01
     18.390  0.9843E-02  0.1027E+01
     18.482  0.2679E-02  0.1027E+01
     18.574  0.2150E-02  0.1027E+01
     18.666  0.8876E-02  0.1028E+01
     18.758  0.2988E-01  0.1031E+01
     18.850  0.6761E-01  0.1037E+01
     18.942  0.1025E+00  0.1047E+01
     19.034  0.1040E+00  0.1056E+01
     19.126  0.7070E-01  0.1063E+01
     19.218  0.3218E-01  0.1066E+01
     19.309  0.9801E-02  0.1066E+01
     19.401  0.1996E-02  0.1067E+01
     19.493  0.2713E-03  0.1067E+01
     19.585  0.2461E-04  0.1067E+01
     19.677  0.1486E-05  0.1067E+01
     19.769  0.5970E-07  0.1067E+01
     19.861  0.1593E-08  0.1067E+01
     19.953  0.2819E-10  0.1067E+01
     20.045  0.3305E-12  0.1067E+01
     20.137  0.2576E-14  0.1067E+01
     20.229  0.0000E+00  0.1067E+01
     20.321  0.0000E+00  0.1067E+01
     20.413  0.0000E+00  0.1067E+01
     20.505  0.0000E+00  0.1067E+01
     20.596  0.0000E+00  0.1067E+01
     20.688  0.0000E+00  0.1067E+01
     20.780  0.0000E+00  0.1067E+01
     20.872  0.0000E+00  0.1067E+01
     20.964  0.0000E+00  0.1067E+01
