   2   2   0   0
  0.1529437E+02  0.3691622E-09  0.3691622E-09  0.3691622E-09  0.5000000E-15
  1.000000000000000E-004
  CAR 
 unknown system                          
     20.96210642     -6.61477008  301      8.71219457      1.00000000
     -6.615  0.0000E+00  0.0000E+00
     -6.523  0.0000E+00  0.0000E+00
     -6.431  0.0000E+00  0.0000E+00
     -6.339  0.0000E+00  0.0000E+00
     -6.247  0.0000E+00  0.0000E+00
     -6.155  0.0000E+00  0.0000E+00
     -6.063  0.0000E+00  0.0000E+00
     -5.971  0.0000E+00  0.0000E+00
     -5.879  0.0000E+00  0.0000E+00
     -5.787  0.2982E-17  0.2741E-18
     -5.696  0.5696E-15  0.5263E-16
     -5.604  0.7211E-13  0.6681E-14
     -5.512  0.6011E-11  0.5592E-12
     -5.420  0.3307E-09  0.3096E-10
     -5.328  0.1202E-07  0.1136E-08
     -5.236  0.2890E-06  0.2770E-07
     -5.144  0.4598E-05  0.4503E-06
     -5.052  0.4846E-04  0.4905E-05
     -4.960  0.3387E-03  0.3604E-04
     -4.868  0.1571E-02  0.1805E-03
     -4.776  0.4842E-02  0.6255E-03
     -4.684  0.9917E-02  0.1537E-02
     -4.592  0.1351E-01  0.2779E-02
     -4.501  0.1223E-01  0.3903E-02
     -4.409  0.7369E-02  0.4580E-02
     -4.317  0.2951E-02  0.4852E-02
     -4.225  0.7853E-03  0.4924E-02
     -4.133  0.1388E-03  0.4937E-02
     -4.041  0.1628E-04  0.4938E-02
     -3.949  0.1678E-05  0.4938E-02
     -3.857  0.7631E-05  0.4939E-02
     -3.765  0.9163E-04  0.4947E-02
     -3.673  0.7356E-03  0.5015E-02
     -3.581  0.3919E-02  0.5375E-02
     -3.489  0.1386E-01  0.6650E-02
     -3.397  0.3259E-01  0.9646E-02
     -3.306  0.5094E-01  0.1433E-01
     -3.214  0.5296E-01  0.1920E-01
     -3.122  0.3661E-01  0.2256E-01
     -3.030  0.1683E-01  0.2411E-01
     -2.938  0.5142E-02  0.2458E-01
     -2.846  0.1043E-02  0.2468E-01
     -2.754  0.1405E-03  0.2469E-01
     -2.662  0.1298E-04  0.2469E-01
     -2.570  0.8586E-05  0.2469E-01
     -2.478  0.9451E-04  0.2470E-01
     -2.386  0.7544E-03  0.2477E-01
     -2.294  0.3997E-02  0.2514E-01
     -2.202  0.1406E-01  0.2643E-01
     -2.111  0.3288E-01  0.2945E-01
     -2.019  0.5116E-01  0.3416E-01
     -1.927  0.5338E-01  0.3906E-01
     -1.835  0.3989E-01  0.4273E-01
     -1.743  0.3208E-01  0.4568E-01
     -1.651  0.4970E-01  0.5025E-01
     -1.559  0.8669E-01  0.5821E-01
     -1.467  0.1094E+00  0.6827E-01
     -1.375  0.9276E-01  0.7680E-01
     -1.283  0.5234E-01  0.8161E-01
     -1.191  0.1963E-01  0.8342E-01
     -1.099  0.4894E-02  0.8387E-01
     -1.007  0.8098E-03  0.8394E-01
     -0.916  0.8889E-04  0.8395E-01
     -0.824  0.6467E-05  0.8395E-01
     -0.732  0.3115E-06  0.8395E-01
     -0.640  0.9923E-08  0.8395E-01
     -0.548  0.2089E-09  0.8395E-01
     -0.456  0.2949E-11  0.8395E-01
     -0.364  0.4381E-11  0.8395E-01
     -0.272  0.2826E-09  0.8395E-01
     -0.180  0.1211E-07  0.8395E-01
     -0.088  0.3431E-06  0.8395E-01
      0.004  0.6431E-05  0.8395E-01
      0.096  0.7983E-04  0.8396E-01
      0.188  0.6569E-03  0.8402E-01
      0.279  0.3586E-02  0.8435E-01
      0.371  0.1300E-01  0.8554E-01
      0.463  0.3134E-01  0.8842E-01
      0.555  0.5035E-01  0.9305E-01
      0.647  0.5510E-01  0.9812E-01
      0.739  0.4812E-01  0.1025E+00
      0.831  0.6022E-01  0.1081E+00
      0.923  0.1227E+00  0.1194E+00
      1.015  0.2182E+00  0.1394E+00
      1.107  0.2702E+00  0.1643E+00
      1.199  0.2258E+00  0.1850E+00
      1.291  0.1271E+00  0.1967E+00
      1.383  0.4818E-01  0.2011E+00
      1.474  0.1231E-01  0.2022E+00
      1.566  0.2119E-02  0.2024E+00
      1.658  0.2456E-03  0.2025E+00
      1.750  0.1916E-04  0.2025E+00
      1.842  0.1004E-05  0.2025E+00
      1.934  0.3544E-07  0.2025E+00
      2.026  0.6721E-08  0.2025E+00
      2.118  0.1715E-06  0.2025E+00
      2.210  0.3343E-05  0.2025E+00
      2.302  0.4392E-04  0.2025E+00
      2.394  0.3925E-03  0.2025E+00
      2.486  0.2412E-02  0.2027E+00
      2.578  0.1031E-01  0.2037E+00
      2.669  0.3091E-01  0.2065E+00
      2.761  0.6534E-01  0.2125E+00
      2.853  0.9713E-01  0.2215E+00
      2.945  0.1008E+00  0.2307E+00
      3.037  0.7223E-01  0.2374E+00
      3.129  0.3541E-01  0.2406E+00
      3.221  0.1176E-01  0.2417E+00
      3.313  0.2632E-02  0.2419E+00
      3.405  0.3945E-03  0.2420E+00
      3.497  0.3946E-04  0.2420E+00
      3.589  0.2627E-05  0.2420E+00
      3.681  0.1162E-06  0.2420E+00
      3.773  0.3911E-08  0.2420E+00
      3.864  0.2046E-07  0.2420E+00
      3.956  0.5435E-06  0.2420E+00
      4.048  0.9584E-05  0.2420E+00
      4.140  0.1119E-03  0.2420E+00
      4.232  0.8667E-03  0.2421E+00
      4.324  0.4453E-02  0.2425E+00
      4.416  0.1520E-01  0.2439E+00
      4.508  0.3446E-01  0.2470E+00
      4.600  0.5196E-01  0.2518E+00
      4.692  0.5214E-01  0.2566E+00
      4.784  0.3504E-01  0.2598E+00
      4.876  0.1712E-01  0.2614E+00
      4.968  0.1159E-01  0.2625E+00
      5.059  0.2206E-01  0.2645E+00
      5.151  0.4859E-01  0.2690E+00
      5.243  0.8660E-01  0.2769E+00
      5.335  0.1181E+00  0.2878E+00
      5.427  0.1176E+00  0.2986E+00
      5.519  0.8211E-01  0.3061E+00
      5.611  0.4053E-01  0.3099E+00
      5.703  0.1975E-01  0.3117E+00
      5.795  0.2442E-01  0.3139E+00
      5.887  0.4451E-01  0.3180E+00
      5.979  0.6529E-01  0.3240E+00
      6.071  0.8355E-01  0.3317E+00
      6.163  0.1119E+00  0.3420E+00
      6.254  0.1450E+00  0.3553E+00
      6.346  0.1477E+00  0.3689E+00
      6.438  0.1077E+00  0.3788E+00
      6.530  0.6211E-01  0.3845E+00
      6.622  0.5174E-01  0.3893E+00
      6.714  0.7858E-01  0.3965E+00
      6.806  0.1071E+00  0.4063E+00
      6.898  0.1009E+00  0.4156E+00
      6.990  0.6362E-01  0.4214E+00
      7.082  0.2792E-01  0.4240E+00
      7.174  0.1530E-01  0.4254E+00
      7.266  0.3190E-01  0.4284E+00
      7.358  0.7913E-01  0.4356E+00
      7.449  0.1374E+00  0.4483E+00
      7.541  0.1611E+00  0.4631E+00
      7.633  0.1274E+00  0.4748E+00
      7.725  0.6818E-01  0.4810E+00
      7.817  0.2518E-01  0.4834E+00
      7.909  0.9745E-02  0.4843E+00
      8.001  0.1705E-01  0.4858E+00
      8.093  0.4591E-01  0.4900E+00
      8.185  0.8682E-01  0.4980E+00
      8.277  0.1094E+00  0.5081E+00
      8.369  0.9209E-01  0.5165E+00
      8.461  0.5377E-01  0.5215E+00
      8.553  0.3126E-01  0.5244E+00
      8.644  0.4285E-01  0.5283E+00
      8.736  0.7946E-01  0.5356E+00
      8.828  0.1080E+00  0.5455E+00
      8.920  0.9850E-01  0.5546E+00
      9.012  0.6082E-01  0.5602E+00
      9.104  0.2980E-01  0.5629E+00
      9.196  0.2469E-01  0.5652E+00
      9.288  0.3951E-01  0.5688E+00
      9.380  0.5376E-01  0.5738E+00
      9.472  0.4985E-01  0.5783E+00
      9.564  0.3081E-01  0.5812E+00
      9.656  0.1266E-01  0.5823E+00
      9.748  0.3504E-02  0.5827E+00
      9.839  0.1100E-02  0.5828E+00
      9.931  0.3258E-02  0.5831E+00
     10.023  0.1422E-01  0.5844E+00
     10.115  0.4219E-01  0.5882E+00
     10.207  0.8345E-01  0.5959E+00
     10.299  0.1106E+00  0.6061E+00
     10.391  0.1000E+00  0.6153E+00
     10.483  0.6540E-01  0.6213E+00
     10.575  0.3622E-01  0.6246E+00
     10.667  0.2518E-01  0.6269E+00
     10.759  0.3560E-01  0.6302E+00
     10.851  0.6923E-01  0.6366E+00
     10.943  0.1100E+00  0.6467E+00
     11.034  0.1288E+00  0.6585E+00
     11.126  0.1169E+00  0.6693E+00
     11.218  0.8884E-01  0.6774E+00
     11.310  0.5675E-01  0.6826E+00
     11.402  0.2816E-01  0.6852E+00
     11.494  0.1002E-01  0.6862E+00
     11.586  0.2443E-02  0.6864E+00
     11.678  0.4002E-03  0.6864E+00
     11.770  0.4369E-04  0.6864E+00
     11.862  0.3167E-05  0.6864E+00
     11.954  0.2291E-06  0.6864E+00
     12.046  0.1910E-05  0.6864E+00
     12.138  0.3113E-04  0.6864E+00
     12.229  0.3370E-03  0.6865E+00
     12.321  0.2419E-02  0.6867E+00
     12.413  0.1153E-01  0.6877E+00
     12.505  0.3651E-01  0.6911E+00
     12.597  0.7717E-01  0.6982E+00
     12.689  0.1107E+00  0.7084E+00
     12.781  0.1162E+00  0.7190E+00
     12.873  0.1139E+00  0.7295E+00
     12.965  0.1361E+00  0.7420E+00
     13.057  0.1646E+00  0.7571E+00
     13.149  0.1519E+00  0.7711E+00
     13.241  0.9677E-01  0.7800E+00
     13.333  0.4165E-01  0.7838E+00
     13.424  0.1206E-01  0.7849E+00
     13.516  0.2427E-02  0.7852E+00
     13.608  0.1081E-02  0.7853E+00
     13.700  0.4754E-02  0.7857E+00
     13.792  0.1914E-01  0.7875E+00
     13.884  0.5146E-01  0.7922E+00
     13.976  0.9201E-01  0.8006E+00
     14.068  0.1094E+00  0.8107E+00
     14.160  0.8649E-01  0.8187E+00
     14.252  0.4548E-01  0.8228E+00
     14.344  0.1590E-01  0.8243E+00
     14.436  0.3691E-02  0.8246E+00
     14.528  0.5700E-03  0.8247E+00
     14.619  0.7551E-04  0.8247E+00
     14.711  0.1985E-03  0.8247E+00
     14.803  0.1453E-02  0.8248E+00
     14.895  0.7232E-02  0.8255E+00
     14.987  0.2406E-01  0.8277E+00
     15.079  0.5394E-01  0.8327E+00
     15.171  0.8372E-01  0.8404E+00
     15.263  0.9836E-01  0.8494E+00
     15.355  0.1058E+00  0.8591E+00
     15.447  0.1172E+00  0.8699E+00
     15.539  0.1158E+00  0.8806E+00
     15.631  0.8654E-01  0.8885E+00
     15.722  0.5122E-01  0.8932E+00
     15.814  0.3871E-01  0.8968E+00
     15.906  0.4808E-01  0.9012E+00
     15.998  0.5543E-01  0.9063E+00
     16.090  0.4608E-01  0.9105E+00
     16.182  0.3271E-01  0.9135E+00
     16.274  0.4091E-01  0.9173E+00
     16.366  0.8354E-01  0.9250E+00
     16.458  0.1415E+00  0.9380E+00
     16.550  0.1717E+00  0.9538E+00
     16.642  0.1563E+00  0.9681E+00
     16.734  0.1209E+00  0.9793E+00
     16.826  0.8924E-01  0.9875E+00
     16.917  0.6004E-01  0.9930E+00
     17.009  0.3278E-01  0.9960E+00
     17.101  0.1535E-01  0.9974E+00
     17.193  0.1193E-01  0.9985E+00
     17.285  0.1885E-01  0.1000E+01
     17.377  0.2650E-01  0.1003E+01
     17.469  0.2560E-01  0.1005E+01
     17.561  0.1652E-01  0.1007E+01
     17.653  0.7331E-02  0.1007E+01
     17.745  0.3731E-02  0.1008E+01
     17.837  0.7906E-02  0.1008E+01
     17.929  0.2196E-01  0.1010E+01
     18.021  0.4242E-01  0.1014E+01
     18.112  0.5460E-01  0.1019E+01
     18.204  0.4674E-01  0.1024E+01
     18.296  0.2661E-01  0.1026E+01
     18.388  0.1009E-01  0.1027E+01
     18.480  0.2756E-02  0.1027E+01
     18.572  0.2130E-02  0.1027E+01
     18.664  0.8737E-02  0.1028E+01
     18.756  0.2957E-01  0.1031E+01
     18.848  0.6724E-01  0.1037E+01
     18.940  0.1023E+00  0.1046E+01
     19.032  0.1043E+00  0.1056E+01
     19.124  0.7109E-01  0.1063E+01
     19.216  0.3243E-01  0.1066E+01
     19.307  0.9896E-02  0.1066E+01
     19.399  0.2017E-02  0.1067E+01
     19.491  0.2745E-03  0.1067E+01
     19.583  0.2490E-04  0.1067E+01
     19.675  0.1504E-05  0.1067E+01
     19.767  0.6040E-07  0.1067E+01
     19.859  0.1611E-08  0.1067E+01
     19.951  0.2849E-10  0.1067E+01
     20.043  0.3337E-12  0.1067E+01
     20.135  0.2600E-14  0.1067E+01
     20.227  0.0000E+00  0.1067E+01
     20.319  0.0000E+00  0.1067E+01
     20.411  0.0000E+00  0.1067E+01
     20.502  0.0000E+00  0.1067E+01
     20.594  0.0000E+00  0.1067E+01
     20.686  0.0000E+00  0.1067E+01
     20.778  0.0000E+00  0.1067E+01
     20.870  0.0000E+00  0.1067E+01
     20.962  0.0000E+00  0.1067E+01
