    2    2   15    1
  0.1529437E+02  0.3691622E-09  0.3691622E-09  0.3691622E-09  0.5000000E-15
  1.000000000000000E-004
  CAR 
 unknown system                          
      8      6      8
 
  0.0000000E+00  0.0000000E+00  0.0000000E+00  0.3703704E-01
    1       -4.614591   1.000000
    2        6.178906   1.000000
    3        6.300653   1.000000
    4        6.300676   1.000000
    5       10.550913   0.000000
    6       16.874254   0.000000
    7       17.370436   0.000000
    8       17.370459   0.000000
 
  0.3333333E+00 -0.7127914E-16  0.7127914E-16  0.2962963E+00
    1       -1.503848   1.000000
    2        5.355627   1.000000
    3        6.795027   1.000000
    4        7.467121   1.000000
    5       10.267457   0.000000
    6       12.673879   0.000000
    7       13.031047   0.000000
    8       14.015365   0.000000
 
  0.3333333E+00  0.3333333E+00  0.1273482E-15  0.2962963E+00
    1        1.045526   1.000000
    2        1.063884   1.000000
    3        6.274071   1.000000
    4        8.237463   0.999609
    5        8.807735   0.250390
    6       10.952560   0.000000
    7       15.478294   0.000000
    8       16.514673   0.000000
 
 -0.3333333E+00  0.3333333E+00  0.6449678E-17  0.1481481E+00
    1       -3.296674   1.000000
    2        0.569405   1.000000
    3        7.526416   1.000000
    4        9.363055   0.000002
    5       11.181524   0.000000
    6       13.077214   0.000000
    7       16.449094   0.000000
    8       18.926143   0.000000
 
 -0.3333333E+00  0.3333333E+00  0.3333333E+00  0.1481481E+00
    1       -2.011078   1.000000
    2        1.109379   1.000000
    3        2.895223   1.000000
    4        5.946471   1.000000
    5       15.176582   0.000000
    6       16.759936   0.000000
    7       18.077451   0.000000
    8       18.964217   0.000000
 
 -0.3333333E+00 -0.3333333E+00  0.3333333E+00  0.7407407E-01
    1        2.777281   1.000000
    2        2.872613   1.000000
    3        4.602016   1.000000
    4        4.602023   1.000000
    5        5.172780   1.000000
    6       15.147278   0.000000
    7       15.951391   0.000000
    8       15.951482   0.000000
