    2    2   15    1
  0.1529437E+02  0.3691622E-09  0.3691622E-09  0.3691622E-09  0.5000000E-15
  1.000000000000000E-004
  CAR 
 unknown system                          
      8      6      8
 
  0.0000000E+00  0.0000000E+00  0.0000000E+00  0.3703704E-01
    1       -4.614770   1.000000
    2        6.181261   1.000000
    3        6.299896   1.000000
    4        6.299920   1.000000
    5       10.548188   0.000000
    6       16.872145   0.000000
    7       17.370096   0.000000
    8       17.370120   0.000000
 
  0.3333333E+00 -0.7127914E-16  0.7127914E-16  0.2962963E+00
    1       -1.504101   1.000000
    2        5.356142   1.000000
    3        6.793488   1.000000
    4        7.467589   1.000000
    5       10.268156   0.000000
    6       12.672691   0.000000
    7       13.030820   0.000000
    8       14.014962   0.000000
 
  0.3333333E+00  0.3333333E+00  0.1273482E-15  0.2962963E+00
    1        1.045283   1.000000
    2        1.063790   1.000000
    3        6.273893   1.000000
    4        8.236987   0.999611
    5        8.807409   0.250388
    6       10.952671   0.000000
    7       15.477753   0.000000
    8       16.514340   0.000000
 
 -0.3333333E+00  0.3333333E+00  0.6449678E-17  0.1481481E+00
    1       -3.296810   1.000000
    2        0.569458   1.000000
    3        7.525613   1.000000
    4        9.363331   0.000002
    5       11.180553   0.000000
    6       13.077422   0.000000
    7       16.447631   0.000000
    8       18.925983   0.000000
 
 -0.3333333E+00  0.3333333E+00  0.3333333E+00  0.1481481E+00
    1       -2.011121   1.000000
    2        1.110179   1.000000
    3        2.893830   1.000000
    4        5.945851   1.000000
    5       15.177095   0.000000
    6       16.759967   0.000000
    7       18.077475   0.000000
    8       18.962106   0.000000
 
 -0.3333333E+00 -0.3333333E+00  0.3333333E+00  0.7407407E-01
    1        2.777215   1.000000
    2        2.873513   1.000000
    3        4.600452   1.000000
    4        4.600459   1.000000
    5        5.173627   1.000000
    6       15.148718   0.000000
    7       15.951150   0.000000
    8       15.951241   0.000000
