 vasp.5.4.4.18Apr17-6-g9f103f2a35 (build Dec 09 2018 21:25:21) complex          
  
 executed on IFC18.0.1.163_CrayMP date 2019.03.19  13:12:28
 running on    8 total cores
 distrk:  each k-point on    8 cores,    1 groups
 distr:  one band on NCORES_PER_BAND=   1 cores,    8 groups


--------------------------------------------------------------------------------------------------------


 INCAR:
 POTCAR:   PAW_PBE Si 05Jan2001                   

 ----------------------------------------------------------------------------- 
|                                                                             |
|           W    W    AA    RRRRR   N    N  II  N    N   GGGG   !!!           |
|           W    W   A  A   R    R  NN   N  II  NN   N  G    G  !!!           |
|           W    W  A    A  R    R  N N  N  II  N N  N  G       !!!           |
|           W WW W  AAAAAA  RRRRR   N  N N  II  N  N N  G  GGG   !            |
|           WW  WW  A    A  R   R   N   NN  II  N   NN  G    G                |
|           W    W  A    A  R    R  N    N  II  N    N   GGGG   !!!           |
|                                                                             |
|      For optimal performance we recommend to set                            |
|        NCORE= 4 - approx SQRT( number of cores)                             |
|      NCORE specifies how many cores store one orbital (NPAR=cpu/NCORE).     |
|      This setting can  greatly improve the performance of VASP for DFT.     |
|      The default,   NCORE=1            might be grossly inefficient         |
|      on modern multi-core architectures or massively parallel machines.     |
|      Do your own testing !!!!                                               |
|      Unfortunately you need to use the default for GW and RPA calculations. |
|      (for HF NCORE is supported but not extensively tested yet)             |
|                                                                             |
 ----------------------------------------------------------------------------- 

 POTCAR:   PAW_PBE Si 05Jan2001                   
   VRHFIN =Si: s2p2                                                             
   LEXCH  = PE                                                                  
   EATOM  =   103.0669 eV,    7.5752 Ry                                         
                                                                                
   TITEL  = PAW_PBE Si 05Jan2001                                                
   LULTRA =        F    use ultrasoft PP ?                                      
   IUNSCR =        1    unscreen: 0-lin 1-nonlin 2-no                           
   RPACOR =    1.500    partial core radius                                     
   POMASS =   28.085; ZVAL   =    4.000    mass and valenz                      
   RCORE  =    1.900    outmost cutoff radius                                   
   RWIGS  =    2.480; RWIGS  =    1.312    wigner-seitz radius (au A)           
   ENMAX  =  245.345; ENMIN  =  184.009 eV                                      
   ICORE  =        2    local potential                                         
   LCOR   =        T    correct aug charges                                     
   LPAW   =        T    paw PP                                                  
   EAUG   =  322.069                                                            
   DEXC   =    -.007                                                            
   RMAX   =    2.944    core radius for proj-oper                               
   RAUG   =    1.300    factor for augmentation sphere                          
   RDEP   =    1.993    radius for radial grids                                 
   QCUT   =   -4.246; QGAM   =    8.493    optimization parameters              
                                                                                
   Description                                                                  
     l     E      TYP  RCUT    TYP  RCUT                                        
     0   .000     23  1.900                                                     
     0   .000     23  1.900                                                     
     1   .000     23  1.900                                                     
     1   .000     23  1.900                                                     
     2   .000      7  1.900                                                     
  local pseudopotential read in
  partial core-charges read in
  atomic valenz-charges read in
  non local Contribution for L=           0  read in
    real space projection operators read in
  non local Contribution for L=           0  read in
    real space projection operators read in
  non local Contribution for L=           1  read in
    real space projection operators read in
  non local Contribution for L=           1  read in
    real space projection operators read in
    PAW grid and wavefunctions read in
 
   number of l-projection  operators is LMAX  =           4
   number of lm-projection operators is LMMAX =           8
 
 PAW_PBE Si 05Jan2001                   :
 energy of atom  1       EATOM= -103.0669
 kinetic energy error for atom=    0.0052 (will be added to EATOM!!)
 
 
 POSCAR: Si2                                     
  positions in direct lattice
  No initial velocities read in
 exchange correlation table for  LEXCH =        8
   RHO(1)=    0.500       N(1)  =     2000
   RHO(2)=  100.500       N(2)  =     4000
 


--------------------------------------------------------------------------------------------------------


 ion  position               nearest neighbor table
   1  0.250  0.750  0.500-   2 2.53   2 2.53   2 2.53   2 2.53   2 3.11   2 3.11   2 3.11   2 3.11

   2  0.000  0.000  0.000-   1 2.53   1 2.53   1 2.53   1 2.53   1 3.11   1 3.11   1 3.11   1 3.11

 
  LATTYP: Found a body centered tetragonal cell.
 ALAT       =     4.9000000000
 C/A-ratio  =     0.5200000000
  
  Lattice vectors:
  
 A1 = (  -2.4500000000,   2.4500000000,   1.2740000000)
 A2 = (   2.4500000000,  -2.4500000000,   1.2740000000)
 A3 = (   2.4500000000,   2.4500000000,  -1.2740000000)


Analysis of symmetry for initial positions (statically):
=====================================================================
 Subroutine PRICEL returns:
 Original cell was already a primitive cell.
 

 Routine SETGRP: Setting up the symmetry group for a 
 body centered tetragonal supercell.


 Subroutine GETGRP returns: Found 16 space group operations
 (whereof  8 operations were pure point group operations)
 out of a pool of 16 trial point group operations.


The static configuration has the point symmetry D_2d.
 The point group associated with its full space group is D_4h.


Analysis of symmetry for dynamics (positions and initial velocities):
=====================================================================
 Subroutine PRICEL returns:
 Original cell was already a primitive cell.
 

 Routine SETGRP: Setting up the symmetry group for a 
 body centered tetragonal supercell.


 Subroutine GETGRP returns: Found 16 space group operations
 (whereof  8 operations were pure point group operations)
 out of a pool of 16 trial point group operations.


The dynamic configuration has the point symmetry D_2d.
 The point group associated with its full space group is D_4h.


 Subroutine INISYM returns: Found 16 space group operations
 (whereof  8 operations are pure point group operations),
 and found     1 'primitive' translations

 
 
 KPOINTS: Automatic kpoint scheme                 

Automatic generation of k-mesh.
Space group operators:
 irot       det(A)        alpha          n_x          n_y          n_z        tau_x        tau_y        tau_z
    1     1.000000     0.000000     1.000000     0.000000     0.000000     0.000000     0.000000     0.000000
    2    -1.000000    90.000000    -0.000000    -0.000000    -1.000000     0.000000     0.000000     0.000000
    3     1.000000   180.000000    -0.000000    -0.000000    -1.000000     0.000000     0.000000     0.000000
    4    -1.000000    90.000000    -0.000000     0.000000     1.000000     0.000000     0.000000     0.000000
    5    -1.000000   180.000000     0.000000    -1.000000     0.000000     0.000000     0.000000     0.000000
    6     1.000000   180.000000     0.707107     0.707107    -0.000000     0.000000     0.000000     0.000000
    7    -1.000000   180.000000     1.000000     0.000000     0.000000     0.000000     0.000000     0.000000
    8     1.000000   180.000000     0.707107    -0.707107     0.000000     0.000000     0.000000     0.000000
    9    -1.000000     0.000000     1.000000     0.000000     0.000000     0.250000     0.750000     0.500000
   10     1.000000    90.000000    -0.000000    -0.000000    -1.000000     0.250000     0.750000     0.500000
   11    -1.000000   180.000000    -0.000000    -0.000000    -1.000000     0.250000     0.750000     0.500000
   12     1.000000    90.000000    -0.000000     0.000000     1.000000     0.250000     0.750000     0.500000
   13     1.000000   180.000000     0.000000    -1.000000     0.000000     0.250000     0.750000     0.500000
   14    -1.000000   180.000000     0.707107     0.707107    -0.000000     0.250000     0.750000     0.500000
   15     1.000000   180.000000     1.000000     0.000000     0.000000     0.250000     0.750000     0.500000
   16    -1.000000   180.000000     0.707107    -0.707107     0.000000     0.250000     0.750000     0.500000
 
 Subroutine IBZKPT returns following result:
 ===========================================
 
 Found      6 irreducible k-points:
 
 Following reciprocal coordinates:
            Coordinates               Weight
  0.000000  0.000000  0.000000      1.000000
  0.333333 -0.000000  0.000000      8.000000
  0.333333  0.333333  0.000000      8.000000
 -0.333333  0.333333  0.000000      4.000000
 -0.333333  0.333333  0.333333      4.000000
 -0.333333 -0.333333  0.333333      2.000000
 
 Following cartesian coordinates:
            Coordinates               Weight
  0.000000  0.000000  0.000000      1.000000
  0.000000  0.068027  0.130822      8.000000
  0.068027  0.068027  0.261643      8.000000
  0.068027 -0.068027 -0.000000      4.000000
  0.136054 -0.000000 -0.000000      4.000000
 -0.000000  0.000000 -0.261643      2.000000
 


--------------------------------------------------------------------------------------------------------




 Dimension of arrays:
   k-points           NKPTS =      6   k-points in BZ     NKDIM =      6   number of bands    NBANDS=      8
   number of dos      NEDOS =    301   number of ions     NIONS =      2
   non local maximal  LDIM  =      4   non local SUM 2l+1 LMDIM =      8
   total plane-waves  NPLWV =   2744
   max r-space proj   IRMAX =      1   max aug-charges    IRDMAX=   3198
   dimension x,y,z NGX =    14 NGY =   14 NGZ =   14
   dimension x,y,z NGXF=    28 NGYF=   28 NGZF=   28
   support grid    NGXF=    28 NGYF=   28 NGZF=   28
   ions per type =               2
   NGX,Y,Z   is equivalent  to a cutoff of   6.30,  6.30,  6.30 a.u.
   NGXF,Y,Z  is equivalent  to a cutoff of  12.61, 12.61, 12.61 a.u.

 SYSTEM =  unknown system                          
 POSCAR =  Si2                                     

 Startparameter for this run:
   NWRITE =      2    write-flag & timer
   PREC   = normal    normal or accurate (medium, high low for compatibility)
   ISTART =      1    job   : 0-new  1-cont  2-samecut
   ICHARG =      0    charge: 1-file 2-atom 10-const
   ISPIN  =      1    spin polarized calculation?
   LNONCOLLINEAR =      F non collinear calculations
   LSORBIT =      F    spin-orbit coupling
   INIWAV =      1    electr: 0-lowe 1-rand  2-diag
   LASPH  =      F    aspherical Exc in radial PAW
   METAGGA=      F    non-selfconsistent MetaGGA calc.

 Electronic Relaxation 1
   ENCUT  =  250.0 eV  18.37 Ry    4.29 a.u.   4.76  4.76  4.76*2*pi/ulx,y,z
   ENINI  =  250.0     initial cutoff
   ENAUG  =  322.1 eV  augmentation charge cutoff
   NELM   =     60;   NELMIN=  2; NELMDL=  0     # of ELM steps 
   EDIFF  = 0.4E-03   stopping-criterion for ELM
   LREAL  =      F    real-space projection
   NLSPLINE    = F    spline interpolate recip. space projectors
   LCOMPAT=      F    compatible to vasp.4.4
   GGA_COMPAT  = T    GGA compatible to vasp.4.4-vasp.4.6
   LMAXPAW     = -100 max onsite density
   LMAXMIX     =    2 max onsite mixed and CHGCAR
   VOSKOWN=      0    Vosko Wilk Nusair interpolation
   ROPT   =    0.00000
 Ionic relaxation
   EDIFFG = -.1E-01   stopping-criterion for IOM
   NSW    =     15    number of steps for IOM
   NBLOCK =      1;   KBLOCK =     15    inner block; outer block 
   IBRION =      2    ionic relax: 0-MD 1-quasi-New 2-CG
   NFREE  =      1    steps in history (QN), initial steepest desc. (CG)
   ISIF   =      2    stress and relaxation
   IWAVPR =     11    prediction:  0-non 1-charg 2-wave 3-comb
   ISYM   =      2    0-nonsym 1-usesym 2-fastsym
   LCORR  =      T    Harris-Foulkes like correction to forces

   POTIM  = 0.5000    time-step for ionic-motion
   TEIN   =    0.0    initial temperature
   TEBEG  =    0.0;   TEEND  =   0.0 temperature during run
   SMASS  =  -3.00    Nose mass-parameter (am)
   estimated Nose-frequenzy (Omega)   =  0.10E-29 period in steps =****** mass=  -0.311E-27a.u.
   SCALEE = 1.0000    scale energy and forces
   NPACO  =    256;   APACO  = 16.0  distance and # of slots for P.C.
   PSTRESS=    0.0 pullay stress

  Mass of Ions in am
   POMASS =  28.09
  Ionic Valenz
   ZVAL   =   4.00
  Atomic Wigner-Seitz radii
   RWIGS  =  -1.00
  virtual crystal weights 
   VCA    =   1.00
   NELECT =       8.0000    total number of electrons
   NUPDOWN=      -1.0000    fix difference up-down

 DOS related values:
   EMIN   =  10.00;   EMAX   =-10.00  energy-range for DOS
   EFERMI =   0.00
   ISMEAR =     0;   SIGMA  =   0.20  broadening in eV -4-tet -1-fermi 0-gaus

 Electronic relaxation 2 (details)
   IALGO  =     38    algorithm
   LDIAG  =      T    sub-space diagonalisation (order eigenvalues)
   LSUBROT=      F    optimize rotation matrix (better conditioning)
   TURBO    =      0    0=normal 1=particle mesh
   IRESTART =      0    0=no restart 2=restart with 2 vectors
   NREBOOT  =      0    no. of reboots
   NMIN     =      0    reboot dimension
   EREF     =   0.00    reference energy to select bands
   IMIX   =      4    mixing-type and parameters
     AMIX     =   0.40;   BMIX     =  1.00
     AMIX_MAG =   1.60;   BMIX_MAG =  1.00
     AMIN     =   0.10
     WC   =   100.;   INIMIX=   1;  MIXPRE=   1;  MAXMIX= -45

 Intra band minimization:
   WEIMIN = 0.0010     energy-eigenvalue tresh-hold
   EBREAK =  0.13E-04  absolut break condition
   DEPER  =   0.30     relativ break condition  

   TIME   =   0.40     timestep for ELM

  volume/ion in A,a.u.               =      15.29       103.21
  Fermi-wavevector in a.u.,A,eV,Ry     =   1.046930  1.978411 14.912834  1.096062
  Thomas-Fermi vector in A             =   2.181789
 
 Write flags
   LWAVE        =      T    write WAVECAR
   LDOWNSAMPLE  =      F    k-point downsampling of WAVECAR
   LCHARG       =      T    write CHGCAR
   LVTOT        =      F    write LOCPOT, total local potential
   LVHAR        =      F    write LOCPOT, Hartree potential only
   LELF         =      F    write electronic localiz. function (ELF)
   LORBIT       =      0    0 simple, 1 ext, 2 COOP (PROOUT), +10 PAW based schemes


 Dipole corrections
   LMONO  =      F    monopole corrections only (constant potential shift)
   LDIPOL =      F    correct potential (dipole corrections)
   IDIPOL =      0    1-x, 2-y, 3-z, 4-all directions 
   EPSILON=  1.0000000 bulk dielectric constant

 Exchange correlation treatment:
   GGA     =    --    GGA type
   LEXCH   =     8    internal setting for exchange type
   VOSKOWN=      0    Vosko Wilk Nusair interpolation
   LHFCALC =     F    Hartree Fock is set to
   LHFONE  =     F    Hartree Fock one center treatment
   AEXX    =    0.0000 exact exchange contribution

 Linear response parameters
   LEPSILON=     F    determine dielectric tensor
   LRPA    =     F    only Hartree local field effects (RPA)
   LNABLA  =     F    use nabla operator in PAW spheres
   LVEL    =     F    velocity operator in full k-point grid
   LINTERFAST=   F  fast interpolation
   KINTER  =     0    interpolate to denser k-point grid
   CSHIFT  =0.1000    complex shift for real part using Kramers Kronig
   OMEGAMAX=  -1.0    maximum frequency
   DEG_THRESHOLD= 0.2000000E-02 threshold for treating states as degnerate
   RTIME   =   -0.100 relaxation time in fs
  (WPLASMAI=    0.000 imaginary part of plasma frequency in eV, 0.658/RTIME)
   DFIELD  = 0.0000000 0.0000000 0.0000000 field for delta impulse in time
 
 Orbital magnetization related:
   ORBITALMAG=     F  switch on orbital magnetization
   LCHIMAG   =     F  perturbation theory with respect to B field
   DQ        =  0.001000  dq finite difference perturbation B field
   LLRAUG    =     F  two centre corrections for induced B field



--------------------------------------------------------------------------------------------------------


 conjugate gradient relaxation of ions
 charge density and potential will be updated during run
 non-spin polarized calculation
 Variant of blocked Davidson
 Davidson routine will perform the subspace rotation
 perform sub-space diagonalisation
    after iterative eigenvector-optimisation
 modified Broyden-mixing scheme, WC =      100.0
 initial mixing is a Kerker type mixing with AMIX =  0.4000 and BMIX =      1.0000
 Hartree-type preconditioning will be used
 using additional bands            4
 reciprocal scheme for non local part
 use partial core corrections
 calculate Harris-corrections to forces 
   (improved forces if not selfconsistent)
 use gradient corrections 
 use of overlap-Matrix (Vanderbilt PP)
 Gauss-broadening in eV      SIGMA  =   0.20


--------------------------------------------------------------------------------------------------------


  energy-cutoff  :      250.00
  volume of cell :       30.59
      direct lattice vectors                 reciprocal lattice vectors
    -2.450000000  2.450000000  1.274000000     0.000000000  0.204081633  0.392464678
     2.450000000 -2.450000000  1.274000000     0.204081633  0.000000000  0.392464678
     2.450000000  2.450000000 -1.274000000     0.204081633  0.204081633 -0.000000000

  length of vectors
     3.691622408  3.691622408  3.691622408     0.442354876  0.442354876  0.288615013


 
 old parameters found on file WAVECAR:
  energy-cutoff  :      250.00
  volume of cell :       30.59
      direct lattice vectors                 reciprocal lattice vectors
    -2.450000000  2.450000000  1.274000000     0.000000000  0.204081633  0.392464678
     2.450000000 -2.450000000  1.274000000     0.204081633  0.000000000  0.392464678
     2.450000000  2.450000000 -1.274000000     0.204081633  0.204081633 -0.000000000

  length of vectors

 
 k-points in units of 2pi/SCALE and weight: Automatic kpoint scheme                 
   0.00000000  0.00000000  0.00000000       0.037
   0.00000000  0.06802721  0.13082156       0.296
   0.06802721  0.06802721  0.26164312       0.296
   0.06802721 -0.06802721 -0.00000000       0.148
   0.13605442 -0.00000000 -0.00000000       0.148
   0.00000000  0.00000000 -0.26164312       0.074
 
 k-points in reciprocal lattice and weights: Automatic kpoint scheme                 
   0.00000000  0.00000000  0.00000000       0.037
   0.33333333 -0.00000000  0.00000000       0.296
   0.33333333  0.33333333  0.00000000       0.296
  -0.33333333  0.33333333  0.00000000       0.148
  -0.33333333  0.33333333  0.33333333       0.148
  -0.33333333 -0.33333333  0.33333333       0.074
 
 position of ions in fractional coordinates (direct lattice) 
   0.25000000  0.75000000  0.50000000
   0.00000000  0.00000000  0.00000000
 
 position of ions in cartesian coordinates  (Angst):
   2.45000000  0.00000000  0.63700000
   0.00000000  0.00000000  0.00000000
 


--------------------------------------------------------------------------------------------------------


 k-point  1 :   0.0000 0.0000 0.0000  plane waves:     263
 k-point  2 :   0.3333-0.0000 0.0000  plane waves:     276
 k-point  3 :   0.3333 0.3333 0.0000  plane waves:     274
 k-point  4 :  -0.3333 0.3333 0.0000  plane waves:     281
 k-point  5 :  -0.3333 0.3333 0.3333  plane waves:     278
 k-point  6 :  -0.3333-0.3333 0.3333  plane waves:     275

 maximum and minimum number of plane-waves per node :       281      263

 maximum number of plane-waves:       281
 maximum index in each direction: 
   IXMAX=    5   IYMAX=    5   IZMAX=    4
   IXMIN=   -5   IYMIN=   -5   IZMIN=   -5


 serial   3D FFT for wavefunctions
 parallel 3D FFT for charge:
    minimum data exchange during FFTs selected (reduces bandwidth)


 total amount of memory used by VASP MPI-rank0    30543. kBytes
=======================================================================

   base      :      30000. kBytes
   nonl-proj :        119. kBytes
   fftplans  :        119. kBytes
   grid      :        270. kBytes
   one-center:          6. kBytes
   wavefun   :         29. kBytes
 
     INWAV:  cpu time    0.0120: real time    0.0292
 Broyden mixing: mesh for mixing (old mesh)
   NGX =  9   NGY =  9   NGZ =  9
  (NGX  = 28   NGY  = 28   NGZ  = 28)
  gives a total of    729 points

 charge density for first step will be calculated from the start-wavefunctions


--------------------------------------------------------------------------------------------------------


 Maximum index for augmentation-charges          442 (set IRDMAX)


--------------------------------------------------------------------------------------------------------


 initial charge from wavefunction
 First call to EWALD:  gamma=   0.567
 Maximum number of real-space cells 4x 4x 3
 Maximum number of reciprocal cells 3x 3x 3

    FEWALD:  cpu time    0.0080: real time    0.0075


--------------------------------------- Iteration      1(   1)  ---------------------------------------


    POTLOK:  cpu time    0.0240: real time    0.0654
    SETDIJ:  cpu time    0.0120: real time    0.0090
     EDDAV:  cpu time    0.0320: real time    0.0386
       DOS:  cpu time    0.0000: real time    0.0039
    CHARGE:  cpu time    0.0080: real time    0.0074
    MIXING:  cpu time    0.0000: real time    0.0020
    --------------------------------------------
      LOOP:  cpu time    0.0800: real time    0.1275

 eigenvalue-minimisations  :    48
 total energy-change (2. order) :-0.9991803E+01  (-0.5848168E-05)
 number of electron       7.9999993 magnetization 
 augmentation part       -0.4624397 magnetization 

 Broyden mixing:
  rms(total) = 0.47228E-03    rms(broyden)= 0.47208E-03
  rms(prec ) = 0.14383E-02
  weight for this iteration     100.00

 Free energy of the ion-electron system (eV)
  ---------------------------------------------------
  alpha Z        PSCENC =         4.40202223
  Ewald energy   TEWEN  =      -265.18101312
  -Hartree energ DENC   =        -2.51209091
  -exchange      EXHF   =         0.00000000
  -V(xc)+E(xc)   XCENC  =       -17.56432363
  PAW double counting   =        70.40074684      -35.31313165
  entropy T*S    EENTRO =        -0.02677236
  eigenvalues    EBANDS =        29.67926038
  atomic energy  EATOM  =       206.12349923
  Solvation  Ediel_sol  =         0.00000000
  ---------------------------------------------------
  free energy    TOTEN  =        -9.99180299 eV

  energy without entropy =       -9.96503063  energy(sigma->0) =       -9.97841681


--------------------------------------------------------------------------------------------------------




--------------------------------------- Iteration      1(   2)  ---------------------------------------


    POTLOK:  cpu time    0.0200: real time    0.0286
    SETDIJ:  cpu time    0.0080: real time    0.0084
     EDDAV:  cpu time    0.0280: real time    0.0290
       DOS:  cpu time    0.0040: real time    0.0015
    --------------------------------------------
      LOOP:  cpu time    0.0560: real time    0.0671

 eigenvalue-minimisations  :    48
 total energy-change (2. order) : 0.5206286E-06  (-0.2648909E-06)
 number of electron       7.9999993 magnetization 
 augmentation part       -0.4624397 magnetization 

 Free energy of the ion-electron system (eV)
  ---------------------------------------------------
  alpha Z        PSCENC =         4.40202223
  Ewald energy   TEWEN  =      -265.18101312
  -Hartree energ DENC   =        -2.51227109
  -exchange      EXHF   =         0.00000000
  -V(xc)+E(xc)   XCENC  =       -17.56429944
  PAW double counting   =        70.40037637      -35.31274272
  entropy T*S    EENTRO =        -0.02677233
  eigenvalues    EBANDS =        29.67939840
  atomic energy  EATOM  =       206.12349923
  Solvation  Ediel_sol  =         0.00000000
  ---------------------------------------------------
  free energy    TOTEN  =        -9.99180247 eV

  energy without entropy =       -9.96503014  energy(sigma->0) =       -9.97841631


--------------------------------------------------------------------------------------------------------




 average (electrostatic) potential at core
  the test charge radii are     0.9892
  (the norm of the test charge is              1.0000)
       1 -80.5806       2 -80.5806
 
 
 
 E-fermi :   8.7125     XC(G=0): -10.8911     alpha+bet :-15.6819


 k-point     1 :       0.0000    0.0000    0.0000
  band No.  band energies     occupation 
      1      -4.6146      2.00000
      2       6.1789      2.00000
      3       6.3007      2.00000
      4       6.3007      2.00000
      5      10.5509      0.00000
      6      16.8743      0.00000
      7      17.3704      0.00000
      8      17.3705      0.00000

 k-point     2 :       0.3333   -0.0000    0.0000
  band No.  band energies     occupation 
      1      -1.5038      2.00000
      2       5.3556      2.00000
      3       6.7950      2.00000
      4       7.4671      2.00000
      5      10.2675      0.00000
      6      12.6739      0.00000
      7      13.0310      0.00000
      8      14.0154      0.00000

 k-point     3 :       0.3333    0.3333    0.0000
  band No.  band energies     occupation 
      1       1.0455      2.00000
      2       1.0639      2.00000
      3       6.2741      2.00000
      4       8.2375      1.99922
      5       8.8077      0.50078
      6      10.9526      0.00000
      7      15.4783      0.00000
      8      16.5147      0.00000

 k-point     4 :      -0.3333    0.3333    0.0000
  band No.  band energies     occupation 
      1      -3.2967      2.00000
      2       0.5694      2.00000
      3       7.5264      2.00000
      4       9.3631      0.00000
      5      11.1815      0.00000
      6      13.0772      0.00000
      7      16.4491      0.00000
      8      18.9261      0.00000

 k-point     5 :      -0.3333    0.3333    0.3333
  band No.  band energies     occupation 
      1      -2.0111      2.00000
      2       1.1094      2.00000
      3       2.8952      2.00000
      4       5.9465      2.00000
      5      15.1766      0.00000
      6      16.7599      0.00000
      7      18.0775      0.00000
      8      18.9642      0.00000

 k-point     6 :      -0.3333   -0.3333    0.3333
  band No.  band energies     occupation 
      1       2.7773      2.00000
      2       2.8726      2.00000
      3       4.6020      2.00000
      4       4.6020      2.00000
      5       5.1728      2.00000
      6      15.1473      0.00000
      7      15.9514      0.00000
      8      15.9515      0.00000


--------------------------------------------------------------------------------------------------------


 soft charge-density along one line, spin component           1
         0         1         2         3         4         5         6         7         8         9
 total charge-density along one line
 
 pseudopotential strength for first ion, spin component:           1
 18.068  -0.003   0.000  -0.000  -0.000  -0.000   0.000   0.000
 -0.003   0.005  -0.000   0.000   0.000   0.000  -0.000  -0.000
  0.000  -0.000   4.117   0.000   0.000  -0.006  -0.000  -0.000
 -0.000   0.000   0.000   4.118   0.000  -0.000  -0.006  -0.000
 -0.000   0.000   0.000   0.000   4.117  -0.000  -0.000  -0.006
 -0.000   0.000  -0.006  -0.000  -0.000   0.005   0.000   0.000
  0.000  -0.000  -0.000  -0.006  -0.000   0.000   0.005   0.000
  0.000  -0.000  -0.000  -0.000  -0.006   0.000   0.000   0.005
 total augmentation occupancy for first ion, spin component:           1
  1.561  -0.592   0.000   0.000  -0.000   0.000   0.000   0.000
 -0.592   0.893   0.000   0.000   0.000   0.000   0.000  -0.000
  0.000   0.000   0.898   0.000  -0.000  -0.537   0.000   0.000
  0.000   0.000   0.000   0.917   0.000   0.000  -0.541   0.000
  0.000   0.000  -0.000   0.000   0.898   0.000   0.000  -0.537
  0.000   0.000  -0.537  -0.000   0.000   0.406   0.000  -0.000
  0.000   0.000   0.000  -0.541   0.000   0.000   0.425  -0.000
  0.000  -0.000   0.000   0.000  -0.537  -0.000  -0.000   0.406


------------------------ aborting loop because EDIFF is reached ----------------------------------------


    CHARGE:  cpu time    0.0080: real time    0.0083
    FORLOC:  cpu time    0.0000: real time    0.0005
    FORNL :  cpu time    0.0040: real time    0.0064
    STRESS:  cpu time    0.0320: real time    0.0295
    FORCOR:  cpu time    0.0120: real time    0.0128
    FORHAR:  cpu time    0.0040: real time    0.0046
    MIXING:  cpu time    0.0000: real time    0.0012
    OFIELD:  cpu time    0.0000: real time    0.0004

  FORCE on cell =-STRESS in cart. coord.  units (eV):
  Direction    XX          YY          ZZ          XY          YZ          ZX
  --------------------------------------------------------------------------------------
  Alpha Z     4.40202     4.40202     4.40202
  Ewald     -90.96023   -90.96023   -83.26083    -0.00000     0.00000     0.00000
  Hartree     0.56186     0.56186     1.38885     0.00000    -0.00000    -0.00000
  E(xc)     -25.42102   -25.42102   -25.34971     0.00006     0.00001     0.00001
  Local     -11.26005   -11.26005   -17.07980    -0.00002    -0.00005    -0.00005
  n-local    77.02844    75.53863    75.12036     2.30328    -0.94175    -1.15374
  augment   -11.76592   -11.76592   -11.79810     0.00004     0.00005     0.00005
  Kinetic    58.57303    53.22673    60.30403     3.03460     1.25266    -0.67300
  Fock        0.00000     0.00000     0.00000     0.00000     0.00000     0.00000
  -------------------------------------------------------------------------------------
  Total      -2.25992    -2.25992     3.72682    -0.00000    -0.00000     0.00000
  in kB    -118.37014  -118.37014   195.20330    -0.00000    -0.00000     0.00000
  external pressure =      -13.85 kB  Pullay stress =        0.00 kB


 VOLUME and BASIS-vectors are now :
 -----------------------------------------------------------------------------
  energy-cutoff  :      250.00
  volume of cell :       30.59
      direct lattice vectors                 reciprocal lattice vectors
    -2.450000000  2.450000000  1.274000000     0.000000000  0.204081633  0.392464678
     2.450000000 -2.450000000  1.274000000     0.204081633  0.000000000  0.392464678
     2.450000000  2.450000000 -1.274000000     0.204081633  0.204081633 -0.000000000

  length of vectors
     3.691622408  3.691622408  3.691622408     0.442354876  0.442354876  0.288615013


 FORCES acting on ions
    electron-ion (+dipol)            ewald-force                    non-local-force                 convergence-correction
 -----------------------------------------------------------------------------------------------
   0.764E-05 -.764E-05 -.227E-14   0.198E-14 0.156E-15 0.342E-17   -.500E-17 0.115E-16 0.880E-17   0.549E-08 -.549E-08 0.191E-15
   -.764E-05 0.764E-05 0.837E-14   -.185E-14 0.943E-16 0.891E-15   0.143E-16 -.161E-16 -.423E-17   -.549E-08 0.549E-08 0.994E-16
 -----------------------------------------------------------------------------------------------
   -.144E-13 0.127E-13 0.610E-14   0.139E-15 0.250E-15 0.894E-15   0.929E-17 -.459E-17 0.457E-17   0.446E-16 0.122E-15 0.290E-15
 
 
 POSITION                                       TOTAL-FORCE (eV/Angst)
 -----------------------------------------------------------------------------------
      2.45000      0.00000      0.63700         0.000000      0.000000     -0.000000
      0.00000      0.00000      0.00000        -0.000000     -0.000000      0.000000
 -----------------------------------------------------------------------------------
    total drift:                               -0.000000      0.000000      0.000000


--------------------------------------------------------------------------------------------------------



  FREE ENERGIE OF THE ION-ELECTRON SYSTEM (eV)
  ---------------------------------------------------
  free  energy   TOTEN  =        -9.99180247 eV

  energy  without entropy=       -9.96503014  energy(sigma->0) =       -9.97841631
 


--------------------------------------------------------------------------------------------------------


    POTLOK:  cpu time    0.0320: real time    0.0418


--------------------------------------------------------------------------------------------------------




--------------------------------------------------------------------------------------------------------


  
 reached required accuracy - stopping structural energy minimisation
 writing wavefunctions
     LOOP+:  cpu time    0.7320: real time    1.5503
    4ORBIT:  cpu time    0.0000: real time    0.0000

 total amount of memory used by VASP MPI-rank0    30543. kBytes
=======================================================================

   base      :      30000. kBytes
   nonl-proj :        119. kBytes
   fftplans  :        119. kBytes
   grid      :        270. kBytes
   one-center:          6. kBytes
   wavefun   :         29. kBytes
 
  
  
 General timing and accounting informations for this job:
 ========================================================
  
                  Total CPU time used (sec):        4.232
                            User time (sec):        2.816
                          System time (sec):        1.416
                         Elapsed time (sec):        6.673
  
                   Maximum memory used (kb):        8584.
                   Average memory used (kb):           0.
  
                          Minor page faults:        37850
                          Major page faults:           15
                 Voluntary context switches:        20567
