<?xml version="1.0" encoding="ISO-8859-1"?>
<modeling>
 <generator>
  <i name="program" type="string">vasp </i>
  <i name="version" type="string">5.4.4.18Apr17-6-g9f103f2a35  </i>
  <i name="subversion" type="string">(build Dec 09 2018 21:25:21) complex            parallel </i>
  <i name="platform" type="string">IFC18.0.1.163_CrayMPICH7.7.0_MKL18.0.1.163 </i>
  <i name="date" type="string">2019 03 18 </i>
  <i name="time" type="string">04:36:22 </i>
 </generator>
 <incar>
  <i type="string" name="PREC">normal</i>
  <i type="int" name="IBRION">     2</i>
  <i name="EDIFF">      0.00040000</i>
  <i name="EDIFFG">     -0.01000000</i>
  <i type="int" name="NSW">    15</i>
  <i type="int" name="ISIF">     2</i>
  <i name="ENCUT">    250.00000000</i>
  <i type="int" name="NBANDS">     8</i>
  <i type="logical" name="LREAL"> F  </i>
  <i type="int" name="ISMEAR">     0</i>
  <i name="SIGMA">      0.20000000</i>
  <v type="int" name="KPOINT_BSE">    -1     0     0     0</v>
 </incar>
 <structure name="primitive_cell" >
  <crystal>
   <varray name="basis" >
    <v>      -2.45000000       2.45000000       1.27400000 </v>
    <v>       2.45000000      -2.45000000       1.27400000 </v>
    <v>       2.45000000       2.45000000      -1.27400000 </v>
   </varray>
   <i name="volume">     30.58874000 </i>
   <varray name="rec_basis" >
    <v>       0.00000000       0.20408163       0.39246468 </v>
    <v>       0.20408163       0.00000000       0.39246468 </v>
    <v>       0.20408163       0.20408163      -0.00000000 </v>
   </varray>
  </crystal>
  <varray name="positions" >
   <v>       0.25000000      -0.25000000      -0.50000000 </v>
   <v>       0.00000000       0.00000000       0.00000000 </v>
  </varray>
 </structure>
 <varray name="primitive_index" >
  <v type="int" >        1 </v>
  <v type="int" >        2 </v>
 </varray>
 <kpoints>
  <generation param="Monkhorst-Pack">
   <v type="int" name="divisions">       3        3        3 </v>
   <v name="usershift">      0.00000000       0.00000000       0.00000000 </v>
   <v name="genvec1">      0.33333333      -0.00000000       0.00000000 </v>
   <v name="genvec2">     -0.00000000       0.33333333       0.00000000 </v>
   <v name="genvec3">     -0.00000000      -0.00000000       0.33333333 </v>
   <v name="shift">      0.00000000       0.00000000       0.00000000 </v>
  </generation>
  <varray name="kpointlist" >
   <v>       0.00000000       0.00000000       0.00000000 </v>
   <v>       0.33333333      -0.00000000       0.00000000 </v>
   <v>       0.33333333       0.33333333       0.00000000 </v>
   <v>      -0.33333333       0.33333333       0.00000000 </v>
   <v>      -0.33333333       0.33333333       0.33333333 </v>
   <v>      -0.33333333      -0.33333333       0.33333333 </v>
  </varray>
  <varray name="weights" >
   <v>       0.03703704 </v>
   <v>       0.29629630 </v>
   <v>       0.29629630 </v>
   <v>       0.14814815 </v>
   <v>       0.14814815 </v>
   <v>       0.07407407 </v>
  </varray>
 </kpoints>
 <parameters>
  <separator name="general" >
   <i type="string" name="SYSTEM">unknown system</i>
   <i type="logical" name="LCOMPAT"> F  </i>
  </separator>
  <separator name="electronic" >
   <i type="string" name="PREC">normal</i>
   <i name="ENMAX">    250.00000000</i>
   <i name="ENAUG">    322.06900000</i>
   <i name="EDIFF">      0.00040000</i>
   <i type="int" name="IALGO">    38</i>
   <i type="int" name="IWAVPR">    11</i>
   <i type="int" name="NBANDS">     8</i>
   <i name="NELECT">      8.00000000</i>
   <i type="int" name="TURBO">     0</i>
   <i type="int" name="IRESTART">     0</i>
   <i type="int" name="NREBOOT">     0</i>
   <i type="int" name="NMIN">     0</i>
   <i name="EREF">      0.00000000</i>
   <separator name="electronic smearing" >
    <i type="int" name="ISMEAR">     0</i>
    <i name="SIGMA">      0.20000000</i>
    <i name="KSPACING">      0.50000000</i>
    <i type="logical" name="KGAMMA"> T  </i>
   </separator>
   <separator name="electronic projectors" >
    <i type="logical" name="LREAL"> F  </i>
    <v name="ROPT">      0.00000000</v>
    <i type="int" name="LMAXPAW">  -100</i>
    <i type="int" name="LMAXMIX">     2</i>
    <i type="logical" name="NLSPLINE"> F  </i>
   </separator>
   <separator name="electronic startup" >
    <i type="int" name="ISTART">     1</i>
    <i type="int" name="ICHARG">     0</i>
    <i type="int" name="INIWAV">     1</i>
   </separator>
   <separator name="electronic spin" >
    <i type="int" name="ISPIN">     1</i>
    <i type="logical" name="LNONCOLLINEAR"> F  </i>
    <v name="MAGMOM">      1.00000000      1.00000000</v>
    <i name="NUPDOWN">     -1.00000000</i>
    <i type="logical" name="LSORBIT"> F  </i>
    <v name="SAXIS">      0.00000000      0.00000000      1.00000000</v>
    <i type="logical" name="LSPIRAL"> F  </i>
    <v name="QSPIRAL">      0.00000000      0.00000000      0.00000000</v>
    <i type="logical" name="LZEROZ"> F  </i>
   </separator>
   <separator name="electronic exchange-correlation" >
    <i type="logical" name="LASPH"> F  </i>
    <i type="logical" name="LMETAGGA"> F  </i>
   </separator>
   <separator name="electronic convergence" >
    <i type="int" name="NELM">    60</i>
    <i type="int" name="NELMDL">     0</i>
    <i type="int" name="NELMIN">     2</i>
    <i name="ENINI">    250.00000000</i>
    <separator name="electronic convergence detail" >
     <i type="logical" name="LDIAG"> T  </i>
     <i type="logical" name="LSUBROT"> F  </i>
     <i name="WEIMIN">      0.00100000</i>
     <i name="EBREAK">      0.00001250</i>
     <i name="DEPER">      0.30000000</i>
     <i type="int" name="NRMM">     4</i>
     <i name="TIME">      0.40000000</i>
    </separator>
   </separator>
   <separator name="electronic mixer" >
    <i name="AMIX">      0.40000000</i>
    <i name="BMIX">      1.00000000</i>
    <i name="AMIN">      0.10000000</i>
    <i name="AMIX_MAG">      1.60000000</i>
    <i name="BMIX_MAG">      1.00000000</i>
    <separator name="electronic mixer details" >
     <i type="int" name="IMIX">     4</i>
     <i type="logical" name="MIXFIRST"> F  </i>
     <i type="int" name="MAXMIX">   -45</i>
     <i name="WC">    100.00000000</i>
     <i type="int" name="INIMIX">     1</i>
     <i type="int" name="MIXPRE">     1</i>
     <i type="int" name="MREMOVE">     5</i>
    </separator>
   </separator>
   <separator name="electronic dipolcorrection" >
    <i type="logical" name="LDIPOL"> F  </i>
    <i type="logical" name="LMONO"> F  </i>
    <i type="int" name="IDIPOL">     0</i>
    <i name="EPSILON">      1.00000000</i>
    <v name="DIPOL">   -100.00000000   -100.00000000   -100.00000000</v>
    <i name="EFIELD">      0.00000000</i>
   </separator>
  </separator>
  <separator name="grids" >
   <i type="int" name="NGX">    14</i>
   <i type="int" name="NGY">    14</i>
   <i type="int" name="NGZ">    14</i>
   <i type="int" name="NGXF">    28</i>
   <i type="int" name="NGYF">    28</i>
   <i type="int" name="NGZF">    28</i>
   <i type="logical" name="ADDGRID"> F  </i>
  </separator>
  <separator name="ionic" >
   <i type="int" name="NSW">    15</i>
   <i type="int" name="IBRION">     2</i>
   <i type="int" name="MDALGO">     0</i>
   <i type="int" name="ISIF">     2</i>
   <i name="PSTRESS">      0.00000000</i>
   <i name="EDIFFG">     -0.01000000</i>
   <i type="int" name="NFREE">     1</i>
   <i name="POTIM">      0.50000000</i>
   <i name="SMASS">     -3.00000000</i>
   <i name="SCALEE">      1.00000000</i>
  </separator>
  <separator name="ionic md" >
   <i name="TEBEG">      0.00010000</i>
   <i name="TEEND">      0.00010000</i>
   <i type="int" name="NBLOCK">     1</i>
   <i type="int" name="KBLOCK">    15</i>
   <i type="int" name="NPACO">   256</i>
   <i name="APACO">     16.00000000</i>
  </separator>
  <separator name="symmetry" >
   <i type="int" name="ISYM">     2</i>
   <i name="SYMPREC">      0.00001000</i>
  </separator>
  <separator name="dos" >
   <i type="int" name="LORBIT">     0</i>
   <v name="RWIGS">     -1.00000000</v>
   <i type="int" name="NEDOS">   301</i>
   <i name="EMIN">     10.00000000</i>
   <i name="EMAX">    -10.00000000</i>
   <i name="EFERMI">      0.00000000</i>
  </separator>
  <separator name="writing" >
   <i type="int" name="NWRITE">     2</i>
   <i type="logical" name="LWAVE"> T  </i>
   <i type="logical" name="LDOWNSAMPLE"> F  </i>
   <i type="logical" name="LCHARG"> T  </i>
   <i type="logical" name="LPARD"> F  </i>
   <i type="logical" name="LVTOT"> F  </i>
   <i type="logical" name="LVHAR"> F  </i>
   <i type="logical" name="LELF"> F  </i>
   <i type="logical" name="LOPTICS"> F  </i>
   <v name="STM">      0.00000000      0.00000000      0.00000000      0.00000000      0.00000000      0.00000000      0.00000000</v>
  </separator>
  <separator name="performance" >
   <i type="int" name="NPAR">     8</i>
   <i type="int" name="NSIM">     4</i>
   <i type="int" name="NBLK">    -1</i>
   <i type="logical" name="LPLANE"> T  </i>
   <i type="logical" name="LSCALAPACK"> T  </i>
   <i type="logical" name="LSCAAWARE"> F  </i>
   <i type="logical" name="LSCALU"> F  </i>
   <i type="logical" name="LASYNC"> F  </i>
   <i type="logical" name="LORBITALREAL"> F  </i>
  </separator>
  <separator name="miscellaneous" >
   <i type="int" name="IDIOT">     3</i>
   <i type="int" name="ISPECIAL">     0</i>
   <i type="logical" name="LMUSIC"> F  </i>
   <v name="POMASS">     28.08500000</v>
   <v name="DARWINR">      0.00000000</v>
   <v name="DARWINV">      1.00000000</v>
   <i type="logical" name="LCORR"> T  </i>
  </separator>
  <i type="logical" name="GGA_COMPAT"> T  </i>
  <i type="logical" name="LBERRY"> F  </i>
  <i type="int" name="ICORELEVEL">     0</i>
  <i type="logical" name="LDAU"> F  </i>
  <i type="int" name="I_CONSTRAINED_M">     0</i>
  <separator name="electronic exchange-correlation" >
   <i type="string" name="GGA">--</i>
   <i type="int" name="VOSKOWN">     0</i>
   <i type="logical" name="LHFCALC"> F  </i>
   <i type="string" name="PRECFOCK"></i>
   <i type="logical" name="LSYMGRAD"> F  </i>
   <i type="logical" name="LHFONE"> F  </i>
   <i type="logical" name="LRHFCALC"> F  </i>
   <i type="logical" name="LTHOMAS"> F  </i>
   <i type="logical" name="LMODELHF"> F  </i>
   <i name="ENCUT4O">     -1.00000000</i>
   <i type="int" name="EXXOEP">     0</i>
   <i type="int" name="FOURORBIT">     0</i>
   <i name="AEXX">      0.00000000</i>
   <i name="HFALPHA">      0.00000000</i>
   <i name="MCALPHA">      0.00000000</i>
   <i name="ALDAX">      1.00000000</i>
   <i name="AGGAX">      1.00000000</i>
   <i name="ALDAC">      1.00000000</i>
   <i name="AGGAC">      1.00000000</i>
   <i type="int" name="NKREDX">     1</i>
   <i type="int" name="NKREDY">     1</i>
   <i type="int" name="NKREDZ">     1</i>
   <i type="logical" name="SHIFTRED"> F  </i>
   <i type="logical" name="ODDONLY"> F  </i>
   <i type="logical" name="EVENONLY"> F  </i>
   <i type="int" name="LMAXFOCK">     0</i>
   <i type="int" name="NMAXFOCKAE">     0</i>
   <i type="logical" name="LFOCKAEDFT"> F  </i>
   <i name="HFSCREEN">      0.00000000</i>
   <i name="HFSCREENC">      0.00000000</i>
   <i type="int" name="NBANDSGWLOW">     0</i>
  </separator>
  <separator name="vdW DFT" >
   <i type="logical" name="LUSE_VDW"> F  </i>
   <i name="Zab_VDW">     -0.84910000</i>
   <i name="PARAM1">      0.12340000</i>
   <i name="PARAM2">      1.00000000</i>
   <i name="PARAM3">      0.00000000</i>
  </separator>
  <separator name="model GW" >
   <i type="int" name="MODEL_GW">     0</i>
   <i name="MODEL_EPS0">      9.17662200</i>
   <i name="MODEL_ALPHA">      1.00000000</i>
  </separator>
  <separator name="linear response parameters" >
   <i type="logical" name="LEPSILON"> F  </i>
   <i type="logical" name="LRPA"> F  </i>
   <i type="logical" name="LNABLA"> F  </i>
   <i type="logical" name="LVEL"> F  </i>
   <i type="int" name="KINTER">     0</i>
   <i name="CSHIFT">      0.10000000</i>
   <i name="OMEGAMAX">     -1.00000000</i>
   <i name="DEG_THRESHOLD">      0.00200000</i>
   <i name="RTIME">     -0.10000000</i>
   <i name="WPLASMAI">      0.00000000</i>
   <v name="DFIELD">      0.00000000      0.00000000      0.00000000</v>
   <v name="WPLASMA">      0.00000000      0.00000000      0.00000000      0.00000000      0.00000000      0.00000000      0.00000000      0.00000000      0.00000000</v>
  </separator>
  <separator name="orbital magnetization" >
   <i type="logical" name="NUCIND"> F  </i>
   <v name="MAGPOS">      0.00000000      0.00000000      0.00000000</v>
   <i type="logical" name="LNICSALL"> T  </i>
   <i type="logical" name="ORBITALMAG"> F  </i>
   <i type="logical" name="LMAGBLOCH"> F  </i>
   <i type="logical" name="LCHIMAG"> F  </i>
   <i type="logical" name="LGAUGE"> T  </i>
   <i type="int" name="MAGATOM">     0</i>
   <v name="MAGDIPOL">      0.00000000      0.00000000      0.00000000</v>
   <v name="AVECCONST">      0.00000000      0.00000000      0.00000000</v>
  </separator>
  <separator name="response functions" >
   <i type="logical" name="LADDER"> F  </i>
   <i type="logical" name="LRPAFORCE"> F  </i>
   <i type="logical" name="LFXC"> F  </i>
   <i type="logical" name="LHARTREE"> T  </i>
   <i type="int" name="IBSE">     0</i>
   <v type="int" name="KPOINT">    -1     0     0     0</v>
   <i type="logical" name="LTCTE"> F  </i>
   <i type="logical" name="LTETE"> F  </i>
   <i type="logical" name="LTRIPLET"> F  </i>
   <i type="logical" name="LFXCEPS"> F  </i>
   <i type="logical" name="LFXHEG"> F  </i>
   <i type="int" name="NATURALO">     2</i>
   <i type="logical" name="L2ORDER"> F  </i>
   <i type="logical" name="LMP2LT"> F  </i>
   <i type="logical" name="LUSEW"> F  </i>
   <i name="ENCUTGW">     -2.00000000</i>
   <i name="ENCUTGWSOFT">     -2.00000000</i>
   <i name="ENCUTLF">     -1.00000000</i>
   <i type="int" name="LMAXMP2">    -1</i>
   <i name="SCISSOR">      0.00000000</i>
   <i type="int" name="NOMEGA">     0</i>
   <i type="int" name="NOMEGAR">     0</i>
   <i type="int" name="NBANDSGW">    -1</i>
   <i type="int" name="NBANDSO">    -1</i>
   <i type="int" name="NBANDSV">    -1</i>
   <i type="int" name="NELM">     1</i>
   <i type="int" name="NELMHF">     1</i>
   <i type="int" name="DIM">     3</i>
   <i type="int" name="ANTIRES">     0</i>
   <i name="OMEGAMAX">    -30.00000000</i>
   <i name="OMEGAMIN">    -30.00000000</i>
   <i name="OMEGATL">   -200.00000000</i>
   <i type="int" name="OMEGAGRID">   140</i>
   <i name="CSHIFT">     -0.10000000</i>
   <i type="logical" name="SELFENERGY"> F  </i>
   <i type="logical" name="LSPECTRAL"> F  </i>
   <i type="logical" name="LSPECTRALGW"> F  </i>
   <i type="logical" name="LSINGLES"> F  </i>
   <i type="logical" name="LFERMIGW"> F  </i>
   <i type="logical" name="ODDONLYGW"> F  </i>
   <i type="logical" name="EVENONLYGW"> F  </i>
   <i type="int" name="NKREDLFX">     1</i>
   <i type="int" name="NKREDLFY">     1</i>
   <i type="int" name="NKREDLFZ">     1</i>
   <i type="int" name="MAXMEM">  2800</i>
   <i type="int" name="TELESCOPE">     0</i>
   <i type="int" name="TAUPAR">     1</i>
   <i type="int" name="OMEGAPAR">    -1</i>
   <i name="LAMBDA">      1.00000000</i>
  </separator>
  <separator name="External order field" >
   <i name="OFIELD_KAPPA">      0.00000000</i>
   <v name="OFIELD_K">      0.00000000      0.00000000      0.00000000</v>
   <i name="OFIELD_Q6_NEAR">      0.00000000</i>
   <i name="OFIELD_Q6_FAR">      0.00000000</i>
   <i name="OFIELD_A">      0.00000000</i>
  </separator>
 </parameters>
 <atominfo>
  <atoms>       2 </atoms>
  <types>       1 </types>
  <array name="atoms" >
   <dimension dim="1">ion</dimension>
   <field type="string">element</field>
   <field type="int">atomtype</field>
   <set>
    <rc><c>Si</c><c>   1</c></rc>
    <rc><c>Si</c><c>   1</c></rc>
   </set>
  </array>
  <array name="atomtypes" >
   <dimension dim="1">type</dimension>
   <field type="int">atomspertype</field>
   <field type="string">element</field>
   <field>mass</field>
   <field>valence</field>
   <field type="string">pseudopotential</field>
   <set>
    <rc><c>   2</c><c>Si</c><c>     28.08500000</c><c>      4.00000000</c><c> PAW_PBE Si 05Jan2001                   </c></rc>
   </set>
  </array>
 </atominfo>
 <structure name="initialpos" >
  <crystal>
   <varray name="basis" >
    <v>      -2.45000000       2.45000000       1.27400000 </v>
    <v>       2.45000000      -2.45000000       1.27400000 </v>
    <v>       2.45000000       2.45000000      -1.27400000 </v>
   </varray>
   <i name="volume">     30.58874000 </i>
   <varray name="rec_basis" >
    <v>       0.00000000       0.20408163       0.39246468 </v>
    <v>       0.20408163       0.00000000       0.39246468 </v>
    <v>       0.20408163       0.20408163      -0.00000000 </v>
   </varray>
  </crystal>
  <varray name="positions" >
   <v>       0.25000000       0.75000000       0.50000000 </v>
   <v>       0.00000000       0.00000000       0.00000000 </v>
  </varray>
 </structure>
 <calculation>
  <scstep>
   <time name="dav">    0.08    0.09</time>
   <time name="total">    0.13    0.14</time>
   <energy>
    <i name="alphaZ">      4.40202223 </i>
    <i name="ewald">   -265.18101312 </i>
    <i name="hartreedc">     -2.50691362 </i>
    <i name="XCdc">    -17.55397245 </i>
    <i name="pawpsdc">     70.22851202 </i>
    <i name="pawaedc">    -35.13534776 </i>
    <i name="eentropy">     -0.02677569 </i>
    <i name="bandstr">     29.58345858 </i>
    <i name="atom">    206.12349923 </i>
    <i name="e_fr_energy">    -10.06653058 </i>
    <i name="e_wo_entrp">    -10.03975489 </i>
    <i name="e_0_energy">    -10.05314274 </i>
   </energy>
  </scstep>
  <scstep>
   <time name="dav">    0.05    0.05</time>
   <time name="total">    0.09    0.10</time>
   <energy>
    <i name="e_fr_energy">    -10.01725478 </i>
    <i name="e_wo_entrp">     -9.99047969 </i>
    <i name="e_0_energy">    -10.00386723 </i>
   </energy>
  </scstep>
  <scstep>
   <time name="dav">    0.05    0.06</time>
   <time name="total">    0.09    0.10</time>
   <energy>
    <i name="e_fr_energy">     -9.99164152 </i>
    <i name="e_wo_entrp">     -9.96487028 </i>
    <i name="e_0_energy">     -9.97825590 </i>
   </energy>
  </scstep>
  <scstep>
   <time name="dav">    0.05    0.05</time>
   <time name="total">    0.08    0.09</time>
   <energy>
    <i name="alphaZ">      4.40202223 </i>
    <i name="ewald">   -265.18101312 </i>
    <i name="hartreedc">     -2.50942919 </i>
    <i name="XCdc">    -17.56439235 </i>
    <i name="pawpsdc">     70.41407056 </i>
    <i name="pawaedc">    -35.32726061 </i>
    <i name="eentropy">     -0.02677182 </i>
    <i name="bandstr">     29.67748215 </i>
    <i name="atom">    206.12349923 </i>
    <i name="e_fr_energy">     -9.99179292 </i>
    <i name="e_wo_entrp">     -9.96502110 </i>
    <i name="e_0_energy">     -9.97840701 </i>
   </energy>
  </scstep>
  <structure>
   <crystal>
    <varray name="basis" >
     <v>      -2.45000000       2.45000000       1.27400000 </v>
     <v>       2.45000000      -2.45000000       1.27400000 </v>
     <v>       2.45000000       2.45000000      -1.27400000 </v>
    </varray>
    <i name="volume">     30.58874000 </i>
    <varray name="rec_basis" >
     <v>       0.00000000       0.20408163       0.39246468 </v>
     <v>       0.20408163       0.00000000       0.39246468 </v>
     <v>       0.20408163       0.20408163      -0.00000000 </v>
    </varray>
   </crystal>
   <varray name="positions" >
    <v>       0.25000000       0.75000000       0.50000000 </v>
    <v>       0.00000000       0.00000000       0.00000000 </v>
   </varray>
  </structure>
  <varray name="forces" >
   <v>       0.00000000       0.00000000      -0.00000000 </v>
   <v>      -0.00000000      -0.00000000       0.00000000 </v>
  </varray>
  <varray name="stress" >
   <v>    -119.13394660      -0.00000000       0.00000000 </v>
   <v>      -0.00000000    -119.13394660       0.00000000 </v>
   <v>       0.00000000      -0.00000000     197.17409445 </v>
  </varray>
  <energy>
   <i name="e_fr_energy">     -9.99179292 </i>
   <i name="e_wo_entrp">     -9.97840701 </i>
   <i name="e_0_energy">     -0.02677182 </i>
  </energy>
  <time name="totalsc">    0.98    1.57</time>
  <eigenvalues>
   <array>
    <dimension dim="1">band</dimension>
    <dimension dim="2">kpoint</dimension>
    <dimension dim="3">spin</dimension>
    <field>eigene</field>
    <field>occ</field>
    <set>
     <set comment="spin 1">
      <set comment="kpoint 1">
       <r>   -4.6148    1.0000 </r>
       <r>    6.1813    1.0000 </r>
       <r>    6.2999    1.0000 </r>
       <r>    6.2999    1.0000 </r>
       <r>   10.5482    0.0000 </r>
       <r>   16.8721    0.0000 </r>
       <r>   17.3701    0.0000 </r>
       <r>   17.3701    0.0000 </r>
      </set>
      <set comment="kpoint 2">
       <r>   -1.5041    1.0000 </r>
       <r>    5.3561    1.0000 </r>
       <r>    6.7935    1.0000 </r>
       <r>    7.4676    1.0000 </r>
       <r>   10.2682    0.0000 </r>
       <r>   12.6727    0.0000 </r>
       <r>   13.0308    0.0000 </r>
       <r>   14.0150    0.0000 </r>
      </set>
      <set comment="kpoint 3">
       <r>    1.0453    1.0000 </r>
       <r>    1.0638    1.0000 </r>
       <r>    6.2739    1.0000 </r>
       <r>    8.2370    0.9996 </r>
       <r>    8.8074    0.2504 </r>
       <r>   10.9527    0.0000 </r>
       <r>   15.4778    0.0000 </r>
       <r>   16.5143    0.0000 </r>
      </set>
      <set comment="kpoint 4">
       <r>   -3.2968    1.0000 </r>
       <r>    0.5695    1.0000 </r>
       <r>    7.5256    1.0000 </r>
       <r>    9.3633    0.0000 </r>
       <r>   11.1806    0.0000 </r>
       <r>   13.0774    0.0000 </r>
       <r>   16.4476    0.0000 </r>
       <r>   18.9260    0.0000 </r>
      </set>
      <set comment="kpoint 5">
       <r>   -2.0111    1.0000 </r>
       <r>    1.1102    1.0000 </r>
       <r>    2.8938    1.0000 </r>
       <r>    5.9459    1.0000 </r>
       <r>   15.1771    0.0000 </r>
       <r>   16.7600    0.0000 </r>
       <r>   18.0775    0.0000 </r>
       <r>   18.9621    0.0000 </r>
      </set>
      <set comment="kpoint 6">
       <r>    2.7772    1.0000 </r>
       <r>    2.8735    1.0000 </r>
       <r>    4.6005    1.0000 </r>
       <r>    4.6005    1.0000 </r>
       <r>    5.1736    1.0000 </r>
       <r>   15.1487    0.0000 </r>
       <r>   15.9511    0.0000 </r>
       <r>   15.9512    0.0000 </r>
      </set>
     </set>
    </set>
   </array>
  </eigenvalues>
  <separator name="orbital magnetization" >
   <v name="MAGDIPOLOUT">      0.00000000      0.00000000      0.00000000</v>
  </separator>
  <dos>
   <i name="efermi">      8.71219457 </i>
   <total>
    <array>
     <dimension dim="1">gridpoints</dimension>
     <dimension dim="2">spin</dimension>
     <field>energy</field>
     <field>total</field>
     <field>integrated</field>
     <set>
      <set comment="spin 1">
       <r>    -6.6148     0.0000     0.0000 </r>
       <r>    -6.5228     0.0000     0.0000 </r>
       <r>    -6.4309     0.0000     0.0000 </r>
       <r>    -6.3390     0.0000     0.0000 </r>
       <r>    -6.2471     0.0000     0.0000 </r>
       <r>    -6.1552     0.0000     0.0000 </r>
       <r>    -6.0632     0.0000     0.0000 </r>
       <r>    -5.9713     0.0000     0.0000 </r>
       <r>    -5.8794     0.0000     0.0000 </r>
       <r>    -5.7875     0.0000     0.0000 </r>
       <r>    -5.6955     0.0000     0.0000 </r>
       <r>    -5.6036     0.0000     0.0000 </r>
       <r>    -5.5117     0.0000     0.0000 </r>
       <r>    -5.4198     0.0000     0.0000 </r>
       <r>    -5.3278     0.0000     0.0000 </r>
       <r>    -5.2359     0.0000     0.0000 </r>
       <r>    -5.1440     0.0001     0.0000 </r>
       <r>    -5.0521     0.0007     0.0001 </r>
       <r>    -4.9602     0.0051     0.0005 </r>
       <r>    -4.8682     0.0236     0.0027 </r>
       <r>    -4.7763     0.0726     0.0094 </r>
       <r>    -4.6844     0.1487     0.0231 </r>
       <r>    -4.5925     0.2026     0.0417 </r>
       <r>    -4.5005     0.1835     0.0585 </r>
       <r>    -4.4086     0.1105     0.0687 </r>
       <r>    -4.3167     0.0443     0.0728 </r>
       <r>    -4.2248     0.0118     0.0739 </r>
       <r>    -4.1329     0.0021     0.0740 </r>
       <r>    -4.0409     0.0002     0.0741 </r>
       <r>    -3.9490     0.0000     0.0741 </r>
       <r>    -3.8571     0.0001     0.0741 </r>
       <r>    -3.7652     0.0014     0.0742 </r>
       <r>    -3.6732     0.0110     0.0752 </r>
       <r>    -3.5813     0.0588     0.0806 </r>
       <r>    -3.4894     0.2080     0.0997 </r>
       <r>    -3.3975     0.4889     0.1447 </r>
       <r>    -3.3055     0.7641     0.2149 </r>
       <r>    -3.2136     0.7943     0.2879 </r>
       <r>    -3.1217     0.5492     0.3384 </r>
       <r>    -3.0298     0.2524     0.3616 </r>
       <r>    -2.9379     0.0771     0.3687 </r>
       <r>    -2.8459     0.0157     0.3702 </r>
       <r>    -2.7540     0.0021     0.3704 </r>
       <r>    -2.6621     0.0002     0.3704 </r>
       <r>    -2.5702     0.0001     0.3704 </r>
       <r>    -2.4782     0.0014     0.3705 </r>
       <r>    -2.3863     0.0113     0.3716 </r>
       <r>    -2.2944     0.0599     0.3771 </r>
       <r>    -2.2025     0.2109     0.3965 </r>
       <r>    -2.1105     0.4932     0.4418 </r>
       <r>    -2.0186     0.7674     0.5123 </r>
       <r>    -1.9267     0.8007     0.5859 </r>
       <r>    -1.8348     0.5983     0.6409 </r>
       <r>    -1.7429     0.4812     0.6852 </r>
       <r>    -1.6509     0.7455     0.7537 </r>
       <r>    -1.5590     1.3003     0.8732 </r>
       <r>    -1.4671     1.6416     1.0241 </r>
       <r>    -1.3752     1.3914     1.1520 </r>
       <r>    -1.2832     0.7851     1.2242 </r>
       <r>    -1.1913     0.2945     1.2513 </r>
       <r>    -1.0994     0.0734     1.2580 </r>
       <r>    -1.0075     0.0121     1.2591 </r>
       <r>    -0.9155     0.0013     1.2592 </r>
       <r>    -0.8236     0.0001     1.2593 </r>
       <r>    -0.7317     0.0000     1.2593 </r>
       <r>    -0.6398     0.0000     1.2593 </r>
       <r>    -0.5479     0.0000     1.2593 </r>
       <r>    -0.4559     0.0000     1.2593 </r>
       <r>    -0.3640     0.0000     1.2593 </r>
       <r>    -0.2721     0.0000     1.2593 </r>
       <r>    -0.1802     0.0000     1.2593 </r>
       <r>    -0.0882     0.0000     1.2593 </r>
       <r>     0.0037     0.0001     1.2593 </r>
       <r>     0.0956     0.0012     1.2594 </r>
       <r>     0.1875     0.0099     1.2603 </r>
       <r>     0.2794     0.0538     1.2652 </r>
       <r>     0.3714     0.1950     1.2832 </r>
       <r>     0.4633     0.4700     1.3264 </r>
       <r>     0.5552     0.7553     1.3958 </r>
       <r>     0.6471     0.8265     1.4718 </r>
       <r>     0.7391     0.7219     1.5381 </r>
       <r>     0.8310     0.9033     1.6212 </r>
       <r>     0.9229     1.8409     1.7904 </r>
       <r>     1.0148     3.2732     2.0913 </r>
       <r>     1.1068     4.0524     2.4638 </r>
       <r>     1.1987     3.3871     2.7751 </r>
       <r>     1.2906     1.9063     2.9503 </r>
       <r>     1.3825     0.7227     3.0168 </r>
       <r>     1.4744     0.1846     3.0337 </r>
       <r>     1.5664     0.0318     3.0367 </r>
       <r>     1.6583     0.0037     3.0370 </r>
       <r>     1.7502     0.0003     3.0370 </r>
       <r>     1.8421     0.0000     3.0370 </r>
       <r>     1.9341     0.0000     3.0370 </r>
       <r>     2.0260     0.0000     3.0370 </r>
       <r>     2.1179     0.0000     3.0370 </r>
       <r>     2.2098     0.0001     3.0370 </r>
       <r>     2.3018     0.0007     3.0371 </r>
       <r>     2.3937     0.0059     3.0376 </r>
       <r>     2.4856     0.0362     3.0410 </r>
       <r>     2.5775     0.1546     3.0552 </r>
       <r>     2.6694     0.4636     3.0978 </r>
       <r>     2.7614     0.9800     3.1879 </r>
       <r>     2.8533     1.4569     3.3218 </r>
       <r>     2.9452     1.5116     3.4608 </r>
       <r>     3.0371     1.0835     3.5604 </r>
       <r>     3.1291     0.5311     3.6092 </r>
       <r>     3.2210     0.1765     3.6254 </r>
       <r>     3.3129     0.0395     3.6290 </r>
       <r>     3.4048     0.0059     3.6296 </r>
       <r>     3.4968     0.0006     3.6296 </r>
       <r>     3.5887     0.0000     3.6296 </r>
       <r>     3.6806     0.0000     3.6296 </r>
       <r>     3.7725     0.0000     3.6296 </r>
       <r>     3.8644     0.0000     3.6296 </r>
       <r>     3.9564     0.0000     3.6296 </r>
       <r>     4.0483     0.0001     3.6296 </r>
       <r>     4.1402     0.0017     3.6298 </r>
       <r>     4.2321     0.0130     3.6310 </r>
       <r>     4.3241     0.0668     3.6371 </r>
       <r>     4.4160     0.2279     3.6581 </r>
       <r>     4.5079     0.5169     3.7056 </r>
       <r>     4.5998     0.7795     3.7773 </r>
       <r>     4.6917     0.7821     3.8491 </r>
       <r>     4.7837     0.5256     3.8975 </r>
       <r>     4.8756     0.2567     3.9211 </r>
       <r>     4.9675     0.1738     3.9370 </r>
       <r>     5.0594     0.3309     3.9675 </r>
       <r>     5.1514     0.7289     4.0345 </r>
       <r>     5.2433     1.2990     4.1539 </r>
       <r>     5.3352     1.7720     4.3168 </r>
       <r>     5.4271     1.7636     4.4789 </r>
       <r>     5.5191     1.2317     4.5921 </r>
       <r>     5.6110     0.6080     4.6480 </r>
       <r>     5.7029     0.2962     4.6752 </r>
       <r>     5.7948     0.3663     4.7089 </r>
       <r>     5.8867     0.6676     4.7702 </r>
       <r>     5.9787     0.9793     4.8603 </r>
       <r>     6.0706     1.2532     4.9755 </r>
       <r>     6.1625     1.6784     5.1297 </r>
       <r>     6.2544     2.1747     5.3296 </r>
       <r>     6.3464     2.2156     5.5333 </r>
       <r>     6.4383     1.6156     5.6818 </r>
       <r>     6.5302     0.9317     5.7675 </r>
       <r>     6.6221     0.7761     5.8388 </r>
       <r>     6.7141     1.1787     5.9471 </r>
       <r>     6.8060     1.6069     6.0948 </r>
       <r>     6.8979     1.5137     6.2340 </r>
       <r>     6.9898     0.9542     6.3217 </r>
       <r>     7.0817     0.4188     6.3602 </r>
       <r>     7.1737     0.2296     6.3813 </r>
       <r>     7.2656     0.4784     6.4253 </r>
       <r>     7.3575     1.1870     6.5344 </r>
       <r>     7.4494     2.0608     6.7238 </r>
       <r>     7.5414     2.4158     6.9459 </r>
       <r>     7.6333     1.9116     7.1216 </r>
       <r>     7.7252     1.0226     7.2156 </r>
       <r>     7.8171     0.3777     7.2503 </r>
       <r>     7.9091     0.1462     7.2638 </r>
       <r>     8.0010     0.2557     7.2873 </r>
       <r>     8.0929     0.6886     7.3506 </r>
       <r>     8.1848     1.3022     7.4703 </r>
       <r>     8.2767     1.6417     7.6212 </r>
       <r>     8.3687     1.3814     7.7482 </r>
       <r>     8.4606     0.8065     7.8223 </r>
       <r>     8.5525     0.4689     7.8654 </r>
       <r>     8.6444     0.6427     7.9245 </r>
       <r>     8.7364     1.1919     8.0341 </r>
       <r>     8.8283     1.6194     8.1829 </r>
       <r>     8.9202     1.4775     8.3187 </r>
       <r>     9.0121     0.9123     8.4026 </r>
       <r>     9.1040     0.4469     8.4437 </r>
       <r>     9.1960     0.3703     8.4777 </r>
       <r>     9.2879     0.5927     8.5322 </r>
       <r>     9.3798     0.8063     8.6063 </r>
       <r>     9.4717     0.7477     8.6751 </r>
       <r>     9.5637     0.4621     8.7175 </r>
       <r>     9.6556     0.1900     8.7350 </r>
       <r>     9.7475     0.0526     8.7398 </r>
       <r>     9.8394     0.0165     8.7413 </r>
       <r>     9.9314     0.0489     8.7458 </r>
       <r>    10.0233     0.2133     8.7654 </r>
       <r>    10.1152     0.6329     8.8236 </r>
       <r>    10.2071     1.2517     8.9387 </r>
       <r>    10.2990     1.6588     9.0912 </r>
       <r>    10.3910     1.5005     9.2291 </r>
       <r>    10.4829     0.9809     9.3193 </r>
       <r>    10.5748     0.5434     9.3692 </r>
       <r>    10.6667     0.3777     9.4039 </r>
       <r>    10.7587     0.5340     9.4530 </r>
       <r>    10.8506     1.0385     9.5485 </r>
       <r>    10.9425     1.6507     9.7002 </r>
       <r>    11.0344     1.9317     9.8778 </r>
       <r>    11.1264     1.7531    10.0389 </r>
       <r>    11.2183     1.3326    10.1614 </r>
       <r>    11.3102     0.8512    10.2397 </r>
       <r>    11.4021     0.4224    10.2785 </r>
       <r>    11.4940     0.1503    10.2923 </r>
       <r>    11.5860     0.0366    10.2957 </r>
       <r>    11.6779     0.0060    10.2962 </r>
       <r>    11.7698     0.0007    10.2963 </r>
       <r>    11.8617     0.0000    10.2963 </r>
       <r>    11.9537     0.0000    10.2963 </r>
       <r>    12.0456     0.0000    10.2963 </r>
       <r>    12.1375     0.0005    10.2963 </r>
       <r>    12.2294     0.0051    10.2968 </r>
       <r>    12.3214     0.0363    10.3001 </r>
       <r>    12.4133     0.1729    10.3160 </r>
       <r>    12.5052     0.5476    10.3664 </r>
       <r>    12.5971     1.1575    10.4728 </r>
       <r>    12.6890     1.6604    10.6254 </r>
       <r>    12.7810     1.7428    10.7856 </r>
       <r>    12.8729     1.7079    10.9426 </r>
       <r>    12.9648     2.0419    11.1303 </r>
       <r>    13.0567     2.4687    11.3572 </r>
       <r>    13.1487     2.2778    11.5666 </r>
       <r>    13.2406     1.4515    11.7000 </r>
       <r>    13.3325     0.6248    11.7575 </r>
       <r>    13.4244     0.1809    11.7741 </r>
       <r>    13.5163     0.0364    11.7774 </r>
       <r>    13.6083     0.0162    11.7789 </r>
       <r>    13.7002     0.0713    11.7855 </r>
       <r>    13.7921     0.2871    11.8119 </r>
       <r>    13.8840     0.7720    11.8828 </r>
       <r>    13.9760     1.3801    12.0097 </r>
       <r>    14.0679     1.6408    12.1605 </r>
       <r>    14.1598     1.2974    12.2798 </r>
       <r>    14.2517     0.6822    12.3425 </r>
       <r>    14.3437     0.2384    12.3644 </r>
       <r>    14.4356     0.0554    12.3695 </r>
       <r>    14.5275     0.0085    12.3703 </r>
       <r>    14.6194     0.0011    12.3704 </r>
       <r>    14.7113     0.0030    12.3707 </r>
       <r>    14.8033     0.0218    12.3727 </r>
       <r>    14.8952     0.1085    12.3826 </r>
       <r>    14.9871     0.3610    12.4158 </r>
       <r>    15.0790     0.8091    12.4902 </r>
       <r>    15.1710     1.2558    12.6056 </r>
       <r>    15.2629     1.4754    12.7413 </r>
       <r>    15.3548     1.5865    12.8871 </r>
       <r>    15.4467     1.7584    13.0487 </r>
       <r>    15.5387     1.7367    13.2084 </r>
       <r>    15.6306     1.2980    13.3277 </r>
       <r>    15.7225     0.7683    13.3983 </r>
       <r>    15.8144     0.5806    13.4517 </r>
       <r>    15.9063     0.7212    13.5180 </r>
       <r>    15.9983     0.8314    13.5944 </r>
       <r>    16.0902     0.6912    13.6580 </r>
       <r>    16.1821     0.4906    13.7031 </r>
       <r>    16.2740     0.6136    13.7595 </r>
       <r>    16.3660     1.2530    13.8746 </r>
       <r>    16.4579     2.1219    14.0697 </r>
       <r>    16.5498     2.5762    14.3065 </r>
       <r>    16.6417     2.3444    14.5220 </r>
       <r>    16.7337     1.8141    14.6888 </r>
       <r>    16.8256     1.3386    14.8118 </r>
       <r>    16.9175     0.9007    14.8946 </r>
       <r>    17.0094     0.4917    14.9398 </r>
       <r>    17.1013     0.2302    14.9610 </r>
       <r>    17.1933     0.1789    14.9774 </r>
       <r>    17.2852     0.2827    15.0034 </r>
       <r>    17.3771     0.3975    15.0399 </r>
       <r>    17.4690     0.3840    15.0752 </r>
       <r>    17.5610     0.2478    15.0980 </r>
       <r>    17.6529     0.1100    15.1081 </r>
       <r>    17.7448     0.0560    15.1133 </r>
       <r>    17.8367     0.1186    15.1242 </r>
       <r>    17.9287     0.3294    15.1545 </r>
       <r>    18.0206     0.6363    15.2130 </r>
       <r>    18.1125     0.8190    15.2882 </r>
       <r>    18.2044     0.7011    15.3527 </r>
       <r>    18.2963     0.3992    15.3894 </r>
       <r>    18.3883     0.1514    15.4033 </r>
       <r>    18.4802     0.0413    15.4071 </r>
       <r>    18.5721     0.0319    15.4100 </r>
       <r>    18.6640     0.1311    15.4221 </r>
       <r>    18.7560     0.4435    15.4628 </r>
       <r>    18.8479     1.0086    15.5556 </r>
       <r>    18.9398     1.5351    15.6967 </r>
       <r>    19.0317     1.5638    15.8404 </r>
       <r>    19.1236     1.0663    15.9384 </r>
       <r>    19.2156     0.4865    15.9832 </r>
       <r>    19.3075     0.1484    15.9968 </r>
       <r>    19.3994     0.0303    15.9996 </r>
       <r>    19.4913     0.0041    16.0000 </r>
       <r>    19.5833     0.0004    16.0000 </r>
       <r>    19.6752     0.0000    16.0000 </r>
       <r>    19.7671     0.0000    16.0000 </r>
       <r>    19.8590     0.0000    16.0000 </r>
       <r>    19.9510     0.0000    16.0000 </r>
       <r>    20.0429     0.0000    16.0000 </r>
       <r>    20.1348     0.0000    16.0000 </r>
       <r>    20.2267     0.0000    16.0000 </r>
       <r>    20.3186     0.0000    16.0000 </r>
       <r>    20.4106     0.0000    16.0000 </r>
       <r>    20.5025     0.0000    16.0000 </r>
       <r>    20.5944     0.0000    16.0000 </r>
       <r>    20.6863     0.0000    16.0000 </r>
       <r>    20.7783     0.0000    16.0000 </r>
       <r>    20.8702     0.0000    16.0000 </r>
       <r>    20.9621     0.0000    16.0000 </r>
      </set>
     </set>
    </array>
   </total>
  </dos>
 </calculation>
 <structure name="finalpos" >
  <crystal>
   <varray name="basis" >
    <v>      -2.45000000       2.45000000       1.27400000 </v>
    <v>       2.45000000      -2.45000000       1.27400000 </v>
    <v>       2.45000000       2.45000000      -1.27400000 </v>
   </varray>
   <i name="volume">     30.58874000 </i>
   <varray name="rec_basis" >
    <v>       0.00000000       0.20408163       0.39246468 </v>
    <v>       0.20408163       0.00000000       0.39246468 </v>
    <v>       0.20408163       0.20408163      -0.00000000 </v>
   </varray>
  </crystal>
  <varray name="positions" >
   <v>       0.25000000       0.75000000       0.50000000 </v>
   <v>       0.00000000       0.00000000       0.00000000 </v>
  </varray>
 </structure>
</modeling>
