<?xml version="1.0" encoding="ISO-8859-1"?>
<modeling>
 <generator>
  <i name="program" type="string">vasp </i>
  <i name="version" type="string">5.4.4.18Apr17-6-g9f103f2a35  </i>
  <i name="subversion" type="string">(build Dec 09 2018 21:25:21) complex            parallel </i>
  <i name="platform" type="string">IFC18.0.1.163_CrayMPICH7.7.0_MKL18.0.1.163 </i>
  <i name="date" type="string">2019 03 19 </i>
  <i name="time" type="string">13:12:28 </i>
 </generator>
 <incar>
  <i type="string" name="PREC">normal</i>
  <i type="int" name="IBRION">     2</i>
  <i name="EDIFF">      0.00040000</i>
  <i name="EDIFFG">     -0.01000000</i>
  <i type="int" name="NSW">    15</i>
  <i type="int" name="ISIF">     2</i>
  <i name="ENCUT">    250.00000000</i>
  <i type="int" name="NBANDS">     8</i>
  <i type="logical" name="LREAL"> F  </i>
  <i type="int" name="ISMEAR">     0</i>
  <i name="SIGMA">      0.20000000</i>
  <v type="int" name="KPOINT_BSE">    -1     0     0     0</v>
 </incar>
 <structure name="primitive_cell" >
  <crystal>
   <varray name="basis" >
    <v>      -2.45000000       2.45000000       1.27400000 </v>
    <v>       2.45000000      -2.45000000       1.27400000 </v>
    <v>       2.45000000       2.45000000      -1.27400000 </v>
   </varray>
   <i name="volume">     30.58874000 </i>
   <varray name="rec_basis" >
    <v>       0.00000000       0.20408163       0.39246468 </v>
    <v>       0.20408163       0.00000000       0.39246468 </v>
    <v>       0.20408163       0.20408163      -0.00000000 </v>
   </varray>
  </crystal>
  <varray name="positions" >
   <v>       0.25000000      -0.25000000      -0.50000000 </v>
   <v>       0.00000000       0.00000000       0.00000000 </v>
  </varray>
 </structure>
 <varray name="primitive_index" >
  <v type="int" >        1 </v>
  <v type="int" >        2 </v>
 </varray>
 <kpoints>
  <generation param="Monkhorst-Pack">
   <v type="int" name="divisions">       3        3        3 </v>
   <v name="usershift">      0.00000000       0.00000000       0.00000000 </v>
   <v name="genvec1">      0.33333333      -0.00000000       0.00000000 </v>
   <v name="genvec2">     -0.00000000       0.33333333       0.00000000 </v>
   <v name="genvec3">     -0.00000000      -0.00000000       0.33333333 </v>
   <v name="shift">      0.00000000       0.00000000       0.00000000 </v>
  </generation>
  <varray name="kpointlist" >
   <v>       0.00000000       0.00000000       0.00000000 </v>
   <v>       0.33333333      -0.00000000       0.00000000 </v>
   <v>       0.33333333       0.33333333       0.00000000 </v>
   <v>      -0.33333333       0.33333333       0.00000000 </v>
   <v>      -0.33333333       0.33333333       0.33333333 </v>
   <v>      -0.33333333      -0.33333333       0.33333333 </v>
  </varray>
  <varray name="weights" >
   <v>       0.03703704 </v>
   <v>       0.29629630 </v>
   <v>       0.29629630 </v>
   <v>       0.14814815 </v>
   <v>       0.14814815 </v>
   <v>       0.07407407 </v>
  </varray>
 </kpoints>
 <parameters>
  <separator name="general" >
   <i type="string" name="SYSTEM">unknown system</i>
   <i type="logical" name="LCOMPAT"> F  </i>
  </separator>
  <separator name="electronic" >
   <i type="string" name="PREC">normal</i>
   <i name="ENMAX">    250.00000000</i>
   <i name="ENAUG">    322.06900000</i>
   <i name="EDIFF">      0.00040000</i>
   <i type="int" name="IALGO">    38</i>
   <i type="int" name="IWAVPR">    11</i>
   <i type="int" name="NBANDS">     8</i>
   <i name="NELECT">      8.00000000</i>
   <i type="int" name="TURBO">     0</i>
   <i type="int" name="IRESTART">     0</i>
   <i type="int" name="NREBOOT">     0</i>
   <i type="int" name="NMIN">     0</i>
   <i name="EREF">      0.00000000</i>
   <separator name="electronic smearing" >
    <i type="int" name="ISMEAR">     0</i>
    <i name="SIGMA">      0.20000000</i>
    <i name="KSPACING">      0.50000000</i>
    <i type="logical" name="KGAMMA"> T  </i>
   </separator>
   <separator name="electronic projectors" >
    <i type="logical" name="LREAL"> F  </i>
    <v name="ROPT">      0.00000000</v>
    <i type="int" name="LMAXPAW">  -100</i>
    <i type="int" name="LMAXMIX">     2</i>
    <i type="logical" name="NLSPLINE"> F  </i>
   </separator>
   <separator name="electronic startup" >
    <i type="int" name="ISTART">     1</i>
    <i type="int" name="ICHARG">     0</i>
    <i type="int" name="INIWAV">     1</i>
   </separator>
   <separator name="electronic spin" >
    <i type="int" name="ISPIN">     1</i>
    <i type="logical" name="LNONCOLLINEAR"> F  </i>
    <v name="MAGMOM">      1.00000000      1.00000000</v>
    <i name="NUPDOWN">     -1.00000000</i>
    <i type="logical" name="LSORBIT"> F  </i>
    <v name="SAXIS">      0.00000000      0.00000000      1.00000000</v>
    <i type="logical" name="LSPIRAL"> F  </i>
    <v name="QSPIRAL">      0.00000000      0.00000000      0.00000000</v>
    <i type="logical" name="LZEROZ"> F  </i>
   </separator>
   <separator name="electronic exchange-correlation" >
    <i type="logical" name="LASPH"> F  </i>
    <i type="logical" name="LMETAGGA"> F  </i>
   </separator>
   <separator name="electronic convergence" >
    <i type="int" name="NELM">    60</i>
    <i type="int" name="NELMDL">     0</i>
    <i type="int" name="NELMIN">     2</i>
    <i name="ENINI">    250.00000000</i>
    <separator name="electronic convergence detail" >
     <i type="logical" name="LDIAG"> T  </i>
     <i type="logical" name="LSUBROT"> F  </i>
     <i name="WEIMIN">      0.00100000</i>
     <i name="EBREAK">      0.00001250</i>
     <i name="DEPER">      0.30000000</i>
     <i type="int" name="NRMM">     4</i>
     <i name="TIME">      0.40000000</i>
    </separator>
   </separator>
   <separator name="electronic mixer" >
    <i name="AMIX">      0.40000000</i>
    <i name="BMIX">      1.00000000</i>
    <i name="AMIN">      0.10000000</i>
    <i name="AMIX_MAG">      1.60000000</i>
    <i name="BMIX_MAG">      1.00000000</i>
    <separator name="electronic mixer details" >
     <i type="int" name="IMIX">     4</i>
     <i type="logical" name="MIXFIRST"> F  </i>
     <i type="int" name="MAXMIX">   -45</i>
     <i name="WC">    100.00000000</i>
     <i type="int" name="INIMIX">     1</i>
     <i type="int" name="MIXPRE">     1</i>
     <i type="int" name="MREMOVE">     5</i>
    </separator>
   </separator>
   <separator name="electronic dipolcorrection" >
    <i type="logical" name="LDIPOL"> F  </i>
    <i type="logical" name="LMONO"> F  </i>
    <i type="int" name="IDIPOL">     0</i>
    <i name="EPSILON">      1.00000000</i>
    <v name="DIPOL">   -100.00000000   -100.00000000   -100.00000000</v>
    <i name="EFIELD">      0.00000000</i>
   </separator>
  </separator>
  <separator name="grids" >
   <i type="int" name="NGX">    14</i>
   <i type="int" name="NGY">    14</i>
   <i type="int" name="NGZ">    14</i>
   <i type="int" name="NGXF">    28</i>
   <i type="int" name="NGYF">    28</i>
   <i type="int" name="NGZF">    28</i>
   <i type="logical" name="ADDGRID"> F  </i>
  </separator>
  <separator name="ionic" >
   <i type="int" name="NSW">    15</i>
   <i type="int" name="IBRION">     2</i>
   <i type="int" name="MDALGO">     0</i>
   <i type="int" name="ISIF">     2</i>
   <i name="PSTRESS">      0.00000000</i>
   <i name="EDIFFG">     -0.01000000</i>
   <i type="int" name="NFREE">     1</i>
   <i name="POTIM">      0.50000000</i>
   <i name="SMASS">     -3.00000000</i>
   <i name="SCALEE">      1.00000000</i>
  </separator>
  <separator name="ionic md" >
   <i name="TEBEG">      0.00010000</i>
   <i name="TEEND">      0.00010000</i>
   <i type="int" name="NBLOCK">     1</i>
   <i type="int" name="KBLOCK">    15</i>
   <i type="int" name="NPACO">   256</i>
   <i name="APACO">     16.00000000</i>
  </separator>
  <separator name="symmetry" >
   <i type="int" name="ISYM">     2</i>
   <i name="SYMPREC">      0.00001000</i>
  </separator>
  <separator name="dos" >
   <i type="int" name="LORBIT">     0</i>
   <v name="RWIGS">     -1.00000000</v>
   <i type="int" name="NEDOS">   301</i>
   <i name="EMIN">     10.00000000</i>
   <i name="EMAX">    -10.00000000</i>
   <i name="EFERMI">      0.00000000</i>
  </separator>
  <separator name="writing" >
   <i type="int" name="NWRITE">     2</i>
   <i type="logical" name="LWAVE"> T  </i>
   <i type="logical" name="LDOWNSAMPLE"> F  </i>
   <i type="logical" name="LCHARG"> T  </i>
   <i type="logical" name="LPARD"> F  </i>
   <i type="logical" name="LVTOT"> F  </i>
   <i type="logical" name="LVHAR"> F  </i>
   <i type="logical" name="LELF"> F  </i>
   <i type="logical" name="LOPTICS"> F  </i>
   <v name="STM">      0.00000000      0.00000000      0.00000000      0.00000000      0.00000000      0.00000000      0.00000000</v>
  </separator>
  <separator name="performance" >
   <i type="int" name="NPAR">     8</i>
   <i type="int" name="NSIM">     4</i>
   <i type="int" name="NBLK">    -1</i>
   <i type="logical" name="LPLANE"> T  </i>
   <i type="logical" name="LSCALAPACK"> T  </i>
   <i type="logical" name="LSCAAWARE"> F  </i>
   <i type="logical" name="LSCALU"> F  </i>
   <i type="logical" name="LASYNC"> F  </i>
   <i type="logical" name="LORBITALREAL"> F  </i>
  </separator>
  <separator name="miscellaneous" >
   <i type="int" name="IDIOT">     3</i>
   <i type="int" name="ISPECIAL">     0</i>
   <i type="logical" name="LMUSIC"> F  </i>
   <v name="POMASS">     28.08500000</v>
   <v name="DARWINR">      0.00000000</v>
   <v name="DARWINV">      1.00000000</v>
   <i type="logical" name="LCORR"> T  </i>
  </separator>
  <i type="logical" name="GGA_COMPAT"> T  </i>
  <i type="logical" name="LBERRY"> F  </i>
  <i type="int" name="ICORELEVEL">     0</i>
  <i type="logical" name="LDAU"> F  </i>
  <i type="int" name="I_CONSTRAINED_M">     0</i>
  <separator name="electronic exchange-correlation" >
   <i type="string" name="GGA">--</i>
   <i type="int" name="VOSKOWN">     0</i>
   <i type="logical" name="LHFCALC"> F  </i>
   <i type="string" name="PRECFOCK"></i>
   <i type="logical" name="LSYMGRAD"> F  </i>
   <i type="logical" name="LHFONE"> F  </i>
   <i type="logical" name="LRHFCALC"> F  </i>
   <i type="logical" name="LTHOMAS"> F  </i>
   <i type="logical" name="LMODELHF"> F  </i>
   <i name="ENCUT4O">     -1.00000000</i>
   <i type="int" name="EXXOEP">     0</i>
   <i type="int" name="FOURORBIT">     0</i>
   <i name="AEXX">      0.00000000</i>
   <i name="HFALPHA">      0.00000000</i>
   <i name="MCALPHA">      0.00000000</i>
   <i name="ALDAX">      1.00000000</i>
   <i name="AGGAX">      1.00000000</i>
   <i name="ALDAC">      1.00000000</i>
   <i name="AGGAC">      1.00000000</i>
   <i type="int" name="NKREDX">     1</i>
   <i type="int" name="NKREDY">     1</i>
   <i type="int" name="NKREDZ">     1</i>
   <i type="logical" name="SHIFTRED"> F  </i>
   <i type="logical" name="ODDONLY"> F  </i>
   <i type="logical" name="EVENONLY"> F  </i>
   <i type="int" name="LMAXFOCK">     0</i>
   <i type="int" name="NMAXFOCKAE">     0</i>
   <i type="logical" name="LFOCKAEDFT"> F  </i>
   <i name="HFSCREEN">      0.00000000</i>
   <i name="HFSCREENC">      0.00000000</i>
   <i type="int" name="NBANDSGWLOW">     0</i>
  </separator>
  <separator name="vdW DFT" >
   <i type="logical" name="LUSE_VDW"> F  </i>
   <i name="Zab_VDW">     -0.84910000</i>
   <i name="PARAM1">      0.12340000</i>
   <i name="PARAM2">      1.00000000</i>
   <i name="PARAM3">      0.00000000</i>
  </separator>
  <separator name="model GW" >
   <i type="int" name="MODEL_GW">     0</i>
   <i name="MODEL_EPS0">      9.17662200</i>
   <i name="MODEL_ALPHA">      1.00000000</i>
  </separator>
  <separator name="linear response parameters" >
   <i type="logical" name="LEPSILON"> F  </i>
   <i type="logical" name="LRPA"> F  </i>
   <i type="logical" name="LNABLA"> F  </i>
   <i type="logical" name="LVEL"> F  </i>
   <i type="int" name="KINTER">     0</i>
   <i name="CSHIFT">      0.10000000</i>
   <i name="OMEGAMAX">     -1.00000000</i>
   <i name="DEG_THRESHOLD">      0.00200000</i>
   <i name="RTIME">     -0.10000000</i>
   <i name="WPLASMAI">      0.00000000</i>
   <v name="DFIELD">      0.00000000      0.00000000      0.00000000</v>
   <v name="WPLASMA">      0.00000000      0.00000000      0.00000000      0.00000000      0.00000000      0.00000000      0.00000000      0.00000000      0.00000000</v>
  </separator>
  <separator name="orbital magnetization" >
   <i type="logical" name="NUCIND"> F  </i>
   <v name="MAGPOS">      0.00000000      0.00000000      0.00000000</v>
   <i type="logical" name="LNICSALL"> T  </i>
   <i type="logical" name="ORBITALMAG"> F  </i>
   <i type="logical" name="LMAGBLOCH"> F  </i>
   <i type="logical" name="LCHIMAG"> F  </i>
   <i type="logical" name="LGAUGE"> T  </i>
   <i type="int" name="MAGATOM">     0</i>
   <v name="MAGDIPOL">      0.00000000      0.00000000      0.00000000</v>
   <v name="AVECCONST">      0.00000000      0.00000000      0.00000000</v>
  </separator>
  <separator name="response functions" >
   <i type="logical" name="LADDER"> F  </i>
   <i type="logical" name="LRPAFORCE"> F  </i>
   <i type="logical" name="LFXC"> F  </i>
   <i type="logical" name="LHARTREE"> T  </i>
   <i type="int" name="IBSE">     0</i>
   <v type="int" name="KPOINT">    -1     0     0     0</v>
   <i type="logical" name="LTCTE"> F  </i>
   <i type="logical" name="LTETE"> F  </i>
   <i type="logical" name="LTRIPLET"> F  </i>
   <i type="logical" name="LFXCEPS"> F  </i>
   <i type="logical" name="LFXHEG"> F  </i>
   <i type="int" name="NATURALO">     2</i>
   <i type="logical" name="L2ORDER"> F  </i>
   <i type="logical" name="LMP2LT"> F  </i>
   <i type="logical" name="LUSEW"> F  </i>
   <i name="ENCUTGW">     -2.00000000</i>
   <i name="ENCUTGWSOFT">     -2.00000000</i>
   <i name="ENCUTLF">     -1.00000000</i>
   <i type="int" name="LMAXMP2">    -1</i>
   <i name="SCISSOR">      0.00000000</i>
   <i type="int" name="NOMEGA">     0</i>
   <i type="int" name="NOMEGAR">     0</i>
   <i type="int" name="NBANDSGW">    -1</i>
   <i type="int" name="NBANDSO">    -1</i>
   <i type="int" name="NBANDSV">    -1</i>
   <i type="int" name="NELM">     1</i>
   <i type="int" name="NELMHF">     1</i>
   <i type="int" name="DIM">     3</i>
   <i type="int" name="ANTIRES">     0</i>
   <i name="OMEGAMAX">    -30.00000000</i>
   <i name="OMEGAMIN">    -30.00000000</i>
   <i name="OMEGATL">   -200.00000000</i>
   <i type="int" name="OMEGAGRID">   140</i>
   <i name="CSHIFT">     -0.10000000</i>
   <i type="logical" name="SELFENERGY"> F  </i>
   <i type="logical" name="LSPECTRAL"> F  </i>
   <i type="logical" name="LSPECTRALGW"> F  </i>
   <i type="logical" name="LSINGLES"> F  </i>
   <i type="logical" name="LFERMIGW"> F  </i>
   <i type="logical" name="ODDONLYGW"> F  </i>
   <i type="logical" name="EVENONLYGW"> F  </i>
   <i type="int" name="NKREDLFX">     1</i>
   <i type="int" name="NKREDLFY">     1</i>
   <i type="int" name="NKREDLFZ">     1</i>
   <i type="int" name="MAXMEM">  2800</i>
   <i type="int" name="TELESCOPE">     0</i>
   <i type="int" name="TAUPAR">     1</i>
   <i type="int" name="OMEGAPAR">    -1</i>
   <i name="LAMBDA">      1.00000000</i>
  </separator>
  <separator name="External order field" >
   <i name="OFIELD_KAPPA">      0.00000000</i>
   <v name="OFIELD_K">      0.00000000      0.00000000      0.00000000</v>
   <i name="OFIELD_Q6_NEAR">      0.00000000</i>
   <i name="OFIELD_Q6_FAR">      0.00000000</i>
   <i name="OFIELD_A">      0.00000000</i>
  </separator>
 </parameters>
 <atominfo>
  <atoms>       2 </atoms>
  <types>       1 </types>
  <array name="atoms" >
   <dimension dim="1">ion</dimension>
   <field type="string">element</field>
   <field type="int">atomtype</field>
   <set>
    <rc><c>Si</c><c>   1</c></rc>
    <rc><c>Si</c><c>   1</c></rc>
   </set>
  </array>
  <array name="atomtypes" >
   <dimension dim="1">type</dimension>
   <field type="int">atomspertype</field>
   <field type="string">element</field>
   <field>mass</field>
   <field>valence</field>
   <field type="string">pseudopotential</field>
   <set>
    <rc><c>   2</c><c>Si</c><c>     28.08500000</c><c>      4.00000000</c><c> PAW_PBE Si 05Jan2001                   </c></rc>
   </set>
  </array>
 </atominfo>
 <structure name="initialpos" >
  <crystal>
   <varray name="basis" >
    <v>      -2.45000000       2.45000000       1.27400000 </v>
    <v>       2.45000000      -2.45000000       1.27400000 </v>
    <v>       2.45000000       2.45000000      -1.27400000 </v>
   </varray>
   <i name="volume">     30.58874000 </i>
   <varray name="rec_basis" >
    <v>       0.00000000       0.20408163       0.39246468 </v>
    <v>       0.20408163       0.00000000       0.39246468 </v>
    <v>       0.20408163       0.20408163      -0.00000000 </v>
   </varray>
  </crystal>
  <varray name="positions" >
   <v>       0.25000000       0.75000000       0.50000000 </v>
   <v>       0.00000000       0.00000000       0.00000000 </v>
  </varray>
 </structure>
 <calculation>
  <scstep>
   <time name="dav">    0.03    0.04</time>
   <time name="total">    0.08    0.13</time>
   <energy>
    <i name="alphaZ">      4.40202223 </i>
    <i name="ewald">   -265.18101312 </i>
    <i name="hartreedc">     -2.51209091 </i>
    <i name="XCdc">    -17.56432363 </i>
    <i name="pawpsdc">     70.40074684 </i>
    <i name="pawaedc">    -35.31313165 </i>
    <i name="eentropy">     -0.02677236 </i>
    <i name="bandstr">     29.67926038 </i>
    <i name="atom">    206.12349923 </i>
    <i name="e_fr_energy">     -9.99180299 </i>
    <i name="e_wo_entrp">     -9.96503063 </i>
    <i name="e_0_energy">     -9.97841681 </i>
   </energy>
  </scstep>
  <scstep>
   <time name="dav">    0.03    0.03</time>
   <time name="total">    0.06    0.07</time>
   <energy>
    <i name="alphaZ">      4.40202223 </i>
    <i name="ewald">   -265.18101312 </i>
    <i name="hartreedc">     -2.51227109 </i>
    <i name="XCdc">    -17.56429944 </i>
    <i name="pawpsdc">     70.40037637 </i>
    <i name="pawaedc">    -35.31274272 </i>
    <i name="eentropy">     -0.02677233 </i>
    <i name="bandstr">     29.67939840 </i>
    <i name="atom">    206.12349923 </i>
    <i name="e_fr_energy">     -9.99180247 </i>
    <i name="e_wo_entrp">     -9.96503014 </i>
    <i name="e_0_energy">     -9.97841631 </i>
   </energy>
  </scstep>
  <structure>
   <crystal>
    <varray name="basis" >
     <v>      -2.45000000       2.45000000       1.27400000 </v>
     <v>       2.45000000      -2.45000000       1.27400000 </v>
     <v>       2.45000000       2.45000000      -1.27400000 </v>
    </varray>
    <i name="volume">     30.58874000 </i>
    <varray name="rec_basis" >
     <v>       0.00000000       0.20408163       0.39246468 </v>
     <v>       0.20408163       0.00000000       0.39246468 </v>
     <v>       0.20408163       0.20408163      -0.00000000 </v>
    </varray>
   </crystal>
   <varray name="positions" >
    <v>       0.25000000       0.75000000       0.50000000 </v>
    <v>       0.00000000       0.00000000       0.00000000 </v>
   </varray>
  </structure>
  <varray name="forces" >
   <v>       0.00000000       0.00000000      -0.00000000 </v>
   <v>      -0.00000000      -0.00000000       0.00000000 </v>
  </varray>
  <varray name="stress" >
   <v>    -118.37013909      -0.00000000       0.00000000 </v>
   <v>      -0.00000000    -118.37013909       0.00000000 </v>
   <v>       0.00000000      -0.00000000     195.20329808 </v>
  </varray>
  <energy>
   <i name="e_fr_energy">     -9.99180247 </i>
   <i name="e_wo_entrp">     -9.97841631 </i>
   <i name="e_0_energy">     -0.02677233 </i>
  </energy>
  <time name="totalsc">    0.73    1.55</time>
  <eigenvalues>
   <array>
    <dimension dim="1">band</dimension>
    <dimension dim="2">kpoint</dimension>
    <dimension dim="3">spin</dimension>
    <field>eigene</field>
    <field>occ</field>
    <set>
     <set comment="spin 1">
      <set comment="kpoint 1">
       <r>   -4.6146    1.0000 </r>
       <r>    6.1789    1.0000 </r>
       <r>    6.3007    1.0000 </r>
       <r>    6.3007    1.0000 </r>
       <r>   10.5509    0.0000 </r>
       <r>   16.8743    0.0000 </r>
       <r>   17.3704    0.0000 </r>
       <r>   17.3705    0.0000 </r>
      </set>
      <set comment="kpoint 2">
       <r>   -1.5038    1.0000 </r>
       <r>    5.3556    1.0000 </r>
       <r>    6.7950    1.0000 </r>
       <r>    7.4671    1.0000 </r>
       <r>   10.2675    0.0000 </r>
       <r>   12.6739    0.0000 </r>
       <r>   13.0310    0.0000 </r>
       <r>   14.0154    0.0000 </r>
      </set>
      <set comment="kpoint 3">
       <r>    1.0455    1.0000 </r>
       <r>    1.0639    1.0000 </r>
       <r>    6.2741    1.0000 </r>
       <r>    8.2375    0.9996 </r>
       <r>    8.8077    0.2504 </r>
       <r>   10.9526    0.0000 </r>
       <r>   15.4783    0.0000 </r>
       <r>   16.5147    0.0000 </r>
      </set>
      <set comment="kpoint 4">
       <r>   -3.2967    1.0000 </r>
       <r>    0.5694    1.0000 </r>
       <r>    7.5264    1.0000 </r>
       <r>    9.3631    0.0000 </r>
       <r>   11.1815    0.0000 </r>
       <r>   13.0772    0.0000 </r>
       <r>   16.4491    0.0000 </r>
       <r>   18.9261    0.0000 </r>
      </set>
      <set comment="kpoint 5">
       <r>   -2.0111    1.0000 </r>
       <r>    1.1094    1.0000 </r>
       <r>    2.8952    1.0000 </r>
       <r>    5.9465    1.0000 </r>
       <r>   15.1766    0.0000 </r>
       <r>   16.7599    0.0000 </r>
       <r>   18.0775    0.0000 </r>
       <r>   18.9642    0.0000 </r>
      </set>
      <set comment="kpoint 6">
       <r>    2.7773    1.0000 </r>
       <r>    2.8726    1.0000 </r>
       <r>    4.6020    1.0000 </r>
       <r>    4.6020    1.0000 </r>
       <r>    5.1728    1.0000 </r>
       <r>   15.1473    0.0000 </r>
       <r>   15.9514    0.0000 </r>
       <r>   15.9515    0.0000 </r>
      </set>
     </set>
    </set>
   </array>
  </eigenvalues>
  <separator name="orbital magnetization" >
   <v name="MAGDIPOLOUT">      0.00000000      0.00000000      0.00000000</v>
  </separator>
  <dos>
   <i name="efermi">      8.71252136 </i>
   <total>
    <array>
     <dimension dim="1">gridpoints</dimension>
     <dimension dim="2">spin</dimension>
     <field>energy</field>
     <field>total</field>
     <field>integrated</field>
     <set>
      <set comment="spin 1">
       <r>    -6.6146     0.0000     0.0000 </r>
       <r>    -6.5227     0.0000     0.0000 </r>
       <r>    -6.4307     0.0000     0.0000 </r>
       <r>    -6.3388     0.0000     0.0000 </r>
       <r>    -6.2469     0.0000     0.0000 </r>
       <r>    -6.1549     0.0000     0.0000 </r>
       <r>    -6.0630     0.0000     0.0000 </r>
       <r>    -5.9711     0.0000     0.0000 </r>
       <r>    -5.8792     0.0000     0.0000 </r>
       <r>    -5.7872     0.0000     0.0000 </r>
       <r>    -5.6953     0.0000     0.0000 </r>
       <r>    -5.6034     0.0000     0.0000 </r>
       <r>    -5.5114     0.0000     0.0000 </r>
       <r>    -5.4195     0.0000     0.0000 </r>
       <r>    -5.3276     0.0000     0.0000 </r>
       <r>    -5.2357     0.0000     0.0000 </r>
       <r>    -5.1437     0.0001     0.0000 </r>
       <r>    -5.0518     0.0007     0.0001 </r>
       <r>    -4.9599     0.0051     0.0005 </r>
       <r>    -4.8679     0.0236     0.0027 </r>
       <r>    -4.7760     0.0727     0.0094 </r>
       <r>    -4.6841     0.1489     0.0231 </r>
       <r>    -4.5921     0.2026     0.0417 </r>
       <r>    -4.5002     0.1834     0.0586 </r>
       <r>    -4.4083     0.1104     0.0687 </r>
       <r>    -4.3164     0.0442     0.0728 </r>
       <r>    -4.2244     0.0117     0.0739 </r>
       <r>    -4.1325     0.0021     0.0740 </r>
       <r>    -4.0406     0.0002     0.0741 </r>
       <r>    -3.9486     0.0000     0.0741 </r>
       <r>    -3.8567     0.0001     0.0741 </r>
       <r>    -3.7648     0.0014     0.0742 </r>
       <r>    -3.6729     0.0111     0.0752 </r>
       <r>    -3.5809     0.0590     0.0807 </r>
       <r>    -3.4890     0.2086     0.0998 </r>
       <r>    -3.3971     0.4898     0.1449 </r>
       <r>    -3.3051     0.7647     0.2152 </r>
       <r>    -3.2132     0.7939     0.2881 </r>
       <r>    -3.1213     0.5482     0.3385 </r>
       <r>    -3.0293     0.2517     0.3617 </r>
       <r>    -2.9374     0.0768     0.3687 </r>
       <r>    -2.8455     0.0156     0.3702 </r>
       <r>    -2.7536     0.0021     0.3704 </r>
       <r>    -2.6616     0.0002     0.3704 </r>
       <r>    -2.5697     0.0001     0.3704 </r>
       <r>    -2.4778     0.0014     0.3705 </r>
       <r>    -2.3858     0.0114     0.3716 </r>
       <r>    -2.2939     0.0604     0.3771 </r>
       <r>    -2.2020     0.2120     0.3966 </r>
       <r>    -2.1101     0.4947     0.4421 </r>
       <r>    -2.0181     0.7683     0.5127 </r>
       <r>    -1.9262     0.8001     0.5863 </r>
       <r>    -1.8343     0.5970     0.6411 </r>
       <r>    -1.7423     0.4808     0.6853 </r>
       <r>    -1.6504     0.7466     0.7540 </r>
       <r>    -1.5585     1.3019     0.8737 </r>
       <r>    -1.4665     1.6418     1.0246 </r>
       <r>    -1.3746     1.3898     1.1523 </r>
       <r>    -1.2827     0.7831     1.2243 </r>
       <r>    -1.1908     0.2934     1.2513 </r>
       <r>    -1.0988     0.0730     1.2580 </r>
       <r>    -1.0069     0.0121     1.2591 </r>
       <r>    -0.9150     0.0013     1.2592 </r>
       <r>    -0.8230     0.0001     1.2593 </r>
       <r>    -0.7311     0.0000     1.2593 </r>
       <r>    -0.6392     0.0000     1.2593 </r>
       <r>    -0.5473     0.0000     1.2593 </r>
       <r>    -0.4553     0.0000     1.2593 </r>
       <r>    -0.3634     0.0000     1.2593 </r>
       <r>    -0.2715     0.0000     1.2593 </r>
       <r>    -0.1795     0.0000     1.2593 </r>
       <r>    -0.0876     0.0000     1.2593 </r>
       <r>     0.0043     0.0001     1.2593 </r>
       <r>     0.0963     0.0012     1.2594 </r>
       <r>     0.1882     0.0100     1.2603 </r>
       <r>     0.2801     0.0544     1.2653 </r>
       <r>     0.3720     0.1967     1.2834 </r>
       <r>     0.4640     0.4725     1.3268 </r>
       <r>     0.5559     0.7569     1.3964 </r>
       <r>     0.6478     0.8259     1.4723 </r>
       <r>     0.7398     0.7210     1.5386 </r>
       <r>     0.8317     0.9066     1.6220 </r>
       <r>     0.9236     1.8508     1.7921 </r>
       <r>     1.0155     3.2843     2.0940 </r>
       <r>     1.1075     4.0546     2.4668 </r>
       <r>     1.1994     3.3778     2.7773 </r>
       <r>     1.2913     1.8939     2.9514 </r>
       <r>     1.3833     0.7149     3.0171 </r>
       <r>     1.4752     0.1818     3.0338 </r>
       <r>     1.5671     0.0311     3.0367 </r>
       <r>     1.6591     0.0036     3.0370 </r>
       <r>     1.7510     0.0003     3.0370 </r>
       <r>     1.8429     0.0000     3.0370 </r>
       <r>     1.9348     0.0000     3.0370 </r>
       <r>     2.0268     0.0000     3.0370 </r>
       <r>     2.1187     0.0000     3.0370 </r>
       <r>     2.2106     0.0001     3.0370 </r>
       <r>     2.3026     0.0007     3.0371 </r>
       <r>     2.3945     0.0060     3.0377 </r>
       <r>     2.4864     0.0366     3.0410 </r>
       <r>     2.5783     0.1558     3.0553 </r>
       <r>     2.6703     0.4658     3.0982 </r>
       <r>     2.7622     0.9820     3.1884 </r>
       <r>     2.8541     1.4569     3.3224 </r>
       <r>     2.9461     1.5095     3.4611 </r>
       <r>     3.0380     1.0811     3.5605 </r>
       <r>     3.1299     0.5297     3.6092 </r>
       <r>     3.2219     0.1760     3.6254 </r>
       <r>     3.3138     0.0394     3.6290 </r>
       <r>     3.4057     0.0059     3.6296 </r>
       <r>     3.4976     0.0006     3.6296 </r>
       <r>     3.5896     0.0000     3.6296 </r>
       <r>     3.6815     0.0000     3.6296 </r>
       <r>     3.7734     0.0000     3.6296 </r>
       <r>     3.8654     0.0000     3.6296 </r>
       <r>     3.9573     0.0000     3.6296 </r>
       <r>     4.0492     0.0001     3.6296 </r>
       <r>     4.1411     0.0017     3.6298 </r>
       <r>     4.2331     0.0128     3.6310 </r>
       <r>     4.3250     0.0662     3.6371 </r>
       <r>     4.4169     0.2264     3.6579 </r>
       <r>     4.5089     0.5148     3.7052 </r>
       <r>     4.6008     0.7784     3.7768 </r>
       <r>     4.6927     0.7831     3.8487 </r>
       <r>     4.7846     0.5278     3.8973 </r>
       <r>     4.8766     0.2590     3.9211 </r>
       <r>     4.9685     0.1770     3.9374 </r>
       <r>     5.0604     0.3366     3.9683 </r>
       <r>     5.1524     0.7377     4.0361 </r>
       <r>     5.2443     1.3085     4.1564 </r>
       <r>     5.3362     1.7761     4.3197 </r>
       <r>     5.4282     1.7578     4.4813 </r>
       <r>     5.5201     1.2201     4.5935 </r>
       <r>     5.6120     0.5989     4.6485 </r>
       <r>     5.7039     0.2927     4.6754 </r>
       <r>     5.7959     0.3666     4.7091 </r>
       <r>     5.8878     0.6698     4.7707 </r>
       <r>     5.9797     0.9829     4.8611 </r>
       <r>     6.0717     1.2591     4.9768 </r>
       <r>     6.1636     1.6855     5.1317 </r>
       <r>     6.2555     2.1775     5.3319 </r>
       <r>     6.3474     2.2104     5.5351 </r>
       <r>     6.4394     1.6061     5.6828 </r>
       <r>     6.5313     0.9237     5.7677 </r>
       <r>     6.6232     0.7707     5.8385 </r>
       <r>     6.7152     1.1749     5.9465 </r>
       <r>     6.8071     1.6056     6.0942 </r>
       <r>     6.8990     1.5154     6.2335 </r>
       <r>     6.9910     0.9572     6.3215 </r>
       <r>     7.0829     0.4213     6.3602 </r>
       <r>     7.1748     0.2331     6.3816 </r>
       <r>     7.2667     0.4863     6.4263 </r>
       <r>     7.3587     1.1992     6.5366 </r>
       <r>     7.4506     2.0694     6.7268 </r>
       <r>     7.5425     2.4126     6.9486 </r>
       <r>     7.6345     1.8997     7.1232 </r>
       <r>     7.7264     1.0120     7.2163 </r>
       <r>     7.8183     0.3728     7.2505 </r>
       <r>     7.9102     0.1454     7.2639 </r>
       <r>     8.0022     0.2578     7.2876 </r>
       <r>     8.0941     0.6932     7.3513 </r>
       <r>     8.1860     1.3068     7.4714 </r>
       <r>     8.2780     1.6421     7.6224 </r>
       <r>     8.3699     1.3773     7.7490 </r>
       <r>     8.4618     0.8022     7.8228 </r>
       <r>     8.5538     0.4686     7.8658 </r>
       <r>     8.6457     0.6471     7.9253 </r>
       <r>     8.7376     1.1979     8.0354 </r>
       <r>     8.8295     1.6212     8.1845 </r>
       <r>     8.9215     1.4731     8.3199 </r>
       <r>     9.0134     0.9063     8.4032 </r>
       <r>     9.1053     0.4448     8.4441 </r>
       <r>     9.1973     0.3732     8.4784 </r>
       <r>     9.2892     0.5976     8.5334 </r>
       <r>     9.3811     0.8080     8.6076 </r>
       <r>     9.4730     0.7441     8.6760 </r>
       <r>     9.5650     0.4567     8.7180 </r>
       <r>     9.6569     0.1864     8.7352 </r>
       <r>     9.7488     0.0513     8.7399 </r>
       <r>     9.8408     0.0165     8.7414 </r>
       <r>     9.9327     0.0506     8.7460 </r>
       <r>    10.0246     0.2194     8.7662 </r>
       <r>    10.1166     0.6454     8.8255 </r>
       <r>    10.2085     1.2647     8.9418 </r>
       <r>    10.3004     1.6606     9.0945 </r>
       <r>    10.3923     1.4885     9.2313 </r>
       <r>    10.4843     0.9660     9.3201 </r>
       <r>    10.5762     0.5355     9.3693 </r>
       <r>    10.6681     0.3785     9.4041 </r>
       <r>    10.7601     0.5417     9.4539 </r>
       <r>    10.8520     1.0497     9.5504 </r>
       <r>    10.9439     1.6578     9.7028 </r>
       <r>    11.0358     1.9288     9.8801 </r>
       <r>    11.1278     1.7440    10.0405 </r>
       <r>    11.2197     1.3245    10.1622 </r>
       <r>    11.3116     0.8463    10.2400 </r>
       <r>    11.4036     0.4199    10.2786 </r>
       <r>    11.4955     0.1492    10.2923 </r>
       <r>    11.5874     0.0363    10.2957 </r>
       <r>    11.6794     0.0059    10.2962 </r>
       <r>    11.7713     0.0006    10.2963 </r>
       <r>    11.8632     0.0000    10.2963 </r>
       <r>    11.9551     0.0000    10.2963 </r>
       <r>    12.0471     0.0000    10.2963 </r>
       <r>    12.1390     0.0005    10.2963 </r>
       <r>    12.2309     0.0051    10.2968 </r>
       <r>    12.3229     0.0365    10.3002 </r>
       <r>    12.4148     0.1737    10.3161 </r>
       <r>    12.5067     0.5495    10.3666 </r>
       <r>    12.5986     1.1600    10.4733 </r>
       <r>    12.6906     1.6626    10.6261 </r>
       <r>    12.7825     1.7463    10.7867 </r>
       <r>    12.8744     1.7172    10.9445 </r>
       <r>    12.9664     2.0550    11.1334 </r>
       <r>    13.0583     2.4742    11.3609 </r>
       <r>    13.1502     2.2691    11.5695 </r>
       <r>    13.2422     1.4365    11.7015 </r>
       <r>    13.3341     0.6141    11.7580 </r>
       <r>    13.4260     0.1765    11.7742 </r>
       <r>    13.5179     0.0353    11.7775 </r>
       <r>    13.6099     0.0163    11.7790 </r>
       <r>    13.7018     0.0728    11.7857 </r>
       <r>    13.7937     0.2916    11.8125 </r>
       <r>    13.8857     0.7799    11.8842 </r>
       <r>    13.9776     1.3869    12.0117 </r>
       <r>    14.0695     1.6400    12.1624 </r>
       <r>    14.1614     1.2898    12.2810 </r>
       <r>    14.2534     0.6744    12.3430 </r>
       <r>    14.3453     0.2344    12.3645 </r>
       <r>    14.4372     0.0541    12.3695 </r>
       <r>    14.5292     0.0083    12.3703 </r>
       <r>    14.6211     0.0011    12.3704 </r>
       <r>    14.7130     0.0032    12.3707 </r>
       <r>    14.8050     0.0229    12.3728 </r>
       <r>    14.8969     0.1128    12.3832 </r>
       <r>    14.9888     0.3710    12.4173 </r>
       <r>    15.0807     0.8223    12.4929 </r>
       <r>    15.1727     1.2630    12.6090 </r>
       <r>    15.2646     1.4728    12.7444 </r>
       <r>    15.3565     1.5814    12.8897 </r>
       <r>    15.4485     1.7554    13.0511 </r>
       <r>    15.5404     1.7317    13.2103 </r>
       <r>    15.6323     1.2903    13.3289 </r>
       <r>    15.7242     0.7635    13.3991 </r>
       <r>    15.8162     0.5819    13.4526 </r>
       <r>    15.9081     0.7246    13.5192 </r>
       <r>    16.0000     0.8312    13.5956 </r>
       <r>    16.0920     0.6870    13.6588 </r>
       <r>    16.1839     0.4875    13.7036 </r>
       <r>    16.2758     0.6165    13.7603 </r>
       <r>    16.3677     1.2626    13.8763 </r>
       <r>    16.4597     2.1327    14.0724 </r>
       <r>    16.5516     2.5804    14.3096 </r>
       <r>    16.6435     2.3412    14.5248 </r>
       <r>    16.7355     1.8078    14.6910 </r>
       <r>    16.8274     1.3309    14.8134 </r>
       <r>    16.9193     0.8926    14.8954 </r>
       <r>    17.0113     0.4862    14.9401 </r>
       <r>    17.1032     0.2286    14.9611 </r>
       <r>    17.1951     0.1803    14.9777 </r>
       <r>    17.2870     0.2852    15.0039 </r>
       <r>    17.3790     0.3986    15.0406 </r>
       <r>    17.4709     0.3825    15.0757 </r>
       <r>    17.5628     0.2452    15.0983 </r>
       <r>    17.6548     0.1083    15.1082 </r>
       <r>    17.7467     0.0561    15.1134 </r>
       <r>    17.8386     0.1214    15.1246 </r>
       <r>    17.9305     0.3353    15.1554 </r>
       <r>    18.0225     0.6424    15.2144 </r>
       <r>    18.1144     0.8197    15.2898 </r>
       <r>    18.2063     0.6958    15.3538 </r>
       <r>    18.2983     0.3927    15.3899 </r>
       <r>    18.3902     0.1476    15.4034 </r>
       <r>    18.4821     0.0402    15.4071 </r>
       <r>    18.5741     0.0323    15.4101 </r>
       <r>    18.6660     0.1331    15.4223 </r>
       <r>    18.7579     0.4481    15.4635 </r>
       <r>    18.8498     1.0142    15.5568 </r>
       <r>    18.9418     1.5369    15.6981 </r>
       <r>    19.0337     1.5600    15.8415 </r>
       <r>    19.1256     1.0605    15.9390 </r>
       <r>    19.2176     0.4827    15.9833 </r>
       <r>    19.3095     0.1470    15.9968 </r>
       <r>    19.4014     0.0299    15.9996 </r>
       <r>    19.4933     0.0041    16.0000 </r>
       <r>    19.5853     0.0004    16.0000 </r>
       <r>    19.6772     0.0000    16.0000 </r>
       <r>    19.7691     0.0000    16.0000 </r>
       <r>    19.8611     0.0000    16.0000 </r>
       <r>    19.9530     0.0000    16.0000 </r>
       <r>    20.0449     0.0000    16.0000 </r>
       <r>    20.1369     0.0000    16.0000 </r>
       <r>    20.2288     0.0000    16.0000 </r>
       <r>    20.3207     0.0000    16.0000 </r>
       <r>    20.4126     0.0000    16.0000 </r>
       <r>    20.5046     0.0000    16.0000 </r>
       <r>    20.5965     0.0000    16.0000 </r>
       <r>    20.6884     0.0000    16.0000 </r>
       <r>    20.7804     0.0000    16.0000 </r>
       <r>    20.8723     0.0000    16.0000 </r>
       <r>    20.9642     0.0000    16.0000 </r>
      </set>
     </set>
    </array>
   </total>
  </dos>
 </calculation>
 <structure name="finalpos" >
  <crystal>
   <varray name="basis" >
    <v>      -2.45000000       2.45000000       1.27400000 </v>
    <v>       2.45000000      -2.45000000       1.27400000 </v>
    <v>       2.45000000       2.45000000      -1.27400000 </v>
   </varray>
   <i name="volume">     30.58874000 </i>
   <varray name="rec_basis" >
    <v>       0.00000000       0.20408163       0.39246468 </v>
    <v>       0.20408163       0.00000000       0.39246468 </v>
    <v>       0.20408163       0.20408163      -0.00000000 </v>
   </varray>
  </crystal>
  <varray name="positions" >
   <v>       0.25000000       0.75000000       0.50000000 </v>
   <v>       0.00000000       0.00000000       0.00000000 </v>
  </varray>
 </structure>
</modeling>
