    2    2   15    1
  0.1529437E+02  0.3691622E-09  0.3691622E-09  0.3691622E-09  0.5000000E-15
  1.000000000000000E-004
  CAR 
 unknown system                          
      8      6      8
 
  0.0000000E+00  0.0000000E+00  0.0000000E+00  0.3703704E-01
    1       -4.614069   1.000000
    2        6.192170   1.000000
    3        6.304055   1.000000
    4        6.304066   1.000000
    5       10.610404   0.000000
    6       16.952740   0.000000
    7       17.376803   0.000000
    8       17.376819   0.000000
 
  0.3333333E+00 -0.7127914E-16  0.7127914E-16  0.2962963E+00
    1       -1.502837   1.000000
    2        5.359699   1.000000
    3        6.803606   1.000000
    4        7.475628   1.000000
    5       10.284568   0.000000
    6       12.706501   0.000000
    7       13.046467   0.000000
    8       14.034856   0.000000
 
  0.3333333E+00  0.3333333E+00  0.1273482E-15  0.2962963E+00
    1        1.047714   1.000000
    2        1.066171   1.000000
    3        6.281932   1.000000
    4        8.246765   0.999626
    5        8.818812   0.250373
    6       10.967137   0.000000
    7       15.509562   0.000000
    8       16.535585   0.000000
 
 -0.3333333E+00  0.3333333E+00  0.6449678E-17  0.1481481E+00
    1       -3.295668   1.000000
    2        0.570463   1.000000
    3        7.536435   1.000000
    4        9.385282   0.000001
    5       11.219399   0.000000
    6       13.110979   0.000000
    7       16.528525   0.000000
    8       18.934002   0.000000
 
 -0.3333333E+00  0.3333333E+00  0.3333333E+00  0.1481481E+00
    1       -2.009449   1.000000
    2        1.112013   1.000000
    3        2.896750   1.000000
    4        5.958397   1.000000
    5       15.241395   0.000000
    6       16.829965   0.000000
    7       18.089090   0.000000
    8       19.044353   0.000000
 
 -0.3333333E+00 -0.3333333E+00  0.3333333E+00  0.7407407E-01
    1        2.779326   1.000000
    2        2.877657   1.000000
    3        4.609211   1.000000
    4        4.609212   1.000000
    5        5.180868   1.000000
    6       15.153577   0.000000
    7       16.003267   0.000000
    8       16.003289   0.000000
