   2   2   0   0
  0.2001288E+02  0.3839590E-09  0.3839590E-09  0.3839590E-09  0.5000000E-15
  1.000000000000000E-004
  CAR 
 unknown system                          
     17.63013288     -8.09807671  301      6.15357956      1.00000000
     -8.098  0.0000E+00  0.0000E+00
     -8.012  0.0000E+00  0.0000E+00
     -7.927  0.0000E+00  0.0000E+00
     -7.841  0.0000E+00  0.0000E+00
     -7.755  0.0000E+00  0.0000E+00
     -7.669  0.0000E+00  0.0000E+00
     -7.584  0.0000E+00  0.0000E+00
     -7.498  0.0000E+00  0.0000E+00
     -7.412  0.0000E+00  0.0000E+00
     -7.326  0.0000E+00  0.0000E+00
     -7.240  0.1036E-17  0.8882E-19
     -7.155  0.1248E-15  0.1079E-16
     -7.069  0.1055E-13  0.9152E-15
     -6.983  0.6219E-12  0.5425E-13
     -6.897  0.2570E-10  0.2258E-11
     -6.812  0.7465E-09  0.6627E-10
     -6.726  0.1530E-07  0.1379E-08
     -6.640  0.2226E-06  0.2047E-07
     -6.554  0.2314E-05  0.2189E-06
     -6.469  0.1733E-04  0.1705E-05
     -6.383  0.9448E-04  0.9808E-05
     -6.297  0.3802E-03  0.4241E-04
     -6.211  0.1149E-02  0.1409E-03
     -6.126  0.2670E-02  0.3699E-03
     -6.040  0.4936E-02  0.7932E-03
     -5.954  0.7589E-02  0.1444E-02
     -5.868  0.1017E-01  0.2316E-02
     -5.783  0.1240E-01  0.3380E-02
     -5.697  0.1428E-01  0.4604E-02
     -5.611  0.1603E-01  0.5979E-02
     -5.525  0.1769E-01  0.7496E-02
     -5.439  0.1902E-01  0.9127E-02
     -5.354  0.2016E-01  0.1086E-01
     -5.268  0.2158E-01  0.1271E-01
     -5.182  0.2323E-01  0.1470E-01
     -5.096  0.2465E-01  0.1681E-01
     -5.011  0.2547E-01  0.1900E-01
     -4.925  0.2608E-01  0.2123E-01
     -4.839  0.2743E-01  0.2359E-01
     -4.753  0.2969E-01  0.2613E-01
     -4.668  0.3161E-01  0.2884E-01
     -4.582  0.3221E-01  0.3161E-01
     -4.496  0.3228E-01  0.3437E-01
     -4.410  0.3337E-01  0.3724E-01
     -4.325  0.3579E-01  0.4031E-01
     -4.239  0.3850E-01  0.4361E-01
     -4.153  0.4087E-01  0.4711E-01
     -4.067  0.4303E-01  0.5080E-01
     -3.982  0.4489E-01  0.5465E-01
     -3.896  0.4656E-01  0.5865E-01
     -3.810  0.4919E-01  0.6287E-01
     -3.724  0.5332E-01  0.6744E-01
     -3.639  0.5694E-01  0.7232E-01
     -3.553  0.5735E-01  0.7724E-01
     -3.467  0.5499E-01  0.8196E-01
     -3.381  0.5221E-01  0.8643E-01
     -3.295  0.4907E-01  0.9064E-01
     -3.210  0.4490E-01  0.9449E-01
     -3.124  0.4206E-01  0.9810E-01
     -3.038  0.4307E-01  0.1018E+00
     -2.952  0.4611E-01  0.1057E+00
     -2.867  0.4645E-01  0.1097E+00
     -2.781  0.4173E-01  0.1133E+00
     -2.695  0.3400E-01  0.1162E+00
     -2.609  0.2730E-01  0.1186E+00
     -2.524  0.2460E-01  0.1207E+00
     -2.438  0.2631E-01  0.1229E+00
     -2.352  0.2977E-01  0.1255E+00
     -2.266  0.3062E-01  0.1281E+00
     -2.181  0.2637E-01  0.1304E+00
     -2.095  0.1836E-01  0.1319E+00
     -2.009  0.1015E-01  0.1328E+00
     -1.923  0.4605E-02  0.1332E+00
     -1.838  0.2879E-02  0.1335E+00
     -1.752  0.5453E-02  0.1339E+00
     -1.666  0.1258E-01  0.1350E+00
     -1.580  0.2220E-01  0.1369E+00
     -1.495  0.2914E-01  0.1394E+00
     -1.409  0.2985E-01  0.1420E+00
     -1.323  0.2699E-01  0.1443E+00
     -1.237  0.2733E-01  0.1466E+00
     -1.151  0.3615E-01  0.1497E+00
     -1.066  0.5369E-01  0.1543E+00
     -0.980  0.7377E-01  0.1607E+00
     -0.894  0.8649E-01  0.1681E+00
     -0.808  0.8539E-01  0.1754E+00
     -0.723  0.7330E-01  0.1817E+00
     -0.637  0.5959E-01  0.1868E+00
     -0.551  0.5050E-01  0.1911E+00
     -0.465  0.4457E-01  0.1950E+00
     -0.380  0.3933E-01  0.1983E+00
     -0.294  0.3687E-01  0.2015E+00
     -0.208  0.3897E-01  0.2048E+00
     -0.122  0.4148E-01  0.2084E+00
     -0.037  0.3884E-01  0.2117E+00
      0.049  0.3213E-01  0.2145E+00
      0.135  0.2766E-01  0.2168E+00
      0.221  0.2811E-01  0.2193E+00
      0.306  0.2942E-01  0.2218E+00
      0.392  0.2695E-01  0.2241E+00
      0.478  0.2173E-01  0.2260E+00
      0.564  0.1856E-01  0.2275E+00
      0.650  0.2026E-01  0.2293E+00
      0.735  0.2487E-01  0.2314E+00
      0.821  0.2713E-01  0.2337E+00
      0.907  0.2363E-01  0.2358E+00
      0.993  0.1706E-01  0.2372E+00
      1.078  0.1304E-01  0.2384E+00
      1.164  0.1418E-01  0.2396E+00
      1.250  0.1865E-01  0.2412E+00
      1.336  0.2355E-01  0.2432E+00
      1.421  0.2835E-01  0.2456E+00
      1.507  0.3476E-01  0.2486E+00
      1.593  0.4410E-01  0.2524E+00
      1.679  0.5628E-01  0.2572E+00
      1.764  0.6938E-01  0.2632E+00
      1.850  0.7836E-01  0.2699E+00
      1.936  0.7822E-01  0.2766E+00
      2.022  0.7069E-01  0.2826E+00
      2.107  0.6377E-01  0.2881E+00
      2.193  0.6357E-01  0.2936E+00
      2.279  0.6874E-01  0.2995E+00
      2.365  0.7322E-01  0.3057E+00
      2.450  0.7379E-01  0.3121E+00
      2.536  0.7288E-01  0.3183E+00
      2.622  0.7327E-01  0.3246E+00
      2.708  0.7466E-01  0.3310E+00
      2.794  0.7716E-01  0.3376E+00
      2.879  0.8323E-01  0.3448E+00
      2.965  0.9253E-01  0.3527E+00
      3.051  0.9914E-01  0.3612E+00
      3.137  0.9840E-01  0.3696E+00
      3.222  0.9382E-01  0.3777E+00
      3.308  0.9276E-01  0.3856E+00
      3.394  0.9610E-01  0.3939E+00
      3.480  0.9753E-01  0.4022E+00
      3.565  0.9369E-01  0.4103E+00
      3.651  0.8893E-01  0.4179E+00
      3.737  0.8796E-01  0.4255E+00
      3.823  0.8964E-01  0.4331E+00
      3.908  0.8948E-01  0.4408E+00
      3.994  0.8531E-01  0.4481E+00
      4.080  0.7959E-01  0.4550E+00
      4.166  0.7707E-01  0.4616E+00
      4.251  0.7995E-01  0.4684E+00
      4.337  0.8426E-01  0.4756E+00
      4.423  0.8299E-01  0.4828E+00
      4.509  0.7488E-01  0.4892E+00
      4.595  0.6605E-01  0.4949E+00
      4.680  0.6139E-01  0.5001E+00
      4.766  0.5885E-01  0.5052E+00
      4.852  0.5379E-01  0.5098E+00
      4.938  0.4584E-01  0.5137E+00
      5.023  0.3854E-01  0.5170E+00
      5.109  0.3380E-01  0.5199E+00
      5.195  0.3020E-01  0.5225E+00
      5.281  0.2628E-01  0.5248E+00
      5.366  0.2258E-01  0.5267E+00
      5.452  0.1992E-01  0.5284E+00
      5.538  0.1753E-01  0.5299E+00
      5.624  0.1436E-01  0.5311E+00
      5.709  0.1064E-01  0.5321E+00
      5.795  0.7200E-02  0.5327E+00
      5.881  0.4350E-02  0.5330E+00
      5.967  0.2203E-02  0.5332E+00
      6.052  0.8789E-03  0.5333E+00
      6.138  0.2914E-03  0.5333E+00
      6.224  0.2352E-03  0.5334E+00
      6.310  0.7515E-03  0.5334E+00
      6.395  0.2219E-02  0.5336E+00
      6.481  0.4862E-02  0.5340E+00
      6.567  0.8232E-02  0.5347E+00
      6.653  0.1181E-01  0.5357E+00
      6.739  0.1595E-01  0.5371E+00
      6.824  0.2103E-01  0.5389E+00
      6.910  0.2610E-01  0.5412E+00
      6.996  0.2992E-01  0.5437E+00
      7.082  0.3229E-01  0.5465E+00
      7.167  0.3355E-01  0.5494E+00
      7.253  0.3452E-01  0.5523E+00
      7.339  0.3719E-01  0.5555E+00
      7.425  0.4349E-01  0.5592E+00
      7.510  0.5257E-01  0.5638E+00
      7.596  0.6065E-01  0.5690E+00
      7.682  0.6427E-01  0.5745E+00
      7.768  0.6474E-01  0.5800E+00
      7.853  0.6797E-01  0.5858E+00
      7.939  0.7737E-01  0.5925E+00
      8.025  0.8911E-01  0.6001E+00
      8.111  0.9703E-01  0.6084E+00
      8.196  0.9985E-01  0.6170E+00
      8.282  0.1003E+00  0.6256E+00
      8.368  0.1001E+00  0.6342E+00
      8.454  0.9778E-01  0.6426E+00
      8.539  0.9205E-01  0.6505E+00
      8.625  0.8404E-01  0.6577E+00
      8.711  0.7677E-01  0.6643E+00
      8.797  0.7297E-01  0.6705E+00
      8.883  0.7413E-01  0.6769E+00
      8.968  0.8118E-01  0.6838E+00
      9.054  0.9392E-01  0.6919E+00
      9.140  0.1092E+00  0.7013E+00
      9.226  0.1217E+00  0.7117E+00
      9.311  0.1275E+00  0.7226E+00
      9.397  0.1267E+00  0.7335E+00
      9.483  0.1214E+00  0.7439E+00
      9.569  0.1133E+00  0.7536E+00
      9.654  0.1043E+00  0.7626E+00
      9.740  0.9664E-01  0.7709E+00
      9.826  0.9143E-01  0.7787E+00
      9.912  0.8785E-01  0.7862E+00
      9.997  0.8648E-01  0.7937E+00
     10.083  0.8830E-01  0.8012E+00
     10.169  0.9040E-01  0.8090E+00
     10.255  0.8848E-01  0.8166E+00
     10.340  0.8341E-01  0.8237E+00
     10.426  0.7990E-01  0.8306E+00
     10.512  0.7932E-01  0.8374E+00
     10.598  0.7891E-01  0.8441E+00
     10.684  0.7793E-01  0.8508E+00
     10.769  0.7943E-01  0.8576E+00
     10.855  0.8484E-01  0.8649E+00
     10.941  0.9066E-01  0.8727E+00
     11.027  0.9181E-01  0.8806E+00
     11.112  0.8667E-01  0.8880E+00
     11.198  0.7782E-01  0.8947E+00
     11.284  0.6911E-01  0.9006E+00
     11.370  0.6357E-01  0.9061E+00
     11.455  0.6321E-01  0.9115E+00
     11.541  0.6839E-01  0.9173E+00
     11.627  0.7622E-01  0.9239E+00
     11.713  0.8176E-01  0.9309E+00
     11.798  0.8263E-01  0.9380E+00
     11.884  0.8016E-01  0.9448E+00
     11.970  0.7516E-01  0.9513E+00
     12.056  0.6671E-01  0.9570E+00
     12.141  0.5585E-01  0.9618E+00
     12.227  0.4733E-01  0.9659E+00
     12.313  0.4566E-01  0.9698E+00
     12.399  0.5097E-01  0.9742E+00
     12.484  0.5961E-01  0.9793E+00
     12.570  0.6752E-01  0.9851E+00
     12.656  0.7220E-01  0.9912E+00
     12.742  0.7293E-01  0.9975E+00
     12.828  0.6917E-01  0.1003E+01
     12.913  0.6034E-01  0.1009E+01
     12.999  0.4863E-01  0.1013E+01
     13.085  0.3856E-01  0.1016E+01
     13.171  0.3226E-01  0.1019E+01
     13.256  0.2867E-01  0.1021E+01
     13.342  0.2679E-01  0.1024E+01
     13.428  0.2749E-01  0.1026E+01
     13.514  0.3279E-01  0.1029E+01
     13.599  0.4336E-01  0.1032E+01
     13.685  0.5499E-01  0.1037E+01
     13.771  0.5880E-01  0.1042E+01
     13.857  0.4967E-01  0.1047E+01
     13.942  0.3321E-01  0.1049E+01
     14.028  0.1967E-01  0.1051E+01
     14.114  0.1367E-01  0.1052E+01
     14.200  0.1264E-01  0.1053E+01
     14.285  0.1222E-01  0.1054E+01
     14.371  0.1092E-01  0.1055E+01
     14.457  0.1058E-01  0.1056E+01
     14.543  0.1308E-01  0.1057E+01
     14.629  0.1733E-01  0.1059E+01
     14.714  0.1957E-01  0.1060E+01
     14.800  0.1695E-01  0.1062E+01
     14.886  0.1081E-01  0.1063E+01
     14.972  0.5041E-02  0.1063E+01
     15.057  0.1993E-02  0.1063E+01
     15.143  0.1553E-02  0.1064E+01
     15.229  0.2733E-02  0.1064E+01
     15.315  0.4409E-02  0.1064E+01
     15.400  0.5541E-02  0.1065E+01
     15.486  0.5858E-02  0.1065E+01
     15.572  0.5681E-02  0.1066E+01
     15.658  0.4975E-02  0.1066E+01
     15.743  0.3572E-02  0.1066E+01
     15.829  0.1942E-02  0.1067E+01
     15.915  0.7684E-03  0.1067E+01
     16.001  0.2176E-03  0.1067E+01
     16.086  0.4378E-04  0.1067E+01
     16.172  0.6235E-05  0.1067E+01
     16.258  0.6264E-06  0.1067E+01
     16.344  0.4430E-07  0.1067E+01
     16.429  0.2200E-08  0.1067E+01
     16.515  0.7657E-10  0.1067E+01
     16.601  0.1865E-11  0.1067E+01
     16.687  0.3173E-13  0.1067E+01
     16.773  0.3770E-15  0.1067E+01
     16.858  0.3107E-17  0.1067E+01
     16.944  0.0000E+00  0.1067E+01
     17.030  0.0000E+00  0.1067E+01
     17.116  0.0000E+00  0.1067E+01
     17.201  0.0000E+00  0.1067E+01
     17.287  0.0000E+00  0.1067E+01
     17.373  0.0000E+00  0.1067E+01
     17.459  0.0000E+00  0.1067E+01
     17.544  0.0000E+00  0.1067E+01
     17.630  0.0000E+00  0.1067E+01
