    2    2   15    1
  0.2001288E+02  0.3839590E-09  0.3839590E-09  0.3839590E-09  0.5000000E-15
  1.000000000000000E-004
  CAR 
 unknown system                          
      8     35      8
 
  0.0000000E+00  0.0000000E+00  0.0000000E+00  0.1371742E-02
    1       -6.202679   1.000000
    2        5.664136   0.985300
    3        5.664136   0.985300
    4        5.664449   0.985217
    5        8.233525   0.000000
    6        8.233525   0.000000
    7        8.233753   0.000000
    8        8.743346   0.000000
 
  0.1111111E+00  0.2174102E-18  0.2072965E-17  0.1097394E-01
    1       -6.043864   1.000000
    2        4.308605   1.000000
    3        5.427355   0.999942
    4        5.427614   0.999941
    5        8.154049   0.000000
    6        8.580943   0.000000
    7        8.581207   0.000000
    8        9.929509   0.000000
 
  0.2222222E+00 -0.4325414E-18  0.5013291E-17  0.1097394E-01
    1       -5.577479   1.000000
    2        2.244117   1.000000
    3        5.000194   1.000000
    4        5.000426   1.000000
    5        7.736836   0.000000
    6        9.118623   0.000000
    7        9.119017   0.000000
    8       11.926926   0.000000
 
  0.3333333E+00  0.6723763E-17  0.1473614E-18  0.1097394E-01
    1       -4.850648   1.000000
    2        0.354791   1.000000
    3        4.659548   1.000000
    4        4.659791   1.000000
    5        7.366625   0.000000
    6        9.217683   0.000000
    7        9.218129   0.000000
    8       13.443571   0.000000
 
  0.4444444E+00 -0.8650829E-18  0.1002658E-16  0.1097394E-01
    1       -4.078019   1.000000
    2       -1.017884   1.000000
    3        4.482960   1.000000
    4        4.483182   1.000000
    5        7.150604   0.000000
    6        9.103945   0.000000
    7        9.104355   0.000000
    8       13.405383   0.000000
 
  0.1111111E+00  0.1111111E+00  0.5723364E-17  0.8230453E-02
    1       -5.990458   1.000000
    2        4.519926   1.000000
    3        4.993649   1.000000
    4        4.993829   1.000000
    5        7.786549   0.000000
    6        9.168524   0.000000
    7        9.168713   0.000000
    8        9.732137   0.000000
 
  0.2222222E+00  0.1111111E+00  0.7521076E-17  0.3292181E-01
    1       -5.624543   1.000000
    2        2.852886   1.000000
    3        4.520051   1.000000
    4        4.648664   1.000000
    5        7.880120   0.000000
    6        9.137116   0.000000
    7        9.888921   0.000000
    8       10.598900   0.000000
 
  0.3333333E+00  0.1111111E+00  0.1455535E-16  0.3292181E-01
    1       -4.975391   1.000000
    2        0.968771   1.000000
    3        4.145119   1.000000
    4        4.214241   1.000000
    5        7.987740   0.000000
    6        9.146435   0.000000
    7       10.084219   0.000000
    8       11.073282   0.000000
 
  0.4444444E+00  0.1111111E+00  0.5595473E-17  0.3292181E-01
    1       -4.166591   1.000000
    2       -0.597634   1.000000
    3        3.710931   1.000000
    4        4.127490   1.000000
    5        7.844555   0.000000
    6        9.086397   0.000000
    7        9.823737   0.000000
    8       12.483293   0.000000
 
 -0.4444444E+00  0.1111111E+00  0.1329788E-16  0.3292181E-01
    1       -3.797999   1.000000
    2       -1.157574   1.000000
    3        3.454284   1.000000
    4        4.266763   1.000000
    5        7.836446   0.000000
    6        9.126042   0.000000
    7        9.571490   0.000000
    8       13.790391   0.000000
 
 -0.3333333E+00  0.1111111E+00 -0.1536845E-16  0.3292181E-01
    1       -4.438764   1.000000
    2       -0.128731   1.000000
    3        3.425658   1.000000
    4        4.592884   1.000000
    5        8.015526   0.000000
    6        9.354511   0.000000
    7        9.433913   0.000000
    8       13.026463   0.000000
 
 -0.2222222E+00  0.1111111E+00  0.4433388E-17  0.3292181E-01
    1       -5.221879   1.000000
    2        1.576221   1.000000
    3        3.663303   1.000000
    4        5.042063   1.000000
    5        8.343559   0.000000
    6        9.191471   0.000000
    7        9.483314   0.000000
    8       11.709413   0.000000
 
 -0.1111111E+00  0.1111111E+00 -0.5393851E-17  0.1646091E-01
    1       -5.781660   1.000000
    2        3.325228   1.000000
    3        4.312605   1.000000
    4        5.436310   0.999924
    5        8.607273   0.000000
    6        8.674286   0.000000
    7        8.893386   0.000000
    8       10.919026   0.000000
 
  0.2222222E+00  0.2222222E+00  0.1144673E-16  0.8230453E-02
    1       -5.359784   1.000000
    2        2.609834   1.000000
    3        4.001506   1.000000
    4        4.001665   1.000000
    5        7.004252   0.000000
    6        9.261234   0.000000
    7       10.933226   0.000000
    8       10.933460   0.000000
 
  0.3333333E+00  0.2222222E+00  0.1123446E-16  0.3292181E-01
    1       -4.800068   1.000000
    2        1.294666   1.000000
    3        3.382844   1.000000
    4        3.659939   1.000000
    5        7.164085   0.000000
    6        8.886289   0.000000
    7       11.169320   0.000000
    8       11.521163   0.000000
 
  0.4444444E+00  0.2222222E+00  0.1417479E-16  0.3292181E-01
    1       -4.015958   1.000000
    2       -0.152801   1.000000
    3        2.650927   1.000000
    4        3.560970   1.000000
    5        7.356168   0.000000
    6        9.894141   0.000000
    7       10.894937   0.000000
    8       11.360066   0.000000
 
 -0.4444444E+00  0.2222222E+00  0.1691589E-16  0.3292181E-01
    1       -3.377745   1.000000
    2       -1.075094   1.000000
    3        2.135409   1.000000
    4        3.711079   1.000000
    5        7.500328   0.000000
    6       10.671770   0.000000
    7       10.976959   0.000000
    8       11.849813   0.000000
 
 -0.3333333E+00  0.2222222E+00  0.1787863E-16  0.3292181E-01
    1       -3.779687   1.000000
    2       -0.509035   1.000000
    3        1.961825   1.000000
    4        4.091808   1.000000
    5        7.877206   0.000000
    6       10.622994   0.000000
    7       10.625295   0.000000
    8       12.824215   0.000000
 
 -0.2222222E+00  0.2222222E+00 -0.1078770E-16  0.1646091E-01
    1       -4.585727   1.000000
    2        0.718010   1.000000
    3        2.348132   1.000000
    4        4.609110   1.000000
    5        8.381152   0.000000
    6        9.995634   0.000000
    7       10.349469   0.000000
    8       11.460849   0.000000
 
  0.3333333E+00  0.3333333E+00  0.1717009E-16  0.8230453E-02
    1       -4.330199   1.000000
    2        0.636056   1.000000
    3        3.261716   1.000000
    4        3.261861   1.000000
    5        6.446346   0.000400
    6        7.715937   0.000000
    7       12.914988   0.000000
    8       12.915266   0.000000
 
  0.4444444E+00  0.3333333E+00  0.1668257E-16  0.3292181E-01
    1       -3.604010   1.000000
    2       -0.399838   1.000000
    3        2.554245   1.000000
    4        3.105229   1.000000
    5        6.690707   0.000000
    6        7.755399   0.000000
    7       13.192652   0.000000
    8       13.287284   0.000000
 
 -0.4444444E+00  0.3333333E+00 -0.5348174E-17  0.3292181E-01
    1       -2.827173   1.000000
    2       -1.283677   1.000000
    3        1.670634   1.000000
    4        3.209154   1.000000
    5        6.887224   0.000000
    6        9.338351   0.000000
    7       12.910956   0.000000
    8       12.966251   0.000000
 
 -0.3333333E+00  0.3333333E+00  0.1344753E-16  0.1646091E-01
    1       -3.000981   1.000000
    2       -1.094023   1.000000
    3        1.315319   1.000000
    4        3.559577   1.000000
    5        7.278256   0.000000
    6       11.538051   0.000000
    7       12.129345   0.000000
    8       12.693658   0.000000
 
  0.4444444E+00  0.4444444E+00  0.2289345E-16  0.8230453E-02
    1       -2.938112   1.000000
    2       -1.250872   1.000000
    3        2.879054   1.000000
    4        2.879190   1.000000
    5        6.318145   0.007213
    6        6.712476   0.000000
    7       14.986817   0.000000
    8       14.986999   0.000000
 
 -0.4444444E+00  0.4444444E+00 -0.2157540E-16  0.1646091E-01
    1       -2.181492   1.000000
    2       -2.011638   1.000000
    3        2.282790   1.000000
    4        2.914824   1.000000
    5        6.541048   0.000029
    6        7.356692   0.000000
    7       14.811867   0.000000
    8       15.074806   0.000000
 
  0.3333333E+00  0.2222222E+00  0.1111111E+00  0.3292181E-01
    1       -5.162702   1.000000
    2        1.858923   1.000000
    3        3.321831   1.000000
    4        4.498765   1.000000
    5        8.063650   0.000000
    6        9.426763   0.000000
    7       10.154625   0.000000
    8       10.695564   0.000000
 
  0.4444444E+00  0.2222222E+00  0.1111111E+00  0.6584362E-01
    1       -4.440691   1.000000
    2        0.390155   1.000000
    3        2.715623   1.000000
    4        4.068414   1.000000
    5        8.453741   0.000000
    6        9.277732   0.000000
    7       10.484264   0.000000
    8       11.167280   0.000000
 
 -0.4444444E+00  0.2222222E+00  0.1111111E+00  0.6584362E-01
    1       -3.662091   1.000000
    2       -0.873864   1.000000
    3        2.517896   1.000000
    4        3.749265   1.000000
    5        8.526050   0.000000
    6        8.908567   0.000000
    7       11.088785   0.000000
    8       12.233248   0.000000
 
  0.4444444E+00  0.3333333E+00  0.1111111E+00  0.3292181E-01
    1       -4.159640   1.000000
    2        0.338817   1.000000
    3        2.615672   1.000000
    4        3.293843   1.000000
    5        7.521798   0.000000
    6        8.541642   0.000000
    7       11.102686   0.000000
    8       12.825140   0.000000
 
 -0.4444444E+00  0.3333333E+00  0.1111111E+00  0.6584362E-01
    1       -3.348796   1.000000
    2       -0.728521   1.000000
    3        1.963548   1.000000
    4        2.995398   1.000000
    5        7.931263   0.000000
    6        9.638988   0.000000
    7       10.659454   0.000000
    8       13.226934   0.000000
 
 -0.3333333E+00  0.3333333E+00  0.1111111E+00  0.6584362E-01
    1       -2.993455   1.000000
    2       -1.144839   1.000000
    3        1.584029   1.000000
    4        3.105993   1.000000
    5        8.220932   0.000000
    6       10.208610   0.000000
    7       11.753889   0.000000
    8       12.256606   0.000000
 
 -0.2222222E+00  0.3333333E+00  0.1111111E+00  0.3292181E-01
    1       -3.678754   1.000000
    2       -0.356965   1.000000
    3        1.731841   1.000000
    4        3.535134   1.000000
    5        8.727215   0.000000
    6        9.715865   0.000000
    7       10.562833   0.000000
    8       12.617999   0.000000
 
 -0.4444444E+00  0.4444444E+00  0.1111111E+00  0.3292181E-01
    1       -2.826497   1.000000
    2       -1.269621   1.000000
    3        2.332374   1.000000
    4        2.539509   1.000000
    5        7.358851   0.000000
    6        7.671211   0.000000
    7       12.876177   0.000000
    8       14.677633   0.000000
 
 -0.3333333E+00  0.4444444E+00  0.1111111E+00  0.3292181E-01
    1       -2.317082   1.000000
    2       -1.721536   1.000000
    3        1.629913   1.000000
    4        2.626084   1.000000
    5        7.729531   0.000000
    6        9.366493   0.000000
    7       12.332525   0.000000
    8       12.586245   0.000000
 
 -0.3333333E+00  0.4444444E+00  0.2222222E+00  0.3292181E-01
    1       -2.557232   1.000000
    2       -1.414186   1.000000
    3        1.667708   1.000000
    4        2.298819   1.000000
    5        9.555265   0.000000
    6        9.682491   0.000000
    7       10.270853   0.000000
    8       12.041597   0.000000
