       N       E                     dE             d eps       ncg     rms          rms(c)
DAV:   1    -0.363440414521E+01   -0.36344E+01   -0.17660E+03   584   0.299E+02
DAV:   2    -0.108707479024E+02   -0.72363E+01   -0.69141E+01   888   0.473E+01
DAV:   3    -0.109246643592E+02   -0.53916E-01   -0.53916E-01   680   0.499E+00
DAV:   4    -0.109247446155E+02   -0.80256E-04   -0.80256E-04   872   0.182E-01
DAV:   5    -0.109247446333E+02   -0.17789E-07   -0.18267E-07   624   0.244E-03    0.296E+00
DAV:   6    -0.108006680106E+02    0.12408E+00   -0.76921E-02   648   0.141E+00    0.175E+00
DAV:   7    -0.107424032395E+02    0.58265E-01   -0.14398E-01   680   0.203E+00    0.146E-01
DAV:   8    -0.107436434876E+02   -0.12402E-02   -0.34103E-03   600   0.402E-01    0.244E-02
DAV:   9    -0.107437320931E+02   -0.88605E-04   -0.86290E-05   384   0.713E-02
   1 F= -.10743732E+02 E0= -.10743665E+02  d E =-.107437E+02
       N       E                     dE             d eps       ncg     rms          rms(c)
DAV:   1    -0.107530704623E+02   -0.94270E-02   -0.26163E-01   688   0.279E+00    0.323E-01
DAV:   2    -0.107486047074E+02    0.44658E-02   -0.33830E-03   648   0.356E-01    0.184E-01
DAV:   3    -0.107462551082E+02    0.23496E-02   -0.47063E-03   672   0.343E-01    0.229E-02
DAV:   4    -0.107462414049E+02    0.13703E-04   -0.36742E-05   288   0.476E-02
   2 F= -.10746241E+02 E0= -.10746202E+02  d E =-.250931E-02
       N       E                     dE             d eps       ncg     rms          rms(c)
DAV:   1    -0.107497540280E+02   -0.34989E-02   -0.42814E-02   680   0.114E+00    0.132E-01
DAV:   2    -0.107490317090E+02    0.72232E-03   -0.54263E-04   632   0.142E-01    0.747E-02
DAV:   3    -0.107486618413E+02    0.36987E-03   -0.75390E-04   448   0.139E-01
   3 F= -.10748662E+02 E0= -.10748613E+02  d E =-.492975E-02
