unknown system                          
   1.00000000000000     
    -2.415449    2.415449    1.315242
     2.415449   -2.415449    1.315242
     2.415449    2.415449   -1.315242
   Si
     2
Direct
  0.250000  0.750000  0.500000
 -0.000000  0.000000 -0.000000
 
   28   28   28
 -.56009485009E+01 -.40851509070E+01 -.12247206020E+00 0.48185660985E+01 0.90769373097E+01
 0.11512084131E+02 0.11881490318E+02 0.10750818165E+02 0.90548703415E+01 0.74216245862E+01
 0.60426632980E+01 0.49876510275E+01 0.42604986971E+01 0.38389078026E+01 0.37011569063E+01
 0.38389014482E+01 0.42605078391E+01 0.49876756464E+01 0.60426779050E+01 0.74216212785E+01
 0.90548679265E+01 0.10750825178E+02 0.11881494795E+02 0.11512082767E+02 0.90769397333E+01
 0.48185682302E+01 -.12248412676E+00 -.40851689357E+01 -.40851689357E+01 -.48128896000E+01
 -.26423199154E+01 0.15803043863E+01 0.63024188340E+01 0.99862767954E+01 0.11743388230E+02
 0.11580361191E+02 0.10200203792E+02 0.85037953467E+01 0.69461012361E+01 0.56690655126E+01
 0.47191147491E+01 0.40894748124E+01 0.37563369134E+01 0.37011726530E+01 0.39202493655E+01
 0.44260517210E+01 0.52419988263E+01 0.63866744709E+01 0.78437073522E+01 0.95211304255E+01
 0.11168672921E+02 0.12039629332E+02 0.11249054673E+02 0.84064307742E+01 0.39794997882E+01
 -.73350655568E+00 -.12248412676E+00 -.26423312539E+01 -.26074056456E+01 -.48611693220E-01
 0.40196706312E+01 0.80976561140E+01 0.10889000484E+02 0.11812040556E+02 0.11106123689E+02
 0.95487971793E+01 0.79006650259E+01 0.64458769138E+01 0.52878379870E+01 0.44514795398E+01
 0.39221957349E+01 0.36768812526E+01 0.37012132141E+01 0.39959777229E+01 0.45767840037E+01
 0.54670614050E+01 0.66798818668E+01 0.81860326482E+01 0.98749085347E+01 0.11443640129E+02
 0.12104571334E+02 0.11079554681E+02 0.81599900107E+01 0.39794997882E+01 0.48185682302E+01
 0.15802987804E+01 -.48612085136E-01 0.58163570694E+00 0.31897031070E+01 0.67110228897E+01
 0.98238813920E+01 0.11551628669E+02 0.11626309252E+02 0.10467884750E+02 0.88442670632E+01
 0.72805197843E+01 0.59494965060E+01 0.49198077163E+01 0.41987049692E+01 0.37671131657E+01
 0.36045281575E+01 0.37012609269E+01 0.40619761570E+01 0.47040460102E+01 0.56491876549E+01
 0.69037853582E+01 0.84269921150E+01 0.10095543831E+02 0.11578599749E+02 0.12120417635E+02
 0.11079554681E+02 0.84064307742E+01 0.90769397333E+01 0.63024168200E+01 0.40196731710E+01
 0.31897139862E+01 0.41583266839E+01 0.64825671957E+01 0.91650985098E+01 0.11153212394E+02
 0.11817224490E+02 0.11164615717E+02 0.97202399885E+01 0.81281091054E+01 0.66775312215E+01
 0.54829005874E+01 0.45830857833E+01 0.39726643573E+01 0.36313905870E+01 0.35426817920E+01
 0.37012985281E+01 0.41147082834E+01 0.48005063606E+01 0.57771946978E+01 0.70441105163E+01
 0.85513799662E+01 0.10170433863E+02 0.11578599749E+02 0.12104571334E+02 0.11249054673E+02
 0.11512082767E+02 0.99862721089E+01 0.80976499935E+01 0.67110323909E+01 0.64825857427E+01
 0.75133265410E+01 0.92992726615E+01 0.11004134159E+02 0.11887347588E+02 0.11643203305E+02
 0.10483221174E+02 0.89459772437E+01 0.74395397931E+01 0.61222022141E+01 0.50676798041E+01
 0.42921058652E+01 0.37826495873E+01 0.35206468108E+01 0.34940398662E+01 0.37013184860E+01
 0.41514180351E+01 0.48606515795E+01 0.58432196828E+01 0.70919010541E+01 0.85513799662E+01
 0.10095543831E+02 0.11443640129E+02 0.12039629332E+02 0.11881494795E+02 0.11743391790E+02
 0.10888990310E+02 0.98238727850E+01 0.91651114690E+01 0.92992928239E+01 0.10163518504E+02
 0.11282922202E+02 0.12037373107E+02 0.11992241917E+02 0.11103665944E+02 0.96997345702E+01
 0.82023030207E+01 0.68141018554E+01 0.56394974282E+01 0.47202618258E+01 0.40573725823E+01
 0.36353308550E+01 0.34389435197E+01 0.34605658062E+01 0.37013245489E+01 0.41702404632E+01
 0.48810819935E+01 0.58432196828E+01 0.70441105163E+01 0.84269921150E+01 0.98749085347E+01
 0.11168672921E+02 0.10750825178E+02 0.11580379268E+02 0.11812048381E+02 0.11551616819E+02
 0.11153203856E+02 0.11004146165E+02 0.11282937818E+02 0.11844901190E+02 0.12307837039E+02
 0.12279890384E+02 0.11585836947E+02 0.10359592391E+02 0.89334858398E+01 0.75322120526E+01
 0.62813500942E+01 0.52481457386E+01 0.44520186262E+01 0.38858197878E+01 0.35350646750E+01
 0.33889413839E+01 0.34435220528E+01 0.37013251758E+01 0.41702404632E+01 0.48606515795E+01
 0.57771946978E+01 0.69037853582E+01 0.81860326482E+01 0.95211304255E+01 0.90548679265E+01
 0.10200217929E+02 0.11106148972E+02 0.11626319671E+02 0.11817215391E+02 0.11887341623E+02
 0.12037380535E+02 0.12307844088E+02 0.12539330442E+02 0.12472193034E+02 0.11917723061E+02
 0.10888788144E+02 0.95973571990E+01 0.82468568912E+01 0.69726637711E+01 0.58638845614E+01
 0.49609812297E+01 0.42700447227E+01 0.37815379638E+01 0.34843685942E+01 0.33721173439E+01
 0.34435220528E+01 0.37013245489E+01 0.41514180351E+01 0.48005063606E+01 0.56491876549E+01
 0.66798818668E+01 0.78437073522E+01 0.74216212785E+01 0.85037921426E+01 0.95488123947E+01
 0.10467909063E+02 0.11164626551E+02 0.11643200180E+02 0.11992240050E+02 0.12279891684E+02
 0.12472190886E+02 0.12437887398E+02 0.12038045541E+02 0.11237036937E+02 0.10147959184E+02
 0.89209572972E+01 0.76877381850E+01 0.65526563929E+01 0.55775087380E+01 0.47859290207E+01
 0.41782286364E+01 0.37465746181E+01 0.34843685942E+01 0.33889413839E+01 0.34605658062E+01
 0.37013184860E+01 0.41147082834E+01 0.47040460102E+01 0.54670614050E+01 0.63866744709E+01
 0.60426779050E+01 0.69460986475E+01 0.79006613622E+01 0.88442775542E+01 0.97202564385E+01
 0.10483230274E+02 0.11103669509E+02 0.11585839243E+02 0.11917719126E+02 0.12038036749E+02
 0.11861003433E+02 0.11343118036E+02 0.10527948897E+02 0.95058895872E+01 0.83913981045E+01
 0.72936999361E+01 0.62926343767E+01 0.54320078514E+01 0.47271519389E+01 0.41782286364E+01
 0.37815379638E+01 0.35350646750E+01 0.34389435197E+01 0.34940398662E+01 0.37012985281E+01
 0.40619761570E+01 0.45767840037E+01 0.52419988263E+01 0.49876756464E+01 0.56690811133E+01
 0.64458767157E+01 0.72805161827E+01 0.81281116314E+01 0.89459825285E+01 0.96997402492E+01
 0.10359600641E+02 0.10888793348E+02 0.11237030425E+02 0.11343106832E+02 0.11159870982E+02
 0.10679215760E+02 0.99433203759E+01 0.90353920354E+01 0.80547168029E+01 0.70902618353E+01
 0.62046388422E+01 0.54320078514E+01 0.47859290207E+01 0.42700447227E+01 0.38858197878E+01
 0.36353308550E+01 0.35206468108E+01 0.35426817920E+01 0.37012609269E+01 0.39959777229E+01
 0.44260517210E+01 0.42605078391E+01 0.47191324461E+01 0.52878509385E+01 0.59494992346E+01
 0.66775283519E+01 0.74395348361E+01 0.82022981187E+01 0.89334871175E+01 0.95973663779E+01
 0.10147965385E+02 0.10527942861E+02 0.10679205992E+02 0.10562650217E+02 0.10176257007E+02
 0.95604242014E+01 0.87871638727E+01 0.79393013070E+01 0.70902618353E+01 0.62926343767E+01
 0.55775087380E+01 0.49609812297E+01 0.44520186262E+01 0.40573725823E+01 0.37826495873E+01
 0.36313905870E+01 0.36045281575E+01 0.37012132141E+01 0.39202493655E+01 0.38389014482E+01
 0.40894733148E+01 0.44514853570E+01 0.49198155508E+01 0.54829053178E+01 0.61222007945E+01
 0.68140931424E+01 0.75322011208E+01 0.82468535561E+01 0.89209636133E+01 0.95058951052E+01
 0.99433168323E+01 0.10176250476E+02 0.10165963508E+02 0.99062663535E+01 0.94273612097E+01
 0.87871638727E+01 0.80547168029E+01 0.72936999361E+01 0.65526563929E+01 0.58638845614E+01
 0.52481457386E+01 0.47202618258E+01 0.42921058652E+01 0.39726643573E+01 0.37671131657E+01
 0.36768812526E+01 0.37011726530E+01 0.37011569063E+01 0.37563268357E+01 0.39221838160E+01
 0.41986992472E+01 0.45830876238E+01 0.50676844683E+01 0.56394980644E+01 0.62813427208E+01
 0.69726518669E+01 0.76877307277E+01 0.83913994369E+01 0.90353961089E+01 0.95604233130E+01
 0.99062623018E+01 0.10027244714E+02 0.99062663535E+01 0.95604242014E+01 0.90353920354E+01
 0.83913981045E+01 0.76877381850E+01 0.69726637711E+01 0.62813500942E+01 0.56394974282E+01
 0.50676798041E+01 0.45830857833E+01 0.41987049692E+01 0.39221957349E+01 0.37563369134E+01
 0.38389078026E+01 0.37011732103E+01 0.36768697898E+01 0.37670959824E+01 0.39726520164E+01
 0.42921022360E+01 0.47202640689E+01 0.52481487367E+01 0.58638825797E+01 0.65526471091E+01
 0.72936894086E+01 0.80547136049E+01 0.87871668537E+01 0.94273614343E+01 0.99062623018E+01
 0.10165963508E+02 0.10176257007E+02 0.99433203759E+01 0.95058895872E+01 0.89209572972E+01
 0.82468568912E+01 0.75322120526E+01 0.68141018554E+01 0.61222022141E+01 0.54829005874E+01
 0.49198077163E+01 0.44514795398E+01 0.40894748124E+01 0.42604986971E+01 0.39202512428E+01
 0.37012137378E+01 0.36045186401E+01 0.36313760542E+01 0.37826375203E+01 0.40573648325E+01
 0.44520168445E+01 0.49609864475E+01 0.55775133073E+01 0.62926284670E+01 0.70902496753E+01
 0.79392963003E+01 0.87871668537E+01 0.95604233130E+01 0.10176250476E+02 0.10562650217E+02
 0.10679215760E+02 0.10527948897E+02 0.10147959184E+02 0.95973571990E+01 0.89334858398E+01
 0.82023030207E+01 0.74395397931E+01 0.66775312215E+01 0.59494965060E+01 0.52878379870E+01
 0.47191147491E+01 0.49876510275E+01 0.44260366440E+01 0.39959758516E+01 0.37012605056E+01
 0.35426774132E+01 0.35206421537E+01 0.36353246639E+01 0.38858094480E+01 0.42700388210E+01
 0.47859358276E+01 0.54320167916E+01 0.62046344126E+01 0.70902496753E+01 0.80547136049E+01
 0.90353961089E+01 0.99433168323E+01 0.10679205992E+02 0.11159870982E+02 0.11343118036E+02
 0.11237036937E+02 0.10888788144E+02 0.10359592391E+02 0.96997345702E+01 0.89459772437E+01
 0.81281091054E+01 0.72805197843E+01 0.64458769138E+01 0.56690655126E+01 0.60426632980E+01
 0.52419759387E+01 0.45767704546E+01 0.40619721034E+01 0.37012963593E+01 0.34940424451E+01
 0.34389520628E+01 0.35350662219E+01 0.37815263115E+01 0.41782201518E+01 0.47271593236E+01
 0.54320167916E+01 0.62926284670E+01 0.72936894086E+01 0.83913994369E+01 0.95058951052E+01
 0.10527942861E+02 0.11343106832E+02 0.11861003433E+02 0.12038045541E+02 0.11917723061E+02
 0.11585836947E+02 0.11103665944E+02 0.10483221174E+02 0.97202399885E+01 0.88442670632E+01
 0.79006650259E+01 0.69461012361E+01 0.74216245862E+01 0.63866646829E+01 0.54670492579E+01
 0.47040408781E+01 0.41147036218E+01 0.37013142775E+01 0.34605749657E+01 0.33889609979E+01
 0.34843754233E+01 0.37465625801E+01 0.41782201518E+01 0.47859358276E+01 0.55775133073E+01
 0.65526471091E+01 0.76877307277E+01 0.89209636133E+01 0.10147965385E+02 0.11237030425E+02
 0.12038036749E+02 0.12437887398E+02 0.12472193034E+02 0.12279890384E+02 0.11992241917E+02
 0.11643203305E+02 0.11164615717E+02 0.10467884750E+02 0.95487971793E+01 0.85037953467E+01
 0.90548703415E+01 0.78437093705E+01 0.66798796425E+01 0.56491919109E+01 0.48005129230E+01
 0.41514137098E+01 0.37013187118E+01 0.34435351954E+01 0.33721412528E+01 0.34843754233E+01
 0.37815263115E+01 0.42700388210E+01 0.49609864475E+01 0.58638825797E+01 0.69726518669E+01
 0.82468535561E+01 0.95973663779E+01 0.10888793348E+02 0.11917719126E+02 0.12472190886E+02
 0.12539330442E+02 0.12307837039E+02 0.12037373107E+02 0.11887347588E+02 0.11817224490E+02
 0.11626309252E+02 0.11106123689E+02 0.10200203792E+02 0.10750818165E+02 0.95211319270E+01
 0.81860319427E+01 0.69037913095E+01 0.57772151773E+01 0.48606680646E+01 0.41702365878E+01
 0.37013187185E+01 0.34435351954E+01 0.33889609979E+01 0.35350662219E+01 0.38858094480E+01
 0.44520168445E+01 0.52481487367E+01 0.62813427208E+01 0.75322011208E+01 0.89334871175E+01
 0.10359600641E+02 0.11585839243E+02 0.12279891684E+02 0.12307844088E+02 0.11844901190E+02
 0.11282922202E+02 0.11004134159E+02 0.11153212394E+02 0.11551628669E+02 0.11812040556E+02
 0.11580361191E+02 0.11881490318E+02 0.11168676812E+02 0.98749091986E+01 0.84269884551E+01
 0.70441227375E+01 0.58432501702E+01 0.48811023426E+01 0.41702365878E+01 0.37013187118E+01
 0.34605749657E+01 0.34389520628E+01 0.36353246639E+01 0.40573648325E+01 0.47202640689E+01
 0.56394980644E+01 0.68140931424E+01 0.82022981187E+01 0.96997402492E+01 0.11103669509E+02
 0.11992240050E+02 0.12037380535E+02 0.11282937818E+02 0.10163518504E+02 0.92992726615E+01
 0.91650985098E+01 0.98238813920E+01 0.10889000484E+02 0.11743388230E+02 0.11512084131E+02
 0.12039640499E+02 0.11443654796E+02 0.10095543909E+02 0.85513744172E+01 0.70919156219E+01
 0.58432501702E+01 0.48606680646E+01 0.41514137098E+01 0.37013142775E+01 0.34940424451E+01
 0.35206421537E+01 0.37826375203E+01 0.42921022360E+01 0.50676844683E+01 0.61222007945E+01
 0.74395348361E+01 0.89459825285E+01 0.10483230274E+02 0.11643200180E+02 0.11887341623E+02
 0.11004146165E+02 0.92992928239E+01 0.75133265410E+01 0.64825671957E+01 0.67110228897E+01
 0.80976561140E+01 0.99862767954E+01 0.90769373097E+01 0.11249060344E+02 0.12104594828E+02
 0.11578621056E+02 0.10170433731E+02 0.85513744172E+01 0.70441227375E+01 0.57772151773E+01
 0.48005129230E+01 0.41147036218E+01 0.37012963593E+01 0.35426774132E+01 0.36313760542E+01
 0.39726520164E+01 0.45830876238E+01 0.54829053178E+01 0.66775283519E+01 0.81281116314E+01
 0.97202564385E+01 0.11164626551E+02 0.11817215391E+02 0.11153203856E+02 0.91651114690E+01
 0.64825857427E+01 0.41583266839E+01 0.31897031070E+01 0.40196706312E+01 0.63024188340E+01
 0.48185660985E+01 0.84064224816E+01 0.11079562860E+02 0.12120445793E+02 0.11578621056E+02
 0.10095543909E+02 0.84269884551E+01 0.69037913095E+01 0.56491919109E+01 0.47040408781E+01
 0.40619721034E+01 0.37012605056E+01 0.36045186401E+01 0.37670959824E+01 0.41986992472E+01
 0.49198155508E+01 0.59494992346E+01 0.72805161827E+01 0.88442775542E+01 0.10467909063E+02
 0.11626319671E+02 0.11551616819E+02 0.98238727850E+01 0.67110323909E+01 0.31897139862E+01
 0.58163570694E+00 -.48611693220E-01 0.15803043863E+01 -.12247206020E+00 0.39794950817E+01
 0.81599794577E+01 0.11079562860E+02 0.12104594828E+02 0.11443654796E+02 0.98749091986E+01
 0.81860319427E+01 0.66798796425E+01 0.54670492579E+01 0.45767704546E+01 0.39959758516E+01
 0.37012137378E+01 0.36768697898E+01 0.39221838160E+01 0.44514853570E+01 0.52878509385E+01
 0.64458767157E+01 0.79006613622E+01 0.95488123947E+01 0.11106148972E+02 0.11812048381E+02
 0.10888990310E+02 0.80976499935E+01 0.40196731710E+01 -.48612085136E-01 -.26074056456E+01
 -.26423199154E+01 -.40851509070E+01 -.73349203906E+00 0.39794950817E+01 0.84064224816E+01
 0.11249060344E+02 0.12039640499E+02 0.11168676812E+02 0.95211319270E+01 0.78437093705E+01
 0.63866646829E+01 0.52419759387E+01 0.44260366440E+01 0.39202512428E+01 0.37011732103E+01
 0.37563268357E+01 0.40894733148E+01 0.47191324461E+01 0.56690811133E+01 0.69460986475E+01
 0.85037921426E+01 0.10200217929E+02 0.11580379268E+02 0.11743391790E+02 0.99862721089E+01
 0.63024168200E+01 0.15802987804E+01 -.26423312539E+01 -.48128896000E+01 -.40850866382E+01
 -.30097082036E+01 0.43891556783E+00 0.49566711013E+01 0.89708410224E+01 0.11333348260E+02
 0.11729251174E+02 0.10640784930E+02 0.89544183222E+01 0.73120706941E+01 0.59137475590E+01
 0.48330853282E+01 0.40763221236E+01 0.36210006903E+01 0.34434568098E+01 0.35327167528E+01
 0.38947265404E+01 0.45500054995E+01 0.55228454897E+01 0.68176743648E+01 0.83826313252E+01
 0.10066732797E+02 0.11375344270E+02 0.11421562391E+02 0.95779779164E+01 0.59351381223E+01
 0.14453724424E+01 -.23737052348E+01 -.30097220863E+01 -.40850960915E+01 -.23737124327E+01
 0.14453531051E+01 0.59351102847E+01 0.95779547641E+01 0.11421539909E+02 0.11375313995E+02
 0.10066708117E+02 0.83826282327E+01 0.68176788668E+01 0.55228340147E+01 0.45499851275E+01
 0.38947205538E+01 0.35327233505E+01 0.34434586195E+01 0.36210030517E+01 0.40763432429E+01
 0.48331173209E+01 0.59137654079E+01 0.73120738460E+01 0.89544281343E+01 0.10640806911E+02
 0.11729273212E+02 0.11333369170E+02 0.89708674010E+01 0.49566926060E+01 0.43891588283E+00
 0.55010212937E+00 -.22554152145E+01 -.26422787187E+01 -.48358640924E+00 0.33433529506E+01
 0.73916296532E+01 0.10320291717E+02 0.11443936972E+02 0.10899783037E+02 0.94118090789E+01
 0.77735442584E+01 0.63109839297E+01 0.51363669813E+01 0.42804779139E+01 0.37305807972E+01
 0.34626583971E+01 0.34605212620E+01 0.37234684737E+01 0.42667473246E+01 0.51154824392E+01
 0.62881906352E+01 0.77667425456E+01 0.94575649896E+01 0.11108549046E+02 0.11993014495E+02
 0.11294179389E+02 0.86969185381E+01 0.47011050709E+01 0.52458520727E+01 0.17645446675E+01
 -.26232786034E+00 -.48586420625E-01 0.22738034432E+01 0.57291068743E+01 0.89848833753E+01
 0.10970381188E+02 0.11296505286E+02 0.10295158742E+02 0.87172471551E+01 0.71588941015E+01
 0.58182748681E+01 0.47736159697E+01 0.40373586896E+01 0.35914230322E+01 0.34140440762E+01
 0.34940289967E+01 0.38354525274E+01 0.44565322464E+01 0.53820201057E+01 0.66247979274E+01
 0.81548415088E+01 0.98627196231E+01 0.11457072009E+02 0.12199739989E+02 0.11386525232E+02
 0.88625526651E+01 0.94477329329E+01 0.64775354413E+01 0.38306878138E+01 0.25708284718E+01
 0.31897113639E+01 0.53636696367E+01 0.81294910129E+01 0.10371529893E+02 0.11339192425E+02
 0.10924272465E+02 0.95916259285E+01 0.80209433601E+01 0.65689581438E+01 0.53631244028E+01
 0.44511144616E+01 0.38312573841E+01 0.34832780738E+01 0.33891544893E+01 0.35427133870E+01
 0.39518090886E+01 0.46359862992E+01 0.56177620276E+01 0.69032574117E+01 0.84518911482E+01
 0.10144214523E+02 0.11677099679E+02 0.12362989326E+02 0.11628405338E+02 0.11963908074E+02
 0.10310346425E+02 0.81234166983E+01 0.63280406850E+01 0.57032708273E+01 0.64825590167E+01
 0.82392512357E+01 0.10121937900E+02 0.11294672216E+02 0.11328211986E+02 0.10341965541E+02
 0.88554038333E+01 0.73559540603E+01 0.60308345360E+01 0.49651857473E+01 0.41819628145E+01
 0.36702651202E+01 0.34104735229E+01 0.33891623279E+01 0.36046013750E+01 0.40670256274E+01
 0.47955199738E+01 0.58087349583E+01 0.71056409827E+01 0.86375683541E+01 0.10281796910E+02
 0.11755946443E+02 0.12465156470E+02 0.12461002058E+02 0.12280437243E+02 0.11228463062E+02
 0.98275145763E+01 0.87782334673E+01 0.85885964883E+01 0.92992512286E+01 0.10469849606E+02
 0.11430280047E+02 0.11640571168E+02 0.10950898932E+02 0.96312352908E+01 0.81464793951E+01
 0.67530715531E+01 0.55671144190E+01 0.46395531897E+01 0.39755938166E+01 0.35598590826E+01
 0.33755745372E+01 0.34140633542E+01 0.36769839122E+01 0.41753578071E+01 0.49261209076E+01
 0.59428798681E+01 0.72178608716E+01 0.86975632336E+01 0.10262705811E+02 0.11676649958E+02
 0.11424299920E+02 0.12295099234E+02 0.12446340668E+02 0.11965971219E+02 0.11246411139E+02
 0.10764157139E+02 0.10801576499E+02 0.11282893407E+02 0.11825797363E+02 0.11971982235E+02
 0.11450712577E+02 0.10320208533E+02 0.89090354204E+01 0.75026162064E+01 0.62390182687E+01
 0.51952289488E+01 0.43967512453E+01 0.38379865903E+01 0.35030953144E+01 0.33794648975E+01
 0.34626781490E+01 0.37564474100E+01 0.42710357510E+01 0.50198871723E+01 0.60110260456E+01
 0.72311005707E+01 0.86253915596E+01 0.10083879912E+02 0.97536811478E+01 0.10996915579E+02
 0.11926338453E+02 0.12355408890E+02 0.12339773546E+02 0.12135004914E+02 0.12022468613E+02
 0.12120837845E+02 0.12307808021E+02 0.12302265341E+02 0.11849991517E+02 0.10891618357E+02
 0.96081591333E+01 0.82478450602E+01 0.69578402174E+01 0.58353373330E+01 0.49275221057E+01
 0.42432581910E+01 0.37722077210E+01 0.35009733866E+01 0.34215196997E+01 0.35327303734E+01
 0.38390008036E+01 0.43485856150E+01 0.50706591902E+01 0.60078706742E+01 0.71430702436E+01
 0.84238216852E+01 0.81054082965E+01 0.92922745121E+01 0.10415742339E+02 0.11349793657E+02
 0.11962822029E+02 0.12267648036E+02 0.12398149911E+02 0.12486421172E+02 0.12550257290E+02
 0.12472169655E+02 0.12084432472E+02 0.11299695489E+02 0.10196086131E+02 0.89483777435E+01
 0.76936110352E+01 0.65409686206E+01 0.55581005489E+01 0.47718836927E+01 0.41823434448E+01
 0.37790870984E+01 0.35528409503E+01 0.34998034292E+01 0.36209848923E+01 0.39203052528E+01
 0.44032641935E+01 0.50746937483E+01 0.59328024691E+01 0.69587764426E+01 0.66904618517E+01
 0.76916979401E+01 0.87301609925E+01 0.97270191065E+01 0.10607439754E+02 0.11301037161E+02
 0.11783991529E+02 0.12097290863E+02 0.12273789480E+02 0.12282314215E+02 0.12038030321E+02
 0.11472748891E+02 0.10610699910E+02 0.95511638556E+01 0.84059283461E+01 0.72857255067E+01
 0.62743031880E+01 0.54182215744E+01 0.47326326458E+01 0.42149332201E+01 0.38578111538E+01
 0.36567030876E+01 0.36112264955E+01 0.37234160929E+01 0.39959794739E+01 0.44315432692E+01
 0.50312394406E+01 0.57903258574E+01 0.55898617158E+01 0.63565169102E+01 0.72110125407E+01
 0.81048935419E+01 0.89800643921E+01 0.97821059659E+01 0.10471739950E+02 0.11022113834E+02
 0.11416097220E+02 0.11631321839E+02 0.11622436733E+02 0.11343109870E+02 0.10786972200E+02
 0.99933125447E+01 0.90419476204E+01 0.80319772102E+01 0.70543082646E+01 0.61731386185E+01
 0.54219934514E+01 0.48112947891E+01 0.43402168252E+01 0.40062368284E+01 0.38093277070E+01
 0.37516086324E+01 0.38353724664E+01 0.40619263485E+01 0.44315341292E+01 0.49428332316E+01
 0.48151765848E+01 0.53448413208E+01 0.59794553494E+01 0.66951823439E+01 0.74566872665E+01
 0.82220675689E+01 0.89509699356E+01 0.96099753932E+01 0.10170305856E+02 0.10599485711E+02
 0.10855602558E+02 0.10892929686E+02 0.10679211537E+02 0.10214705390E+02 0.95402306716E+01
 0.87284541977E+01 0.78633190569E+01 0.70186816885E+01 0.62456292514E+01 0.55714598280E+01
 0.50069581500E+01 0.45557645344E+01 0.42207954268E+01 0.40060932579E+01 0.39156313424E+01
 0.39517148694E+01 0.41146196558E+01 0.44032368524E+01 0.43485407558E+01 0.46565605390E+01
 0.50712209783E+01 0.55833502223E+01 0.61759585520E+01 0.68240015088E+01 0.74975918061E+01
 0.81665078375E+01 0.88018946798E+01 0.93729093273E+01 0.98411801173E+01 0.10159823355E+02
 0.10281908894E+02 0.10176253879E+02 0.98419884800E+01 0.93129983703E+01 0.86493146625E+01
 0.79200617839E+01 0.71865438741E+01 0.64926040384E+01 0.58643251557E+01 0.53159990318E+01
 0.48570484083E+01 0.44959664468E+01 0.42406082399E+01 0.40967140696E+01 0.40669336107E+01
 0.41513078053E+01 0.41701251779E+01 0.42709757285E+01 0.44769472345E+01 0.47857311199E+01
 0.51913004591E+01 0.56819171425E+01 0.62401001786E+01 0.68447537379E+01 0.74734466864E+01
 0.81019549812E+01 0.87002714573E+01 0.92282641887E+01 0.96363803648E+01 0.98744778838E+01
 0.99062629584E+01 0.97222734657E+01 0.93443802313E+01 0.88192891453E+01 0.82044409150E+01
 0.75533855283E+01 0.69070815209E+01 0.62932686451E+01 0.57311469939E+01 0.52364324643E+01
 0.48234460411E+01 0.45042322926E+01 0.42869085922E+01 0.41752824877E+01 0.42709861603E+01
 0.41701336113E+01 0.41752876788E+01 0.42869195626E+01 0.45042499088E+01 0.48234638274E+01
 0.52364511346E+01 0.57311690882E+01 0.62932843668E+01 0.69070807535E+01 0.75533785842E+01
 0.82044456721E+01 0.88193028162E+01 0.93443862051E+01 0.97222703187E+01 0.99062621779E+01
 0.98744775475E+01 0.96363676343E+01 0.92282424356E+01 0.87002589841E+01 0.81019556438E+01
 0.74734450564E+01 0.68447407172E+01 0.62400820027E+01 0.56818986741E+01 0.51912807933E+01
 0.47857163085E+01 0.44769469261E+01 0.46565700566E+01 0.43485639541E+01 0.41513304534E+01
 0.40669533711E+01 0.40967353685E+01 0.42406267719E+01 0.44959777955E+01 0.48570613812E+01
 0.53160203866E+01 0.58643420677E+01 0.64926026796E+01 0.71865341053E+01 0.79200613151E+01
 0.86493200551E+01 0.93129952348E+01 0.98419793871E+01 0.10176250614E+02 0.10281906046E+02
 0.10159806112E+02 0.98411524452E+01 0.93728895451E+01 0.88018872275E+01 0.81665016728E+01
 0.74975820583E+01 0.68239916823E+01 0.61759467775E+01 0.55833342167E+01 0.50712114847E+01
 0.53448400142E+01 0.48151944242E+01 0.44032668749E+01 0.41146494815E+01 0.39517445186E+01
 0.39156608295E+01 0.40061111025E+01 0.42207979852E+01 0.45557686006E+01 0.50069750823E+01
 0.55714751710E+01 0.62456275269E+01 0.70186724022E+01 0.78633168782E+01 0.87284522631E+01
 0.95402169084E+01 0.10214688002E+02 0.10679203651E+02 0.10892923438E+02 0.10855582680E+02
 0.10599456549E+02 0.10170282749E+02 0.96099608557E+01 0.89509584262E+01 0.82220614406E+01
 0.74566886242E+01 0.66951818321E+01 0.59794478176E+01 0.63565203523E+01 0.55898708880E+01
 0.49428573417E+01 0.44315636238E+01 0.40619543487E+01 0.38354049942E+01 0.37516420060E+01
 0.38093429736E+01 0.40062308077E+01 0.43402123254E+01 0.48113052649E+01 0.54220036417E+01
 0.61731349838E+01 0.70543011566E+01 0.80319757746E+01 0.90419396247E+01 0.99932886647E+01
 0.10786946313E+02 0.11343095630E+02 0.11622425383E+02 0.11631301231E+02 0.11416072663E+02
 0.11022094004E+02 0.10471722310E+02 0.97820908120E+01 0.89800625908E+01 0.81049062641E+01
 0.72110240493E+01 0.76917179474E+01 0.66904755420E+01 0.57903459554E+01 0.50312670436E+01
 0.44315654799E+01 0.39959976745E+01 0.37234440503E+01 0.36112576404E+01 0.36567132955E+01
 0.38577987824E+01 0.42149233777E+01 0.47326363108E+01 0.54182233425E+01 0.62742953123E+01
 0.72857201543E+01 0.84059277473E+01 0.95511509712E+01 0.10610669286E+02 0.11472717839E+02
 0.12038010143E+02 0.12282297086E+02 0.12273770697E+02 0.12097277190E+02 0.11783981881E+02
 0.11301022140E+02 0.10607425170E+02 0.97270227647E+01 0.87301823059E+01 0.92922993220E+01
 0.81054301670E+01 0.69587965445E+01 0.59328311058E+01 0.50747211523E+01 0.44032746537E+01
 0.39203091690E+01 0.36210023034E+01 0.34998256191E+01 0.35528433324E+01 0.37790714919E+01
 0.41823325798E+01 0.47718814121E+01 0.55580923434E+01 0.65409550303E+01 0.76936055413E+01
 0.89483758585E+01 0.10196069613E+02 0.11299664251E+02 0.12084403025E+02 0.12472147035E+02
 0.12550236323E+02 0.12486407667E+02 0.12398151629E+02 0.12267653018E+02 0.11962815003E+02
 0.11349785066E+02 0.10415752470E+02 0.10996932180E+02 0.97537034545E+01 0.84238380397E+01
 0.71430909419E+01 0.60079024971E+01 0.50706819378E+01 0.43485830296E+01 0.38389904971E+01
 0.35327341017E+01 0.34215274130E+01 0.35009658270E+01 0.37721917188E+01 0.42432496744E+01
 0.49275152992E+01 0.58353203509E+01 0.69578217778E+01 0.82478375151E+01 0.96081531035E+01
 0.10891600071E+02 0.11849967290E+02 0.12302245912E+02 0.12307789006E+02 0.12120817945E+02
 0.12022464236E+02 0.12135023039E+02 0.12339793117E+02 0.12355412766E+02 0.11926340325E+02
 0.12295112982E+02 0.11424321226E+02 0.10083894554E+02 0.86253969233E+01 0.72311158523E+01
 0.60110537595E+01 0.50199007218E+01 0.42710218638E+01 0.37564268623E+01 0.34626683802E+01
 0.33794556721E+01 0.35030775610E+01 0.38379720454E+01 0.43967461396E+01 0.51952190668E+01
 0.62389965837E+01 0.75025966304E+01 0.89090254133E+01 0.10320196811E+02 0.11450695418E+02
 0.11971972014E+02 0.11825795079E+02 0.11282884640E+02 0.10801564265E+02 0.10764164897E+02
 0.11246442434E+02 0.11966000431E+02 0.12446354579E+02 0.12280456634E+02 0.12461024946E+02
 0.11676672297E+02 0.10262709941E+02 0.86975559447E+01 0.72178663560E+01 0.59428962114E+01
 0.49261217689E+01 0.41753364553E+01 0.36769591317E+01 0.34140431494E+01 0.33755501278E+01
 0.35598336485E+01 0.39755815887E+01 0.46395501716E+01 0.55671027529E+01 0.67530511414E+01
 0.81464643924E+01 0.96312246836E+01 0.10950882817E+02 0.11640558924E+02 0.11430287878E+02
 0.10469867413E+02 0.92992573165E+01 0.85885977096E+01 0.87782540341E+01 0.98275521162E+01
 0.11228493496E+02 0.10310369003E+02 0.11963926212E+02 0.12465182090E+02 0.11755964921E+02
 0.10281790694E+02 0.86375510041E+01 0.71056351729E+01 0.58087350100E+01 0.47955069761E+01
 0.40670014493E+01 0.36045781009E+01 0.33891364979E+01 0.34104398233E+01 0.36702373297E+01
 0.41819533170E+01 0.49651822638E+01 0.60308223571E+01 0.73559410109E+01 0.88553991313E+01
 0.10341958028E+02 0.11328195780E+02 0.11294668710E+02 0.10121963270E+02 0.82392862453E+01
 0.64825803015E+01 0.57032877905E+01 0.63280713348E+01 0.81234516806E+01 0.64775596846E+01
 0.94477410565E+01 0.11628415699E+02 0.12363009587E+02 0.11677109545E+02 0.10144200851E+02
 0.84518694314E+01 0.69032419660E+01 0.56177450052E+01 0.46359614858E+01 0.39517863944E+01
 0.35426953496E+01 0.33891282328E+01 0.34832436780E+01 0.38312342988E+01 0.44511083399E+01
 0.53631184457E+01 0.65689469745E+01 0.80209418841E+01 0.95916349234E+01 0.10924272047E+02
 0.11339182029E+02 0.10371537630E+02 0.81295285850E+01 0.53637134839E+01 0.31897431230E+01
 0.25708582945E+01 0.38307224070E+01 0.17645749153E+01 0.52458603771E+01 0.88625444945E+01
 0.11386523859E+02 0.12199747893E+02 0.11457070237E+02 0.98627029963E+01 0.81548219900E+01
 0.66247769003E+01 0.53819899308E+01 0.44565009396E+01 0.38354346626E+01 0.34940173438E+01
 0.34140218275E+01 0.35913968387E+01 0.40373471369E+01 0.47736144306E+01 0.58182664437E+01
 0.71588858290E+01 0.87172581400E+01 0.10295180794E+02 0.11296514337E+02 0.10970381666E+02
 0.89849022202E+01 0.57291477618E+01 0.22738446685E+01 -.48552871890E-01 -.26229301397E+00
 -.22553859242E+01 0.55011985909E+00 0.47010966470E+01 0.86968975512E+01 0.11294166298E+02
 0.11993006664E+02 0.11108535558E+02 0.94575500399E+01 0.77667302620E+01 0.62881690207E+01
 0.51154467714E+01 0.42667171257E+01 0.37234576941E+01 0.34605152070E+01 0.34626431942E+01
 0.37305694440E+01 0.42804822373E+01 0.51363714942E+01 0.63109754751E+01 0.77735409009E+01
 0.94118297289E+01 0.10899813176E+02 0.11443954773E+02 0.10320304888E+02 0.73916561600E+01
 0.33433871732E+01 -.48355875467E+00 -.26422533121E+01 -.12231760634E+00 0.55021372037E+00
 0.32148716702E+01 0.68197927797E+01 0.10025711129E+02 0.11821639502E+02 0.11912910525E+02
 0.10716475477E+02 0.90204908256E+01 0.73810935255E+01 0.59786507851E+01 0.48833342533E+01
 0.41014790397E+01 0.36113234396E+01 0.33889624136E+01 0.34215757387E+01 0.37117051011E+01
 0.42762021248E+01 0.51385084571E+01 0.63097800114E+01 0.77578087740E+01 0.93720846765E+01
 0.10845667648E+02 0.11445877437E+02 0.10528784425E+02 0.80148481580E+01 0.45768856634E+01
 0.14454535559E+01 0.43901848736E+00 -.73332456615E+00 0.43902217002E+00 0.34741185183E+01
 0.71687131047E+01 0.10183325603E+02 0.11638993073E+02 0.11420009955E+02 0.10073834774E+02
 0.84010688167E+01 0.68455370210E+01 0.55503378586E+01 0.45666309432E+01 0.38910328400E+01
 0.34998893587E+01 0.33721361963E+01 0.34998801986E+01 0.38910318342E+01 0.45666350898E+01
 0.55503253081E+01 0.68455092537E+01 0.84010537929E+01 0.10073842575E+02 0.11420020085E+02
 0.11638991768E+02 0.10183322812E+02 0.71687160915E+01 0.34741194403E+01 0.32148703683E+01
 0.55021147879E+00 -.12231363740E+00 0.14454557770E+01 0.45768808052E+01 0.80148491653E+01