   2   2   0   0
  0.1529437E+02  0.3691622E-09  0.3691622E-09  0.3691622E-09  0.5000000E-15
  1.000000000000000E-004
  CAR 
 unknown system                          
     23.51358007     -6.57126879  301      9.09538272      1.00000000
     -6.571  0.0000E+00  0.0000E+00
     -6.471  0.0000E+00  0.0000E+00
     -6.371  0.0000E+00  0.0000E+00
     -6.270  0.0000E+00  0.0000E+00
     -6.170  0.0000E+00  0.0000E+00
     -6.070  0.0000E+00  0.0000E+00
     -5.970  0.0000E+00  0.0000E+00
     -5.869  0.0000E+00  0.0000E+00
     -5.769  0.0000E+00  0.0000E+00
     -5.669  0.1298E-16  0.1302E-17
     -5.568  0.2725E-14  0.2746E-15
     -5.468  0.3478E-12  0.3515E-13
     -5.368  0.2712E-10  0.2755E-11
     -5.268  0.1296E-08  0.1327E-09
     -5.167  0.3806E-07  0.3950E-08
     -5.067  0.6919E-06  0.7334E-07
     -4.967  0.7870E-05  0.8625E-06
     -4.866  0.5715E-04  0.6594E-05
     -4.766  0.2747E-03  0.3415E-04
     -4.666  0.9220E-03  0.1266E-03
     -4.566  0.2285E-02  0.3558E-03
     -4.465  0.4317E-02  0.7887E-03
     -4.365  0.6313E-02  0.1422E-02
     -4.265  0.7639E-02  0.2188E-02
     -4.164  0.8869E-02  0.3077E-02
     -4.064  0.1058E-01  0.4139E-02
     -3.964  0.1198E-01  0.5340E-02
     -3.864  0.1263E-01  0.6606E-02
     -3.763  0.1325E-01  0.7935E-02
     -3.663  0.1421E-01  0.9360E-02
     -3.563  0.1521E-01  0.1089E-01
     -3.463  0.1591E-01  0.1248E-01
     -3.362  0.1612E-01  0.1410E-01
     -3.262  0.1578E-01  0.1568E-01
     -3.162  0.1615E-01  0.1730E-01
     -3.061  0.1900E-01  0.1921E-01
     -2.961  0.2280E-01  0.2149E-01
     -2.861  0.2374E-01  0.2387E-01
     -2.761  0.2092E-01  0.2597E-01
     -2.660  0.1728E-01  0.2770E-01
     -2.560  0.1641E-01  0.2935E-01
     -2.460  0.1924E-01  0.3128E-01
     -2.359  0.2346E-01  0.3363E-01
     -2.259  0.2598E-01  0.3624E-01
     -2.159  0.2597E-01  0.3884E-01
     -2.059  0.2537E-01  0.4139E-01
     -1.958  0.2592E-01  0.4398E-01
     -1.858  0.2681E-01  0.4667E-01
     -1.758  0.2635E-01  0.4932E-01
     -1.657  0.2452E-01  0.5177E-01
     -1.557  0.2279E-01  0.5406E-01
     -1.457  0.2277E-01  0.5634E-01
     -1.357  0.2576E-01  0.5893E-01
     -1.256  0.3052E-01  0.6199E-01
     -1.156  0.3365E-01  0.6536E-01
     -1.056  0.3338E-01  0.6871E-01
     -0.955  0.3031E-01  0.7175E-01
     -0.855  0.2667E-01  0.7442E-01
     -0.755  0.2535E-01  0.7697E-01
     -0.655  0.2724E-01  0.7970E-01
     -0.554  0.3079E-01  0.8279E-01
     -0.454  0.3434E-01  0.8623E-01
     -0.354  0.3698E-01  0.8994E-01
     -0.253  0.3773E-01  0.9372E-01
     -0.153  0.3621E-01  0.9735E-01
     -0.053  0.3386E-01  0.1007E+00
      0.047  0.3201E-01  0.1040E+00
      0.148  0.3059E-01  0.1070E+00
      0.248  0.3108E-01  0.1101E+00
      0.348  0.3457E-01  0.1136E+00
      0.449  0.3716E-01  0.1173E+00
      0.549  0.3562E-01  0.1209E+00
      0.649  0.3386E-01  0.1243E+00
      0.749  0.3647E-01  0.1280E+00
      0.850  0.4237E-01  0.1322E+00
      0.950  0.4799E-01  0.1370E+00
      1.050  0.5030E-01  0.1421E+00
      1.151  0.4722E-01  0.1468E+00
      1.251  0.4055E-01  0.1509E+00
      1.351  0.3629E-01  0.1545E+00
      1.451  0.3732E-01  0.1582E+00
      1.552  0.3920E-01  0.1622E+00
      1.652  0.3698E-01  0.1659E+00
      1.752  0.3184E-01  0.1691E+00
      1.852  0.2901E-01  0.1720E+00
      1.953  0.3192E-01  0.1752E+00
      2.053  0.3811E-01  0.1790E+00
      2.153  0.4250E-01  0.1833E+00
      2.254  0.4390E-01  0.1877E+00
      2.354  0.4316E-01  0.1920E+00
      2.454  0.3977E-01  0.1960E+00
      2.554  0.3514E-01  0.1995E+00
      2.655  0.3200E-01  0.2027E+00
      2.755  0.3114E-01  0.2059E+00
      2.855  0.3270E-01  0.2091E+00
      2.956  0.3614E-01  0.2128E+00
      3.056  0.3909E-01  0.2167E+00
      3.156  0.4048E-01  0.2207E+00
      3.256  0.4207E-01  0.2250E+00
      3.357  0.4461E-01  0.2294E+00
      3.457  0.4604E-01  0.2340E+00
      3.557  0.4442E-01  0.2385E+00
      3.658  0.4108E-01  0.2426E+00
      3.758  0.4055E-01  0.2467E+00
      3.858  0.4495E-01  0.2512E+00
      3.958  0.5036E-01  0.2562E+00
      4.059  0.5138E-01  0.2614E+00
      4.159  0.4637E-01  0.2660E+00
      4.259  0.3880E-01  0.2699E+00
      4.360  0.3405E-01  0.2733E+00
      4.460  0.3431E-01  0.2768E+00
      4.560  0.3853E-01  0.2807E+00
      4.660  0.4492E-01  0.2852E+00
      4.761  0.5202E-01  0.2904E+00
      4.861  0.5930E-01  0.2963E+00
      4.961  0.6435E-01  0.3028E+00
      5.062  0.6276E-01  0.3091E+00
      5.162  0.5555E-01  0.3146E+00
      5.262  0.4922E-01  0.3196E+00
      5.362  0.4689E-01  0.3243E+00
      5.463  0.4751E-01  0.3290E+00
      5.563  0.4985E-01  0.3340E+00
      5.663  0.5178E-01  0.3392E+00
      5.764  0.5125E-01  0.3444E+00
      5.864  0.4932E-01  0.3493E+00
      5.964  0.4879E-01  0.3542E+00
      6.064  0.5150E-01  0.3594E+00
      6.165  0.5783E-01  0.3652E+00
      6.265  0.6569E-01  0.3718E+00
      6.365  0.6970E-01  0.3788E+00
      6.465  0.6521E-01  0.3853E+00
      6.566  0.5453E-01  0.3908E+00
      6.666  0.4638E-01  0.3954E+00
      6.766  0.4864E-01  0.4003E+00
      6.867  0.6035E-01  0.4063E+00
      6.967  0.7077E-01  0.4134E+00
      7.067  0.7167E-01  0.4206E+00
      7.167  0.6779E-01  0.4274E+00
      7.268  0.6755E-01  0.4342E+00
      7.368  0.7023E-01  0.4412E+00
      7.468  0.7096E-01  0.4484E+00
      7.569  0.6957E-01  0.4553E+00
      7.669  0.6708E-01  0.4621E+00
      7.769  0.6289E-01  0.4684E+00
      7.869  0.5830E-01  0.4742E+00
      7.970  0.5566E-01  0.4798E+00
      8.070  0.5514E-01  0.4853E+00
      8.170  0.5433E-01  0.4908E+00
      8.271  0.5103E-01  0.4959E+00
      8.371  0.4725E-01  0.5006E+00
      8.471  0.4568E-01  0.5052E+00
      8.571  0.4432E-01  0.5097E+00
      8.672  0.4240E-01  0.5139E+00
      8.772  0.4317E-01  0.5182E+00
      8.872  0.4673E-01  0.5229E+00
      8.973  0.4862E-01  0.5278E+00
      9.073  0.4563E-01  0.5324E+00
      9.173  0.4058E-01  0.5365E+00
      9.273  0.4014E-01  0.5405E+00
      9.374  0.4648E-01  0.5451E+00
      9.474  0.5457E-01  0.5506E+00
      9.574  0.5821E-01  0.5564E+00
      9.675  0.5511E-01  0.5620E+00
      9.775  0.4835E-01  0.5668E+00
      9.875  0.4248E-01  0.5711E+00
      9.975  0.3927E-01  0.5750E+00
     10.076  0.3860E-01  0.5789E+00
     10.176  0.3991E-01  0.5829E+00
     10.276  0.4299E-01  0.5872E+00
     10.377  0.4840E-01  0.5921E+00
     10.477  0.5381E-01  0.5975E+00
     10.577  0.5406E-01  0.6029E+00
     10.677  0.4945E-01  0.6078E+00
     10.778  0.4735E-01  0.6126E+00
     10.878  0.5274E-01  0.6179E+00
     10.978  0.6275E-01  0.6242E+00
     11.079  0.6994E-01  0.6312E+00
     11.179  0.6970E-01  0.6382E+00
     11.279  0.6515E-01  0.6447E+00
     11.379  0.6006E-01  0.6507E+00
     11.480  0.5418E-01  0.6562E+00
     11.580  0.4989E-01  0.6612E+00
     11.680  0.5195E-01  0.6664E+00
     11.780  0.5889E-01  0.6723E+00
     11.881  0.6399E-01  0.6787E+00
     11.981  0.6485E-01  0.6852E+00
     12.081  0.6411E-01  0.6916E+00
     12.182  0.6285E-01  0.6979E+00
     12.282  0.6139E-01  0.7041E+00
     12.382  0.6178E-01  0.7103E+00
     12.482  0.6424E-01  0.7167E+00
     12.583  0.6663E-01  0.7234E+00
     12.683  0.6954E-01  0.7304E+00
     12.783  0.7505E-01  0.7379E+00
     12.884  0.8010E-01  0.7459E+00
     12.984  0.8004E-01  0.7540E+00
     13.084  0.7615E-01  0.7616E+00
     13.184  0.7147E-01  0.7688E+00
     13.285  0.6736E-01  0.7755E+00
     13.385  0.6639E-01  0.7822E+00
     13.485  0.6792E-01  0.7890E+00
     13.586  0.6726E-01  0.7957E+00
     13.686  0.6430E-01  0.8022E+00
     13.786  0.6227E-01  0.8084E+00
     13.886  0.6132E-01  0.8146E+00
     13.987  0.6094E-01  0.8207E+00
     14.087  0.6364E-01  0.8271E+00
     14.187  0.7049E-01  0.8341E+00
     14.288  0.7664E-01  0.8418E+00
     14.388  0.7800E-01  0.8496E+00
     14.488  0.7688E-01  0.8574E+00
     14.588  0.7536E-01  0.8649E+00
     14.689  0.7124E-01  0.8721E+00
     14.789  0.6524E-01  0.8786E+00
     14.889  0.6219E-01  0.8848E+00
     14.990  0.6158E-01  0.8910E+00
     15.090  0.5950E-01  0.8970E+00
     15.190  0.5850E-01  0.9028E+00
     15.290  0.6368E-01  0.9092E+00
     15.391  0.7299E-01  0.9166E+00
     15.491  0.7902E-01  0.9245E+00
     15.591  0.7664E-01  0.9322E+00
     15.692  0.6771E-01  0.9390E+00
     15.792  0.5807E-01  0.9448E+00
     15.892  0.5087E-01  0.9499E+00
     15.992  0.4599E-01  0.9545E+00
     16.093  0.4194E-01  0.9587E+00
     16.193  0.3934E-01  0.9626E+00
     16.293  0.4174E-01  0.9668E+00
     16.393  0.4759E-01  0.9716E+00
     16.494  0.5020E-01  0.9766E+00
     16.594  0.4652E-01  0.9813E+00
     16.694  0.3932E-01  0.9852E+00
     16.795  0.3431E-01  0.9887E+00
     16.895  0.3471E-01  0.9922E+00
     16.995  0.3769E-01  0.9959E+00
     17.095  0.3951E-01  0.9999E+00
     17.196  0.3998E-01  0.1004E+01
     17.296  0.3991E-01  0.1008E+01
     17.396  0.3996E-01  0.1012E+01
     17.497  0.4141E-01  0.1016E+01
     17.597  0.4359E-01  0.1020E+01
     17.697  0.4346E-01  0.1025E+01
     17.797  0.3983E-01  0.1029E+01
     17.898  0.3461E-01  0.1032E+01
     17.998  0.2995E-01  0.1035E+01
     18.098  0.2656E-01  0.1038E+01
     18.199  0.2441E-01  0.1040E+01
     18.299  0.2350E-01  0.1043E+01
     18.399  0.2308E-01  0.1045E+01
     18.499  0.2170E-01  0.1047E+01
     18.600  0.1944E-01  0.1049E+01
     18.700  0.1744E-01  0.1051E+01
     18.800  0.1493E-01  0.1052E+01
     18.901  0.1068E-01  0.1053E+01
     19.001  0.6468E-02  0.1054E+01
     19.101  0.5125E-02  0.1055E+01
     19.201  0.7037E-02  0.1055E+01
     19.302  0.9425E-02  0.1056E+01
     19.402  0.9163E-02  0.1057E+01
     19.502  0.6963E-02  0.1058E+01
     19.603  0.6487E-02  0.1059E+01
     19.703  0.8806E-02  0.1059E+01
     19.803  0.1081E-01  0.1061E+01
     19.903  0.9583E-02  0.1062E+01
     20.004  0.6161E-02  0.1062E+01
     20.104  0.3519E-02  0.1062E+01
     20.204  0.2681E-02  0.1063E+01
     20.305  0.2823E-02  0.1063E+01
     20.405  0.3387E-02  0.1063E+01
     20.505  0.4042E-02  0.1064E+01
     20.605  0.4278E-02  0.1064E+01
     20.706  0.4085E-02  0.1065E+01
     20.806  0.3869E-02  0.1065E+01
     20.906  0.3618E-02  0.1065E+01
     21.007  0.3024E-02  0.1066E+01
     21.107  0.2112E-02  0.1066E+01
     21.207  0.1285E-02  0.1066E+01
     21.307  0.9921E-03  0.1066E+01
     21.408  0.1306E-02  0.1066E+01
     21.508  0.1660E-02  0.1066E+01
     21.608  0.1444E-02  0.1067E+01
     21.708  0.8050E-03  0.1067E+01
     21.809  0.2844E-03  0.1067E+01
     21.909  0.6330E-04  0.1067E+01
     22.009  0.8834E-05  0.1067E+01
     22.110  0.7692E-06  0.1067E+01
     22.210  0.4160E-07  0.1067E+01
     22.310  0.1391E-08  0.1067E+01
     22.410  0.2868E-10  0.1067E+01
     22.511  0.3631E-12  0.1067E+01
     22.611  0.2817E-14  0.1067E+01
     22.711  0.1333E-16  0.1067E+01
     22.812  0.0000E+00  0.1067E+01
     22.912  0.0000E+00  0.1067E+01
     23.012  0.0000E+00  0.1067E+01
     23.112  0.0000E+00  0.1067E+01
     23.213  0.0000E+00  0.1067E+01
     23.313  0.0000E+00  0.1067E+01
     23.413  0.0000E+00  0.1067E+01
     23.514  0.0000E+00  0.1067E+01
