unknown system                          
           1
    -2.450000    2.450000    1.274000
     2.450000   -2.450000    1.274000
     2.450000    2.450000   -1.274000
   Si
   2
Direct configuration=     1
   0.25000000  0.75000000  0.50000000
   0.00000000  0.00000000  0.00000000
unknown system                          
           1
    -2.421581    2.421581    1.307923
     2.421581   -2.421581    1.307923
     2.421581    2.421581   -1.307923
   Si
   2
Direct configuration=     2
   0.25000000  0.75000000  0.50000000
  -0.00000000  0.00000000 -0.00000000
unknown system                          
           1
    -2.416744    2.416744    1.313697
     2.416744   -2.416744    1.313697
     2.416744    2.416744   -1.313697
   Si
   2
Direct configuration=     3
   0.25000000  0.75000000  0.50000000
  -0.00000000  0.00000000 -0.00000000
unknown system                          
           1
    -2.407069    2.407069    1.325245
     2.407069   -2.407069    1.325245
     2.407069    2.407069   -1.325245
   Si
   2
Direct configuration=     4
   0.25000000  0.75000000  0.50000000
  -0.00000000  0.00000000 -0.00000000
unknown system                          
           1
    -2.413164    2.413164    1.317970
     2.413164   -2.413164    1.317970
     2.413164    2.413164   -1.317970
   Si
   2
Direct configuration=     5
   0.25000000  0.75000000  0.50000000
  -0.00000000  0.00000000 -0.00000000
unknown system                          
           1
    -2.414146    2.414146    1.316798
     2.414146   -2.414146    1.316798
     2.414146    2.414146   -1.316798
   Si
   2
Direct configuration=     6
   0.25000000  0.75000000  0.50000000
  -0.00000000  0.00000000 -0.00000000
unknown system                          
           1
    -2.415445    2.415445    1.315247
     2.415445   -2.415445    1.315247
     2.415445    2.415445   -1.315247
   Si
   2
Direct configuration=     7
   0.25000000  0.75000000  0.50000000
  -0.00000000  0.00000000 -0.00000000
unknown system                          
           1
    -2.415989    2.415989    1.314598
     2.415989   -2.415989    1.314598
     2.415989    2.415989   -1.314598
   Si
   2
Direct configuration=     8
   0.25000000  0.75000000  0.50000000
  -0.00000000  0.00000000 -0.00000000
unknown system                          
           1
    -2.415726    2.415726    1.314912
     2.415726   -2.415726    1.314912
     2.415726    2.415726   -1.314912
   Si
   2
Direct configuration=     9
   0.25000000  0.75000000  0.50000000
  -0.00000000  0.00000000 -0.00000000
unknown system                          
           1
    -2.415569    2.415569    1.315100
     2.415569   -2.415569    1.315100
     2.415569    2.415569   -1.315100
   Si
   2
Direct configuration=    10
   0.25000000  0.75000000  0.50000000
  -0.00000000  0.00000000 -0.00000000
unknown system                          
           1
    -2.415512    2.415512    1.315167
     2.415512   -2.415512    1.315167
     2.415512    2.415512   -1.315167
   Si
   2
Direct configuration=    11
   0.25000000  0.75000000  0.50000000
  -0.00000000  0.00000000 -0.00000000
unknown system                          
           1
    -2.415479    2.415479    1.315207
     2.415479   -2.415479    1.315207
     2.415479    2.415479   -1.315207
   Si
   2
Direct configuration=    12
   0.25000000  0.75000000  0.50000000
  -0.00000000  0.00000000 -0.00000000
unknown system                          
           1
    -2.415462    2.415462    1.315227
     2.415462   -2.415462    1.315227
     2.415462    2.415462   -1.315227
   Si
   2
Direct configuration=    13
   0.25000000  0.75000000  0.50000000
  -0.00000000  0.00000000 -0.00000000
unknown system                          
           1
    -2.415453    2.415453    1.315237
     2.415453   -2.415453    1.315237
     2.415453    2.415453   -1.315237
   Si
   2
Direct configuration=    14
   0.25000000  0.75000000  0.50000000
  -0.00000000  0.00000000 -0.00000000
unknown system                          
           1
    -2.415449    2.415449    1.315242
     2.415449   -2.415449    1.315242
     2.415449    2.415449   -1.315242
   Si
   2
Direct configuration=    15
   0.25000000  0.75000000  0.50000000
  -0.00000000  0.00000000 -0.00000000
