unknown system                          
   1.00000000000000     
     0.000000    2.715000    2.715000
     2.715000    0.000000    2.715000
     2.715000    2.715000    0.000000
   Si
     2
Direct
  0.500000  0.500000  0.500000
  0.750000  0.750000  0.750000
 
   32   32   32
 0.80602630985E+00 0.82685183930E+00 0.89113359068E+00 0.10039572366E+01 0.11728561878E+01
 0.14068028883E+01 0.17152025059E+01 0.21065861179E+01 0.25862997906E+01 0.31527388712E+01
 0.37927036087E+01 0.44776040842E+01 0.51626198163E+01 0.57901996256E+01 0.62979010281E+01
 0.66291363058E+01 0.67442816188E+01 0.66290946641E+01 0.62978536611E+01 0.57901933092E+01
 0.51626767374E+01 0.44777023275E+01 0.37927918429E+01 0.31527750061E+01 0.25862798490E+01
 0.21065391823E+01 0.17151619073E+01 0.14067834148E+01 0.11728534564E+01 0.10039605649E+01
 0.89113636194E+00 0.82685283481E+00 0.82685183930E+00 0.86260848238E+00 0.93714178281E+00
 0.10559105462E+01 0.12258246655E+01 0.14541524308E+01 0.17474382277E+01 0.21101839920E+01
 0.25428198996E+01 0.30387675938E+01 0.35811931196E+01 0.41408716356E+01 0.46767902366E+01
 0.51404092941E+01 0.54831862827E+01 0.56656639480E+01 0.56656649466E+01 0.54831752656E+01
 0.51403730040E+01 0.46767524735E+01 0.41408709647E+01 0.35812298104E+01 0.30387987073E+01
 0.25428099083E+01 0.21101420836E+01 0.17474009382E+01 0.14541438126E+01 0.12258402331E+01
 0.10559304783E+01 0.93715130847E+00 0.86260750387E+00 0.82684969453E+00 0.89113359068E+00
 0.93714178281E+00 0.10179161368E+01 0.11387077073E+01 0.13053246779E+01 0.15230737159E+01
 0.17957388259E+01 0.21243916626E+01 0.25057330008E+01 0.29299376487E+01 0.33785746271E+01
 0.38237537030E+01 0.42297076721E+01 0.45573053598E+01 0.47707897069E+01 0.48449823125E+01
 0.47707983468E+01 0.45573190397E+01 0.42297284358E+01 0.38237807805E+01 0.33785886879E+01
 0.29299153790E+01 0.25056797450E+01 0.21243405414E+01 0.17957145508E+01 0.15230737713E+01
 0.13053360878E+01 0.11387225481E+01 0.10179275197E+01 0.93714340202E+00 0.89112933198E+00
 0.87623158922E+00 0.10039572366E+01 0.10559105462E+01 0.11387077073E+01 0.12569691764E+01
 0.14151783227E+01 0.16167714576E+01 0.18632562112E+01 0.21531805089E+01 0.24808003220E+01
 0.28345668182E+01 0.31959920832E+01 0.35397890884E+01 0.38360711598E+01 0.40547147050E+01
 0.41710152863E+01 0.41710099203E+01 0.40547073794E+01 0.38360814766E+01 0.35398253155E+01
 0.31960293923E+01 0.28345623708E+01 0.24807412161E+01 0.21531042675E+01 0.18632117198E+01
 0.16167712078E+01 0.14152000870E+01 0.12569898435E+01 0.11387188388E+01 0.10559114035E+01
 0.10039515068E+01 0.97904495235E+00 0.97904861134E+00 0.11728561878E+01 0.12258246655E+01
 0.13053246779E+01 0.14151783227E+01 0.15586497702E+01 0.17377281086E+01 0.19523547424E+01
 0.21994839169E+01 0.24720114039E+01 0.27578322461E+01 0.30395131628E+01 0.32951670141E+01
 0.35009265397E+01 0.36348542923E+01 0.36813809056E+01 0.36348576570E+01 0.35009219396E+01
 0.32951433071E+01 0.30394709272E+01 0.27577843704E+01 0.24719728908E+01 0.21994617341E+01
 0.19523471763E+01 0.17377320145E+01 0.15586650415E+01 0.14152030942E+01 0.13053489819E+01
 0.12258351169E+01 0.11728497913E+01 0.11428025630E+01 0.11331075262E+01 0.11428132419E+01
 0.14068028883E+01 0.14541524308E+01 0.15230737159E+01 0.16167714576E+01 0.17377281086E+01
 0.18871031460E+01 0.20639687137E+01 0.22644198557E+01 0.24807989102E+01 0.27013428053E+01
 0.29105347416E+01 0.30904160857E+01 0.32229951052E+01 0.32934815839E+01 0.32934839734E+01
 0.32230041313E+01 0.30904231583E+01 0.29105135024E+01 0.27012826529E+01 0.24807340344E+01
 0.22643993606E+01 0.20640021420E+01 0.18871558431E+01 0.17377657667E+01 0.16167884950E+01
 0.15230793717E+01 0.14541506369E+01 0.14067936604E+01 0.13776606796E+01 0.13639190641E+01
 0.13639243446E+01 0.13776722901E+01 0.17152025059E+01 0.17474382277E+01 0.17957388259E+01
 0.18632562112E+01 0.19523547424E+01 0.20639687137E+01 0.21967986964E+01 0.23465777907E+01
 0.25057320573E+01 0.26636145706E+01 0.28073273838E+01 0.29231505976E+01 0.29985969592E+01
 0.30248141913E+01 0.29985969695E+01 0.29231637487E+01 0.28073534986E+01 0.26636369735E+01
 0.25057433687E+01 0.23465880785E+01 0.21968150476E+01 0.20639858087E+01 0.19523671926E+01
 0.18632620985E+01 0.17957313143E+01 0.17474127371E+01 0.17151719427E+01 0.16955754408E+01
 0.16854001959E+01 0.16822954160E+01 0.16854016174E+01 0.16955917132E+01 0.21065861179E+01
 0.21101839920E+01 0.21243916626E+01 0.21531805089E+01 0.21994839169E+01 0.22644198557E+01
 0.23465777907E+01 0.24416828096E+01 0.25428194538E+01 0.26411389966E+01 0.27268677946E+01
 0.27905547042E+01 0.28245613631E+01 0.28245695839E+01 0.27905741990E+01 0.27268871298E+01
 0.26411532801E+01 0.25428392400E+01 0.24417179386E+01 0.23466112638E+01 0.22644168998E+01
 0.21994339227E+01 0.21531117608E+01 0.21243362519E+01 0.21101476846E+01 0.21065624564E+01
 0.21092274180E+01 0.21139446527E+01 0.21172811092E+01 0.21172760269E+01 0.21139395858E+01
 0.21092365804E+01 0.25862997906E+01 0.25428198996E+01 0.25057330008E+01 0.24808003220E+01
 0.24720114039E+01 0.24807989102E+01 0.25057320573E+01 0.25428194538E+01 0.25862979268E+01
 0.26296078255E+01 0.26663034855E+01 0.26908695937E+01 0.26995215109E+01 0.26908950778E+01
 0.26663362057E+01 0.26296230495E+01 0.25862820373E+01 0.25427789634E+01 0.25056840606E+01
 0.24807532044E+01 0.24719643435E+01 0.24807450193E+01 0.25056717084E+01 0.25427659599E+01
 0.25862700592E+01 0.26296143975E+01 0.26663332727E+01 0.26908969422E+01 0.26995246791E+01
 0.26908724552E+01 0.26663068322E+01 0.26296113006E+01 0.31527388712E+01 0.30387675938E+01
 0.29299376487E+01 0.28345668182E+01 0.27578322461E+01 0.27013428053E+01 0.26636145706E+01
 0.26411389966E+01 0.26296078255E+01 0.26249171704E+01 0.26237463655E+01 0.26237780407E+01
 0.26237952009E+01 0.26237783294E+01 0.26249326973E+01 0.26295968647E+01 0.26410993033E+01
 0.26635351954E+01 0.27012317791E+01 0.27577372556E+01 0.28345329814E+01 0.29299555144E+01
 0.30387916702E+01 0.31527473094E+01 0.32616453361E+01 0.33549478284E+01 0.34232020899E+01
 0.34592580036E+01 0.34592459581E+01 0.34231750313E+01 0.33549255845E+01 0.32616373712E+01
 0.37927036087E+01 0.35811931196E+01 0.33785746271E+01 0.31959920832E+01 0.30395131628E+01
 0.29105347416E+01 0.28073273838E+01 0.27268677946E+01 0.26663034855E+01 0.26237463655E+01
 0.25983516280E+01 0.25899079938E+01 0.25983787088E+01 0.26237543628E+01 0.26662715291E+01
 0.27268190947E+01 0.28072771852E+01 0.29104748730E+01 0.30394535201E+01 0.31959656102E+01
 0.33785922839E+01 0.35812364051E+01 0.37927612145E+01 0.39981094823E+01 0.41805409810E+01
 0.43241552538E+01 0.44160052010E+01 0.44476219901E+01 0.44160272257E+01 0.43241516459E+01
 0.41804908075E+01 0.39980417365E+01 0.44776040842E+01 0.41408716356E+01 0.38237537030E+01
 0.35397890884E+01 0.32951670141E+01 0.30904160857E+01 0.29231505976E+01 0.27905547042E+01
 0.26908695937E+01 0.26237780407E+01 0.25899079938E+01 0.25899134001E+01 0.26237795324E+01
 0.26908434598E+01 0.27904970273E+01 0.29230775356E+01 0.30903531711E+01 0.32951432594E+01
 0.35398165094E+01 0.38238045864E+01 0.41409048353E+01 0.44776184176E+01 0.48135547469E+01
 0.51239929835E+01 0.53836605297E+01 0.55704319086E+01 0.56681061522E+01 0.56681324813E+01
 0.55704721204E+01 0.53836590693E+01 0.51239577529E+01 0.48135287076E+01 0.51626198163E+01
 0.46767902366E+01 0.42297076721E+01 0.38360711598E+01 0.35009265397E+01 0.32229951052E+01
 0.29985969592E+01 0.28245613631E+01 0.26995215109E+01 0.26237952009E+01 0.25983787088E+01
 0.26237795324E+01 0.26994927918E+01 0.28245162860E+01 0.29985328083E+01 0.32229251925E+01
 0.35008765543E+01 0.38360594644E+01 0.42297362354E+01 0.46768460957E+01 0.51626718278E+01
 0.56619473899E+01 0.61411988091E+01 0.65634938773E+01 0.68939089919E+01 0.71042695414E+01
 0.71764694113E+01 0.71042965507E+01 0.68939734528E+01 0.65635781690E+01 0.61412537867E+01
 0.56619407116E+01 0.57901996256E+01 0.51404092941E+01 0.45573053598E+01 0.40547147050E+01
 0.36348542923E+01 0.32934815839E+01 0.30248141913E+01 0.28245695839E+01 0.26908950778E+01
 0.26237783294E+01 0.26237543628E+01 0.26908434598E+01 0.28245162860E+01 0.30247559200E+01
 0.32934167775E+01 0.36348098370E+01 0.40547071883E+01 0.45573129965E+01 0.51404142715E+01
 0.57902153045E+01 0.64784037629E+01 0.71633722981E+01 0.77953952235E+01 0.83237753225E+01
 0.87038416803E+01 0.89026024349E+01 0.89026103373E+01 0.87038807950E+01 0.83238490814E+01
 0.77954568556E+01 0.71633801200E+01 0.64783789182E+01 0.62979010281E+01 0.54831862827E+01
 0.47707897069E+01 0.41710152863E+01 0.36813809056E+01 0.32934839734E+01 0.29985969695E+01
 0.27905741990E+01 0.26663362057E+01 0.26249326973E+01 0.26662715291E+01 0.27904970273E+01
 0.29985328083E+01 0.32934167775E+01 0.36813203164E+01 0.41710080362E+01 0.47708409607E+01
 0.54832301464E+01 0.62978809879E+01 0.71866248592E+01 0.81026078001E+01 0.89846104208E+01
 0.97648987238E+01 0.10378212995E+02 0.10770301587E+02 0.10905183936E+02 0.10770253515E+02
 0.10378141489E+02 0.97648380178E+01 0.89845927822E+01 0.81026460408E+01 0.71866861954E+01
 0.66291363058E+01 0.56656639480E+01 0.48449823125E+01 0.41710099203E+01 0.36348576570E+01
 0.32230041313E+01 0.29231637487E+01 0.27268871298E+01 0.26296230495E+01 0.26295968647E+01
 0.27268190947E+01 0.29230775356E+01 0.32229251925E+01 0.36348098370E+01 0.41710080362E+01
 0.48450159922E+01 0.56656974735E+01 0.66291349511E+01 0.77111822931E+01 0.88642654888E+01
 0.10019952769E+02 0.11095932389E+02 0.12005125580E+02 0.12666036739E+02 0.13014350558E+02
 0.13014269704E+02 0.12665850794E+02 0.12004951141E+02 0.11095848872E+02 0.10019961093E+02
 0.88643170222E+01 0.77112238936E+01 0.67442816188E+01 0.56656649466E+01 0.47707983468E+01
 0.40547073794E+01 0.35009219396E+01 0.30904231583E+01 0.28073534986E+01 0.26411532801E+01
 0.25862820373E+01 0.26410993033E+01 0.28072771852E+01 0.30903531711E+01 0.35008765543E+01
 0.40547071883E+01 0.47708409607E+01 0.56656974735E+01 0.67442499357E+01 0.79906199895E+01
 0.93621843995E+01 0.10789740186E+02 0.12182603591E+02 0.13435794956E+02 0.14439069630E+02
 0.15090196594E+02 0.15315687905E+02 0.15090093617E+02 0.14438901947E+02 0.13435607091E+02
 0.12182441589E+02 0.10789658877E+02 0.93622070724E+01 0.79906915476E+01 0.66290946641E+01
 0.54831752656E+01 0.45573190397E+01 0.38360814766E+01 0.32951433071E+01 0.29105135024E+01
 0.26636369735E+01 0.25428392400E+01 0.25427789634E+01 0.26635351954E+01 0.29104748730E+01
 0.32951432594E+01 0.38360594644E+01 0.45573129965E+01 0.54832301464E+01 0.66291349511E+01
 0.79906199895E+01 0.95354228268E+01 0.11201066414E+02 0.12897509191E+02 0.14511043331E+02
 0.15906059243E+02 0.16932586719E+02 0.17475710578E+02 0.17475691326E+02 0.16932504925E+02
 0.15905867585E+02 0.14510752520E+02 0.12897248526E+02 0.11200980971E+02 0.95354916637E+01
 0.79906768441E+01 0.62978536611E+01 0.51403730040E+01 0.42297284358E+01 0.35398253155E+01
 0.30394709272E+01 0.27012826529E+01 0.25057433687E+01 0.24417179386E+01 0.25056840606E+01
 0.27012317791E+01 0.30394535201E+01 0.35398165094E+01 0.42297362354E+01 0.51404142715E+01
 0.62978809879E+01 0.77111822931E+01 0.93621843995E+01 0.11201066414E+02 0.13147217380E+02
 0.15090328547E+02 0.16877173953E+02 0.18316765076E+02 0.19250364026E+02 0.19573738199E+02
 0.19250209918E+02 0.18316603767E+02 0.16877055681E+02 0.15090164412E+02 0.13146998139E+02
 0.11200920936E+02 0.93621718297E+01 0.77112046997E+01 0.57901933092E+01 0.46767524735E+01
 0.38237807805E+01 0.31960293923E+01 0.27577843704E+01 0.24807340344E+01 0.23465880785E+01
 0.23466112638E+01 0.24807532044E+01 0.27577372556E+01 0.31959656102E+01 0.38238045864E+01
 0.46768460957E+01 0.57902153045E+01 0.71866248592E+01 0.88642654888E+01 0.10789740186E+02
 0.12897509191E+02 0.15090328547E+02 0.17216997799E+02 0.19060430952E+02 0.20421105203E+02
 0.21144776530E+02 0.21144663334E+02 0.20420940573E+02 0.19060449279E+02 0.17217104145E+02
 0.15090247928E+02 0.12897225794E+02 0.10789523273E+02 0.88642702672E+01 0.71867074958E+01
 0.51626767374E+01 0.41408709647E+01 0.33785886879E+01 0.28345623708E+01 0.24719728908E+01
 0.22643993606E+01 0.21968150476E+01 0.22644168998E+01 0.24719643435E+01 0.28345329814E+01
 0.33785922839E+01 0.41409048353E+01 0.51626718278E+01 0.64784037629E+01 0.81026078001E+01
 0.10019952769E+02 0.12182603591E+02 0.14511043331E+02 0.16877173953E+02 0.19060430952E+02
 0.20830629964E+02 0.21989008839E+02 0.22392830888E+02 0.21989022961E+02 0.20830680827E+02
 0.19060503663E+02 0.16877189797E+02 0.14510934451E+02 0.12182417906E+02 0.10019826664E+02
 0.81026085164E+01 0.64784564986E+01 0.44777023275E+01 0.35812298104E+01 0.29299153790E+01
 0.24807412161E+01 0.21994617341E+01 0.20640021420E+01 0.20639858087E+01 0.21994339227E+01
 0.24807450193E+01 0.29299555144E+01 0.35812364051E+01 0.44776184176E+01 0.56619473899E+01
 0.71633722981E+01 0.89846104208E+01 0.11095932389E+02 0.13435794956E+02 0.15906059243E+02
 0.18316765076E+02 0.20421105203E+02 0.21989008839E+02 0.22829547788E+02 0.22829626789E+02
 0.21989136556E+02 0.20421127835E+02 0.18316704874E+02 0.15906019594E+02 0.13435759189E+02
 0.11095829424E+02 0.89844939067E+01 0.71633673794E+01 0.56620519070E+01 0.37927918429E+01
 0.30387987073E+01 0.25056797450E+01 0.21531042675E+01 0.19523471763E+01 0.18871558431E+01
 0.19523671926E+01 0.21531117608E+01 0.25056717084E+01 0.30387916702E+01 0.37927612145E+01
 0.48135547469E+01 0.61411988091E+01 0.77953952235E+01 0.97648987238E+01 0.12005125580E+02
 0.14439069630E+02 0.16932586719E+02 0.19250364026E+02 0.21144776530E+02 0.22392830888E+02
 0.22829626789E+02 0.22392969276E+02 0.21144925645E+02 0.19250426232E+02 0.16932565523E+02
 0.14438992994E+02 0.12005012699E+02 0.97648099619E+01 0.77954034486E+01 0.61412914835E+01
 0.48136403052E+01 0.31527750061E+01 0.25428099083E+01 0.21243405414E+01 0.18632117198E+01
 0.17377320145E+01 0.17377657667E+01 0.18632620985E+01 0.21243362519E+01 0.25427659599E+01
 0.31527473094E+01 0.39981094823E+01 0.51239929835E+01 0.65634938773E+01 0.83237753225E+01
 0.10378212995E+02 0.12666036739E+02 0.15090196594E+02 0.17475710578E+02 0.19573738199E+02
 0.21144663334E+02 0.21989022961E+02 0.21989136556E+02 0.21144925645E+02 0.19573979009E+02
 0.17475799270E+02 0.15090122808E+02 0.12665899521E+02 0.10378141952E+02 0.83238227943E+01
 0.65635977467E+01 0.51240610537E+01 0.39981300277E+01 0.25862798490E+01 0.21101420836E+01
 0.17957145508E+01 0.16167712078E+01 0.15586650415E+01 0.16167884950E+01 0.17957313143E+01
 0.21101476846E+01 0.25862700592E+01 0.32616453361E+01 0.41805409810E+01 0.53836605297E+01
 0.68939089919E+01 0.87038416803E+01 0.10770301587E+02 0.13014350558E+02 0.15315687905E+02
 0.17475691326E+02 0.19250209918E+02 0.20420940573E+02 0.20830680827E+02 0.20421127835E+02
 0.19250426232E+02 0.17475799270E+02 0.15315687103E+02 0.13014316354E+02 0.10770289887E+02
 0.87038725404E+01 0.68939857495E+01 0.53837621132E+01 0.41806242333E+01 0.32616863982E+01
 0.21065391823E+01 0.17474009382E+01 0.15230737713E+01 0.14152000870E+01 0.14152030942E+01
 0.15230793717E+01 0.17474127371E+01 0.21065624564E+01 0.26296143975E+01 0.33549478284E+01
 0.43241552538E+01 0.55704319086E+01 0.71042695414E+01 0.89026024349E+01 0.10905183936E+02
 0.13014269704E+02 0.15090093617E+02 0.16932504925E+02 0.18316603767E+02 0.19060449279E+02
 0.19060503663E+02 0.18316704874E+02 0.16932565523E+02 0.15090122808E+02 0.13014316354E+02
 0.10905236749E+02 0.89026315722E+01 0.71043114828E+01 0.55705363069E+01 0.43242841531E+01
 0.33550188103E+01 0.26296125262E+01 0.17151619073E+01 0.14541438126E+01 0.13053360878E+01
 0.12569898435E+01 0.13053489819E+01 0.14541506369E+01 0.17151719427E+01 0.21092274180E+01
 0.26663332727E+01 0.34232020899E+01 0.44160052010E+01 0.56681061522E+01 0.71764694113E+01
 0.89026103373E+01 0.10770253515E+02 0.12665850794E+02 0.14438901947E+02 0.15905867585E+02
 0.16877055681E+02 0.17217104145E+02 0.16877189797E+02 0.15906019594E+02 0.14438992994E+02
 0.12665899521E+02 0.10770289887E+02 0.89026315722E+01 0.71764964033E+01 0.56681816727E+01
 0.44161100126E+01 0.34232611603E+01 0.26663223016E+01 0.21091982465E+01 0.14067834148E+01
 0.12258402331E+01 0.11387225481E+01 0.11387188388E+01 0.12258351169E+01 0.14067936604E+01
 0.16955754408E+01 0.21139446527E+01 0.26908969422E+01 0.34592580036E+01 0.44476219901E+01
 0.56681324813E+01 0.71042965507E+01 0.87038807950E+01 0.10378141489E+02 0.12004951141E+02
 0.13435607091E+02 0.14510752520E+02 0.15090164412E+02 0.15090247928E+02 0.14510934451E+02
 0.13435759189E+02 0.12005012699E+02 0.10378141952E+02 0.87038725404E+01 0.71043114828E+01
 0.56681816727E+01 0.44476901232E+01 0.34593038291E+01 0.26908901862E+01 0.21139017231E+01
 0.16955387230E+01 0.11728534564E+01 0.10559304783E+01 0.10179275197E+01 0.10559114035E+01
 0.11728497913E+01 0.13776606796E+01 0.16854001959E+01 0.21172811092E+01 0.26995246791E+01
 0.34592459581E+01 0.44160272257E+01 0.55704721204E+01 0.68939734528E+01 0.83238490814E+01
 0.97648380178E+01 0.11095848872E+02 0.12182441589E+02 0.12897248526E+02 0.13146998139E+02
 0.12897225794E+02 0.12182417906E+02 0.11095829424E+02 0.97648099619E+01 0.83238227943E+01
 0.68939857495E+01 0.55705363069E+01 0.44161100126E+01 0.34593038291E+01 0.26995387137E+01
 0.21172555582E+01 0.16853555702E+01 0.13776300453E+01 0.10039605649E+01 0.93715130847E+00
 0.93714340202E+00 0.10039515068E+01 0.11428025630E+01 0.13639190641E+01 0.16822954160E+01
 0.21172760269E+01 0.26908724552E+01 0.34231750313E+01 0.43241516459E+01 0.53836590693E+01
 0.65635781690E+01 0.77954568556E+01 0.89845927822E+01 0.10019961093E+02 0.10789658877E+02
 0.11200980971E+02 0.11200920936E+02 0.10789523273E+02 0.10019826664E+02 0.89844939067E+01
 0.77954034486E+01 0.65635977467E+01 0.53837621132E+01 0.43242841531E+01 0.34232611603E+01
 0.26908901862E+01 0.21172555582E+01 0.16822656720E+01 0.13638930172E+01 0.11427929074E+01
 0.89113636194E+00 0.86260750387E+00 0.89112933198E+00 0.97904495235E+00 0.11331075262E+01
 0.13639243446E+01 0.16854016174E+01 0.21139395858E+01 0.26663068322E+01 0.33549255845E+01
 0.41804908075E+01 0.51239577529E+01 0.61412537867E+01 0.71633801200E+01 0.81026460408E+01
 0.88643170222E+01 0.93622070724E+01 0.95354916637E+01 0.93621718297E+01 0.88642702672E+01
 0.81026085164E+01 0.71633673794E+01 0.61412914835E+01 0.51240610537E+01 0.41806242333E+01
 0.33550188103E+01 0.26663223016E+01 0.21139017231E+01 0.16853555702E+01 0.13638930172E+01
 0.11330939363E+01 0.97904646736E+00 0.82685283481E+00 0.82684969453E+00 0.87623158922E+00
 0.97904861134E+00 0.11428132419E+01 0.13776722901E+01 0.16955917132E+01 0.21092365804E+01
 0.26296113006E+01 0.32616373712E+01 0.39980417365E+01 0.48135287076E+01 0.56619407116E+01
 0.64783789182E+01 0.71866861954E+01 0.77112238936E+01 0.79906915476E+01 0.79906768441E+01
 0.77112046997E+01 0.71867074958E+01 0.64784564986E+01 0.56620519070E+01 0.48136403052E+01
 0.39981300277E+01 0.32616863982E+01 0.26296125262E+01 0.21091982465E+01 0.16955387230E+01
 0.13776300453E+01 0.11427929074E+01 0.97904646736E+00 0.87623703361E+00 0.82685376919E+00
 0.86261099567E+00 0.93714364518E+00 0.10559117524E+01 0.12258264123E+01 0.14541546425E+01
 0.17474396525E+01 0.21101847057E+01 0.25428211576E+01 0.30387692561E+01 0.35811938004E+01
 0.41408713719E+01 0.46767904551E+01 0.51404101978E+01 0.54831868833E+01 0.56656647021E+01
 0.56656677704E+01 0.54831807906E+01 0.51403800639E+01 0.46767600005E+01 0.41408778078E+01
 0.35812330131E+01 0.30387950539E+01 0.25427996815E+01 0.21101290582E+01 0.17473886447E+01
 0.14541339415E+01 0.12258340733E+01 0.10559288192E+01 0.93715269556E+00 0.86260926433E+00
 0.82685103159E+00 0.86261099567E+00 0.90712312774E+00 0.98546000880E+00 0.11029341647E+01
 0.12654303515E+01 0.14783199794E+01 0.17453918968E+01 0.20676457368E+01 0.24416829616E+01
 0.28576505043E+01 0.32972727921E+01 0.37330973674E+01 0.41301224104E+01 0.44502333447E+01
 0.46587136703E+01 0.47311495817E+01 0.46587198102E+01 0.44502149538E+01 0.41300792892E+01
 0.37330715982E+01 0.32972836248E+01 0.28576582374E+01 0.24416436123E+01 0.20675741562E+01
 0.17453418802E+01 0.14783180492E+01 0.12654554838E+01 0.11029547510E+01 0.98546639790E+00
 0.90712279930E+00 0.86261045955E+00 0.84821729314E+00 0.93714364518E+00 0.98546000880E+00
 0.10629986081E+01 0.11745864071E+01 0.13248929097E+01 0.15174360382E+01 0.17536624851E+01
 0.20319801224E+01 0.23465781801E+01 0.26860859051E+01 0.30325670483E+01 0.33617148092E+01
 0.36449973373E+01 0.38538149380E+01 0.39648099349E+01 0.39648111821E+01 0.38538193707E+01
 0.36450076625E+01 0.33617306378E+01 0.30325754751E+01 0.26860687460E+01 0.23465358530E+01
 0.20319374117E+01 0.17536424201E+01 0.15174384911E+01 0.13249050952E+01 0.11746005210E+01
 0.10630096076E+01 0.98546040203E+00 0.93713394719E+00 0.91408557463E+00 0.91409183201E+00
 0.10559117524E+01 0.11029341647E+01 0.11745864071E+01 0.12750503181E+01 0.14078313231E+01
 0.15749367610E+01 0.17761530493E+01 0.20083060937E+01 0.22644212941E+01 0.25329284497E+01
 0.27973654206E+01 0.30371830368E+01 0.32300506253E+01 0.33555009311E+01 0.33990515997E+01
 0.33554780901E+01 0.32300394881E+01 0.30372043903E+01 0.27973952316E+01 0.25329261889E+01
 0.22643803705E+01 0.20082615714E+01 0.17761398710E+01 0.15749538531E+01 0.14078517449E+01
 0.12750557284E+01 0.11745811747E+01 0.11029308550E+01 0.10559145514E+01 0.10295873282E+01
 0.10211471192E+01 0.10295832625E+01 0.12258264123E+01 0.12654303515E+01 0.13248929097E+01
 0.14078313231E+01 0.15168993751E+01 0.16531601933E+01 0.18154975048E+01 0.20000167033E+01
 0.21994847240E+01 0.24030018626E+01 0.25962278986E+01 0.27625193267E+01 0.28851559177E+01
 0.29503748596E+01 0.29503675313E+01 0.28851431232E+01 0.27625117838E+01 0.25962184622E+01
 0.24029792286E+01 0.21994555918E+01 0.19999979436E+01 0.18154938784E+01 0.16531640856E+01
 0.15169053603E+01 0.14078378453E+01 0.13248958000E+01 0.12654271271E+01 0.12258222634E+01
 0.12022288909E+01 0.11913755602E+01 0.11913743739E+01 0.12022288927E+01 0.14541546425E+01
 0.14783199794E+01 0.15174360382E+01 0.15749367610E+01 0.16531601933E+01 0.17528378663E+01
 0.18725607003E+01 0.20083056222E+01 0.21531799702E+01 0.22975155728E+01 0.24294466367E+01
 0.25361535983E+01 0.26058394256E+01 0.26300934176E+01 0.26058565637E+01 0.25361786407E+01
 0.24294543236E+01 0.22974875795E+01 0.21531381302E+01 0.20082940001E+01 0.18725890995E+01
 0.17528703190E+01 0.16531663903E+01 0.15749273872E+01 0.15174348961E+01 0.14783258223E+01
 0.14541490770E+01 0.14409395287E+01 0.14349033398E+01 0.14332455674E+01 0.14349227914E+01
 0.14409605559E+01 0.17474396525E+01 0.17453918968E+01 0.17536624851E+01 0.17761530493E+01
 0.18154975048E+01 0.18725607003E+01 0.19459888274E+01 0.20319803748E+01 0.21243916144E+01
 0.22151646119E+01 0.22950751773E+01 0.23548981512E+01 0.23870001065E+01 0.23870112718E+01
 0.23549247308E+01 0.22950996425E+01 0.22151723321E+01 0.21243874405E+01 0.20319836897E+01
 0.19460077780E+01 0.18725827104E+01 0.18155101249E+01 0.17761595567E+01 0.17536681815E+01
 0.17453902710E+01 0.17474245400E+01 0.17551285021E+01 0.17637354580E+01 0.17692113816E+01
 0.17692150885E+01 0.17637486335E+01 0.17551488658E+01 0.21101847057E+01 0.20676457368E+01
 0.20319801224E+01 0.20083060937E+01 0.20000167033E+01 0.20083056222E+01 0.20319803748E+01
 0.20676467454E+01 0.21101853269E+01 0.21533734645E+01 0.21906172949E+01 0.22158859271E+01
 0.22248468454E+01 0.22159002930E+01 0.21906253218E+01 0.21533669039E+01 0.21101808995E+01
 0.20676567130E+01 0.20319885246E+01 0.20082899904E+01 0.19999858062E+01 0.20082904942E+01
 0.20319891506E+01 0.20676555667E+01 0.21101759986E+01 0.21533590732E+01 0.21906175882E+01
 0.22158943915E+01 0.22248423947E+01 0.22158827218E+01 0.21906158300E+01 0.21533731505E+01
 0.25428211576E+01 0.24416829616E+01 0.23465781801E+01 0.22644212941E+01 0.21994847240E+01
 0.21531799702E+01 0.21243916144E+01 0.21101853269E+01 0.21065871499E+01 0.21092366116E+01
 0.21139407614E+01 0.21172799563E+01 0.21172868887E+01 0.21139516710E+01 0.21092365234E+01
 0.21065726192E+01 0.21101550306E+01 0.21243383392E+01 0.21531097179E+01 0.21994289312E+01
 0.22644081206E+01 0.23465989655E+01 0.24417051824E+01 0.25428285580E+01 0.26411447768E+01
 0.27268812625E+01 0.27905728326E+01 0.28245725212E+01 0.28245652651E+01 0.27905573019E+01
 0.27268700499E+01 0.26411416850E+01 0.30387692561E+01 0.28576505043E+01 0.26860859051E+01
 0.25329284497E+01 0.24030018626E+01 0.22975155728E+01 0.22151646119E+01 0.21533734645E+01
 0.21092366116E+01 0.20800422794E+01 0.20635484915E+01 0.20582311825E+01 0.20635453545E+01
 0.20800437944E+01 0.21092415619E+01 0.21533509142E+01 0.22150735100E+01 0.22973702961E+01
 0.24028941045E+01 0.25329415697E+01 0.26861979855E+01 0.28577631953E+01 0.30388228471E+01
 0.32171012433E+01 0.33780716982E+01 0.35067898144E+01 0.35901162297E+01 0.36189714339E+01
 0.35901011968E+01 0.35067661599E+01 0.33780539644E+01 0.32170853170E+01 0.35811938004E+01
 0.32972727921E+01 0.30325670483E+01 0.27973654206E+01 0.25962278986E+01 0.24294466367E+01
 0.22950751773E+01 0.21906172949E+01 0.21139407614E+01 0.20635484915E+01 0.20385453980E+01
 0.20385343079E+01 0.20635304417E+01 0.21139324012E+01 0.21905905546E+01 0.22949732968E+01
 0.24292709684E+01 0.25960854352E+01 0.27973803969E+01 0.30327426239E+01 0.32974847854E+01
 0.35813292652E+01 0.38682433256E+01 0.41376349614E+01 0.43667732138E+01 0.45340309121E+01
 0.46223701086E+01 0.46223658722E+01 0.45340136820E+01 0.43667450123E+01 0.41376051551E+01
 0.38681879919E+01 0.41408713719E+01 0.37330973674E+01 0.33617148092E+01 0.30371830368E+01
 0.27625193267E+01 0.25361535983E+01 0.23548981512E+01 0.22158859271E+01 0.21172799563E+01
 0.20582311825E+01 0.20385343079E+01 0.20582119183E+01 0.21172684256E+01 0.22158500469E+01
 0.23547560801E+01 0.25359122183E+01 0.27623350923E+01 0.30372161163E+01 0.33619489587E+01
 0.37333613856E+01 0.41410247921E+01 0.45658165221E+01 0.49805470194E+01 0.53527265982E+01
 0.56489510852E+01 0.58400731684E+01 0.59061516598E+01 0.58400800745E+01 0.56489492591E+01
 0.53527175707E+01 0.49805394742E+01 0.45657730384E+01 0.46767904551E+01 0.41301224104E+01
 0.36449973373E+01 0.32300506253E+01 0.28851559177E+01 0.26058394256E+01 0.23870001065E+01
 0.22248468454E+01 0.21172868887E+01 0.20635453545E+01 0.20635304417E+01 0.21172684256E+01
 0.22248187097E+01 0.23868611145E+01 0.26055497897E+01 0.28848906968E+01 0.32300515247E+01
 0.36452846457E+01 0.41304676279E+01 0.46769744159E+01 0.52644205815E+01 0.58598996570E+01
 0.64204124002E+01 0.68980907829E+01 0.72472152534E+01 0.74317382680E+01 0.74317466306E+01
 0.72472371409E+01 0.68981260742E+01 0.64204711808E+01 0.58599694453E+01 0.52644181949E+01
 0.51404101978E+01 0.44502333447E+01 0.38538149380E+01 0.33555009311E+01 0.29503748596E+01
 0.26300934176E+01 0.23870112718E+01 0.22159002930E+01 0.21139516710E+01 0.20800437944E+01
 0.21139324012E+01 0.22158500469E+01 0.23868611145E+01 0.26298058068E+01 0.29500948270E+01
 0.33554780965E+01 0.38541158957E+01 0.44506351960E+01 0.51406397499E+01 0.59053486985E+01
 0.67086772190E+01 0.74983411799E+01 0.82110725622E+01 0.87810167253E+01 0.91499905546E+01
 0.92777820939E+01 0.91499976011E+01 0.87810285655E+01 0.82111030672E+01 0.74984177514E+01
 0.67087783388E+01 0.59053503280E+01 0.54831868833E+01 0.46587136703E+01 0.39648099349E+01
 0.33990515997E+01 0.29503675313E+01 0.26058565637E+01 0.23549247308E+01 0.21906253218E+01
 0.21092365234E+01 0.21092415619E+01 0.21905905546E+01 0.23547560801E+01 0.26055497897E+01
 0.29500948270E+01 0.33990515671E+01 0.39651399448E+01 0.46591521646E+01 0.54834386282E+01
 0.64244313921E+01 0.74470405181E+01 0.84934022565E+01 0.94867709320E+01 0.10340005774E+02
 0.10967774658E+02 0.11301075924E+02 0.11301063450E+02 0.10967729193E+02 0.10339934834E+02
 0.94867374950E+01 0.84934773296E+01 0.74471816000E+01 0.64244533961E+01 0.56656647021E+01
 0.47311495817E+01 0.39648111821E+01 0.33554780901E+01 0.28851431232E+01 0.25361786407E+01
 0.22950996425E+01 0.21533669039E+01 0.21065726192E+01 0.21533509142E+01 0.22949732968E+01
 0.25359122183E+01 0.28848906968E+01 0.33554780965E+01 0.39651399448E+01 0.47316066699E+01
 0.56659462759E+01 0.67634030284E+01 0.79950158209E+01 0.93033041497E+01 0.10603520287E+02
 0.11790274115E+02 0.12749468563E+02 0.13375801938E+02 0.13593761844E+02 0.13375748528E+02
 0.12749365493E+02 0.11790167984E+02 0.10603505621E+02 0.93034363184E+01 0.79952001410E+01
 0.67634220757E+01 0.56656677704E+01 0.46587198102E+01 0.38538193707E+01 0.32300394881E+01
 0.27625117838E+01 0.24294543236E+01 0.22151723321E+01 0.21101808995E+01 0.21101550306E+01
 0.22150735100E+01 0.24292709684E+01 0.27623350923E+01 0.32300515247E+01 0.38541158957E+01
 0.46591521646E+01 0.56659462759E+01 0.68813256383E+01 0.82874256733E+01 0.98341549962E+01
 0.11437048909E+02 0.12980370714E+02 0.14325741019E+02 0.15328980294E+02 0.15866684596E+02
 0.15866664405E+02 0.15328931771E+02 0.14325679907E+02 0.12980314510E+02 0.11437055515E+02
 0.98342834431E+01 0.82876035990E+01 0.68813407961E+01 0.54831807906E+01 0.44502149538E+01
 0.36450076625E+01 0.30372043903E+01 0.25962184622E+01 0.22974875795E+01 0.21243874405E+01
 0.20676567130E+01 0.21243383392E+01 0.22973702961E+01 0.25960854352E+01 0.30372161163E+01
 0.36452846457E+01 0.44506351960E+01 0.54834386282E+01 0.67634030284E+01 0.82874256733E+01
 0.10019197120E+02 0.11883625753E+02 0.13765862553E+02 0.15514443390E+02 0.16952666698E+02
 0.17905176923E+02 0.18239148658E+02 0.17905131747E+02 0.16952661383E+02 0.15514468647E+02
 0.13765828854E+02 0.11883570886E+02 0.10019273412E+02 0.82876196287E+01 0.67634601290E+01
 0.51403800639E+01 0.41300792892E+01 0.33617306378E+01 0.27973952316E+01 0.24029792286E+01
 0.21531381302E+01 0.20319836897E+01 0.20319885246E+01 0.21531097179E+01 0.24028941045E+01
 0.27973803969E+01 0.33619489587E+01 0.41304676279E+01 0.51406397499E+01 0.64244313921E+01
 0.79950158209E+01 0.98341549962E+01 0.11883625753E+02 0.14040747798E+02 0.16156040337E+02
 0.18036021195E+02 0.19459819502E+02 0.20228672547E+02 0.20228632095E+02 0.19459797870E+02
 0.18036124309E+02 0.16156156154E+02 0.14040721292E+02 0.11883546057E+02 0.98342371945E+01