    2    2   15    1
  0.2001288E+02  0.3839590E-09  0.3839590E-09  0.3839590E-09  0.5000000E-15
  1.000000000000000E-004
  CAR 
 unknown system                          
      8     28      8
 
  0.8333333E-01  0.8333333E-01  0.8333333E-01  0.9259259E-02
    1       -6.107118   1.000000
    2        4.767432   1.000000
    3        5.485229   0.999538
    4        5.485229   0.999538
    5        8.193895   0.000000
    6        8.392265   0.000000
    7        8.392265   0.000000
    8        9.469052   0.000000
 
  0.2500000E+00  0.8333333E-01  0.8333333E-01  0.2777778E-01
    1       -5.637105   1.000000
    2        2.701331   1.000000
    3        4.267672   1.000000
    4        5.276620   0.999999
    5        8.280830   0.000000
    6        8.785605   0.000000
    7        9.132558   0.000000
    8       11.250020   0.000000
 
  0.4166667E+00  0.8333333E-01  0.8333333E-01  0.2777778E-01
    1       -4.561993   1.000000
    2       -0.024978   1.000000
    3        3.805603   1.000000
    4        4.648076   1.000000
    5        7.771536   0.000000
    6        9.181117   0.000000
    7        9.221961   0.000000
    8       13.039903   0.000000
 
 -0.4166667E+00  0.8333333E-01  0.8333333E-01  0.2777778E-01
    1       -3.877938   1.000000
    2       -1.149505   1.000000
    3        3.868711   1.000000
    4        4.273352   1.000000
    5        7.616858   0.000000
    6        8.903046   0.000000
    7        9.328347   0.000000
    8       13.502440   0.000000
 
 -0.2500000E+00  0.8333333E-01  0.8333333E-01  0.2777778E-01
    1       -4.966851   1.000000
    2        0.809848   1.000000
    3        4.334255   1.000000
    4        4.361424   1.000000
    5        7.871770   0.000000
    6        8.910511   0.000000
    7        9.703028   0.000000
    8       11.572669   0.000000
 
 -0.8333333E-01  0.8333333E-01  0.8333333E-01  0.2777778E-01
    1       -5.869776   1.000000
    2        3.701932   1.000000
    3        4.850070   1.000000
    4        5.028978   1.000000
    5        7.935223   0.000000
    6        8.791908   0.000000
    7        9.281803   0.000000
    8       10.397855   0.000000
 
  0.2500000E+00  0.2500000E+00  0.8333333E-01  0.2777778E-01
    1       -5.399211   1.000000
    2        2.505425   1.000000
    3        4.111939   1.000000
    4        4.130668   1.000000
    5        7.361671   0.000000
    6        9.478610   0.000000
    7       10.282301   0.000000
    8       10.492106   0.000000
 
  0.4166667E+00  0.2500000E+00  0.8333333E-01  0.5555556E-01
    1       -4.502248   1.000000
    2        0.685065   1.000000
    3        2.814928   1.000000
    4        3.748276   1.000000
    5        7.756966   0.000000
    6        9.368763   0.000000
    7       10.143086   0.000000
    8       11.594152   0.000000
 
 -0.4166667E+00  0.2500000E+00  0.8333333E-01  0.5555556E-01
    1       -3.406785   1.000000
    2       -1.034474   1.000000
    3        2.217144   1.000000
    4        3.525560   1.000000
    5        8.002422   0.000000
    6        9.540421   0.000000
    7       11.474138   0.000000
    8       11.857851   0.000000
 
 -0.2500000E+00  0.2500000E+00  0.8333333E-01  0.5555556E-01
    1       -4.114625   1.000000
    2        0.003589   1.000000
    3        2.181148   1.000000
    4        4.003660   1.000000
    5        8.587283   0.000000
    6        9.220884   0.000000
    7       10.876337   0.000000
    8       11.357004   0.000000
 
 -0.8333333E-01  0.2500000E+00  0.8333333E-01  0.5555556E-01
    1       -5.177205   1.000000
    2        1.683346   1.000000
    3        3.501570   1.000000
    4        4.659817   1.000000
    5        8.233489   0.000000
    6        9.081438   0.000000
    7       10.156360   0.000000
    8       10.516538   0.000000
 
  0.4166667E+00  0.4166667E+00  0.8333333E-01  0.2777778E-01
    1       -3.800249   1.000000
    2       -0.139965   1.000000
    3        2.781923   1.000000
    4        3.114945   1.000000
    5        6.548252   0.000013
    6        7.518564   0.000000
    7       13.121692   0.000000
    8       13.188260   0.000000
 
 -0.4166667E+00  0.4166667E+00  0.8333333E-01  0.5555556E-01
    1       -2.623216   1.000000
    2       -1.463386   1.000000
    3        1.955692   1.000000
    4        2.716507   1.000000
    5        7.166245   0.000000
    6        8.275944   0.000000
    7       12.674488   0.000000
    8       14.126539   0.000000
 
 -0.2500000E+00  0.4166667E+00  0.8333333E-01  0.5555556E-01
    1       -2.992457   1.000000
    2       -1.125410   1.000000
    3        1.478465   1.000000
    4        3.253785   1.000000
    5        7.776633   0.000000
    6       10.659723   0.000000
    7       11.636075   0.000000
    8       12.290350   0.000000
 
 -0.8333333E-01  0.4166667E+00  0.8333333E-01  0.5555556E-01
    1       -4.005998   1.000000
    2       -0.660865   1.000000
    3        3.102333   1.000000
    4        4.099176   1.000000
    5        8.187803   0.000000
    6        8.838240   0.000000
    7       10.142616   0.000000
    8       12.345232   0.000000
 
 -0.4166667E+00 -0.4166667E+00  0.8333333E-01  0.2777778E-01
    1       -2.711870   1.000000
    2       -1.470446   1.000000
    3        2.516498   1.000000
    4        2.902304   1.000000
    5        6.439643   0.000295
    6        7.000810   0.000000
    7       14.601992   0.000000
    8       14.682457   0.000000
 
 -0.2500000E+00 -0.4166667E+00  0.8333333E-01  0.5555556E-01
    1       -3.635147   1.000000
    2       -0.359153   1.000000
    3        2.269774   1.000000
    4        3.052182   1.000000
    5        7.372412   0.000000
    6        8.642997   0.000000
    7       11.329867   0.000000
    8       13.128470   0.000000
 
 -0.2500000E+00 -0.2500000E+00  0.8333333E-01  0.2777778E-01
    1       -4.704296   1.000000
    2        1.211840   1.000000
    3        3.317698   1.000000
    4        3.532037   1.000000
    5        6.863088   0.000000
    6        8.423443   0.000000
    7       11.599134   0.000000
    8       11.808346   0.000000
 
  0.2500000E+00  0.2500000E+00  0.2500000E+00  0.9259259E-02
    1       -5.411003   1.000000
    2        1.736858   1.000000
    3        4.879702   1.000000
    4        4.879702   1.000000
    5        7.590262   0.000000
    6        9.121051   0.000000
    7        9.121051   0.000000
    8       12.384669   0.000000
 
  0.4166667E+00  0.2500000E+00  0.2500000E+00  0.2777778E-01
    1       -4.741970   1.000000
    2        0.805343   1.000000
    3        2.778898   1.000000
    4        4.712262   1.000000
    5        8.371949   0.000000
    6        9.610166   0.000000
    7        9.775543   0.000000
    8       11.679504   0.000000
 
 -0.4166667E+00  0.2500000E+00  0.2500000E+00  0.2777778E-01
    1       -3.582586   1.000000
    2       -0.622888   1.000000
    3        1.690330   1.000000
    4        3.937905   1.000000
    5        7.659804   0.000000
    6       10.917514   0.000000
    7       11.013084   0.000000
    8       12.717132   0.000000
 
 -0.2500000E+00  0.2500000E+00  0.2500000E+00  0.2777778E-01
    1       -3.530333   1.000000
    2       -0.701525   1.000000
    3        2.159542   1.000000
    4        3.463105   1.000000
    5        7.171024   0.000000
    6       10.065213   0.000000
    7       11.281747   0.000000
    8       11.515242   0.000000
 
  0.4166667E+00  0.4166667E+00  0.2500000E+00  0.2777778E-01
    1       -4.324674   1.000000
    2        0.010187   1.000000
    3        3.230634   1.000000
    4        3.831395   1.000000
    5        7.642763   0.000000
    6        9.825376   0.000000
    7       10.503235   0.000000
    8       10.659116   0.000000
 
 -0.4166667E+00  0.4166667E+00  0.2500000E+00  0.5555556E-01
    1       -3.338578   1.000000
    2       -0.740213   1.000000
    3        1.789831   1.000000
    4        3.051366   1.000000
    5        8.852550   0.000000
    6        9.377634   0.000000
    7       10.345540   0.000000
    8       13.049895   0.000000
 
 -0.2500000E+00  0.4166667E+00  0.2500000E+00  0.5555556E-01
    1       -2.520558   1.000000
    2       -1.471050   1.000000
    3        1.632229   1.000000
    4        2.395466   1.000000
    5        8.653124   0.000000
    6        9.910941   0.000000
    7       10.681705   0.000000
    8       12.063065   0.000000
 
 -0.4166667E+00 -0.4166667E+00  0.2500000E+00  0.2777778E-01
    1       -2.728599   1.000000
    2       -1.374180   1.000000
    3        1.507734   1.000000
    4        3.271215   1.000000
    5        6.898492   0.000000
    6        9.779498   0.000000
    7       12.669527   0.000000
    8       12.838464   0.000000
 
  0.4166667E+00  0.4166667E+00  0.4166667E+00  0.9259259E-02
    1       -4.239497   1.000000
    2       -0.755345   1.000000
    3        4.495126   1.000000
    4        4.495126   1.000000
    5        7.154909   0.000000
    6        9.032703   0.000000
    7        9.032703   0.000000
    8       13.409108   0.000000
 
 -0.4166667E+00  0.4166667E+00  0.4166667E+00  0.2777778E-01
    1       -3.645313   1.000000
    2       -1.057799   1.000000
    3        2.683272   1.000000
    4        4.062482   1.000000
    5        7.805607   0.000000
    6        9.653993   0.000000
    7       10.016728   0.000000
    8       13.536005   0.000000
