 vasp.5.4.4.18Apr17-6-g9f103f2a35 (build Dec 09 2018 21:25:21) complex          
  
 executed on IFC18.0.1.163_CrayMP date 2019.03.20  10:00:31
 running on    8 total cores
 distrk:  each k-point on    8 cores,    1 groups
 distr:  one band on NCORES_PER_BAND=   1 cores,    8 groups


--------------------------------------------------------------------------------------------------------


 INCAR:
 POTCAR:   PAW_PBE Si 05Jan2001                   

 ----------------------------------------------------------------------------- 
|                                                                             |
|           W    W    AA    RRRRR   N    N  II  N    N   GGGG   !!!           |
|           W    W   A  A   R    R  NN   N  II  NN   N  G    G  !!!           |
|           W    W  A    A  R    R  N N  N  II  N N  N  G       !!!           |
|           W WW W  AAAAAA  RRRRR   N  N N  II  N  N N  G  GGG   !            |
|           WW  WW  A    A  R   R   N   NN  II  N   NN  G    G                |
|           W    W  A    A  R    R  N    N  II  N    N   GGGG   !!!           |
|                                                                             |
|      For optimal performance we recommend to set                            |
|        NCORE= 4 - approx SQRT( number of cores)                             |
|      NCORE specifies how many cores store one orbital (NPAR=cpu/NCORE).     |
|      This setting can  greatly improve the performance of VASP for DFT.     |
|      The default,   NCORE=1            might be grossly inefficient         |
|      on modern multi-core architectures or massively parallel machines.     |
|      Do your own testing !!!!                                               |
|      Unfortunately you need to use the default for GW and RPA calculations. |
|      (for HF NCORE is supported but not extensively tested yet)             |
|                                                                             |
 ----------------------------------------------------------------------------- 

 POTCAR:   PAW_PBE Si 05Jan2001                   
   VRHFIN =Si: s2p2                                                             
   LEXCH  = PE                                                                  
   EATOM  =   103.0669 eV,    7.5752 Ry                                         
                                                                                
   TITEL  = PAW_PBE Si 05Jan2001                                                
   LULTRA =        F    use ultrasoft PP ?                                      
   IUNSCR =        1    unscreen: 0-lin 1-nonlin 2-no                           
   RPACOR =    1.500    partial core radius                                     
   POMASS =   28.085; ZVAL   =    4.000    mass and valenz                      
   RCORE  =    1.900    outmost cutoff radius                                   
   RWIGS  =    2.480; RWIGS  =    1.312    wigner-seitz radius (au A)           
   ENMAX  =  245.345; ENMIN  =  184.009 eV                                      
   ICORE  =        2    local potential                                         
   LCOR   =        T    correct aug charges                                     
   LPAW   =        T    paw PP                                                  
   EAUG   =  322.069                                                            
   DEXC   =    -.007                                                            
   RMAX   =    2.944    core radius for proj-oper                               
   RAUG   =    1.300    factor for augmentation sphere                          
   RDEP   =    1.993    radius for radial grids                                 
   QCUT   =   -4.246; QGAM   =    8.493    optimization parameters              
                                                                                
   Description                                                                  
     l     E      TYP  RCUT    TYP  RCUT                                        
     0   .000     23  1.900                                                     
     0   .000     23  1.900                                                     
     1   .000     23  1.900                                                     
     1   .000     23  1.900                                                     
     2   .000      7  1.900                                                     
  local pseudopotential read in
  partial core-charges read in
  atomic valenz-charges read in
  non local Contribution for L=           0  read in
    real space projection operators read in
  non local Contribution for L=           0  read in
    real space projection operators read in
  non local Contribution for L=           1  read in
    real space projection operators read in
  non local Contribution for L=           1  read in
    real space projection operators read in
    PAW grid and wavefunctions read in
 
   number of l-projection  operators is LMAX  =           4
   number of lm-projection operators is LMMAX =           8
 
 PAW_PBE Si 05Jan2001                   :
 energy of atom  1       EATOM= -103.0669
 kinetic energy error for atom=    0.0021 (will be added to EATOM!!)
 
 
 POSCAR: Si2                                     
  positions in direct lattice
  No initial velocities read in
 exchange correlation table for  LEXCH =        8
   RHO(1)=    0.500       N(1)  =     2000
   RHO(2)=  100.500       N(2)  =     4000
 


--------------------------------------------------------------------------------------------------------


 ion  position               nearest neighbor table
   1  0.500  0.500  0.500-   2 2.35   2 2.35   2 2.35   2 2.35
   2  0.750  0.750  0.750-   1 2.35   1 2.35   1 2.35   1 2.35
 
  LATTYP: Found a face centered cubic cell.
 ALAT       =     5.4300000000
  
  Lattice vectors:
  
 A1 = (   0.0000000000,   2.7150000000,   2.7150000000)
 A2 = (   2.7150000000,   0.0000000000,   2.7150000000)
 A3 = (   2.7150000000,   2.7150000000,   0.0000000000)


Analysis of symmetry for initial positions (statically):
=====================================================================
 Subroutine PRICEL returns:
 Original cell was already a primitive cell.
 

 Routine SETGRP: Setting up the symmetry group for a 
 face centered cubic supercell.


 Subroutine GETGRP returns: Found 48 space group operations
 (whereof 24 operations were pure point group operations)
 out of a pool of 48 trial point group operations.


The static configuration has the point symmetry T_d .
 The point group associated with its full space group is O_h .


Analysis of symmetry for dynamics (positions and initial velocities):
=====================================================================
 Subroutine PRICEL returns:
 Original cell was already a primitive cell.
 

 Routine SETGRP: Setting up the symmetry group for a 
 face centered cubic supercell.


 Subroutine GETGRP returns: Found 48 space group operations
 (whereof 24 operations were pure point group operations)
 out of a pool of 48 trial point group operations.


The dynamic configuration has the point symmetry T_d .
 The point group associated with its full space group is O_h .


 Subroutine INISYM returns: Found 48 space group operations
 (whereof 24 operations are pure point group operations),
 and found     1 'primitive' translations

 
 
 KPOINTS: Automatic kpoint scheme                 

Automatic generation of k-mesh.
Space group operators:
 irot       det(A)        alpha          n_x          n_y          n_z        tau_x        tau_y        tau_z
    1     1.000000     0.000001     1.000000     0.000000     0.000000     0.000000     0.000000     0.000000
    2     1.000000   120.000000    -0.577350    -0.577350    -0.577350     0.000000     0.000000     0.000000
    3     1.000000   120.000000     0.577350     0.577350     0.577350     0.000000     0.000000     0.000000
    4    -1.000000    90.000000    -0.000000    -0.000000    -1.000000     0.000000     0.000000     0.000000
    5    -1.000000   180.000000    -0.000000     0.707107     0.707107     0.000000     0.000000     0.000000
    6    -1.000000    90.000000    -0.000000     1.000000    -0.000000     0.000000     0.000000     0.000000
    7     1.000000   180.000000     0.000000     0.000000    -1.000000     0.000000     0.000000     0.000000
    8     1.000000   120.000000    -0.577350     0.577350     0.577350     0.000000     0.000000     0.000000
    9     1.000000   120.000000    -0.577350     0.577350    -0.577350     0.000000     0.000000     0.000000
   10    -1.000000    90.000000     0.000000     0.000000     1.000000     0.000000     0.000000     0.000000
   11    -1.000000    90.000000    -1.000000     0.000000    -0.000000     0.000000     0.000000     0.000000
   12    -1.000000   180.000000     0.707107     0.000000     0.707107     0.000000     0.000000     0.000000
   13     1.000000   120.000000     0.577350    -0.577350     0.577350     0.000000     0.000000     0.000000
   14     1.000000   120.000000    -0.577350    -0.577350     0.577350     0.000000     0.000000     0.000000
   15     1.000000   180.000000     1.000000     0.000000     0.000000     0.000000     0.000000     0.000000
   16    -1.000000    90.000000     0.000000    -1.000000     0.000000     0.000000     0.000000     0.000000
   17    -1.000000   180.000000     0.707107     0.707107    -0.000000     0.000000     0.000000     0.000000
   18    -1.000000    90.000000     1.000000     0.000000     0.000000     0.000000     0.000000     0.000000
   19     1.000000   120.000000     0.577350    -0.577350    -0.577350     0.000000     0.000000     0.000000
   20     1.000000   180.000000     0.000000    -1.000000     0.000000     0.000000     0.000000     0.000000
   21     1.000000   120.000000     0.577350     0.577350    -0.577350     0.000000     0.000000     0.000000
   22    -1.000000   180.000000    -0.000000    -0.707107     0.707107     0.000000     0.000000     0.000000
   23    -1.000000   180.000000     0.707107    -0.707107    -0.000000     0.000000     0.000000     0.000000
   24    -1.000000   180.000000    -0.707107     0.000000     0.707107     0.000000     0.000000     0.000000
   25    -1.000000     0.000001     1.000000     0.000000     0.000000     0.250000     0.250000     0.250000
   26    -1.000000   120.000000    -0.577350    -0.577350    -0.577350     0.250000     0.250000     0.250000
   27    -1.000000   120.000000     0.577350     0.577350     0.577350     0.250000     0.250000     0.250000
   28     1.000000    90.000000    -0.000000    -0.000000    -1.000000     0.250000     0.250000     0.250000
   29     1.000000   180.000000    -0.000000     0.707107     0.707107     0.250000     0.250000     0.250000
   30     1.000000    90.000000    -0.000000     1.000000    -0.000000     0.250000     0.250000     0.250000
   31    -1.000000   180.000000     0.000000     0.000000    -1.000000     0.250000     0.250000     0.250000
   32    -1.000000   120.000000    -0.577350     0.577350     0.577350     0.250000     0.250000     0.250000
   33    -1.000000   120.000000    -0.577350     0.577350    -0.577350     0.250000     0.250000     0.250000
   34     1.000000    90.000000     0.000000     0.000000     1.000000     0.250000     0.250000     0.250000
   35     1.000000    90.000000    -1.000000     0.000000    -0.000000     0.250000     0.250000     0.250000
   36     1.000000   180.000000     0.707107     0.000000     0.707107     0.250000     0.250000     0.250000
   37    -1.000000   120.000000     0.577350    -0.577350     0.577350     0.250000     0.250000     0.250000
   38    -1.000000   120.000000    -0.577350    -0.577350     0.577350     0.250000     0.250000     0.250000
   39    -1.000000   180.000000     1.000000     0.000000     0.000000     0.250000     0.250000     0.250000
   40     1.000000    90.000000     0.000000    -1.000000     0.000000     0.250000     0.250000     0.250000
   41     1.000000   180.000000     0.707107     0.707107    -0.000000     0.250000     0.250000     0.250000
   42     1.000000    90.000000     1.000000     0.000000     0.000000     0.250000     0.250000     0.250000
   43    -1.000000   120.000000     0.577350    -0.577350    -0.577350     0.250000     0.250000     0.250000
   44    -1.000000   180.000000     0.000000    -1.000000     0.000000     0.250000     0.250000     0.250000
   45    -1.000000   120.000000     0.577350     0.577350    -0.577350     0.250000     0.250000     0.250000
   46     1.000000   180.000000    -0.000000    -0.707107     0.707107     0.250000     0.250000     0.250000
   47     1.000000   180.000000     0.707107    -0.707107    -0.000000     0.250000     0.250000     0.250000
   48     1.000000   180.000000    -0.707107     0.000000     0.707107     0.250000     0.250000     0.250000
 
 Subroutine IBZKPT returns following result:
 ===========================================
 
 Found     28 irreducible k-points:
 
 Following reciprocal coordinates:
            Coordinates               Weight
  0.083333  0.083333  0.083333     96.000000
  0.250000  0.083333  0.083333    288.000000
  0.416667  0.083333  0.083333    288.000000
 -0.416667  0.083333  0.083333    288.000000
 -0.250000  0.083333  0.083333    288.000000
 -0.083333  0.083333  0.083333    288.000000
  0.250000  0.250000  0.083333    288.000000
  0.416667  0.250000  0.083333    576.000000
 -0.416667  0.250000  0.083333    576.000000
 -0.250000  0.250000  0.083333    576.000000
 -0.083333  0.250000  0.083333    576.000000
  0.416667  0.416667  0.083333    288.000000
 -0.416667  0.416667  0.083333    576.000000
 -0.250000  0.416667  0.083333    576.000000
 -0.083333  0.416667  0.083333    576.000000
 -0.416667 -0.416667  0.083333    288.000000
 -0.250000 -0.416667  0.083333    576.000000
 -0.250000 -0.250000  0.083333    288.000000
  0.250000  0.250000  0.250000     96.000000
  0.416667  0.250000  0.250000    288.000000
 -0.416667  0.250000  0.250000    288.000000
 -0.250000  0.250000  0.250000    288.000000
  0.416667  0.416667  0.250000    288.000000
 -0.416667  0.416667  0.250000    576.000000
 -0.250000  0.416667  0.250000    576.000000
 -0.416667 -0.416667  0.250000    288.000000
  0.416667  0.416667  0.416667     96.000000
 -0.416667  0.416667  0.416667    288.000000
 
 Following cartesian coordinates:
            Coordinates               Weight
  0.015347  0.015347  0.015347     96.000000
 -0.015347  0.046041  0.046041    288.000000
 -0.046041  0.076734  0.076734    288.000000
  0.107428 -0.076734 -0.076734    288.000000
  0.076734 -0.046041 -0.046041    288.000000
  0.046041 -0.015347 -0.015347    288.000000
  0.015347  0.015347  0.076734    288.000000
 -0.015347  0.046041  0.107428    576.000000
  0.138122 -0.107428 -0.046041    576.000000
  0.107428 -0.076734 -0.015347    576.000000
  0.076734 -0.046041  0.015347    576.000000
  0.015347  0.015347  0.138122    288.000000
  0.168815 -0.138122 -0.015347    576.000000
  0.138122 -0.107428  0.015347    576.000000
  0.107428 -0.076734  0.046041    576.000000
  0.015347  0.015347 -0.168815    288.000000
 -0.015347  0.046041 -0.138122    576.000000
  0.015347  0.015347 -0.107428    288.000000
  0.046041  0.046041  0.046041     96.000000
  0.015347  0.076734  0.076734    288.000000
  0.168815 -0.076734 -0.076734    288.000000
  0.138122 -0.046041 -0.046041    288.000000
  0.046041  0.046041  0.107428    288.000000
  0.199509 -0.107428 -0.046041    576.000000
  0.168815 -0.076734 -0.015347    576.000000
  0.046041  0.046041 -0.199509    288.000000
  0.076734  0.076734  0.076734     96.000000
  0.230203 -0.076734 -0.076734    288.000000
 


--------------------------------------------------------------------------------------------------------




 Dimension of arrays:
   k-points           NKPTS =     28   k-points in BZ     NKDIM =     28   number of bands    NBANDS=      8
   number of dos      NEDOS =    301   number of ions     NIONS =      2
   non local maximal  LDIM  =      4   non local SUM 2l+1 LMDIM =      8
   total plane-waves  NPLWV =   4096
   max r-space proj   IRMAX =      1   max aug-charges    IRDMAX=   3621
   dimension x,y,z NGX =    16 NGY =   16 NGZ =   16
   dimension x,y,z NGXF=    32 NGYF=   32 NGZF=   32
   support grid    NGXF=    32 NGYF=   32 NGZF=   32
   ions per type =               2
   NGX,Y,Z   is equivalent  to a cutoff of   6.93,  6.93,  6.93 a.u.
   NGXF,Y,Z  is equivalent  to a cutoff of  13.86, 13.86, 13.86 a.u.

 SYSTEM =  unknown system                          
 POSCAR =  Si2                                     

 Startparameter for this run:
   NWRITE =      2    write-flag & timer
   PREC   = normal    normal or accurate (medium, high low for compatibility)
   ISTART =      0    job   : 0-new  1-cont  2-samecut
   ICHARG =      2    charge: 1-file 2-atom 10-const
   ISPIN  =      1    spin polarized calculation?
   LNONCOLLINEAR =      F non collinear calculations
   LSORBIT =      F    spin-orbit coupling
   INIWAV =      1    electr: 0-lowe 1-rand  2-diag
   LASPH  =      F    aspherical Exc in radial PAW
   METAGGA=      F    non-selfconsistent MetaGGA calc.

 Electronic Relaxation 1
   ENCUT  =  300.0 eV  22.05 Ry    4.70 a.u.   5.42  5.42  5.42*2*pi/ulx,y,z
   ENINI  =  300.0     initial cutoff
   ENAUG  =  322.1 eV  augmentation charge cutoff
   NELM   =     60;   NELMIN=  2; NELMDL= -5     # of ELM steps 
   EDIFF  = 0.4E-03   stopping-criterion for ELM
   LREAL  =      F    real-space projection
   NLSPLINE    = F    spline interpolate recip. space projectors
   LCOMPAT=      F    compatible to vasp.4.4
   GGA_COMPAT  = T    GGA compatible to vasp.4.4-vasp.4.6
   LMAXPAW     = -100 max onsite density
   LMAXMIX     =    2 max onsite mixed and CHGCAR
   VOSKOWN=      0    Vosko Wilk Nusair interpolation
   ROPT   =    0.00000
 Ionic relaxation
   EDIFFG = -.1E-01   stopping-criterion for IOM
   NSW    =     15    number of steps for IOM
   NBLOCK =      1;   KBLOCK =     15    inner block; outer block 
   IBRION =      2    ionic relax: 0-MD 1-quasi-New 2-CG
   NFREE  =      1    steps in history (QN), initial steepest desc. (CG)
   ISIF   =      3    stress and relaxation
   IWAVPR =     11    prediction:  0-non 1-charg 2-wave 3-comb
   ISYM   =      2    0-nonsym 1-usesym 2-fastsym
   LCORR  =      T    Harris-Foulkes like correction to forces

   POTIM  = 0.5000    time-step for ionic-motion
   TEIN   =    0.0    initial temperature
   TEBEG  =    0.0;   TEEND  =   0.0 temperature during run
   SMASS  =  -3.00    Nose mass-parameter (am)
   estimated Nose-frequenzy (Omega)   =  0.10E-29 period in steps =****** mass=  -0.337E-27a.u.
   SCALEE = 1.0000    scale energy and forces
   NPACO  =    256;   APACO  = 16.0  distance and # of slots for P.C.
   PSTRESS=    0.0 pullay stress

  Mass of Ions in am
   POMASS =  28.09
  Ionic Valenz
   ZVAL   =   4.00
  Atomic Wigner-Seitz radii
   RWIGS  =  -1.00
  virtual crystal weights 
   VCA    =   1.00
   NELECT =       8.0000    total number of electrons
   NUPDOWN=      -1.0000    fix difference up-down

 DOS related values:
   EMIN   =  10.00;   EMAX   =-10.00  energy-range for DOS
   EFERMI =   0.00
   ISMEAR =     0;   SIGMA  =   0.20  broadening in eV -4-tet -1-fermi 0-gaus

 Electronic relaxation 2 (details)
   IALGO  =     38    algorithm
   LDIAG  =      T    sub-space diagonalisation (order eigenvalues)
   LSUBROT=      F    optimize rotation matrix (better conditioning)
   TURBO    =      0    0=normal 1=particle mesh
   IRESTART =      0    0=no restart 2=restart with 2 vectors
   NREBOOT  =      0    no. of reboots
   NMIN     =      0    reboot dimension
   EREF     =   0.00    reference energy to select bands
   IMIX   =      4    mixing-type and parameters
     AMIX     =   0.40;   BMIX     =  1.00
     AMIX_MAG =   1.60;   BMIX_MAG =  1.00
     AMIN     =   0.10
     WC   =   100.;   INIMIX=   1;  MIXPRE=   1;  MAXMIX= -45

 Intra band minimization:
   WEIMIN = 0.0010     energy-eigenvalue tresh-hold
   EBREAK =  0.13E-04  absolut break condition
   DEPER  =   0.30     relativ break condition  

   TIME   =   0.40     timestep for ELM

  volume/ion in A,a.u.               =      20.01       135.05
  Fermi-wavevector in a.u.,A,eV,Ry     =   0.957176  1.808800 12.465458  0.916185
  Thomas-Fermi vector in A             =   2.086170
 
 Write flags
   LWAVE        =      T    write WAVECAR
   LDOWNSAMPLE  =      F    k-point downsampling of WAVECAR
   LCHARG       =      T    write CHGCAR
   LVTOT        =      F    write LOCPOT, total local potential
   LVHAR        =      F    write LOCPOT, Hartree potential only
   LELF         =      F    write electronic localiz. function (ELF)
   LORBIT       =      0    0 simple, 1 ext, 2 COOP (PROOUT), +10 PAW based schemes


 Dipole corrections
   LMONO  =      F    monopole corrections only (constant potential shift)
   LDIPOL =      F    correct potential (dipole corrections)
   IDIPOL =      0    1-x, 2-y, 3-z, 4-all directions 
   EPSILON=  1.0000000 bulk dielectric constant

 Exchange correlation treatment:
   GGA     =    --    GGA type
   LEXCH   =     8    internal setting for exchange type
   VOSKOWN=      0    Vosko Wilk Nusair interpolation
   LHFCALC =     F    Hartree Fock is set to
   LHFONE  =     F    Hartree Fock one center treatment
   AEXX    =    0.0000 exact exchange contribution

 Linear response parameters
   LEPSILON=     F    determine dielectric tensor
   LRPA    =     F    only Hartree local field effects (RPA)
   LNABLA  =     F    use nabla operator in PAW spheres
   LVEL    =     F    velocity operator in full k-point grid
   LINTERFAST=   F  fast interpolation
   KINTER  =     0    interpolate to denser k-point grid
   CSHIFT  =0.1000    complex shift for real part using Kramers Kronig
   OMEGAMAX=  -1.0    maximum frequency
   DEG_THRESHOLD= 0.2000000E-02 threshold for treating states as degnerate
   RTIME   =   -0.100 relaxation time in fs
  (WPLASMAI=    0.000 imaginary part of plasma frequency in eV, 0.658/RTIME)
   DFIELD  = 0.0000000 0.0000000 0.0000000 field for delta impulse in time
 
 Orbital magnetization related:
   ORBITALMAG=     F  switch on orbital magnetization
   LCHIMAG   =     F  perturbation theory with respect to B field
   DQ        =  0.001000  dq finite difference perturbation B field
   LLRAUG    =     F  two centre corrections for induced B field



--------------------------------------------------------------------------------------------------------


 conjugate gradient relaxation of ions
 charge density and potential will be updated during run
 non-spin polarized calculation
 Variant of blocked Davidson
 Davidson routine will perform the subspace rotation
 perform sub-space diagonalisation
    after iterative eigenvector-optimisation
 modified Broyden-mixing scheme, WC =      100.0
 initial mixing is a Kerker type mixing with AMIX =  0.4000 and BMIX =      1.0000
 Hartree-type preconditioning will be used
 using additional bands            4
 reciprocal scheme for non local part
 use partial core corrections
 calculate Harris-corrections to forces 
   (improved forces if not selfconsistent)
 use gradient corrections 
 use of overlap-Matrix (Vanderbilt PP)
 Gauss-broadening in eV      SIGMA  =   0.20


--------------------------------------------------------------------------------------------------------


  energy-cutoff  :      300.00
  volume of cell :       40.03
      direct lattice vectors                 reciprocal lattice vectors
     0.000000000  2.715000000  2.715000000    -0.184162063  0.184162063  0.184162063
     2.715000000  0.000000000  2.715000000     0.184162063 -0.184162063  0.184162063
     2.715000000  2.715000000  0.000000000     0.184162063  0.184162063 -0.184162063

  length of vectors
     3.839589822  3.839589822  3.839589822     0.318978049  0.318978049  0.318978049


 
 k-points in units of 2pi/SCALE and weight: Automatic kpoint scheme                 
   0.01534684  0.01534684  0.01534684       0.009
  -0.01534684  0.04604052  0.04604052       0.028
  -0.04604052  0.07673419  0.07673419       0.028
   0.10742787 -0.07673419 -0.07673419       0.028
   0.07673419 -0.04604052 -0.04604052       0.028
   0.04604052 -0.01534684 -0.01534684       0.028
   0.01534684  0.01534684  0.07673419       0.028
  -0.01534684  0.04604052  0.10742787       0.056
   0.13812155 -0.10742787 -0.04604052       0.056
   0.10742787 -0.07673419 -0.01534684       0.056
   0.07673419 -0.04604052  0.01534684       0.056
   0.01534684  0.01534684  0.13812155       0.028
   0.16881522 -0.13812155 -0.01534684       0.056
   0.13812155 -0.10742787  0.01534684       0.056
   0.10742787 -0.07673419  0.04604052       0.056
   0.01534684  0.01534684 -0.16881522       0.028
  -0.01534684  0.04604052 -0.13812155       0.056
   0.01534684  0.01534684 -0.10742787       0.028
   0.04604052  0.04604052  0.04604052       0.009
   0.01534684  0.07673419  0.07673419       0.028
   0.16881522 -0.07673419 -0.07673419       0.028
   0.13812155 -0.04604052 -0.04604052       0.028
   0.04604052  0.04604052  0.10742787       0.028
   0.19950890 -0.10742787 -0.04604052       0.056
   0.16881522 -0.07673419 -0.01534684       0.056
   0.04604052  0.04604052 -0.19950890       0.028
   0.07673419  0.07673419  0.07673419       0.009
   0.23020258 -0.07673419 -0.07673419       0.028
 
 k-points in reciprocal lattice and weights: Automatic kpoint scheme                 
   0.08333333  0.08333333  0.08333333       0.009
   0.25000000  0.08333333  0.08333333       0.028
   0.41666667  0.08333333  0.08333333       0.028
  -0.41666667  0.08333333  0.08333333       0.028
  -0.25000000  0.08333333  0.08333333       0.028
  -0.08333333  0.08333333  0.08333333       0.028
   0.25000000  0.25000000  0.08333333       0.028
   0.41666667  0.25000000  0.08333333       0.056
  -0.41666667  0.25000000  0.08333333       0.056
  -0.25000000  0.25000000  0.08333333       0.056
  -0.08333333  0.25000000  0.08333333       0.056
   0.41666667  0.41666667  0.08333333       0.028
  -0.41666667  0.41666667  0.08333333       0.056
  -0.25000000  0.41666667  0.08333333       0.056
  -0.08333333  0.41666667  0.08333333       0.056
  -0.41666667 -0.41666667  0.08333333       0.028
  -0.25000000 -0.41666667  0.08333333       0.056
  -0.25000000 -0.25000000  0.08333333       0.028
   0.25000000  0.25000000  0.25000000       0.009
   0.41666667  0.25000000  0.25000000       0.028
  -0.41666667  0.25000000  0.25000000       0.028
  -0.25000000  0.25000000  0.25000000       0.028
   0.41666667  0.41666667  0.25000000       0.028
  -0.41666667  0.41666667  0.25000000       0.056
  -0.25000000  0.41666667  0.25000000       0.056
  -0.41666667 -0.41666667  0.25000000       0.028
   0.41666667  0.41666667  0.41666667       0.009
  -0.41666667  0.41666667  0.41666667       0.028
 
 position of ions in fractional coordinates (direct lattice) 
   0.50000000  0.50000000  0.50000000
   0.75000000  0.75000000  0.75000000
 
 position of ions in cartesian coordinates  (Angst):
   2.71500000  2.71500000  2.71500000
   4.07250000  4.07250000  4.07250000
 


--------------------------------------------------------------------------------------------------------


 k-point  1 :   0.0833 0.0833 0.0833  plane waves:     495
 k-point  2 :   0.2500 0.0833 0.0833  plane waves:     481
 k-point  3 :   0.4167 0.0833 0.0833  plane waves:     476
 k-point  4 :  -0.4167 0.0833 0.0833  plane waves:     470
 k-point  5 :  -0.2500 0.0833 0.0833  plane waves:     477
 k-point  6 :  -0.0833 0.0833 0.0833  plane waves:     484
 k-point  7 :   0.2500 0.2500 0.0833  plane waves:     478
 k-point  8 :   0.4167 0.2500 0.0833  plane waves:     471
 k-point  9 :  -0.4167 0.2500 0.0833  plane waves:     471
 k-point 10 :  -0.2500 0.2500 0.0833  plane waves:     474
 k-point 11 :  -0.0833 0.2500 0.0833  plane waves:     478
 k-point 12 :   0.4167 0.4167 0.0833  plane waves:     467
 k-point 13 :  -0.4167 0.4167 0.0833  plane waves:     471
 k-point 14 :  -0.2500 0.4167 0.0833  plane waves:     469
 k-point 15 :  -0.0833 0.4167 0.0833  plane waves:     470
 k-point 16 :  -0.4167-0.4167 0.0833  plane waves:     464
 k-point 17 :  -0.2500-0.4167 0.0833  plane waves:     471
 k-point 18 :  -0.2500-0.2500 0.0833  plane waves:     469
 k-point 19 :   0.2500 0.2500 0.2500  plane waves:     483
 k-point 20 :   0.4167 0.2500 0.2500  plane waves:     473
 k-point 21 :  -0.4167 0.2500 0.2500  plane waves:     471
 k-point 22 :  -0.2500 0.2500 0.2500  plane waves:     472
 k-point 23 :   0.4167 0.4167 0.2500  plane waves:     467
 k-point 24 :  -0.4167 0.4167 0.2500  plane waves:     475
 k-point 25 :  -0.2500 0.4167 0.2500  plane waves:     469
 k-point 26 :  -0.4167-0.4167 0.2500  plane waves:     472
 k-point 27 :   0.4167 0.4167 0.4167  plane waves:     471
 k-point 28 :  -0.4167 0.4167 0.4167  plane waves:     469

 maximum and minimum number of plane-waves per node :       495      464

 maximum number of plane-waves:       495
 maximum index in each direction: 
   IXMAX=    5   IYMAX=    5   IZMAX=    5
   IXMIN=   -5   IYMIN=   -5   IZMIN=   -5


 serial   3D FFT for wavefunctions
 parallel 3D FFT for charge:
    minimum data exchange during FFTs selected (reduces bandwidth)


 total amount of memory used by VASP MPI-rank0    31671. kBytes
=======================================================================

   base      :      30000. kBytes
   nonl-proj :        904. kBytes
   fftplans  :        160. kBytes
   grid      :        372. kBytes
   one-center:          6. kBytes
   wavefun   :        229. kBytes
 
     INWAV:  cpu time    0.0000: real time    0.0002
 Broyden mixing: mesh for mixing (old mesh)
   NGX = 11   NGY = 11   NGZ = 11
  (NGX  = 32   NGY  = 32   NGZ  = 32)
  gives a total of   1331 points

 initial charge density was supplied:
 charge density of overlapping atoms calculated
 number of electron       8.0000000 magnetization 
 keeping initial charge density in first step


--------------------------------------------------------------------------------------------------------


 Maximum index for augmentation-charges          433 (set IRDMAX)


--------------------------------------------------------------------------------------------------------


 First call to EWALD:  gamma=   0.518
 Maximum number of real-space cells 3x 3x 3
 Maximum number of reciprocal cells 3x 3x 3

    FEWALD:  cpu time    0.0040: real time    0.0076


--------------------------------------- Iteration      1(   1)  ---------------------------------------


    POTLOK:  cpu time    0.0280: real time    0.0413
    SETDIJ:  cpu time    0.0080: real time    0.0092
     EDDAV:  cpu time    0.2480: real time    0.2516
       DOS:  cpu time    0.0000: real time    0.0023
    --------------------------------------------
      LOOP:  cpu time    0.2840: real time    0.3053

 eigenvalue-minimisations  :   456
 total energy-change (2. order) : 0.2287325E+01  (-0.2524145E+03)
 number of electron       8.0000000 magnetization 
 augmentation part        8.0000000 magnetization 

 Free energy of the ion-electron system (eV)
  ---------------------------------------------------
  alpha Z        PSCENC =         3.36414203
  Ewald energy   TEWEN  =      -228.56352493
  -Hartree energ DENC   =       -11.00108243
  -exchange      EXHF   =         0.00000000
  -V(xc)+E(xc)   XCENC  =       -18.60181216
  PAW double counting   =        65.95520812      -30.76852678
  entropy T*S    EENTRO =        -0.01308371
  eigenvalues    EBANDS =        15.78631928
  atomic energy  EATOM  =       206.12968587
  Solvation  Ediel_sol  =         0.00000000
  ---------------------------------------------------
  free energy    TOTEN  =         2.28732528 eV

  energy without entropy =        2.30040899  energy(sigma->0) =        2.29386714


--------------------------------------------------------------------------------------------------------




--------------------------------------- Iteration      1(   2)  ---------------------------------------


     EDDAV:  cpu time    0.3920: real time    0.3988
       DOS:  cpu time    0.0000: real time    0.0021
    --------------------------------------------
      LOOP:  cpu time    0.3960: real time    0.4007

 eigenvalue-minimisations  :   696
 total energy-change (2. order) :-0.1313081E+02  (-0.1276615E+02)
 number of electron       8.0000000 magnetization 
 augmentation part        8.0000000 magnetization 

 Free energy of the ion-electron system (eV)
  ---------------------------------------------------
  alpha Z        PSCENC =         3.36414203
  Ewald energy   TEWEN  =      -228.56352493
  -Hartree energ DENC   =       -11.00108243
  -exchange      EXHF   =         0.00000000
  -V(xc)+E(xc)   XCENC  =       -18.60181216
  PAW double counting   =        65.95520812      -30.76852678
  entropy T*S    EENTRO =        -0.00000062
  eigenvalues    EBANDS =         2.64242288
  atomic energy  EATOM  =       206.12968587
  Solvation  Ediel_sol  =         0.00000000
  ---------------------------------------------------
  free energy    TOTEN  =       -10.84348803 eV

  energy without entropy =      -10.84348741  energy(sigma->0) =      -10.84348772


--------------------------------------------------------------------------------------------------------




--------------------------------------- Iteration      1(   3)  ---------------------------------------


     EDDAV:  cpu time    0.3080: real time    0.3124
       DOS:  cpu time    0.0040: real time    0.0021
    --------------------------------------------
      LOOP:  cpu time    0.3080: real time    0.3144

 eigenvalue-minimisations  :   560
 total energy-change (2. order) :-0.1741066E+00  (-0.1741066E+00)
 number of electron       8.0000000 magnetization 
 augmentation part        8.0000000 magnetization 

 Free energy of the ion-electron system (eV)
  ---------------------------------------------------
  alpha Z        PSCENC =         3.36414203
  Ewald energy   TEWEN  =      -228.56352493
  -Hartree energ DENC   =       -11.00108243
  -exchange      EXHF   =         0.00000000
  -V(xc)+E(xc)   XCENC  =       -18.60181216
  PAW double counting   =        65.95520812      -30.76852678
  entropy T*S    EENTRO =        -0.00000046
  eigenvalues    EBANDS =         2.46831614
  atomic energy  EATOM  =       206.12968587
  Solvation  Ediel_sol  =         0.00000000
  ---------------------------------------------------
  free energy    TOTEN  =       -11.01759461 eV

  energy without entropy =      -11.01759414  energy(sigma->0) =      -11.01759438


--------------------------------------------------------------------------------------------------------




--------------------------------------- Iteration      1(   4)  ---------------------------------------


     EDDAV:  cpu time    0.4160: real time    0.4214
       DOS:  cpu time    0.0000: real time    0.0022
    --------------------------------------------
      LOOP:  cpu time    0.4160: real time    0.4236

 eigenvalue-minimisations  :   736
 total energy-change (2. order) :-0.5313347E-03  (-0.5313342E-03)
 number of electron       8.0000000 magnetization 
 augmentation part        8.0000000 magnetization 

 Free energy of the ion-electron system (eV)
  ---------------------------------------------------
  alpha Z        PSCENC =         3.36414203
  Ewald energy   TEWEN  =      -228.56352493
  -Hartree energ DENC   =       -11.00108243
  -exchange      EXHF   =         0.00000000
  -V(xc)+E(xc)   XCENC  =       -18.60181216
  PAW double counting   =        65.95520812      -30.76852678
  entropy T*S    EENTRO =        -0.00000046
  eigenvalues    EBANDS =         2.46778481
  atomic energy  EATOM  =       206.12968587
  Solvation  Ediel_sol  =         0.00000000
  ---------------------------------------------------
  free energy    TOTEN  =       -11.01812594 eV

  energy without entropy =      -11.01812548  energy(sigma->0) =      -11.01812571


--------------------------------------------------------------------------------------------------------




--------------------------------------- Iteration      1(   5)  ---------------------------------------


     EDDAV:  cpu time    0.3200: real time    0.3229
       DOS:  cpu time    0.0040: real time    0.0024
    CHARGE:  cpu time    0.0120: real time    0.0156
    MIXING:  cpu time    0.0040: real time    0.0021
    --------------------------------------------
      LOOP:  cpu time    0.3400: real time    0.3430

 eigenvalue-minimisations  :   568
 total energy-change (2. order) :-0.6505653E-06  (-0.6505642E-06)
 number of electron       7.9999994 magnetization 
 augmentation part       -0.4705203 magnetization 

 Broyden mixing:
  rms(total) = 0.30058E+00    rms(broyden)= 0.30057E+00
  rms(prec ) = 0.87212E+00
  weight for this iteration     100.00

 Free energy of the ion-electron system (eV)
  ---------------------------------------------------
  alpha Z        PSCENC =         3.36414203
  Ewald energy   TEWEN  =      -228.56352493
  -Hartree energ DENC   =       -11.00108243
  -exchange      EXHF   =         0.00000000
  -V(xc)+E(xc)   XCENC  =       -18.60181216
  PAW double counting   =        65.95520812      -30.76852678
  entropy T*S    EENTRO =        -0.00000046
  eigenvalues    EBANDS =         2.46778416
  atomic energy  EATOM  =       206.12968587
  Solvation  Ediel_sol  =         0.00000000
  ---------------------------------------------------
  free energy    TOTEN  =       -11.01812659 eV

  energy without entropy =      -11.01812613  energy(sigma->0) =      -11.01812636


--------------------------------------------------------------------------------------------------------




--------------------------------------- Iteration      1(   6)  ---------------------------------------


    POTLOK:  cpu time    0.0200: real time    0.0241
    SETDIJ:  cpu time    0.0080: real time    0.0085
     EDDAV:  cpu time    0.2840: real time    0.2836
       DOS:  cpu time    0.0000: real time    0.0022
    CHARGE:  cpu time    0.0160: real time    0.0141
    MIXING:  cpu time    0.0000: real time    0.0017
    --------------------------------------------
      LOOP:  cpu time    0.3280: real time    0.3343

 eigenvalue-minimisations  :   528
 total energy-change (2. order) : 0.1244646E+00  (-0.8230507E-02)
 number of electron       7.9999994 magnetization 
 augmentation part       -0.4646603 magnetization 

 Broyden mixing:
  rms(total) = 0.17804E+00    rms(broyden)= 0.17804E+00
  rms(prec ) = 0.51311E+00
  weight for this iteration     100.00

 eigenvalues of (default mixing * dielectric matrix)
  average eigenvalue GAMMA=   2.4322
  2.4322

 Free energy of the ion-electron system (eV)
  ---------------------------------------------------
  alpha Z        PSCENC =         3.36414203
  Ewald energy   TEWEN  =      -228.56352493
  -Hartree energ DENC   =       -12.49715688
  -exchange      EXHF   =         0.00000000
  -V(xc)+E(xc)   XCENC  =       -18.36390461
  PAW double counting   =        70.01600312      -34.94086647
  entropy T*S    EENTRO =        -0.00000369
  eigenvalues    EBANDS =         3.96196358
  atomic energy  EATOM  =       206.12968587
  Solvation  Ediel_sol  =         0.00000000
  ---------------------------------------------------
  free energy    TOTEN  =       -10.89366196 eV

  energy without entropy =      -10.89365828  energy(sigma->0) =      -10.89366012


--------------------------------------------------------------------------------------------------------




--------------------------------------- Iteration      1(   7)  ---------------------------------------


    POTLOK:  cpu time    0.0200: real time    0.0253
    SETDIJ:  cpu time    0.0080: real time    0.0084
     EDDAV:  cpu time    0.3160: real time    0.3156
       DOS:  cpu time    0.0040: real time    0.0023
    CHARGE:  cpu time    0.0120: real time    0.0137
    MIXING:  cpu time    0.0000: real time    0.0017
    --------------------------------------------
      LOOP:  cpu time    0.3640: real time    0.3670

 eigenvalue-minimisations  :   584
 total energy-change (2. order) : 0.5684180E-01  (-0.1512746E-01)
 number of electron       7.9999994 magnetization 
 augmentation part       -0.4576373 magnetization 

 Broyden mixing:
  rms(total) = 0.15366E-01    rms(broyden)= 0.15366E-01
  rms(prec ) = 0.40020E-01
  weight for this iteration     100.00

 eigenvalues of (default mixing * dielectric matrix)
  average eigenvalue GAMMA=   2.4585
  2.4585  2.4585

 Free energy of the ion-electron system (eV)
  ---------------------------------------------------
  alpha Z        PSCENC =         3.36414203
  Ewald energy   TEWEN  =      -228.56352493
  -Hartree energ DENC   =       -14.89935834
  -exchange      EXHF   =         0.00000000
  -V(xc)+E(xc)   XCENC  =       -17.97477533
  PAW double counting   =        75.39859589      -40.46604555
  entropy T*S    EENTRO =        -0.00003584
  eigenvalues    EBANDS =         6.17449602
  atomic energy  EATOM  =       206.12968587
  Solvation  Ediel_sol  =         0.00000000
  ---------------------------------------------------
  free energy    TOTEN  =       -10.83682017 eV

  energy without entropy =      -10.83678433  energy(sigma->0) =      -10.83680225


--------------------------------------------------------------------------------------------------------




--------------------------------------- Iteration      1(   8)  ---------------------------------------


    POTLOK:  cpu time    0.0200: real time    0.0247
    SETDIJ:  cpu time    0.0120: real time    0.0085
     EDDAV:  cpu time    0.2720: real time    0.2729
       DOS:  cpu time    0.0000: real time    0.0022
    CHARGE:  cpu time    0.0160: real time    0.0137
    MIXING:  cpu time    0.0000: real time    0.0016
    --------------------------------------------
      LOOP:  cpu time    0.3160: real time    0.3235

 eigenvalue-minimisations  :   512
 total energy-change (2. order) :-0.1309538E-02  (-0.4097051E-03)
 number of electron       7.9999994 magnetization 
 augmentation part       -0.4586214 magnetization 

 Broyden mixing:
  rms(total) = 0.25199E-02    rms(broyden)= 0.25195E-02
  rms(prec ) = 0.83682E-02
  weight for this iteration     100.00

 eigenvalues of (default mixing * dielectric matrix)
  average eigenvalue GAMMA=   2.1201
  1.3635  2.8004  2.1964

 Free energy of the ion-electron system (eV)
  ---------------------------------------------------
  alpha Z        PSCENC =         3.36414203
  Ewald energy   TEWEN  =      -228.56352493
  -Hartree energ DENC   =       -14.86504098
  -exchange      EXHF   =         0.00000000
  -V(xc)+E(xc)   XCENC  =       -17.96656657
  PAW double counting   =        74.51377519      -39.55291008
  entropy T*S    EENTRO =        -0.00002723
  eigenvalues    EBANDS =         6.10233699
  atomic energy  EATOM  =       206.12968587
  Solvation  Ediel_sol  =         0.00000000
  ---------------------------------------------------
  free energy    TOTEN  =       -10.83812970 eV

  energy without entropy =      -10.83810248  energy(sigma->0) =      -10.83811609


--------------------------------------------------------------------------------------------------------




--------------------------------------- Iteration      1(   9)  ---------------------------------------


    POTLOK:  cpu time    0.0200: real time    0.0246
    SETDIJ:  cpu time    0.0080: real time    0.0085
     EDDAV:  cpu time    0.2320: real time    0.2337
       DOS:  cpu time    0.0040: real time    0.0023
    --------------------------------------------
      LOOP:  cpu time    0.2640: real time    0.2694

 eigenvalue-minimisations  :   408
 total energy-change (2. order) :-0.9297866E-04  (-0.9681039E-05)
 number of electron       7.9999994 magnetization 
 augmentation part       -0.4586214 magnetization 

 Free energy of the ion-electron system (eV)
  ---------------------------------------------------
  alpha Z        PSCENC =         3.36414203
  Ewald energy   TEWEN  =      -228.56352493
  -Hartree energ DENC   =       -14.90451562
  -exchange      EXHF   =         0.00000000
  -V(xc)+E(xc)   XCENC  =       -17.95993243
  PAW double counting   =        74.50841281      -39.54764401
  entropy T*S    EENTRO =        -0.00002699
  eigenvalues    EBANDS =         6.13518059
  atomic energy  EATOM  =       206.12968587
  Solvation  Ediel_sol  =         0.00000000
  ---------------------------------------------------
  free energy    TOTEN  =       -10.83822268 eV

  energy without entropy =      -10.83819569  energy(sigma->0) =      -10.83820919


--------------------------------------------------------------------------------------------------------




 average (electrostatic) potential at core
  the test charge radii are     0.9892
  (the norm of the test charge is              1.0000)
       1 -83.2500       2 -83.2500
 
 
 
 E-fermi :   6.1369     XC(G=0):  -9.4137     alpha+bet :-11.9845


 k-point     1 :       0.0833    0.0833    0.0833
  band No.  band energies     occupation 
      1      -6.0409      2.00000
      2       4.9723      2.00000
      3       5.6867      1.99854
      4       5.6867      1.99854
      5       8.4441      0.00000
      6       8.6109      0.00000
      7       8.6109      0.00000
      8       9.8674      0.00000

 k-point     2 :       0.2500    0.0833    0.0833
  band No.  band energies     occupation 
      1      -5.5623      2.00000
      2       2.8891      2.00000
      3       4.4452      2.00000
      4       5.4776      2.00000
      5       8.5543      0.00000
      6       9.0078      0.00000
      7       9.3682      0.00000
      8      11.5797      0.00000

 k-point     3 :       0.4167    0.0833    0.0833
  band No.  band energies     occupation 
      1      -4.4650      2.00000
      2       0.1149      2.00000
      3       3.9821      2.00000
      4       4.8383      2.00000
      5       8.0452      0.00000
      6       9.3889      0.00000
      7       9.4292      0.00000
      8      13.3249      0.00000

 k-point     4 :      -0.4167    0.0833    0.0833
  band No.  band energies     occupation 
      1      -3.7617      2.00000
      2      -1.0357      2.00000
      3       4.0504      2.00000
      4       4.4555      2.00000
      5       7.8846      0.00000
      6       9.1028      0.00000
      7       9.5322      0.00000
      8      13.7556      0.00000

 k-point     5 :      -0.2500    0.0833    0.0833
  band No.  band energies     occupation 
      1      -4.8788      2.00000
      2       0.9654      2.00000
      3       4.5144      2.00000
      4       4.5520      2.00000
      5       8.1300      0.00000
      6       9.1351      0.00000
      7       9.9276      0.00000
      8      11.8095      0.00000

 k-point     6 :      -0.0833    0.0833    0.0833
  band No.  band energies     occupation 
      1      -5.7992      2.00000
      2       3.9043      2.00000
      3       5.0371      2.00000
      4       5.2281      2.00000
      5       8.1467      0.00000
      6       9.0632      0.00000
      7       9.5182      0.00000
      8      10.7401      0.00000

 k-point     7 :       0.2500    0.2500    0.0833
  band No.  band energies     occupation 
      1      -5.3201      2.00000
      2       2.7069      2.00000
      3       4.2913      2.00000
      4       4.3041      2.00000
      5       7.5586      0.00000
      6       9.7353      0.00000
      7      10.5199      0.00000
      8      10.7473      0.00000

 k-point     8 :       0.4167    0.2500    0.0833
  band No.  band energies     occupation 
      1      -4.4059      2.00000
      2       0.8612      2.00000
      3       2.9644      2.00000
      4       3.9161      2.00000
      5       7.9576      0.00000
      6       9.5840      0.00000
      7      10.4010      0.00000
      8      11.8636      0.00000

 k-point     9 :      -0.4167    0.2500    0.0833
  band No.  band energies     occupation 
      1      -3.2828      2.00000
      2      -0.9013      2.00000
      3       2.3621      2.00000
      4       3.6869      2.00000
      5       8.2072      0.00000
      6       9.7732      0.00000
      7      11.7374      0.00000
      8      12.1207      0.00000

 k-point    10 :      -0.2500    0.2500    0.0833
  band No.  band energies     occupation 
      1      -4.0093      2.00000
      2       0.1640      2.00000
      3       2.3174      2.00000
      4       4.1771      2.00000
      5       8.8176      0.00000
      6       9.4418      0.00000
      7      11.1311      0.00000
      8      11.6074      0.00000

 k-point    11 :      -0.0833    0.2500    0.0833
  band No.  band energies     occupation 
      1      -5.0937      2.00000
      2       1.8635      2.00000
      3       3.6651      2.00000
      4       4.8503      2.00000
      5       8.4543      0.00000
      6       9.3536      0.00000
      7      10.4014      0.00000
      8      10.7328      0.00000

 k-point    12 :       0.4167    0.4167    0.0833
  band No.  band energies     occupation 
      1      -3.6917      2.00000
      2       0.0350      2.00000
      3       2.9276      2.00000
      4       3.2711      2.00000
      5       6.7219      0.00004
      6       7.6949      0.00000
      7      13.4326      0.00000
      8      13.4780      0.00000

 k-point    13 :      -0.4167    0.4167    0.0833
  band No.  band energies     occupation 
      1      -2.4899      2.00000
      2      -1.3102      2.00000
      3       2.0787      2.00000
      4       2.8606      2.00000
      5       7.3467      0.00000
      6       8.4743      0.00000
      7      12.9622      0.00000
      8      14.4509      0.00000

 k-point    14 :      -0.2500    0.4167    0.0833
  band No.  band energies     occupation 
      1      -2.8610      2.00000
      2      -0.9764      2.00000
      3       1.5933      2.00000
      4       3.4094      2.00000
      5       7.9717      0.00000
      6      10.8957      0.00000
      7      11.8937      0.00000
      8      12.5772      0.00000

 k-point    15 :      -0.0833    0.4167    0.0833
  band No.  band energies     occupation 
      1      -3.8960      2.00000
      2      -0.5295      2.00000
      3       3.2690      2.00000
      4       4.2759      2.00000
      5       8.4413      0.00000
      6       9.0376      0.00000
      7      10.3782      0.00000
      8      12.6029      0.00000

 k-point    16 :      -0.4167   -0.4167    0.0833
  band No.  band energies     occupation 
      1      -2.5829      2.00000
      2      -1.3186      2.00000
      3       2.6567      2.00000
      4       3.0551      2.00000
      5       6.6048      0.00094
      6       7.1751      0.00000
      7      14.9217      0.00000
      8      15.0224      0.00000

 k-point    17 :      -0.2500   -0.4167    0.0833
  band No.  band energies     occupation 
      1      -3.5219      2.00000
      2      -0.1901      2.00000
      3       2.4037      2.00000
      4       3.2025      2.00000
      5       7.5602      0.00000
      6       8.8430      0.00000
      7      11.6034      0.00000
      8      13.4260      0.00000

 k-point    18 :      -0.2500   -0.2500    0.0833
  band No.  band energies     occupation 
      1      -4.6125      2.00000
      2       1.4051      2.00000
      3       3.4761      2.00000
      4       3.6951      2.00000
      5       7.0474      0.00000
      6       8.6145      0.00000
      7      11.8865      0.00000
      8      12.0806      0.00000

 k-point    19 :       0.2500    0.2500    0.2500
  band No.  band energies     occupation 
      1      -5.3317      2.00000
      2       1.9044      2.00000
      3       5.0714      2.00000
      4       5.0714      2.00000
      5       7.8650      0.00000
      6       9.3431      0.00000
      7       9.3431      0.00000
      8      12.7562      0.00000

 k-point    20 :       0.4167    0.2500    0.2500
  band No.  band energies     occupation 
      1      -4.6497      2.00000
      2       0.9725      2.00000
      3       2.9282      2.00000
      4       4.9028      2.00000
      5       8.6213      0.00000
      6       9.8399      0.00000
      7      10.0136      0.00000
      8      11.9719      0.00000

 k-point    21 :      -0.4167    0.2500    0.2500
  band No.  band energies     occupation 
      1      -3.4646      2.00000
      2      -0.4718      2.00000
      3       1.8141      2.00000
      4       4.1116      2.00000
      5       7.8590      0.00000
      6      11.1633      0.00000
      7      11.2768      0.00000
      8      13.0223      0.00000

 k-point    22 :      -0.2500    0.2500    0.2500
  band No.  band energies     occupation 
      1      -3.4125      2.00000
      2      -0.5513      2.00000
      3       2.2969      2.00000
      4       3.6265      2.00000
      5       7.3535      0.00000
      6      10.2836      0.00000
      7      11.5850      0.00000
      8      11.7615      0.00000

 k-point    23 :       0.4167    0.4167    0.2500
  band No.  band energies     occupation 
      1      -4.2236      2.00000
      2       0.1602      2.00000
      3       3.3997      2.00000
      4       4.0017      2.00000
      5       7.8451      0.00000
      6      10.0967      0.00000
      7      10.7355      0.00000
      8      10.8896      0.00000

 k-point    24 :      -0.4167    0.4167    0.2500
  band No.  band energies     occupation 
      1      -3.2168      2.00000
      2      -0.5824      2.00000
      3       1.9143      2.00000
      4       3.1992      2.00000
      5       9.0622      0.00000
      6       9.6022      0.00000
      7      10.5938      0.00000
      8      13.3382      0.00000

 k-point    25 :      -0.2500    0.4167    0.2500
  band No.  band energies     occupation 
      1      -2.3816      2.00000
      2      -1.3179      2.00000
      3       1.7468      2.00000
      4       2.5271      2.00000
      5       8.8583      0.00000
      6      10.1215      0.00000
      7      10.9505      0.00000
      8      12.3381      0.00000

 k-point    26 :      -0.4167   -0.4167    0.2500
  band No.  band energies     occupation 
      1      -2.5930      2.00000
      2      -1.2254      2.00000
      3       1.6199      2.00000
      4       3.4312      2.00000
      5       7.0732      0.00000
      6       9.9985      0.00000
      7      12.9430      0.00000
      8      13.1552      0.00000

 k-point    27 :       0.4167    0.4167    0.4167
  band No.  band energies     occupation 
      1      -4.1335      2.00000
      2      -0.6333      2.00000
      3       4.6826      2.00000
      4       4.6826      2.00000
      5       7.4304      0.00000
      6       9.2322      0.00000
      7       9.2322      0.00000
      8      13.6401      0.00000

 k-point    28 :      -0.4167    0.4167    0.4167
  band No.  band energies     occupation 
      1      -3.5252      2.00000
      2      -0.9345      2.00000
      3       2.8406      2.00000
      4       4.2393      2.00000
      5       8.0220      0.00000
      6       9.9044      0.00000
      7      10.2349      0.00000
      8      13.8196      0.00000


--------------------------------------------------------------------------------------------------------


 soft charge-density along one line, spin component           1
         0         1         2         3         4         5         6         7         8         9
 total charge-density along one line
 
 pseudopotential strength for first ion, spin component:           1
 18.414  -0.001  -0.000  -0.000  -0.000   0.000   0.000   0.000
 -0.001   0.006   0.000   0.000   0.000  -0.000  -0.000  -0.000
 -0.000   0.000   4.179  -0.000  -0.000  -0.005   0.000   0.000
 -0.000   0.000  -0.000   4.179  -0.000   0.000  -0.005   0.000
 -0.000   0.000  -0.000  -0.000   4.179   0.000   0.000  -0.005
  0.000  -0.000  -0.005   0.000   0.000   0.005  -0.000  -0.000
  0.000  -0.000   0.000  -0.005   0.000  -0.000   0.005  -0.000
  0.000  -0.000   0.000   0.000  -0.005  -0.000  -0.000   0.005
 total augmentation occupancy for first ion, spin component:           1
  1.492  -0.805  -0.000  -0.000   0.000   0.000   0.000   0.000
 -0.805   0.807   0.000   0.000   0.000   0.000   0.000   0.000
 -0.000   0.000   1.030  -0.000   0.000  -0.589   0.000  -0.000
 -0.000   0.000  -0.000   1.030   0.000   0.000  -0.589  -0.000
  0.000  -0.000   0.000   0.000   1.030  -0.000  -0.000  -0.589
  0.000   0.000  -0.589   0.000  -0.000   0.396  -0.000   0.000
  0.000   0.000   0.000  -0.589  -0.000  -0.000   0.396   0.000
  0.000   0.000  -0.000  -0.000  -0.589   0.000   0.000   0.396


------------------------ aborting loop because EDIFF is reached ----------------------------------------


    CHARGE:  cpu time    0.0160: real time    0.0132
    FORLOC:  cpu time    0.0000: real time    0.0007
    FORNL :  cpu time    0.0120: real time    0.0116
    STRESS:  cpu time    0.1080: real time    0.1105
    FORCOR:  cpu time    0.0160: real time    0.0142
    FORHAR:  cpu time    0.0040: real time    0.0038
    MIXING:  cpu time    0.0000: real time    0.0013
    OFIELD:  cpu time    0.0000: real time    0.0005

  FORCE on cell =-STRESS in cart. coord.  units (eV):
  Direction    XX          YY          ZZ          XY          YZ          ZX
  --------------------------------------------------------------------------------------
  Alpha Z     3.36414     3.36414     3.36414
  Ewald     -76.18788   -76.18788   -76.18788    -0.00000    -0.00000     0.00000
  Hartree     4.97117     4.97117     4.97117    -0.00000    -0.00000    -0.00000
  E(xc)     -25.37469   -25.37469   -25.37469     0.00001     0.00001     0.00001
  Local     -29.26309   -29.26309   -29.26309     0.00005     0.00005     0.00005
  n-local    77.57162    80.29530    75.82435     0.97957    -1.24518     0.08048
  augment   -11.64838   -11.64838   -11.64838    -0.00004    -0.00004    -0.00004
  Kinetic    58.09763    56.10000    55.94338     0.62169    -0.93908     0.07888
  Fock        0.00000     0.00000     0.00000     0.00000     0.00000     0.00000
  -------------------------------------------------------------------------------------
  Total       0.47204     0.47204     0.47204     0.00000     0.00000    -0.00000
  in kB      18.89508    18.89508    18.89508     0.00000     0.00000    -0.00000
  external pressure =       18.90 kB  Pullay stress =        0.00 kB


 VOLUME and BASIS-vectors are now :
 -----------------------------------------------------------------------------
  energy-cutoff  :      300.00
  volume of cell :       40.03
      direct lattice vectors                 reciprocal lattice vectors
     0.000000000  2.715000000  2.715000000    -0.184162063  0.184162063  0.184162063
     2.715000000  0.000000000  2.715000000     0.184162063 -0.184162063  0.184162063
     2.715000000  2.715000000  0.000000000     0.184162063  0.184162063 -0.184162063

  length of vectors
     3.839589822  3.839589822  3.839589822     0.318978049  0.318978049  0.318978049


 FORCES acting on ions
    electron-ion (+dipol)            ewald-force                    non-local-force                 convergence-correction
 -----------------------------------------------------------------------------------------------
   0.105E-05 0.105E-05 0.214E-05   -.476E-15 -.149E-14 0.391E-14   -.157E-16 -.192E-16 -.990E-17   -.299E-06 -.299E-06 -.299E-06
   -.105E-05 -.105E-05 -.214E-05   0.623E-15 0.106E-14 -.375E-14   0.138E-16 0.225E-16 0.905E-17   0.299E-06 0.299E-06 0.299E-06
 -----------------------------------------------------------------------------------------------
   0.107E-12 0.559E-13 0.116E-13   0.147E-15 -.426E-15 0.164E-15   -.190E-17 0.331E-17 -.847E-18   -.308E-14 -.156E-14 0.483E-16
 
 
 POSITION                                       TOTAL-FORCE (eV/Angst)
 -----------------------------------------------------------------------------------
      2.71500      2.71500      2.71500         0.000000      0.000000     -0.000000
      4.07250      4.07250      4.07250        -0.000000     -0.000000      0.000000
 -----------------------------------------------------------------------------------
    total drift:                                0.000000      0.000000      0.000000


--------------------------------------------------------------------------------------------------------



  FREE ENERGIE OF THE ION-ELECTRON SYSTEM (eV)
  ---------------------------------------------------
  free  energy   TOTEN  =       -10.83822268 eV

  energy  without entropy=      -10.83819569  energy(sigma->0) =      -10.83820919
 


--------------------------------------------------------------------------------------------------------


    POTLOK:  cpu time    0.0320: real time    0.0409


--------------------------------------------------------------------------------------------------------




--------------------------------------------------------------------------------------------------------


    WAVPRE:  cpu time    0.6680: real time    0.9143
    FEWALD:  cpu time    0.0000: real time    0.0007
    GENKIN:  cpu time    0.0160: real time    0.0131
    ORTHCH:  cpu time    0.0200: real time    0.0214
     LOOP+:  cpu time    3.9720: real time    4.3343


--------------------------------------- Iteration      2(   1)  ---------------------------------------


    POTLOK:  cpu time    0.0200: real time    0.0239
    SETDIJ:  cpu time    0.0080: real time    0.0084
     EDDAV:  cpu time    0.3200: real time    0.3178
       DOS:  cpu time    0.0000: real time    0.0022
    CHARGE:  cpu time    0.0160: real time    0.0138
    MIXING:  cpu time    0.0000: real time    0.0013
    --------------------------------------------
      LOOP:  cpu time    0.3640: real time    0.3681

 eigenvalue-minimisations  :   584
 total energy-change (2. order) :-0.8840104E-02  (-0.2453310E-01)
 number of electron       7.9999999 magnetization 
 augmentation part       -0.4607960 magnetization 

 Broyden mixing:
  rms(total) = 0.31400E-01    rms(broyden)= 0.31397E-01
  rms(prec ) = 0.11395E+00
  weight for this iteration     100.00

 Free energy of the ion-electron system (eV)
  ---------------------------------------------------
  alpha Z        PSCENC =         3.25179566
  Ewald energy   TEWEN  =      -225.99035283
  -Hartree energ DENC   =       -14.74826379
  -exchange      EXHF   =         0.00000000
  -V(xc)+E(xc)   XCENC  =       -18.12596760
  PAW double counting   =        74.50671851      -39.54692181
  entropy T*S    EENTRO =        -0.00000725
  eigenvalues    EBANDS =         3.67634343
  atomic energy  EATOM  =       206.12968587
  Solvation  Ediel_sol  =         0.00000000
  ---------------------------------------------------
  free energy    TOTEN  =       -10.84696981 eV

  energy without entropy =      -10.84696256  energy(sigma->0) =      -10.84696618


--------------------------------------------------------------------------------------------------------




--------------------------------------- Iteration      2(   2)  ---------------------------------------


    POTLOK:  cpu time    0.0200: real time    0.0252
    SETDIJ:  cpu time    0.0080: real time    0.0086
     EDDAV:  cpu time    0.3080: real time    0.3073
       DOS:  cpu time    0.0040: real time    0.0023
    CHARGE:  cpu time    0.0120: real time    0.0136
    MIXING:  cpu time    0.0000: real time    0.0014
    --------------------------------------------
      LOOP:  cpu time    0.3520: real time    0.3584

 eigenvalue-minimisations  :   576
 total energy-change (2. order) : 0.4161986E-02  (-0.3417787E-03)
 number of electron       7.9999999 magnetization 
 augmentation part       -0.4597994 magnetization 

 Broyden mixing:
  rms(total) = 0.18007E-01    rms(broyden)= 0.18007E-01
  rms(prec ) = 0.65258E-01
  weight for this iteration     100.00

 eigenvalues of (default mixing * dielectric matrix)
  average eigenvalue GAMMA=   2.2953
  2.2953

 Free energy of the ion-electron system (eV)
  ---------------------------------------------------
  alpha Z        PSCENC =         3.25179566
  Ewald energy   TEWEN  =      -225.99035283
  -Hartree energ DENC   =       -14.99513589
  -exchange      EXHF   =         0.00000000
  -V(xc)+E(xc)   XCENC  =       -18.11809968
  PAW double counting   =        74.20327299      -39.23601423
  entropy T*S    EENTRO =        -0.00000981
  eigenvalues    EBANDS =         3.91205010
  atomic energy  EATOM  =       206.12968587
  Solvation  Ediel_sol  =         0.00000000
  ---------------------------------------------------
  free energy    TOTEN  =       -10.84280782 eV

  energy without entropy =      -10.84279801  energy(sigma->0) =      -10.84280292


--------------------------------------------------------------------------------------------------------




--------------------------------------- Iteration      2(   3)  ---------------------------------------


    POTLOK:  cpu time    0.0200: real time    0.0251
    SETDIJ:  cpu time    0.0080: real time    0.0085
     EDDAV:  cpu time    0.2960: real time    0.2960
       DOS:  cpu time    0.0040: real time    0.0023
    CHARGE:  cpu time    0.0120: real time    0.0135
    MIXING:  cpu time    0.0040: real time    0.0015
    --------------------------------------------
      LOOP:  cpu time    0.3440: real time    0.3469

 eigenvalue-minimisations  :   552
 total energy-change (2. order) : 0.2178330E-02  (-0.4419601E-03)
 number of electron       7.9999999 magnetization 
 augmentation part       -0.4578276 magnetization 

 Broyden mixing:
  rms(total) = 0.22541E-02    rms(broyden)= 0.22540E-02
  rms(prec ) = 0.51184E-02
  weight for this iteration     100.00

 eigenvalues of (default mixing * dielectric matrix)
  average eigenvalue GAMMA=   2.1179
  1.9362  2.2996

 Free energy of the ion-electron system (eV)
  ---------------------------------------------------
  alpha Z        PSCENC =         3.25179566
  Ewald energy   TEWEN  =      -225.99035283
  -Hartree energ DENC   =       -15.32056629
  -exchange      EXHF   =         0.00000000
  -V(xc)+E(xc)   XCENC  =       -18.11118544
  PAW double counting   =        73.63072518      -38.64864987
  entropy T*S    EENTRO =        -0.00001420
  eigenvalues    EBANDS =         4.21793243
  atomic energy  EATOM  =       206.12968587
  Solvation  Ediel_sol  =         0.00000000
  ---------------------------------------------------
  free energy    TOTEN  =       -10.84062949 eV

  energy without entropy =      -10.84061529  energy(sigma->0) =      -10.84062239


--------------------------------------------------------------------------------------------------------




--------------------------------------- Iteration      2(   4)  ---------------------------------------


    POTLOK:  cpu time    0.0200: real time    0.0262
    SETDIJ:  cpu time    0.0080: real time    0.0085
     EDDAV:  cpu time    0.1560: real time    0.1577
       DOS:  cpu time    0.0000: real time    0.0022
    --------------------------------------------
      LOOP:  cpu time    0.1880: real time    0.1946

 eigenvalue-minimisations  :   256
 total energy-change (2. order) : 0.1071843E-04  (-0.4781995E-05)
 number of electron       7.9999999 magnetization 
 augmentation part       -0.4578276 magnetization 

 Free energy of the ion-electron system (eV)
  ---------------------------------------------------
  alpha Z        PSCENC =         3.25179566
  Ewald energy   TEWEN  =      -225.99035283
  -Hartree energ DENC   =       -15.31665312
  -exchange      EXHF   =         0.00000000
  -V(xc)+E(xc)   XCENC  =       -18.11436891
  PAW double counting   =        73.47779143      -38.48961266
  entropy T*S    EENTRO =        -0.00001391
  eigenvalues    EBANDS =         4.21110968
  atomic energy  EATOM  =       206.12968587
  Solvation  Ediel_sol  =         0.00000000
  ---------------------------------------------------
  free energy    TOTEN  =       -10.84061877 eV

  energy without entropy =      -10.84060487  energy(sigma->0) =      -10.84061182


--------------------------------------------------------------------------------------------------------




 average (electrostatic) potential at core
  the test charge radii are     0.9892
  (the norm of the test charge is              1.0000)
       1 -83.6246       2 -83.6246
 
 
 
 E-fermi :   5.8334     XC(G=0):  -9.2793     alpha+bet :-11.5843


 k-point     1 :       0.0833    0.0833    0.0833
  band No.  band energies     occupation 
      1      -6.1507      2.00000
      2       4.6339      2.00000
      3       5.3547      1.99929
      4       5.3547      1.99929
      5       8.0271      0.00000
      6       8.2512      0.00000
      7       8.2512      0.00000
      8       9.2151      0.00000

 k-point     2 :       0.2500    0.0833    0.0833
  band No.  band energies     occupation 
      1      -5.6862      2.00000
      2       2.5786      2.00000
      3       4.1527      2.00000
      4       5.1466      2.00000
      5       8.1011      0.00000
      6       8.6422      0.00000
      7       8.9793      0.00000
      8      11.0338      0.00000

 k-point     3 :       0.4167    0.0833    0.0833
  band No.  band energies     occupation 
      1      -4.6253      2.00000
      2      -0.1167      2.00000
      3       3.6913      2.00000
      4       4.5253      2.00000
      5       7.5922      0.00000
      6       9.0462      0.00000
      7       9.0867      0.00000
      8      12.8502      0.00000

 k-point     4 :      -0.4167    0.0833    0.0833
  band No.  band energies     occupation 
      1      -3.9534      2.00000
      2      -1.2246      2.00000
      3       3.7511      2.00000
      4       4.1558      2.00000
      5       7.4409      0.00000
      6       8.7731      0.00000
      7       9.1958      0.00000
      8      13.3319      0.00000

 k-point     5 :      -0.2500    0.0833    0.0833
  band No.  band energies     occupation 
      1      -5.0244      2.00000
      2       0.7080      2.00000
      3       4.2179      2.00000
      4       4.2381      2.00000
      5       7.7012      0.00000
      6       8.7654      0.00000
      7       9.5573      0.00000
      8      11.4161      0.00000

 k-point     6 :      -0.0833    0.0833    0.0833
  band No.  band energies     occupation 
      1      -5.9161      2.00000
      2       3.5697      2.00000
      3       4.7291      2.00000
      4       4.9001      2.00000
      5       7.7973      0.00000
      6       8.6135      0.00000
      7       9.1290      0.00000
      8      10.1747      0.00000

 k-point     7 :       0.2500    0.2500    0.0833
  band No.  band energies     occupation 
      1      -5.4510      2.00000
      2       2.3739      2.00000
      3       3.9960      2.00000
      4       4.0186      2.00000
      5       7.2325      0.00000
      6       9.3058      0.00000
      7      10.1295      0.00000
      8      10.3267      0.00000

 k-point     8 :       0.4167    0.2500    0.0833
  band No.  band energies     occupation 
      1      -4.5652      2.00000
      2       0.5702      2.00000
      3       2.7180      2.00000
      4       3.6397      2.00000
      5       7.6248      0.00000
      6       9.2236      0.00000
      7       9.9775      0.00000
      8      11.4191      0.00000

 k-point     9 :      -0.4167    0.2500    0.0833
  band No.  band energies     occupation 
      1      -3.4873      2.00000
      2      -1.1220      2.00000
      3       2.1231      2.00000
      4       3.4211      2.00000
      5       7.8667      0.00000
      6       9.3878      0.00000
      7      11.3003      0.00000
      8      11.6885      0.00000

 k-point    10 :      -0.2500    0.2500    0.0833
  band No.  band energies     occupation 
      1      -4.1833      2.00000
      2      -0.1012      2.00000
      3       2.0925      2.00000
      4       3.8915      2.00000
      5       8.4349      0.00000
      6       9.0766      0.00000
      7      10.7087      0.00000
      8      11.1938      0.00000

 k-point    11 :      -0.0833    0.2500    0.0833
  band No.  band energies     occupation 
      1      -5.2319      2.00000
      2       1.5657      2.00000
      3       3.3956      2.00000
      4       4.5367      2.00000
      5       8.0883      0.00000
      6       8.9042      0.00000
      7       9.9971      0.00000
      8      10.3732      0.00000

 k-point    12 :       0.4167    0.4167    0.0833
  band No.  band energies     occupation 
      1      -3.8711      2.00000
      2      -0.2536      2.00000
      3       2.6875      2.00000
      4       3.0141      2.00000
      5       6.4329      0.00002
      6       7.4008      0.00000
      7      12.9191      0.00000
      8      12.9996      0.00000

 k-point    13 :      -0.4167    0.4167    0.0833
  band No.  band energies     occupation 
      1      -2.7099      2.00000
      2      -1.5629      2.00000
      3       1.8754      2.00000
      4       2.6231      2.00000
      5       7.0464      0.00000
      6       8.1446      0.00000
      7      12.4865      0.00000
      8      13.9139      0.00000

 k-point    14 :      -0.2500    0.4167    0.0833
  band No.  band energies     occupation 
      1      -3.0778      2.00000
      2      -1.2226      2.00000
      3       1.4033      2.00000
      4       3.1530      2.00000
      5       7.6474      0.00000
      6      10.5038      0.00000
      7      11.4666      0.00000
      8      12.1024      0.00000

 k-point    15 :      -0.0833    0.4167    0.0833
  band No.  band energies     occupation 
      1      -4.0776      2.00000
      2      -0.7472      2.00000
      3       2.9944      2.00000
      4       3.9850      2.00000
      5       8.0205      0.00000
      6       8.7080      0.00000
      7       9.9897      0.00000
      8      12.1760      0.00000

 k-point    16 :      -0.4167   -0.4167    0.0833
  band No.  band energies     occupation 
      1      -2.7959      2.00000
      2      -1.5692      2.00000
      3       2.4256      2.00000
      4       2.8037      2.00000
      5       6.3293      0.00045
      6       6.8848      0.00000
      7      14.3932      0.00000
      8      14.4602      0.00000

 k-point    17 :      -0.2500   -0.4167    0.0833
  band No.  band energies     occupation 
      1      -3.7089      2.00000
      2      -0.4691      2.00000
      3       2.1826      2.00000
      4       2.9548      2.00000
      5       7.2481      0.00000
      6       8.5102      0.00000
      7      11.1516      0.00000
      8      12.9348      0.00000

 k-point    18 :      -0.2500   -0.2500    0.0833
  band No.  band energies     occupation 
      1      -4.7643      2.00000
      2       1.0861      2.00000
      3       3.2151      2.00000
      4       3.4267      2.00000
      5       6.7414      0.00000
      6       8.2955      0.00000
      7      11.4126      0.00000
      8      11.6315      0.00000

 k-point    19 :       0.2500    0.2500    0.2500
  band No.  band energies     occupation 
      1      -5.4629      2.00000
      2       1.6273      2.00000
      3       4.7558      2.00000
      4       4.7558      2.00000
      5       7.4098      0.00000
      6       8.9773      0.00000
      7       8.9773      0.00000
      8      12.1417      0.00000

 k-point    20 :       0.4167    0.2500    0.2500
  band No.  band energies     occupation 
      1      -4.8023      2.00000
      2       0.6961      2.00000
      3       2.6820      2.00000
      4       4.5892      2.00000
      5       8.2079      0.00000
      6       9.4615      0.00000
      7       9.6192      0.00000
      8      11.4876      0.00000

 k-point    21 :      -0.4167    0.2500    0.2500
  band No.  band energies     occupation 
      1      -3.6593      2.00000
      2      -0.7216      2.00000
      3       1.6096      2.00000
      4       3.8258      2.00000
      5       7.5279      0.00000
      6      10.7580      0.00000
      7      10.8384      0.00000
      8      12.5168      0.00000

 k-point    22 :      -0.2500    0.2500    0.2500
  band No.  band energies     occupation 
      1      -3.6070      2.00000
      2      -0.7997      2.00000
      3       2.0702      2.00000
      4       3.3576      2.00000
      5       7.0498      0.00000
      6       9.9200      0.00000
      7      11.0853      0.00000
      8      11.3550      0.00000

 k-point    23 :       0.4167    0.4167    0.2500
  band No.  band energies     occupation 
      1      -4.3906      2.00000
      2      -0.0880      2.00000
      3       3.1211      2.00000
      4       3.7215      2.00000
      5       7.5086      0.00000
      6       9.6471      0.00000
      7      10.3523      0.00000
      8      10.5093      0.00000

 k-point    24 :      -0.4167    0.4167    0.2500
  band No.  band energies     occupation 
      1      -3.4178      2.00000
      2      -0.8430      2.00000
      3       1.7087      2.00000
      4       2.9554      2.00000
      5       8.7134      0.00000
      6       9.2298      0.00000
      7      10.1835      0.00000
      8      12.8602      0.00000

 k-point    25 :      -0.2500    0.4167    0.2500
  band No.  band energies     occupation 
      1      -2.6107      2.00000
      2      -1.5705      2.00000
      3       1.5572      2.00000
      4       2.3097      2.00000
      5       8.5173      0.00000
      6       9.7712      0.00000
      7      10.5067      0.00000
      8      11.8832      0.00000

 k-point    26 :      -0.4167   -0.4167    0.2500
  band No.  band energies     occupation 
      1      -2.8166      2.00000
      2      -1.4711      2.00000
      3       1.4342      2.00000
      4       3.1680      2.00000
      5       6.7821      0.00000
      6       9.6346      0.00000
      7      12.4916      0.00000
      8      12.6315      0.00000

 k-point    27 :       0.4167    0.4167    0.4167
  band No.  band energies     occupation 
      1      -4.3085      2.00000
      2      -0.8356      2.00000
      3       4.3741      2.00000
      4       4.3741      2.00000
      5       6.9742      0.00000
      6       8.9030      0.00000
      7       8.9030      0.00000
      8      13.2508      0.00000

 k-point    28 :      -0.4167    0.4167    0.4167
  band No.  band energies     occupation 
      1      -3.7233      2.00000
      2      -1.1390      2.00000
      3       2.5813      2.00000
      4       3.9483      2.00000
      5       7.6621      0.00000
      6       9.4906      0.00000
      7       9.8749      0.00000
      8      13.3495      0.00000


--------------------------------------------------------------------------------------------------------


 soft charge-density along one line, spin component           1
         0         1         2         3         4         5         6         7         8         9
 total charge-density along one line
 
 pseudopotential strength for first ion, spin component:           1
 18.453  -0.001  -0.000  -0.000  -0.000   0.000   0.000   0.000
 -0.001   0.006   0.000   0.000   0.000  -0.000  -0.000  -0.000
 -0.000   0.000   4.182  -0.000  -0.000  -0.004   0.000   0.000
 -0.000   0.000  -0.000   4.182  -0.000   0.000  -0.004   0.000
 -0.000   0.000  -0.000  -0.000   4.182   0.000   0.000  -0.004
  0.000  -0.000  -0.004   0.000   0.000   0.005  -0.000  -0.000
  0.000  -0.000   0.000  -0.004   0.000  -0.000   0.005  -0.000
  0.000  -0.000   0.000   0.000  -0.004  -0.000  -0.000   0.005
 total augmentation occupancy for first ion, spin component:           1
  1.498  -0.754   0.000  -0.000   0.000   0.000   0.000   0.000
 -0.754   0.736   0.000   0.000  -0.000   0.000   0.000   0.000
  0.000  -0.000   1.007  -0.000   0.000  -0.567   0.000   0.000
 -0.000   0.000   0.000   1.007   0.000   0.000  -0.567  -0.000
[...]
  ---------------------------------------------------
  alpha Z        PSCENC =         3.29585439
  Ewald energy   TEWEN  =      -227.00642884
  -Hartree energ DENC   =       -15.28684148
  -exchange      EXHF   =         0.00000000
  -V(xc)+E(xc)   XCENC  =       -18.05295256
  PAW double counting   =        73.56005308      -38.57312697
  entropy T*S    EENTRO =        -0.00002044
  eigenvalues    EBANDS =         5.09060286
  atomic energy  EATOM  =       206.12968587
  Solvation  Ediel_sol  =         0.00000000
  ---------------------------------------------------
  free energy    TOTEN  =       -10.84317408 eV

  energy without entropy =      -10.84315364  energy(sigma->0) =      -10.84316386


--------------------------------------------------------------------------------------------------------




--------------------------------------- Iteration      3(   3)  ---------------------------------------


    POTLOK:  cpu time    0.0160: real time    0.0278
    SETDIJ:  cpu time    0.0120: real time    0.0085
     EDDAV:  cpu time    0.1920: real time    0.1935
       DOS:  cpu time    0.0000: real time    0.0024
    --------------------------------------------
      LOOP:  cpu time    0.2200: real time    0.2320

 eigenvalue-minimisations  :   344
 total energy-change (2. order) : 0.3412504E-03  (-0.6986825E-04)
 number of electron       7.9999996 magnetization 
 augmentation part       -0.4572668 magnetization 

 Free energy of the ion-electron system (eV)
  ---------------------------------------------------
  alpha Z        PSCENC =         3.29585439
  Ewald energy   TEWEN  =      -227.00642884
  -Hartree energ DENC   =       -15.15676238
  -exchange      EXHF   =         0.00000000
  -V(xc)+E(xc)   XCENC  =       -18.05530039
  PAW double counting   =        73.78852251      -38.80745606
  entropy T*S    EENTRO =        -0.00001770
  eigenvalues    EBANDS =         4.96906977
  atomic energy  EATOM  =       206.12968587
  Solvation  Ediel_sol  =         0.00000000
  ---------------------------------------------------
  free energy    TOTEN  =       -10.84283282 eV

  energy without entropy =      -10.84281512  energy(sigma->0) =      -10.84282397


--------------------------------------------------------------------------------------------------------




 average (electrostatic) potential at core
  the test charge radii are     0.9892
  (the norm of the test charge is              1.0000)
       1 -83.4744       2 -83.4744
 
 
 
 E-fermi :   5.9538     XC(G=0):  -9.3302     alpha+bet :-11.7413


 k-point     1 :       0.0833    0.0833    0.0833
  band No.  band energies     occupation 
      1      -6.1071      2.00000
      2       4.7674      2.00000
      3       5.4852      1.99908
      4       5.4852      1.99908
      5       8.1939      0.00000
      6       8.3923      0.00000
      7       8.3923      0.00000
      8       9.4691      0.00000

 k-point     2 :       0.2500    0.0833    0.0833
  band No.  band energies     occupation 
      1      -5.6371      2.00000
      2       2.7013      2.00000
      3       4.2677      2.00000
      4       5.2766      2.00000
      5       8.2808      0.00000
      6       8.7856      0.00000
      7       9.1326      0.00000
      8      11.2500      0.00000

 k-point     3 :       0.4167    0.0833    0.0833
  band No.  band energies     occupation 
      1      -4.5620      2.00000
      2      -0.0250      2.00000
      3       3.8056      2.00000
      4       4.6481      2.00000
      5       7.7715      0.00000
      6       9.1811      0.00000
      7       9.2220      0.00000
      8      13.0399      0.00000

 k-point     4 :      -0.4167    0.0833    0.0833
  band No.  band energies     occupation 
      1      -3.8779      2.00000
      2      -1.1495      2.00000
      3       3.8687      2.00000
      4       4.2734      2.00000
      5       7.6169      0.00000
      6       8.9030      0.00000
      7       9.3283      0.00000
      8      13.5024      0.00000

 k-point     5 :      -0.2500    0.0833    0.0833
  band No.  band energies     occupation 
      1      -4.9669      2.00000
      2       0.8098      2.00000
      3       4.3343      2.00000
      4       4.3614      2.00000
      5       7.8718      0.00000
      6       8.9105      0.00000
      7       9.7030      0.00000
      8      11.5727      0.00000

 k-point     6 :      -0.0833    0.0833    0.0833
  band No.  band energies     occupation 
      1      -5.8698      2.00000
      2       3.7019      2.00000
      3       4.8501      2.00000
      4       5.0290      2.00000
      5       7.9352      0.00000
      6       8.7919      0.00000
      7       9.2818      0.00000
      8      10.3979      0.00000

 k-point     7 :       0.2500    0.2500    0.0833
  band No.  band energies     occupation 
      1      -5.3992      2.00000
      2       2.5054      2.00000
      3       4.1119      2.00000
      4       4.1307      2.00000
      5       7.3617      0.00000
      6       9.4786      0.00000
      7      10.2823      0.00000
      8      10.4921      0.00000

 k-point     8 :       0.4167    0.2500    0.0833
  band No.  band energies     occupation 
      1      -4.5022      2.00000
      2       0.6851      2.00000
      3       2.8149      2.00000
      4       3.7483      2.00000
      5       7.7570      0.00000
      6       9.3688      0.00000
      7      10.1431      0.00000
      8      11.5942      0.00000

 k-point     9 :      -0.4167    0.2500    0.0833
  band No.  band energies     occupation 
      1      -3.4068      2.00000
      2      -1.0345      2.00000
      3       2.2171      2.00000
      4       3.5256      2.00000
      5       8.0024      0.00000
      6       9.5404      0.00000
      7      11.4741      0.00000
      8      11.8579      0.00000

 k-point    10 :      -0.2500    0.2500    0.0833
  band No.  band energies     occupation 
      1      -4.1146      2.00000
      2       0.0036      2.00000
      3       2.1811      2.00000
      4       4.0037      2.00000
      5       8.5873      0.00000
      6       9.2209      0.00000
      7      10.8763      0.00000
      8      11.3570      0.00000

 k-point    11 :      -0.0833    0.2500    0.0833
  band No.  band energies     occupation 
      1      -5.1772      2.00000
      2       1.6833      2.00000
      3       3.5016      2.00000
      4       4.6598      2.00000
      5       8.2335      0.00000
      6       9.0814      0.00000
      7      10.1564      0.00000
      8      10.5165      0.00000

 k-point    12 :       0.4167    0.4167    0.0833
  band No.  band energies     occupation 
      1      -3.8002      2.00000
      2      -0.1400      2.00000
      3       2.7819      2.00000
      4       3.1149      2.00000
      5       6.5483      0.00003
      6       7.5186      0.00000
      7      13.1217      0.00000
      8      13.1883      0.00000

 k-point    13 :      -0.4167    0.4167    0.0833
  band No.  band energies     occupation 
      1      -2.6232      2.00000
      2      -1.4634      2.00000
      3       1.9557      2.00000
      4       2.7165      2.00000
      5       7.1662      0.00000
      6       8.2759      0.00000
      7      12.6745      0.00000
      8      14.1265      0.00000

 k-point    14 :      -0.2500    0.4167    0.0833
  band No.  band energies     occupation 
      1      -2.9925      2.00000
      2      -1.1254      2.00000
      3       1.4785      2.00000
      4       3.2538      2.00000
      5       7.7766      0.00000
      6      10.6597      0.00000
      7      11.6361      0.00000
      8      12.2903      0.00000

 k-point    15 :      -0.0833    0.4167    0.0833
  band No.  band energies     occupation 
      1      -4.0060      2.00000
      2      -0.6609      2.00000
      3       3.1023      2.00000
      4       4.0992      2.00000
      5       8.1878      0.00000
      6       8.8382      0.00000
      7      10.1426      0.00000
      8      12.3452      0.00000

 k-point    16 :      -0.4167   -0.4167    0.0833
  band No.  band energies     occupation 
      1      -2.7119      2.00000
      2      -1.4704      2.00000
      3       2.5165      2.00000
      4       2.9023      2.00000
      5       6.4396      0.00059
      6       7.0008      0.00000
      7      14.6020      0.00000
      8      14.6825      0.00000

 k-point    17 :      -0.2500   -0.4167    0.0833
  band No.  band energies     occupation 
      1      -3.6351      2.00000
      2      -0.3592      2.00000
      3       2.2698      2.00000
      4       3.0522      2.00000
      5       7.3724      0.00000
      6       8.6430      0.00000
      7      11.3299      0.00000
      8      13.1285      0.00000

 k-point    18 :      -0.2500   -0.2500    0.0833
  band No.  band energies     occupation 
      1      -4.7043      2.00000
      2       1.2118      2.00000
      3       3.3177      2.00000
      4       3.5320      2.00000
      5       6.8631      0.00000
      6       8.4234      0.00000
      7      11.5991      0.00000
      8      11.8083      0.00000

 k-point    19 :       0.2500    0.2500    0.2500
  band No.  band energies     occupation 
      1      -5.4110      2.00000
      2       1.7369      2.00000
      3       4.8797      2.00000
      4       4.8797      2.00000
      5       7.5903      0.00000
      6       9.1211      0.00000
      7       9.1211      0.00000
      8      12.3847      0.00000

 k-point    20 :       0.4167    0.2500    0.2500
  band No.  band energies     occupation 
      1      -4.7420      2.00000
      2       0.8053      2.00000
      3       2.7789      2.00000
      4       4.7123      2.00000
      5       8.3719      0.00000
      6       9.6102      0.00000
      7       9.7755      0.00000
      8      11.6795      0.00000

 k-point    21 :      -0.4167    0.2500    0.2500
  band No.  band energies     occupation 
      1      -3.5826      2.00000
      2      -0.6229      2.00000
      3       1.6903      2.00000
      4       3.9379      2.00000
      5       7.6598      0.00000
      6      10.9175      0.00000
      7      11.0131      0.00000
      8      12.7171      0.00000

 k-point    22 :      -0.2500    0.2500    0.2500
  band No.  band energies     occupation 
      1      -3.5303      2.00000
      2      -0.7015      2.00000
      3       2.1595      2.00000
      4       3.4631      2.00000
      5       7.1710      0.00000
      6      10.0652      0.00000
      7      11.2817      0.00000
      8      11.5152      0.00000

 k-point    23 :       0.4167    0.4167    0.2500
  band No.  band energies     occupation 
      1      -4.3247      2.00000
      2       0.0102      2.00000
      3       3.2306      2.00000
      4       3.8314      2.00000
      5       7.6428      0.00000
      6       9.8254      0.00000
      7      10.5032      0.00000
      8      10.6591      0.00000

 k-point    24 :      -0.4167    0.4167    0.2500
  band No.  band energies     occupation 
      1      -3.3386      2.00000
      2      -0.7402      2.00000
      3       1.7898      2.00000
      4       3.0514      2.00000
      5       8.8525      0.00000
      6       9.3776      0.00000
      7      10.3455      0.00000
      8      13.0499      0.00000

 k-point    25 :      -0.2500    0.4167    0.2500
  band No.  band energies     occupation 
      1      -2.5206      2.00000
      2      -1.4710      2.00000
      3       1.6322      2.00000
      4       2.3955      2.00000
      5       8.6531      0.00000
      6       9.9109      0.00000
      7      10.6817      0.00000
      8      12.0631      0.00000

 k-point    26 :      -0.4167   -0.4167    0.2500
  band No.  band energies     occupation 
      1      -2.7286      2.00000
      2      -1.3742      2.00000
      3       1.5077      2.00000
      4       3.2712      2.00000
      5       6.8985      0.00000
      6       9.7795      0.00000
      7      12.6695      0.00000
      8      12.8385      0.00000

 k-point    27 :       0.4167    0.4167    0.4167
  band No.  band energies     occupation 
      1      -4.2395      2.00000
      2      -0.7553      2.00000
      3       4.4951      2.00000
      4       4.4951      2.00000
      5       7.1549      0.00000
      6       9.0327      0.00000
      7       9.0327      0.00000
      8      13.4091      0.00000

 k-point    28 :      -0.4167    0.4167    0.4167
  band No.  band energies     occupation 
      1      -3.6453      2.00000
      2      -1.0578      2.00000
      3       2.6833      2.00000
      4       4.0625      2.00000
      5       7.8056      0.00000
      6       9.6540      0.00000
      7      10.0167      0.00000
      8      13.5360      0.00000


--------------------------------------------------------------------------------------------------------


 soft charge-density along one line, spin component           1
         0         1         2         3         4         5         6         7         8         9
 total charge-density along one line
 
 pseudopotential strength for first ion, spin component:           1
 18.436  -0.001  -0.000  -0.000  -0.000   0.000   0.000   0.000
 -0.001   0.006   0.000   0.000   0.000  -0.000  -0.000  -0.000
 -0.000   0.000   4.181  -0.000  -0.000  -0.004   0.000   0.000
 -0.000   0.000  -0.000   4.181  -0.000   0.000  -0.004   0.000
 -0.000   0.000  -0.000  -0.000   4.181   0.000   0.000  -0.004
  0.000  -0.000  -0.004   0.000   0.000   0.005  -0.000  -0.000
  0.000  -0.000   0.000  -0.004   0.000  -0.000   0.005  -0.000
  0.000  -0.000   0.000   0.000  -0.004  -0.000  -0.000   0.005
 total augmentation occupancy for first ion, spin component:           1
  1.493  -0.790   0.000   0.000   0.000  -0.000   0.000   0.000
 -0.790   0.780   0.000  -0.000  -0.000  -0.000  -0.000  -0.000
  0.000   0.000   1.015  -0.000   0.000  -0.579   0.000  -0.000
  0.000   0.000   0.000   1.015  -0.000   0.000  -0.579   0.000
  0.000  -0.000   0.000  -0.000   1.015   0.000   0.000  -0.579
 -0.000   0.000  -0.579   0.000  -0.000   0.387   0.000   0.000
  0.000   0.000   0.000  -0.579   0.000   0.000   0.387   0.000
  0.000   0.000   0.000  -0.000  -0.579   0.000   0.000   0.387


------------------------ aborting loop because EDIFF is reached ----------------------------------------


    CHARGE:  cpu time    0.0120: real time    0.0133
    FORLOC:  cpu time    0.0000: real time    0.0006
    FORNL :  cpu time    0.0080: real time    0.0113
    STRESS:  cpu time    0.1080: real time    0.1109
    FORCOR:  cpu time    0.0160: real time    0.0140
    FORHAR:  cpu time    0.0040: real time    0.0034
    MIXING:  cpu time    0.0000: real time    0.0011
    OFIELD:  cpu time    0.0000: real time    0.0004

  FORCE on cell =-STRESS in cart. coord.  units (eV):
  Direction    XX          YY          ZZ          XY          YZ          ZX
  --------------------------------------------------------------------------------------
  Alpha Z     3.29585     3.29585     3.29585
  Ewald     -75.66884   -75.66884   -75.66884     0.00000     0.00000    -0.00000
  Hartree     5.05313     5.05313     5.05313    -0.00000    -0.00000    -0.00000
  E(xc)     -25.25978   -25.25978   -25.25978     0.00001     0.00001     0.00001
  Local     -29.55144   -29.55144   -29.55144     0.00005     0.00005     0.00005
  n-local    77.18609    79.90618    75.45512     0.95806    -1.22056     0.07861
  augment   -11.63803   -11.63803   -11.63803    -0.00005    -0.00005    -0.00005
  Kinetic    57.55850    55.79375    55.36826     0.64565    -0.96033     0.07939
  Fock        0.00000     0.00000     0.00000     0.00000     0.00000     0.00000
  -------------------------------------------------------------------------------------
  Total      -0.01314    -0.01314    -0.01314     0.00000     0.00000     0.00000
  in kB      -0.51520    -0.51520    -0.51520     0.00000     0.00000     0.00000
  external pressure =       -0.52 kB  Pullay stress =        0.00 kB


 VOLUME and BASIS-vectors are now :
 -----------------------------------------------------------------------------
  energy-cutoff  :      300.00
  volume of cell :       40.86
      direct lattice vectors                 reciprocal lattice vectors
    -0.000000000  2.733622891  2.733622891    -0.182907453  0.182907453  0.182907453
     2.733622891  0.000000000  2.733622891     0.182907453 -0.182907453  0.182907453
     2.733622891  2.733622891 -0.000000000     0.182907453  0.182907453 -0.182907453

  length of vectors
     3.865926566  3.865926566  3.865926566     0.316805001  0.316805001  0.316805001


 FORCES acting on ions
    electron-ion (+dipol)            ewald-force                    non-local-force                 convergence-correction
 -----------------------------------------------------------------------------------------------
   0.207E-05 0.207E-05 0.314E-05   0.522E-15 -.549E-14 -.168E-14   -.250E-16 -.181E-16 -.187E-16   -.277E-08 -.277E-08 -.274E-08
   -.207E-05 -.207E-05 -.314E-05   -.848E-15 0.541E-14 0.118E-14   0.252E-16 0.183E-16 0.197E-16   0.277E-08 0.277E-08 0.274E-08
 -----------------------------------------------------------------------------------------------
   0.101E-12 0.393E-13 -.138E-14   -.326E-15 -.843E-16 -.506E-15   0.204E-18 0.204E-18 0.100E-17   0.476E-15 -.460E-15 -.351E-14
 
 
 POSITION                                       TOTAL-FORCE (eV/Angst)
 -----------------------------------------------------------------------------------
      2.73362      2.73362      2.73362         0.000000      0.000000      0.000000
      4.10043      4.10043      4.10043        -0.000000     -0.000000     -0.000000
 -----------------------------------------------------------------------------------
    total drift:                                0.000000      0.000000     -0.000000


--------------------------------------------------------------------------------------------------------



  FREE ENERGIE OF THE ION-ELECTRON SYSTEM (eV)
  ---------------------------------------------------
  free  energy   TOTEN  =       -10.84283282 eV

  energy  without entropy=      -10.84281512  energy(sigma->0) =      -10.84282397
 
 d Force = 0.0000000E+00[ 0.000E+00, 0.000E+00]  d Energy = 0.2214052E-02-0.221E-02
 d Force = 0.0000000E+00[ 0.000E+00, 0.000E+00]  d Ewald  = 0.1016076E+01-0.102E+01


--------------------------------------------------------------------------------------------------------


    POTLOK:  cpu time    0.0320: real time    0.0432


--------------------------------------------------------------------------------------------------------




--------------------------------------------------------------------------------------------------------


  
 reached required accuracy - stopping structural energy minimisation
 writing wavefunctions
     LOOP+:  cpu time    1.2680: real time    1.4655
    4ORBIT:  cpu time    0.0000: real time    0.0000

 total amount of memory used by VASP MPI-rank0    31671. kBytes
=======================================================================

   base      :      30000. kBytes
   nonl-proj :        904. kBytes
   fftplans  :        160. kBytes
   grid      :        372. kBytes
   one-center:          6. kBytes
   wavefun   :        229. kBytes
 
  
  
 General timing and accounting informations for this job:
 ========================================================
  
                  Total CPU time used (sec):       11.204
                            User time (sec):        9.128
                          System time (sec):        2.076
                         Elapsed time (sec):       13.297
  
                   Maximum memory used (kb):        9672.
                   Average memory used (kb):           0.
  
                          Minor page faults:        38163
                          Major page faults:           22
                 Voluntary context switches:        31454
