   2   2   0   0
  0.1529437E+02  0.3691622E-09  0.3691622E-09  0.3691622E-09  0.5000000E-15
  1.000000000000000E-004
  CAR 
 unknown system                          
     22.32574563     -6.61656407  301      9.19539755      1.00000000
     -6.617  0.0000E+00  0.0000E+00
     -6.520  0.0000E+00  0.0000E+00
     -6.424  0.0000E+00  0.0000E+00
     -6.327  0.0000E+00  0.0000E+00
     -6.231  0.0000E+00  0.0000E+00
     -6.134  0.0000E+00  0.0000E+00
     -6.038  0.0000E+00  0.0000E+00
     -5.941  0.0000E+00  0.0000E+00
     -5.845  0.0000E+00  0.0000E+00
     -5.748  0.6751E-17  0.6513E-18
     -5.652  0.1360E-14  0.1319E-15
     -5.555  0.1742E-12  0.1694E-13
     -5.459  0.1411E-10  0.1378E-11
     -5.362  0.7243E-09  0.7125E-10
     -5.266  0.2357E-07  0.2345E-08
     -5.169  0.4870E-06  0.4933E-07
     -5.073  0.6397E-05  0.6665E-06
     -4.976  0.5348E-04  0.5826E-05
     -4.880  0.2850E-03  0.3332E-04
     -4.784  0.9688E-03  0.1268E-03
     -4.687  0.2105E-02  0.3299E-03
     -4.591  0.2946E-02  0.6141E-03
     -4.494  0.2827E-02  0.8869E-03
     -4.398  0.2715E-02  0.1149E-02
     -4.301  0.4659E-02  0.1598E-02
     -4.205  0.8833E-02  0.2450E-02
     -4.108  0.1179E-01  0.3588E-02
     -4.012  0.1041E-01  0.4592E-02
     -3.915  0.7096E-02  0.5276E-02
     -3.819  0.7237E-02  0.5974E-02
     -3.722  0.1309E-01  0.7238E-02
     -3.626  0.2225E-01  0.9384E-02
     -3.529  0.2932E-01  0.1221E-01
     -3.433  0.2871E-01  0.1498E-01
     -3.336  0.1987E-01  0.1690E-01
     -3.240  0.9297E-02  0.1780E-01
     -3.143  0.2911E-02  0.1808E-01
     -3.047  0.1006E-02  0.1817E-01
     -2.951  0.2257E-02  0.1839E-01
     -2.854  0.7562E-02  0.1912E-01
     -2.758  0.1914E-01  0.2097E-01
     -2.661  0.3658E-01  0.2450E-01
     -2.565  0.5233E-01  0.2955E-01
     -2.468  0.5547E-01  0.3490E-01
     -2.372  0.4654E-01  0.3939E-01
     -2.275  0.3622E-01  0.4288E-01
     -2.179  0.2719E-01  0.4550E-01
     -2.082  0.1658E-01  0.4710E-01
     -1.986  0.7350E-02  0.4781E-01
     -1.889  0.3889E-02  0.4819E-01
     -1.793  0.7293E-02  0.4889E-01
     -1.696  0.1586E-01  0.5042E-01
     -1.600  0.2302E-01  0.5264E-01
     -1.503  0.2144E-01  0.5471E-01
     -1.407  0.1295E-01  0.5596E-01
     -1.310  0.5910E-02  0.5653E-01
     -1.214  0.4612E-02  0.5698E-01
     -1.118  0.8006E-02  0.5775E-01
     -1.021  0.1391E-01  0.5909E-01
     -0.925  0.2223E-01  0.6123E-01
     -0.828  0.3655E-01  0.6476E-01
     -0.732  0.5791E-01  0.7035E-01
     -0.635  0.7345E-01  0.7743E-01
     -0.539  0.6774E-01  0.8397E-01
     -0.442  0.4744E-01  0.8855E-01
     -0.346  0.3200E-01  0.9163E-01
     -0.249  0.2949E-01  0.9448E-01
     -0.153  0.3601E-01  0.9795E-01
     -0.056  0.4545E-01  0.1023E+00
      0.040  0.5532E-01  0.1077E+00
      0.137  0.6330E-01  0.1138E+00
      0.233  0.6119E-01  0.1197E+00
      0.330  0.4440E-01  0.1240E+00
      0.426  0.2353E-01  0.1262E+00
      0.523  0.1355E-01  0.1275E+00
      0.619  0.1846E-01  0.1293E+00
      0.715  0.3000E-01  0.1322E+00
      0.812  0.3467E-01  0.1356E+00
      0.908  0.2811E-01  0.1383E+00
      1.005  0.2229E-01  0.1404E+00
      1.101  0.3051E-01  0.1434E+00
      1.198  0.4836E-01  0.1480E+00
      1.294  0.5623E-01  0.1535E+00
      1.391  0.4418E-01  0.1577E+00
      1.487  0.2353E-01  0.1600E+00
      1.584  0.8682E-02  0.1608E+00
      1.680  0.3016E-02  0.1611E+00
      1.777  0.4980E-02  0.1616E+00
      1.873  0.1581E-01  0.1631E+00
      1.970  0.3497E-01  0.1665E+00
      2.066  0.5185E-01  0.1715E+00
      2.163  0.5556E-01  0.1769E+00
      2.259  0.5088E-01  0.1818E+00
      2.356  0.4930E-01  0.1865E+00
      2.452  0.5311E-01  0.1917E+00
      2.549  0.5477E-01  0.1969E+00
      2.645  0.4746E-01  0.2015E+00
      2.741  0.3484E-01  0.2049E+00
      2.838  0.2599E-01  0.2074E+00
      2.934  0.2617E-01  0.2099E+00
      3.031  0.3313E-01  0.2131E+00
      3.127  0.3926E-01  0.2169E+00
      3.224  0.4444E-01  0.2212E+00
      3.320  0.5719E-01  0.2267E+00
      3.417  0.7170E-01  0.2336E+00
      3.513  0.6736E-01  0.2401E+00
      3.610  0.4263E-01  0.2442E+00
      3.706  0.1887E-01  0.2460E+00
      3.803  0.1081E-01  0.2471E+00
      3.899  0.1779E-01  0.2488E+00
      3.996  0.3198E-01  0.2519E+00
      4.092  0.4420E-01  0.2562E+00
      4.189  0.5122E-01  0.2611E+00
      4.285  0.5684E-01  0.2666E+00
      4.382  0.6318E-01  0.2727E+00
      4.478  0.6510E-01  0.2790E+00
      4.574  0.5458E-01  0.2842E+00
      4.671  0.3455E-01  0.2876E+00
      4.767  0.2135E-01  0.2896E+00
      4.864  0.2824E-01  0.2923E+00
      4.960  0.5454E-01  0.2976E+00
      5.057  0.8597E-01  0.3059E+00
      5.153  0.1012E+00  0.3157E+00
      5.250  0.8658E-01  0.3240E+00
      5.346  0.5206E-01  0.3290E+00
      5.443  0.2154E-01  0.3311E+00
      5.539  0.7629E-02  0.3318E+00
      5.636  0.8250E-02  0.3326E+00
      5.732  0.1903E-01  0.3345E+00
      5.829  0.3677E-01  0.3380E+00
      5.925  0.5904E-01  0.3437E+00
      6.022  0.8289E-01  0.3517E+00
      6.118  0.9949E-01  0.3613E+00
      6.215  0.9822E-01  0.3708E+00
      6.311  0.7819E-01  0.3783E+00
      6.407  0.4978E-01  0.3831E+00
      6.504  0.2880E-01  0.3859E+00
      6.600  0.2873E-01  0.3887E+00
      6.697  0.5087E-01  0.3936E+00
      6.793  0.7879E-01  0.4012E+00
      6.890  0.9098E-01  0.4100E+00
      6.986  0.8278E-01  0.4180E+00
      7.083  0.6909E-01  0.4246E+00
      7.179  0.6583E-01  0.4310E+00
      7.276  0.6962E-01  0.4377E+00
      7.372  0.6385E-01  0.4438E+00
      7.469  0.4747E-01  0.4484E+00
      7.565  0.4083E-01  0.4524E+00
      7.662  0.5623E-01  0.4578E+00
      7.758  0.7541E-01  0.4651E+00
      7.855  0.7178E-01  0.4720E+00
      7.951  0.4900E-01  0.4767E+00
      8.048  0.3063E-01  0.4797E+00
      8.144  0.2481E-01  0.4821E+00
      8.240  0.2757E-01  0.4847E+00
      8.337  0.4057E-01  0.4886E+00
      8.433  0.6037E-01  0.4945E+00
      8.530  0.6824E-01  0.5011E+00
      8.626  0.5325E-01  0.5062E+00
      8.723  0.3043E-01  0.5091E+00
      8.819  0.2179E-01  0.5112E+00
      8.916  0.3450E-01  0.5146E+00
      9.012  0.5820E-01  0.5202E+00
      9.109  0.7332E-01  0.5272E+00
      9.205  0.6964E-01  0.5340E+00
      9.302  0.5518E-01  0.5393E+00
      9.398  0.4092E-01  0.5432E+00
      9.495  0.3244E-01  0.5464E+00
      9.591  0.3383E-01  0.5496E+00
      9.688  0.4204E-01  0.5537E+00
      9.784  0.4743E-01  0.5583E+00
      9.881  0.4773E-01  0.5629E+00
      9.977  0.4884E-01  0.5676E+00
     10.074  0.5056E-01  0.5725E+00
     10.170  0.4856E-01  0.5771E+00
     10.266  0.4754E-01  0.5817E+00
     10.363  0.5397E-01  0.5869E+00
     10.459  0.6303E-01  0.5930E+00
     10.556  0.6402E-01  0.5992E+00
     10.652  0.5503E-01  0.6045E+00
     10.749  0.4336E-01  0.6087E+00
     10.845  0.3576E-01  0.6121E+00
     10.942  0.4138E-01  0.6161E+00
     11.038  0.6645E-01  0.6225E+00
     11.135  0.9335E-01  0.6315E+00
     11.231  0.9588E-01  0.6408E+00
     11.328  0.8017E-01  0.6485E+00
     11.424  0.7056E-01  0.6553E+00
     11.521  0.6664E-01  0.6618E+00
     11.617  0.5564E-01  0.6671E+00
     11.714  0.4171E-01  0.6711E+00
     11.810  0.3480E-01  0.6745E+00
     11.907  0.3356E-01  0.6777E+00
     12.003  0.3374E-01  0.6810E+00
     12.099  0.3977E-01  0.6848E+00
     12.196  0.5604E-01  0.6902E+00
     12.292  0.7437E-01  0.6974E+00
     12.389  0.8112E-01  0.7052E+00
     12.485  0.7274E-01  0.7123E+00
     12.582  0.6050E-01  0.7181E+00
     12.678  0.5911E-01  0.7238E+00
     12.775  0.6833E-01  0.7304E+00
     12.871  0.7149E-01  0.7373E+00
     12.968  0.6111E-01  0.7432E+00
     13.064  0.5105E-01  0.7481E+00
     13.161  0.5353E-01  0.7533E+00
     13.257  0.6363E-01  0.7594E+00
     13.354  0.7219E-01  0.7664E+00
     13.450  0.8064E-01  0.7742E+00
     13.547  0.9588E-01  0.7834E+00
     13.643  0.1116E+00  0.7942E+00
     13.740  0.1115E+00  0.8049E+00
     13.836  0.1022E+00  0.8148E+00
     13.932  0.1100E+00  0.8254E+00
     14.029  0.1319E+00  0.8381E+00
     14.125  0.1324E+00  0.8509E+00
     14.222  0.1012E+00  0.8607E+00
     14.318  0.6784E-01  0.8672E+00
     14.415  0.5406E-01  0.8724E+00
     14.511  0.5127E-01  0.8774E+00
     14.608  0.4400E-01  0.8816E+00
     14.704  0.2938E-01  0.8845E+00
     14.801  0.1494E-01  0.8859E+00
     14.897  0.7802E-02  0.8867E+00
     14.994  0.8384E-02  0.8875E+00
     15.090  0.1149E-01  0.8886E+00
     15.187  0.1185E-01  0.8897E+00
     15.283  0.1110E-01  0.8908E+00
     15.380  0.1760E-01  0.8925E+00
     15.476  0.3556E-01  0.8959E+00
     15.573  0.5548E-01  0.9013E+00
     15.669  0.6322E-01  0.9074E+00
     15.765  0.5950E-01  0.9131E+00
     15.862  0.5731E-01  0.9186E+00
     15.958  0.6189E-01  0.9246E+00
     16.055  0.7025E-01  0.9314E+00
     16.151  0.8846E-01  0.9399E+00
     16.248  0.1179E+00  0.9513E+00
     16.344  0.1308E+00  0.9639E+00
     16.441  0.1049E+00  0.9740E+00
     16.537  0.6119E-01  0.9799E+00
     16.634  0.2896E-01  0.9827E+00
     16.730  0.1254E-01  0.9839E+00
     16.827  0.5021E-02  0.9844E+00
     16.923  0.2546E-02  0.9847E+00
     17.020  0.3410E-02  0.9850E+00
     17.116  0.7114E-02  0.9857E+00
     17.213  0.1487E-01  0.9871E+00
     17.309  0.2538E-01  0.9896E+00
     17.406  0.3133E-01  0.9926E+00
     17.502  0.2964E-01  0.9955E+00
     17.599  0.2955E-01  0.9983E+00
     17.695  0.3806E-01  0.1002E+01
     17.791  0.4823E-01  0.1007E+01
     17.888  0.5142E-01  0.1012E+01
     17.984  0.4947E-01  0.1016E+01
     18.081  0.4944E-01  0.1021E+01
     18.177  0.5100E-01  0.1026E+01
     18.274  0.4754E-01  0.1031E+01
     18.370  0.4042E-01  0.1035E+01
     18.467  0.3666E-01  0.1038E+01
     18.563  0.3445E-01  0.1041E+01
     18.660  0.2831E-01  0.1044E+01
     18.756  0.2161E-01  0.1046E+01
     18.853  0.1949E-01  0.1048E+01
     18.949  0.2000E-01  0.1050E+01
     19.046  0.1940E-01  0.1052E+01
     19.142  0.1743E-01  0.1054E+01
     19.239  0.1585E-01  0.1055E+01
     19.335  0.1422E-01  0.1056E+01
     19.432  0.1084E-01  0.1058E+01
     19.528  0.7826E-02  0.1058E+01
     19.624  0.8555E-02  0.1059E+01
     19.721  0.1138E-01  0.1060E+01
     19.817  0.1134E-01  0.1061E+01
     19.914  0.7462E-02  0.1062E+01
     20.010  0.3577E-02  0.1062E+01
     20.107  0.2945E-02  0.1063E+01
     20.203  0.6000E-02  0.1063E+01
     20.300  0.1036E-01  0.1064E+01
     20.396  0.1167E-01  0.1065E+01
     20.493  0.8411E-02  0.1066E+01
     20.589  0.3875E-02  0.1067E+01
     20.686  0.1140E-02  0.1067E+01
     20.782  0.2139E-03  0.1067E+01
     20.879  0.2559E-04  0.1067E+01
     20.975  0.1948E-05  0.1067E+01
     21.072  0.9428E-07  0.1067E+01
     21.168  0.2897E-08  0.1067E+01
     21.265  0.5645E-10  0.1067E+01
     21.361  0.6967E-12  0.1067E+01
     21.457  0.5440E-14  0.1067E+01
     21.554  0.2946E-16  0.1067E+01
     21.650  0.0000E+00  0.1067E+01
     21.747  0.0000E+00  0.1067E+01
     21.843  0.0000E+00  0.1067E+01
     21.940  0.0000E+00  0.1067E+01
     22.036  0.0000E+00  0.1067E+01
     22.133  0.0000E+00  0.1067E+01
     22.229  0.0000E+00  0.1067E+01
     22.326  0.0000E+00  0.1067E+01
