unknown system                          
   1.00000000000000     
     0.000000    2.715000    2.715000
     2.715000    0.000000    2.715000
     2.715000    2.715000    0.000000
   Si
     2
Direct
  0.500000  0.500000  0.500000
  0.750000  0.750000  0.750000
 
   28   28   28
 0.88848     0.91556     0.99907      1.1460      1.3683      1.6816      2.1018      2.6383      3.2871      4.0232    
  4.7976      5.5382      6.1586      6.5734      6.7195      6.5734      6.1586      5.5383      4.7977      4.0232    
  3.2870      2.6383      2.1018      1.6816      1.3683      1.1460     0.99907     0.91556     0.91556     0.96126    
  1.0561      1.2070      1.4246      1.7210      2.1061      2.5822      3.1380      3.7436      4.3504      4.8945    
  5.3078      5.5316      5.5316      5.3079      4.8946      4.3504      3.7436      3.1379      2.5822      2.1061    
  1.7210      1.4246      1.2070      1.0561     0.96126     0.91557     0.99907      1.0561      1.1556      1.3043    
  1.5108      1.7836      2.1273      2.5385      3.0008      3.4831      3.9405      4.3207      4.5734      4.6621    
  4.5734      4.3207      3.9405      3.4830      3.0008      2.5384      2.1273      1.7836      1.5108      1.3043    
  1.1556      1.0561     0.99907     0.98051      1.1460      1.2070      1.3043      1.4439      1.6324      1.8748    
  2.1714      2.5146      2.8860      3.2556      3.5853      3.8344      3.9688      3.9688      3.8344      3.5853    
  3.2556      2.8860      2.5146      2.1714      1.8748      1.6324      1.4439      1.3043      1.2070      1.1460    
  1.1167      1.1167      1.3683      1.4246      1.5108      1.6324      1.7941      1.9980      2.2415      2.5146    
  2.7990      3.0684      3.2921      3.4406      3.4926      3.4406      3.2921      3.0685      2.7991      2.5146    
  2.2414      1.9980      1.7940      1.6324      1.5108      1.4246      1.3683      1.3368      1.3268      1.3368    
  1.6816      1.7210      1.7836      1.8748      1.9980      2.1536      2.3371      2.5385      2.7409      2.9229    
  3.0612      3.1361      3.1361      3.0612      2.9229      2.7409      2.5384      2.3371      2.1535      1.9980    
  1.8748      1.7836      1.7210      1.6816      1.6598      1.6503      1.6503      1.6598      2.1018      2.1061    
  2.1273      2.1714      2.2415      2.3371      2.4538      2.5822      2.7086      2.8163      2.8891      2.9149    
  2.8891      2.8163      2.7086      2.5822      2.4538      2.3371      2.2415      2.1714      2.1273      2.1061    
  2.1018      2.1069      2.1139      2.1170      2.1139      2.1069      2.6383      2.5822      2.5385      2.5146    
  2.5146      2.5385      2.5822      2.6383      2.6962      2.7439      2.7709      2.7709      2.7439      2.6962    
  2.6383      2.5822      2.5385      2.5147      2.5147      2.5385      2.5822      2.6383      2.6962      2.7439    
  2.7709      2.7709      2.7439      2.6962      3.2871      3.1380      3.0008      2.8860      2.7990      2.7409    
  2.7086      2.6962      2.6960      2.7000      2.7021      2.7000      2.6960      2.6962      2.7086      2.7409    
  2.7991      2.8860      3.0008      3.1379      3.2870      3.4327      3.5564      3.6399      3.6694      3.6398    
  3.5564      3.4327      4.0232      3.7436      3.4831      3.2556      3.0684      2.9229      2.8163      2.7439    
  2.7000      2.6796      2.6796      2.7000      2.7439      2.8163      2.9229      3.0685      3.2557      3.4830    
  3.7436      4.0232      4.3001      4.5465      4.7329      4.8335      4.8335      4.7329      4.5465      4.3001    
  4.7976      4.3504      3.9405      3.5853      3.2921      3.0612      2.8891      2.7709      2.7021      2.6796    
  2.7021      2.7709      2.8891      3.0612      3.2921      3.5853      3.9405      4.3503      4.7976      5.2535    
  5.6789      6.0285      6.2594      6.3402      6.2594      6.0285      5.6788      5.2535      5.5382      4.8945    
  4.3207      3.8344      3.4406      3.1361      2.9149      2.7709      2.7000      2.7000      2.7709      2.9148    
  3.1361      3.4406      3.8345      4.3207      4.8945      5.5382      6.2174      6.8809      7.4647      7.9023    
  8.1372      8.1372      7.9022      7.4647      6.8809      6.2175      6.1586      5.3078      4.5734      3.9688    
  3.4926      3.1361      2.8891      2.7439      2.6960      2.7439      2.8891      3.1361      3.4927      3.9689    
  4.5734      5.3078      6.1585      7.0902      8.0424      8.9323      9.6645      10.148      10.318      10.148    
  9.6644      8.9322      8.0424      7.0902      6.5734      5.5316      4.6621      3.9688      3.4406      3.0612    
  2.8163      2.6962      2.6962      2.8163      3.0612      3.4406      3.9689      4.6622      5.5315      6.5733    
  7.7586      9.0253      10.277      11.389      12.229      12.683      12.683      12.229      11.389      10.277    
  9.0253      7.7587      6.7195      5.5316      4.5734      3.8344      3.2921      2.9229      2.7086      2.6383    
  2.7086      2.9229      3.2921      3.8345      4.5734      5.5315      6.7194      8.1225      9.6882      11.317    
  12.867      14.161      15.027      15.331      15.027      14.161      12.867      11.317      9.6881      8.1226    
  6.5734      5.3079      4.3207      3.5853      3.0685      2.7409      2.5822      2.5822      2.7409      3.0685    
  3.5853      4.3207      5.3078      6.5733      8.1225      9.9227      11.888      13.873      15.674      17.044    
  17.780      17.780      17.044      15.674      13.873      11.888      9.9227      8.1226      6.1586      4.8946    
  3.9405      3.2556      2.7991      2.5384      2.4538      2.5385      2.7991      3.2557      3.9405      4.8945    
  6.1585      7.7586      9.6882      11.888      14.232      16.507      18.407      19.657      20.092      19.657    
  18.407      16.507      14.232      11.888      9.6881      7.7586      5.5383      4.3504      3.4830      2.8860    
  2.5146      2.3371      2.3371      2.5147      2.8860      3.4830      4.3503      5.5382      7.0902      9.0253    
  11.317      13.873      16.507      18.888      20.673      21.625      21.626      20.673      18.888      16.507    
  13.873      11.317      9.0252      7.0902      4.7977      3.7436      3.0008      2.5146      2.2414      2.1535    
  2.2415      2.5147      3.0008      3.7436      4.7976      6.2174      8.0424      10.277      12.867      15.674    
  18.407      20.673      22.162      22.680      22.162      20.673      18.407      15.674      12.866      10.277    
  8.0424      6.2175      4.0232      3.1379      2.5384      2.1714      1.9980      1.9980      2.1714      2.5385    
  3.1379      4.0232      5.2535      6.8809      8.9323      11.389      14.161      17.044      19.657      21.625    
  22.680      22.680      21.626      19.657      17.044      14.161      11.389      8.9322      6.8809      5.2536    
  3.2870      2.5822      2.1273      1.8748      1.7940      1.8748      2.1273      2.5822      3.2870      4.3001    
  5.6789      7.4647      9.6645      12.229      15.027      17.780      20.092      21.626      22.162      21.626    
  20.092      17.780      15.027      12.229      9.6644      7.4647      5.6789      4.3001      2.6383      2.1061    
  1.7836      1.6324      1.6324      1.7836      2.1061      2.6383      3.4327      4.5465      6.0285      7.9023    
  10.148      12.683      15.331      17.780      19.657      20.673      20.673      19.657      17.780      15.331    
  12.683      10.148      7.9023      6.0286      4.5466      3.4327      2.1018      1.7210      1.5108      1.4439    
  1.5108      1.7210      2.1018      2.6962      3.5564      4.7329      6.2594      8.1372      10.318      12.683    
  15.027      17.044      18.407      18.888      18.407      17.044      15.027      12.683      10.318      8.1373    
  6.2595      4.7329      3.5564      2.6961      1.6816      1.4246      1.3043      1.3043      1.4246      1.6816    
  2.1069      2.7439      3.6399      4.8335      6.3402      8.1372      10.148      12.229      14.161      15.674    
  16.507      16.507      15.674      14.161      12.229      10.148      8.1373      6.3403      4.8335      3.6398    
  2.7439      2.1069      1.3683      1.2070      1.1556      1.2070      1.3683      1.6598      2.1139      2.7709    
  3.6694      4.8335      6.2594      7.9022      9.6644      11.389      12.867      13.873      14.232      13.873    
  12.866      11.389      9.6644      7.9023      6.2595      4.8335      3.6693      2.7709      2.1139      1.6598    
  1.1460      1.0561      1.0561      1.1460      1.3368      1.6503      2.1170      2.7709      3.6398      4.7329    
  6.0285      7.4647      8.9322      10.277      11.317      11.888      11.888      11.317      10.277      8.9322    
  7.4647      6.0286      4.7329      3.6398      2.7709      2.1170      1.6503      1.3368     0.99907     0.96126    
 0.99907      1.1167      1.3268      1.6503      2.1139      2.7439      3.5564      4.5465      5.6788      6.8809    
  8.0424      9.0253      9.6881      9.9227      9.6881      9.0252      8.0424      6.8809      5.6789      4.5466    
  3.5564      2.7439      2.1139      1.6503      1.3268      1.1167     0.91556     0.91557     0.98051      1.1167    
  1.3368      1.6598      2.1069      2.6962      3.4327      4.3001      5.2535      6.2175      7.0902      7.7587    
  8.1226      8.1226      7.7586      7.0902      6.2175      5.2536      4.3001      3.4327      2.6961      2.1069    
  1.6598      1.3368      1.1167     0.98051     0.91557     0.96126      1.0561      1.2070      1.4246      1.7210    
  2.1061      2.5822      3.1380      3.7436      4.3504      4.8945      5.3078      5.5316      5.5316      5.3079    
  4.8946      4.3504      3.7436      3.1379      2.5822      2.1061      1.7210      1.4246      1.2070      1.0561    
 0.96126     0.91557     0.96126      1.0168      1.1135      1.2578      1.4579      1.7221      2.0552      2.4538    
  2.9021      3.3695      3.8126      4.1807      4.4252      4.5109      4.4252      4.1807      3.8126      3.3695    
  2.9020      2.4538      2.0552      1.7222      1.4579      1.2578      1.1135      1.0168     0.96127     0.94316    
  1.0561      1.1135      1.2046      1.3350      1.5110      1.7375      2.0153      2.3371      2.6854      3.0318    
  3.3402      3.5729      3.6983      3.6983      3.5729      3.3402      3.0318      2.6854      2.3371      2.0153    
  1.7375      1.5110      1.3350      1.2046      1.1135      1.0561      1.0283      1.0283      1.2070      1.2578    
  1.3350      1.4438      1.5890      1.7729      1.9934      2.2415      2.4997      2.7438      2.9458      3.0796    
  3.1264      3.0796      2.9458      2.7438      2.4997      2.2415      1.9934      1.7729      1.5890      1.4438    
  1.3350      1.2578      1.2070      1.1785      1.1693      1.1785      1.4246      1.4579      1.5110      1.5890    
  1.6956      1.8316      1.9934      2.1714      2.3502      2.5103      2.6316      2.6970      2.6970      2.6316    
  2.5103      2.3502      2.1714      1.9934      1.8316      1.6956      1.5889      1.5110      1.4579      1.4246    
  1.4060      1.3978      1.3978      1.4060      1.7210      1.7221      1.7375      1.7729      1.8316      1.9138    
  2.0153      2.1273      2.2373      2.3307      2.3934      2.4156      2.3934      2.3307      2.2373      2.1273    
  2.0153      1.9138      1.8316      1.7729      1.7375      1.7221      1.7210      1.7271      1.7340      1.7369    
  1.7340      1.7271      2.1061      2.0552      2.0153      1.9934      1.9934      2.0153      2.0552      2.1061    
  2.1580      2.2005      2.2244      2.2244      2.2005      2.1580      2.1060      2.0552      2.0153      1.9934    
  1.9934      2.0153      2.0552      2.1060      2.1580      2.2005      2.2244      2.2244      2.2005      2.1580    
  2.5822      2.4538      2.3371      2.2415      2.1714      2.1273      2.1061      2.1018      2.1069      2.1139    
  2.1170      2.1139      2.1069      2.1018      2.1061      2.1273      2.1714      2.2415      2.3371      2.4538    
  2.5822      2.7086      2.8163      2.8891      2.9149      2.8891      2.8163      2.7086      3.1380      2.9021    
  2.6854      2.4997      2.3502      2.2373      2.1580      2.1069      2.0778      2.0650      2.0650      2.0778    
  2.1069      2.1580      2.2374      2.3502      2.4997      2.6854      2.9020      3.1380      3.3746      3.5873    
  3.7493      3.8371      3.8371      3.7492      3.5873      3.3746      3.7436      3.3695      3.0318      2.7438    
  2.5103      2.3307      2.2005      2.1139      2.0650      2.0492      2.0650      2.1139      2.2005      2.3307    
  2.5104      2.7438      3.0318      3.3695      3.7436      4.1307      4.4967      4.8011      5.0038      5.0751    
  5.0038      4.8011      4.4967      4.1307      4.3504      3.8126      3.3402      2.9458      2.6316      2.3934    
  2.2244      2.1170      2.0650      2.0650      2.1170      2.2244      2.3935      2.6316      2.9458      3.3402    
  3.8126      4.3503      4.9265      5.4981      6.0084      6.3953      6.6046      6.6046      6.3953      6.0084    
  5.4981      4.9265      4.8945      4.1807      3.5729      3.0796      2.6970      2.4156      2.2244      2.1139    
  2.0778      2.1139      2.2244      2.4156      2.6970      3.0796      3.5729      4.1806      4.8945      5.6882    
  6.5123      7.2944      7.9468      8.3823      8.5356      8.3823      7.9468      7.2944      6.5122      5.6882    
  5.3078      4.4252      3.6983      3.1264      2.6970      2.3934      2.2005      2.1069      2.1069      2.2005    
  2.3935      2.6970      3.1264      3.6983      4.4251      5.3078      6.3265      7.4319      8.5409      9.5406    
  10.304      10.720      10.720      10.304      9.5406      8.5408      7.4318      6.3265      5.5316      4.5109    
  3.6983      3.0796      2.6316      2.3307      2.1580      2.1018      2.1580      2.3307      2.6316      3.0796    
  3.6983      4.5109      5.5315      6.7535      8.1370      9.5982      11.007      12.198      13.000      13.284    
  13.000      12.198      11.007      9.5981      8.1369      6.7535      5.5316      4.4252      3.5729      2.9458    
  2.5103      2.2373      2.1060      2.1061      2.2374      2.5104      2.9458      3.5729      4.4251      5.5315    
  6.9040      8.5212      10.312      12.145      13.827      15.132      15.848      15.848      15.132      13.828    
  12.145      10.312      8.5211      6.9040      5.3079      4.1807      3.3402      2.7438      2.3502      2.1273    
  2.0552      2.1273      2.3502      2.7438      3.3402      4.1806      5.3078      6.7535      8.5212      10.565    
  12.771      14.941      16.809      18.085      18.540      18.086      16.809      14.941      12.771      10.565    
  8.5211      6.7535      4.8946      3.8126      3.0318      2.4997      2.1714      2.0153      2.0153      2.1714    
  2.4997      3.0318      3.8126      4.8945      6.3265      8.1370      10.312      12.771      15.338      17.739    
  19.628      20.672      20.672      19.628      17.739      15.338      12.771      10.312      8.1369      6.3265    
  4.3504      3.3695      2.6854      2.2415      1.9934      1.9138      1.9934      2.2415      2.6854      3.3695    
  4.3503      5.6882      7.4319      9.5982      12.145      14.941      17.739      20.179      21.852      22.447    
  21.852      20.180      17.739      14.941      12.145      9.5981      7.4318      5.6882      3.7436      2.9020    
  2.3371      1.9934      1.8316      1.8316      1.9934      2.3371      2.9020      3.7436      4.9265      6.5123    
  8.5409      11.007      13.827      16.809      19.628      21.852      23.080      23.080      21.852      19.628    
  16.809      13.827      11.007      8.5408      6.5122      4.9265      3.1379      2.4538      2.0153      1.7729    
  1.6956      1.7729      2.0153      2.4538      3.1380      4.1307      5.4981      7.2944      9.5406      12.198    
  15.132      18.085      20.672      22.447      23.080      22.447      20.671      18.085      15.132      12.198    
  9.5407      7.2944      5.4981      4.1306      2.5822      2.0552      1.7375      1.5890      1.5889      1.7375    
  2.0552      2.5822      3.3746      4.4967      6.0084      7.9468      10.304      13.000      15.848      18.540    
  20.672      21.852      21.852      20.671      18.540      15.848      13.000      10.305      7.9469      6.0084    
  4.4967      3.3745      2.1061      1.7222      1.5110      1.4438      1.5110      1.7221      2.1060      2.7086    
  3.5873      4.8011      6.3953      8.3823      10.720      13.284      15.848      18.086      19.628      20.180    
  19.628      18.085      15.848      13.284      10.720      8.3824      6.3953      4.8011      3.5872      2.7085    
  1.7210      1.4579      1.3350      1.3350      1.4579      1.7210      2.1580      2.8163      3.7493      5.0038    
  6.6046      8.5356      10.720      13.000      15.132      16.809      17.739      17.739      16.809      15.132    
  13.000      10.720      8.5357      6.6047      5.0038      3.7492      2.8163      2.1580      1.4246      1.2578    
  1.2046      1.2578      1.4246      1.7271      2.2005      2.8891      3.8371      5.0751      6.6046      8.3823    
  10.304      12.198      13.828      14.941      15.338      14.941      13.827      12.198      10.305      8.3824    
  6.6047      5.0750      3.8370      2.8891      2.2005      1.7271      1.2070      1.1135      1.1135      1.2070    
  1.4060      1.7340      2.2244      2.9149      3.8371      5.0038      6.3953      7.9468      9.5406      11.007    
  12.145      12.771      12.771      12.145      11.007      9.5407      7.9469      6.3953      5.0038      3.8370    
  2.9148      2.2244      1.7340      1.4060      1.0561      1.0168      1.0561      1.1785      1.3978      1.7369    
  2.2244      2.8891      3.7492      4.8011      6.0084      7.2944      8.5408      9.5981      10.312      10.565    
  10.312      9.5981      8.5408      7.2944      6.0084      4.8011      3.7492      2.8891      2.2244      1.7369    
  1.3979      1.1785     0.96126     0.96127      1.0283      1.1693      1.3978      1.7340      2.2005      2.8163    
  3.5873      4.4967      5.4981      6.5122      7.4318      8.1369      8.5211      8.5211      8.1369      7.4318    
  6.5122      5.4981      4.4967      3.5872      2.8163      2.2005      1.7340      1.3979      1.1693      1.0283    
 0.91557     0.94316      1.0283      1.1785      1.4060      1.7271      2.1580      2.7086      3.3746      4.1307    
  4.9265      5.6882      6.3265      6.7535      6.9040      6.7535      6.3265      5.6882      4.9265      4.1306    
  3.3745      2.7085      2.1580      1.7271      1.4060      1.1785      1.0283     0.94316     0.99907      1.0561    
  1.1556      1.3043      1.5108      1.7836      2.1273      2.5385      3.0008      3.4831      3.9405      4.3207    
  4.5734      4.6621      4.5734      4.3207      3.9405      3.4830      3.0008      2.5384      2.1273      1.7836    
  1.5108      1.3043      1.1556      1.0561     0.99907     0.98051      1.0561      1.1135      1.2046      1.3350    
  1.5110      1.7375      2.0153      2.3371      2.6854      3.0318      3.3402      3.5729      3.6983      3.6983    
  3.5729      3.3402      3.0318      2.6854      2.3371      2.0153      1.7375      1.5110      1.3350      1.2046    
  1.1135      1.0561      1.0283      1.0283      1.1556      1.2046      1.2790      1.3838      1.5235      1.7009    
  1.9138      2.1536      2.4031      2.6388      2.8336      2.9624      3.0075      2.9624      2.8336      2.6388    
  2.4031      2.1536      1.9139      1.7009      1.5235      1.3837      1.2790      1.2046      1.1556      1.1279    
  1.1189      1.1279      1.3043      1.3350      1.3838      1.4555      1.5541      1.6806      1.8316      1.9980    
  2.1649      2.3140      2.4265      2.4871      2.4871      2.4265      2.3140      2.1649      1.9980      1.8317    
  1.6807      1.5541      1.4555      1.3837      1.3350      1.3043      1.2869      1.2792      1.2792      1.2869    
  1.5108      1.5110      1.5235      1.5541      1.6064      1.6806      1.7729      1.8748      1.9744      2.0585    
  2.1147      2.1344      2.1147      2.0585      1.9744      1.8748      1.7729      1.6806      1.6064      1.5541    
  1.5235      1.5110      1.5108      1.5167      1.5228      1.5253      1.5228      1.5167      1.7836      1.7375    
  1.7009      1.6806      1.6806      1.7009      1.7375      1.7836      1.8300      1.8675      1.8884      1.8884    
  1.8675      1.8300      1.7836      1.7375      1.7009      1.6806      1.6806      1.7009      1.7375      1.7836    
  1.8300      1.8675      1.8884      1.8884      1.8675      1.8300      2.1273      2.0153      1.9138      1.8316    
  1.7729      1.7375      1.7221      1.7210      1.7271      1.7340      1.7369      1.7340      1.7271      1.7210    
  1.7221      1.7375      1.7729      1.8316      1.9138      2.0153      2.1273      2.2373      2.3307      2.3934    
  2.4156      2.3934      2.3307      2.2373      2.5385      2.3371      2.1536      1.9980      1.8748      1.7836    
  1.7210      1.6816      1.6598      1.6503      1.6503      1.6598      1.6816      1.7210      1.7836      1.8748    
  1.9980      2.1535      2.3371      2.5384      2.7409      2.9229      3.0612      3.1361      3.1361      3.0612    
  2.9229      2.7409      3.0008      2.6854      2.4031      2.1649      1.9744      1.8300      1.7271      1.6598    
  1.6222      1.6102      1.6222      1.6598      1.7271      1.8300      1.9744      2.1649      2.4031      2.6854    
  3.0008      3.3288      3.6398      3.8988      4.0712      4.1318      4.0712      3.8987      3.6398      3.3287    
  3.4831      3.0318      2.6388      2.3140      2.0585      1.8675      1.7340      1.6503      1.6102      1.6102    
  1.6503      1.7340      1.8675      2.0585      2.3140      2.6387      3.0318      3.4831      3.9697      4.4547    
  4.8890      5.2189      5.3975      5.3975      5.2189      4.8890      4.4547      3.9697      3.9405      3.3402    
  2.8336      2.4265      2.1147      1.8884      1.7369      1.6503      1.6222      1.6503      1.7369      1.8885    
  2.1147      2.4265      2.8335      3.3402      3.9405      4.6125      5.3139      5.9824      6.5415      6.9154    
  7.0471      6.9154      6.5416      5.9824      5.3139      4.6124      4.3207      3.5729      2.9624      2.4871    
  2.1344      1.8884      1.7340      1.6598      1.6598      1.7340      1.8885      2.1344      2.4870      2.9624    
  3.5729      4.3207      5.1897      6.1377      7.0928      7.9565      8.6177      8.9777      8.9778      8.6178    
  7.9566      7.0928      6.1376      5.1896      4.5734      3.6983      3.0075      2.4871      2.1147      1.8675    
  1.7271      1.6816      1.7271      1.8675      2.1147      2.4870      3.0075      3.6983      4.5734      5.6285    
  6.8293      8.1025      9.3335      10.376      11.079      11.328      11.079      10.376      9.3335      8.1025    
  6.8292      5.6284      4.6621      3.6983      2.9624      2.4265      2.0585      1.8300      1.7210      1.7210    
  1.8300      2.0585      2.4265      2.9624      3.6983      4.6621      5.8662      7.2926      8.8785      10.505    
  12.000      13.160      13.797      13.797      13.160      12.001      10.505      8.8784      7.2925      5.8662    
  4.5734      3.5729      2.8336      2.3140      1.9744      1.7836      1.7221      1.7836      1.9744      2.3140    
  2.8335      3.5729      4.5734      5.8662      7.4560      9.3018      11.299      13.266      14.959      16.115    
  16.527      16.115      14.959      13.266      11.299      9.3018      7.4559      5.8662      4.3207      3.3402    
  2.6388      2.1649      1.8748      1.7375      1.7375      1.8748      2.1649      2.6387      3.3402      4.3207    
  5.6285      7.2926      9.3018      11.580      13.963      16.191      17.944      18.916      18.916      17.944    
  16.191      13.963      11.580      9.3018      7.2926      5.6284      3.9405      3.0318      2.4031      1.9980    
  1.7729      1.7009      1.7729      1.9980      2.4031      3.0318      3.9405      5.1897      6.8293      8.8785    
  11.299      13.963      16.631      18.960      20.567      21.142      20.567      18.960      16.631      13.963    
  11.299      8.8785      6.8292      5.1896      3.4830      2.6854      2.1536      1.8317      1.6806      1.6806    
  1.8316      2.1535      2.6854      3.4831      4.6125      6.1377      8.1025      10.505      13.266      16.191    
  18.960      21.159      22.384      22.384      21.158      18.960      16.191      13.266      10.505      8.1025    
  6.1376      4.6124      3.0008      2.3371      1.9139      1.6807      1.6064      1.6806      1.9138      2.3371    
  3.0008      3.9697      5.3139      7.0928      9.3335      12.000      14.959      17.944      20.567      22.384    
  23.036      22.384      20.567      17.944      14.959      12.001      9.3336      7.0928      5.3138      3.9697    
  2.5384      2.0153      1.7009      1.5541      1.5541      1.7009      2.0153      2.5384      3.3288      4.4547    
  5.9824      7.9565      10.376      13.160      16.115      18.916      21.142      22.384      22.384      21.142    
  18.916      16.115      13.160      10.376      7.9566      5.9823      4.4547      3.3287      2.1273      1.7375    
  1.5235      1.4555      1.5235      1.7375      2.1273      2.7409      3.6398      4.8890      6.5415      8.6177    
  11.079      13.797      16.527      18.916      20.567      21.158      20.567      18.916      16.527      13.797    
  11.079      8.6178      6.5415      4.8890      3.6398      2.7409      1.7836      1.5110      1.3837      1.3837    
  1.5110      1.7836      2.2373      2.9229      3.8988      5.2189      6.9154      8.9777      11.328      13.797    
  16.115      17.944      18.960      18.960      17.944      16.115      13.797      11.328      8.9778      6.9154    
  5.2188      3.8987      2.9229      2.2373      1.5108      1.3350      1.2790      1.3350      1.5108      1.8300    
  2.3307      3.0612      4.0712      5.3975      7.0471      8.9778      11.079      13.160      14.959      16.191    
  16.631      16.191      14.959      13.160      11.079      8.9778      7.0470      5.3974      4.0711      3.0612    
  2.3307      1.8300      1.3043      1.2046      1.2046      1.3043      1.5167      1.8675      2.3934      3.1361    
  4.1318      5.3975      6.9154      8.6178      10.376      12.001      13.266      13.963      13.963      13.266    
  12.001      10.376      8.6178      6.9154      5.3974      4.1317      3.1361      2.3935      1.8675      1.5167    
  1.1556      1.1135      1.1556      1.2869      1.5228      1.8884      2.4156      3.1361      4.0712      5.2189    
  6.5416      7.9566      9.3335      10.505      11.299      11.580      11.299      10.505      9.3336      7.9566    
  6.5415      5.2188      4.0711      3.1361      2.4156      1.8885      1.5228      1.2869      1.0561      1.0561    
  1.1279      1.2792      1.5253      1.8884      2.3934      3.0612      3.8987      4.8890      5.9824      7.0928    
  8.1025      8.8784      9.3018      9.3018      8.8785      8.1025      7.0928      5.9823      4.8890      3.8987    
  3.0612      2.3935      1.8885      1.5253      1.2791      1.1279     0.99907      1.0283      1.1189      1.2792    
  1.5228      1.8675      2.3307      2.9229      3.6398      4.4547      5.3139      6.1376      6.8292      7.2925    
  7.4559      7.2926      6.8292      6.1376      5.3138      4.4547      3.6398      2.9229      2.3307      1.8675    
  1.5228      1.2791      1.1189      1.0283     0.98051      1.0283      1.1279      1.2869      1.5167      1.8300    
  2.2373      2.7409      3.3287      3.9697      4.6124      5.1896      5.6284      5.8662      5.8662      5.6284    
  5.1896      4.6124      3.9697      3.3287      2.7409      2.2373      1.8300      1.5167      1.2869      1.1279    
  1.0283     0.98051      1.1460      1.2070      1.3043      1.4439      1.6324      1.8748      2.1714      2.5146    
  2.8860      3.2556      3.5853      3.8344      3.9688      3.9688      3.8344      3.5853      3.2556      2.8860    
  2.5146      2.1714      1.8748      1.6324      1.4439      1.3043      1.2070      1.1460      1.1167      1.1167    
  1.2070      1.2578      1.3350      1.4438      1.5890      1.7729      1.9934      2.2415      2.4997      2.7438    
  2.9458      3.0796      3.1264      3.0796      2.9458      2.7438      2.4997      2.2415      1.9934      1.7729    
  1.5890      1.4438      1.3350      1.2578      1.2070      1.1785      1.1693      1.1785      1.3043      1.3350    
  1.3838      1.4555      1.5541      1.6806      1.8316      1.9980      2.1649      2.3140      2.4265      2.4871    
  2.4871      2.4265      2.3140      2.1649      1.9980      1.8317      1.6807      1.5541      1.4555      1.3837    
  1.3350      1.3043      1.2869      1.2792      1.2792      1.2869      1.4439      1.4438      1.4555      1.4846    
  1.5348      1.6064      1.6956      1.7941      1.8902      1.9711      2.0251      2.0441      2.0251      1.9711    