unknown system                          
   1.00000000000000     
     0.000000    2.715000    2.715000
     2.715000    0.000000    2.715000
     2.715000    2.715000    0.000000
   Si
     2
Direct
  0.500000  0.500000  0.500000
  0.750000  0.750000  0.750000
 
   28   28   28
 0.88926144458E+00 0.91629428734E+00 0.99963125345E+00 0.11463241812E+01 0.13683521650E+01
 0.16814344124E+01 0.21013661028E+01 0.26377493428E+01 0.32863828412E+01 0.40224694715E+01
 0.47968898071E+01 0.55376008615E+01 0.61580162326E+01 0.65729305938E+01 0.67190409712E+01
 0.65728746260E+01 0.61579502560E+01 0.55375618852E+01 0.47968717025E+01 0.40224512114E+01
 0.32863704972E+01 0.26377712350E+01 0.21014310239E+01 0.16815121776E+01 0.13683994945E+01
 0.11463228763E+01 0.99959905505E+00 0.91626568510E+00 0.91629428734E+00 0.96188550666E+00
 0.10565019755E+01 0.12072400451E+01 0.14245898903E+01 0.17207133589E+01 0.21056414927E+01
 0.25816789048E+01 0.31373607368E+01 0.37429808961E+01 0.43497276537E+01 0.48939780486E+01
 0.53073319023E+01 0.55310733318E+01 0.55310584780E+01 0.53073052944E+01 0.48939679028E+01
 0.43497363809E+01 0.37429935951E+01 0.31373792998E+01 0.25817233083E+01 0.21057151784E+01
 0.17207873064E+01 0.14246299285E+01 0.12072399512E+01 0.10564823231E+01 0.96186829517E+00
 0.91628827862E+00 0.99963125345E+00 0.10565019755E+01 0.11558307236E+01 0.13043536220E+01
 0.15106816108E+01 0.17832688225E+01 0.21268689209E+01 0.25379246382E+01 0.30001965959E+01
 0.34824641964E+01 0.39399404051E+01 0.43201826021E+01 0.45729373459E+01 0.46616526683E+01
 0.45729269529E+01 0.43201759641E+01 0.39399490026E+01 0.34824906417E+01 0.30002429656E+01
 0.25379909151E+01 0.21269387196E+01 0.17833120731E+01 0.15106818554E+01 0.13043262485E+01
 0.11558062966E+01 0.10564958940E+01 0.99963526151E+00 0.98112764828E+00 0.11463241812E+01
 0.12072400451E+01 0.13043536220E+01 0.14438016469E+01 0.16321551915E+01 0.18743943240E+01
 0.21709231708E+01 0.25140915414E+01 0.28854228558E+01 0.32550907869E+01 0.35847691080E+01
 0.38339305834E+01 0.39683459172E+01 0.39683406120E+01 0.38339219772E+01 0.35847730261E+01
 0.32551198611E+01 0.28854776869E+01 0.25141551621E+01 0.21709634905E+01 0.18743843251E+01
 0.16320993476E+01 0.14437373625E+01 0.13043193094E+01 0.12072436848E+01 0.11463443562E+01
 0.11170734126E+01 0.11170630758E+01 0.13683521650E+01 0.14245898903E+01 0.15106816108E+01
 0.16321551915E+01 0.17937309178E+01 0.19975600331E+01 0.22409629677E+01 0.25140902938E+01
 0.27985137599E+01 0.30679177002E+01 0.32915461427E+01 0.34400330645E+01 0.34921158568E+01
 0.34400252849E+01 0.32915457098E+01 0.30679382049E+01 0.27985512497E+01 0.25141216541E+01
 0.22409593458E+01 0.19975083766E+01 0.17936492866E+01 0.16320850244E+01 0.15106568148E+01
 0.14246110693E+01 0.13683916675E+01 0.13369811501E+01 0.13269129549E+01 0.13369535121E+01
 0.16814344124E+01 0.17207133589E+01 0.17832688225E+01 0.18743943240E+01 0.19975600331E+01
 0.21530788127E+01 0.23366252566E+01 0.25379237987E+01 0.27403559688E+01 0.29223101440E+01
 0.30606159979E+01 0.31354891839E+01 0.31354857007E+01 0.30606115073E+01 0.29223126480E+01
 0.27403604792E+01 0.25379141143E+01 0.23365909210E+01 0.21530269164E+01 0.19975109128E+01
 0.18743687906E+01 0.17832771651E+01 0.17207507382E+01 0.16814836051E+01 0.16596296589E+01
 0.16501575582E+01 0.16501423538E+01 0.16595896413E+01 0.21013661028E+01 0.21056414927E+01
 0.21268689209E+01 0.21709231708E+01 0.22409629677E+01 0.23366252566E+01 0.24533045945E+01
 0.25816814075E+01 0.27080046653E+01 0.28156985164E+01 0.28884602521E+01 0.29142065150E+01
 0.28884605517E+01 0.28156943803E+01 0.27079890146E+01 0.25816528773E+01 0.24532755705E+01
 0.23366165956E+01 0.22409855454E+01 0.21709666116E+01 0.21269127555E+01 0.21056763012E+01
 0.21013976327E+01 0.21065519905E+01 0.21135168258E+01 0.21165442441E+01 0.21134934912E+01
 0.21065195312E+01 0.26377493428E+01 0.25816789048E+01 0.25379246382E+01 0.25140915414E+01
 0.25140902938E+01 0.25379237987E+01 0.25816814075E+01 0.26377523170E+01 0.26955646483E+01
 0.27432403108E+01 0.27702251010E+01 0.27702330418E+01 0.27432525025E+01 0.26955630095E+01
 0.26377408542E+01 0.25816890095E+01 0.25379758644E+01 0.25141802127E+01 0.25141823111E+01
 0.25379791369E+01 0.25816901513E+01 0.26377421033E+01 0.26955665721E+01 0.27432550156E+01
 0.27702314672E+01 0.27702224976E+01 0.27432399905E+01 0.26955642453E+01 0.32863828412E+01
 0.31373607368E+01 0.30001965959E+01 0.28854228558E+01 0.27985137599E+01 0.27403559688E+01
 0.27080046653E+01 0.26955646483E+01 0.26953106190E+01 0.26992903879E+01 0.27013998810E+01
 0.26993189252E+01 0.26953424828E+01 0.26955921540E+01 0.27080550485E+01 0.27404530024E+01
 0.27986365857E+01 0.28855182195E+01 0.30002274109E+01 0.31373344384E+01 0.32863356786E+01
 0.34319058234E+01 0.35555476064E+01 0.36389482802E+01 0.36684418487E+01 0.36389501116E+01
 0.35555621711E+01 0.34319416429E+01 0.40224694715E+01 0.37429808961E+01 0.34824641964E+01
 0.32550907869E+01 0.30679177002E+01 0.29223101440E+01 0.28156985164E+01 0.27432403108E+01
 0.26992903879E+01 0.26788271876E+01 0.26788487449E+01 0.26993405609E+01 0.27433015734E+01
 0.28157810046E+01 0.29224277286E+01 0.30680431654E+01 0.32551646785E+01 0.34824530447E+01
 0.37429073914E+01 0.40223815236E+01 0.42991779441E+01 0.45455762666E+01 0.47318600933E+01
 0.48324635941E+01 0.48324774469E+01 0.47318973061E+01 0.45456310492E+01 0.42992511314E+01
 0.47968898071E+01 0.43497276537E+01 0.39399404051E+01 0.35847691080E+01 0.32915461427E+01
 0.30606159979E+01 0.28884602521E+01 0.27702251010E+01 0.27013998810E+01 0.26788487449E+01
 0.27014415346E+01 0.27702979536E+01 0.28885627734E+01 0.30607472525E+01 0.32916725685E+01
 0.35848278987E+01 0.39398944227E+01 0.43496034173E+01 0.47967488478E+01 0.52525921489E+01
 0.56779083991E+01 0.60275534977E+01 0.62584513296E+01 0.63392626375E+01 0.62584802081E+01
 0.60276076183E+01 0.56779890856E+01 0.52527066275E+01 0.55376008615E+01 0.48939780486E+01
 0.43201826021E+01 0.38339305834E+01 0.34400330645E+01 0.31354891839E+01 0.29142065150E+01
 0.27702330418E+01 0.26993189252E+01 0.26993405609E+01 0.27702979536E+01 0.29143160026E+01
 0.31356356566E+01 0.34401754215E+01 0.38339967879E+01 0.43201213193E+01 0.48938076822E+01
 0.55373973822E+01 0.62165843680E+01 0.68800577955E+01 0.74639592441E+01 0.79015300209E+01
 0.81364958892E+01 0.81364796825E+01 0.79015017947E+01 0.74639644666E+01 0.68801358950E+01
 0.62167437299E+01 0.61580162326E+01 0.53073319023E+01 0.45729373459E+01 0.39683459172E+01
 0.34921158568E+01 0.31354857007E+01 0.28884605517E+01 0.27432525025E+01 0.26953424828E+01
 0.27433015734E+01 0.28885627734E+01 0.31356356566E+01 0.34922731098E+01 0.39684302010E+01
 0.45728766365E+01 0.53071281994E+01 0.61577579739E+01 0.70894658976E+01 0.80417793930E+01
 0.89317734020E+01 0.96641175714E+01 0.10147976517E+02 0.10317298910E+02 0.10147862048E+02
 0.96639672867E+01 0.89316918112E+01 0.80418365601E+01 0.70896613560E+01 0.65729305938E+01
 0.55310733318E+01 0.46616526683E+01 0.39683406120E+01 0.34400252849E+01 0.30606115073E+01
 0.28156943803E+01 0.26955630095E+01 0.26955921540E+01 0.28157810046E+01 0.30607472525E+01
 0.34401754215E+01 0.39684302010E+01 0.46615990711E+01 0.55308595992E+01 0.65726465565E+01
 0.77580238589E+01 0.90248815452E+01 0.10276456874E+02 0.11388863179E+02 0.12229203325E+02
 0.12682853413E+02 0.12682779587E+02 0.12229013819E+02 0.11388644326E+02 0.10276320930E+02
 0.90249160144E+01 0.77582327198E+01 0.67190409712E+01 0.55310584780E+01 0.45729269529E+01
 0.38339219772E+01 0.32915457098E+01 0.29223126480E+01 0.27079890146E+01 0.26377408542E+01
 0.27080550485E+01 0.29224277286E+01 0.32916725685E+01 0.38339967879E+01 0.45728766365E+01
 0.55308595992E+01 0.67187721680E+01 0.81220493216E+01 0.96878871689E+01 0.11317432802E+02
 0.12866904628E+02 0.14161872760E+02 0.15027424998E+02 0.15331607879E+02 0.15027380100E+02
 0.14161756389E+02 0.12866730428E+02 0.11317294797E+02 0.96879005735E+01 0.81222407701E+01
 0.65728746260E+01 0.53073052944E+01 0.43201759641E+01 0.35847730261E+01 0.30679382049E+01
 0.27403604792E+01 0.25816528773E+01 0.25816890095E+01 0.27404530024E+01 0.30680431654E+01
 0.35848278987E+01 0.43201213193E+01 0.53071281994E+01 0.65726465565E+01 0.81220493216E+01
 0.99224991432E+01 0.11888499008E+02 0.13873904113E+02 0.15675037107E+02 0.17044997383E+02
 0.17781069056E+02 0.17781136131E+02 0.17045123337E+02 0.15675079962E+02 0.13873812856E+02
 0.11888373070E+02 0.99224855501E+01 0.81221983551E+01 0.61579502560E+01 0.48939679028E+01
 0.39399490026E+01 0.32551198611E+01 0.27985512497E+01 0.25379141143E+01 0.24532755705E+01
 0.25379758644E+01 0.27986365857E+01 0.32551646785E+01 0.39398944227E+01 0.48938076822E+01
 0.61577579739E+01 0.77580238589E+01 0.96878871689E+01 0.11888499008E+02 0.14232273442E+02
 0.16507928852E+02 0.18407635175E+02 0.19658015276E+02 0.20093157187E+02 0.19658248713E+02
 0.18407919690E+02 0.16508064307E+02 0.14232210238E+02 0.11888360462E+02 0.96878385252E+01
 0.77581292264E+01 0.55375618852E+01 0.43497363809E+01 0.34824906417E+01 0.28854776869E+01
 0.25141216541E+01 0.23365909210E+01 0.23366165956E+01 0.25141802127E+01 0.28855182195E+01
 0.34824530447E+01 0.43496034173E+01 0.55373973822E+01 0.70894658976E+01 0.90248815452E+01
 0.11317432802E+02 0.13873904113E+02 0.16507928852E+02 0.18888657224E+02 0.20674323181E+02
 0.21626927516E+02 0.21627081283E+02 0.20674676230E+02 0.18888972763E+02 0.16508027106E+02
 0.13873784942E+02 0.11317250457E+02 0.90248030072E+01 0.70895453211E+01 0.47968717025E+01
 0.37429935951E+01 0.30002429656E+01 0.25141551621E+01 0.22409593458E+01 0.21530269164E+01
 0.22409855454E+01 0.25141823111E+01 0.30002274109E+01 0.37429073914E+01 0.47967488478E+01
 0.62165843680E+01 0.80417793930E+01 0.10276456874E+02 0.12866904628E+02 0.15675037107E+02
 0.18407635175E+02 0.20674323181E+02 0.22163537718E+02 0.22681832076E+02 0.22163816802E+02
 0.20674684875E+02 0.18407843393E+02 0.15674989512E+02 0.12866681332E+02 0.10276236087E+02
 0.80416950544E+01 0.62166474797E+01 0.40224512114E+01 0.31373792998E+01 0.25379909151E+01
 0.21709634905E+01 0.19975083766E+01 0.19975109128E+01 0.21709666116E+01 0.25379791369E+01
 0.31373344384E+01 0.40223815236E+01 0.52525921489E+01 0.68800577955E+01 0.89317734020E+01
 0.11388863179E+02 0.14161872760E+02 0.17044997383E+02 0.19658015276E+02 0.21626927516E+02
 0.22681832076E+02 0.22681967140E+02 0.21627223139E+02 0.19658239850E+02 0.17044993791E+02
 0.14161658700E+02 0.11388581768E+02 0.89315706266E+01 0.68799928713E+01 0.52526322316E+01
 0.32863704972E+01 0.25817233083E+01 0.21269387196E+01 0.18743843251E+01 0.17936492866E+01
 0.18743687906E+01 0.21269127555E+01 0.25816901513E+01 0.32863356786E+01 0.42991779441E+01
 0.56779083991E+01 0.74639592441E+01 0.96641175714E+01 0.12229203325E+02 0.15027424998E+02
 0.17781069056E+02 0.20093157187E+02 0.21627081283E+02 0.22163816802E+02 0.21627223139E+02
 0.20093293040E+02 0.17781052854E+02 0.15027237877E+02 0.12228939663E+02 0.96638903977E+01
 0.74638256680E+01 0.56778667121E+01 0.42991934168E+01 0.26377712350E+01 0.21057151784E+01
 0.17833120731E+01 0.16320993476E+01 0.16320850244E+01 0.17832771651E+01 0.21056763012E+01
 0.26377421033E+01 0.34319058234E+01 0.45455762666E+01 0.60275534977E+01 0.79015300209E+01
 0.10147976517E+02 0.12682853413E+02 0.15331607879E+02 0.17781136131E+02 0.19658248713E+02
 0.20674676230E+02 0.20674684875E+02 0.19658239850E+02 0.17781052854E+02 0.15331444093E+02
 0.12682657730E+02 0.10147804028E+02 0.79014048992E+01 0.60274782255E+01 0.45455470959E+01
 0.34319124655E+01 0.21014310239E+01 0.17207873064E+01 0.15106818554E+01 0.14437373625E+01
 0.15106568148E+01 0.17207507382E+01 0.21013976327E+01 0.26955665721E+01 0.35555476064E+01
 0.47318600933E+01 0.62584513296E+01 0.81364958892E+01 0.10317298910E+02 0.12682779587E+02
 0.15027380100E+02 0.17045123337E+02 0.18407919690E+02 0.18888972763E+02 0.18407843393E+02
 0.17044993791E+02 0.15027237877E+02 0.12682657730E+02 0.10317202684E+02 0.81364105567E+01
 0.62583742304E+01 0.47318089523E+01 0.35555342034E+01 0.26955839606E+01 0.16815121776E+01
 0.14246299285E+01 0.13043262485E+01 0.13043193094E+01 0.14246110693E+01 0.16814836051E+01
 0.21065519905E+01 0.27432550156E+01 0.36389482802E+01 0.48324635941E+01 0.63392626375E+01
 0.81364796825E+01 0.10147862048E+02 0.12229013819E+02 0.14161756389E+02 0.15675079962E+02
 0.16508064307E+02 0.16508027106E+02 0.15674989512E+02 0.14161658700E+02 0.12228939663E+02
 0.10147804028E+02 0.81364105567E+01 0.63391795516E+01 0.48323988088E+01 0.36389298123E+01
 0.27432764100E+01 0.21065859852E+01 0.13683994945E+01 0.12072399512E+01 0.11558062966E+01
 0.12072436848E+01 0.13683916675E+01 0.16596296589E+01 0.21135168258E+01 0.27702314672E+01
 0.36684418487E+01 0.48324774469E+01 0.62584802081E+01 0.79015017947E+01 0.96639672867E+01
 0.11388644326E+02 0.12866730428E+02 0.13873812856E+02 0.14232210238E+02 0.13873784942E+02
 0.12866681332E+02 0.11388581768E+02 0.96638903977E+01 0.79014048992E+01 0.62583742304E+01
 0.48323988088E+01 0.36684244337E+01 0.27702712349E+01 0.21135733984E+01 0.16596652479E+01
 0.11463228763E+01 0.10564823231E+01 0.10564958940E+01 0.11463443562E+01 0.13369811501E+01
 0.16501575582E+01 0.21165442441E+01 0.27702224976E+01 0.36389501116E+01 0.47318973061E+01
 0.60276076183E+01 0.74639644666E+01 0.89316918112E+01 0.10276320930E+02 0.11317294797E+02
 0.11888373070E+02 0.11888360462E+02 0.11317250457E+02 0.10276236087E+02 0.89315706266E+01
 0.74638256680E+01 0.60274782255E+01 0.47318089523E+01 0.36389298123E+01 0.27702712349E+01
 0.21166244577E+01 0.16502158254E+01 0.13369906456E+01 0.99959905505E+00 0.96186829517E+00
 0.99963526151E+00 0.11170734126E+01 0.13269129549E+01 0.16501423538E+01 0.21134934912E+01
 0.27432399905E+01 0.35555621711E+01 0.45456310492E+01 0.56779890856E+01 0.68801358950E+01
 0.80418365601E+01 0.90249160144E+01 0.96879005735E+01 0.99224855501E+01 0.96878385252E+01
 0.90248030072E+01 0.80416950544E+01 0.68799928713E+01 0.56778667121E+01 0.45455470959E+01
 0.35555342034E+01 0.27432764100E+01 0.21135733984E+01 0.16502158254E+01 0.13269355286E+01
 0.11170448043E+01 0.91626568510E+00 0.91628827862E+00 0.98112764828E+00 0.11170630758E+01
 0.13369535121E+01 0.16595896413E+01 0.21065195312E+01 0.26955642453E+01 0.34319416429E+01
 0.42992511314E+01 0.52527066275E+01 0.62167437299E+01 0.70896613560E+01 0.77582327198E+01
 0.81222407701E+01 0.81221983551E+01 0.77581292264E+01 0.70895453211E+01 0.62166474797E+01
 0.52526322316E+01 0.42991934168E+01 0.34319124655E+01 0.26955839606E+01 0.21065859852E+01
 0.16596652479E+01 0.13369906456E+01 0.11170448043E+01 0.98108308287E+00 0.91629476776E+00
 0.96188674083E+00 0.10565029709E+01 0.12072407336E+01 0.14245910279E+01 0.17207148830E+01
 0.21056424979E+01 0.25816791662E+01 0.31373607162E+01 0.37429803422E+01 0.43497258233E+01
 0.48939753248E+01 0.53073296558E+01 0.55310721756E+01 0.55310581070E+01 0.53073058821E+01
 0.48939700098E+01 0.43497394863E+01 0.37429962942E+01 0.31373809978E+01 0.25817242978E+01
 0.21057152182E+01 0.17207857610E+01 0.14246272885E+01 0.12072376177E+01 0.10564808404E+01
 0.96186722833E+00 0.91628769617E+00 0.96188674083E+00 0.10172825214E+01 0.11138184849E+01
 0.12578792451E+01 0.14577892510E+01 0.17218500676E+01 0.20548165012E+01 0.24533036139E+01
 0.29014839283E+01 0.33689145553E+01 0.38120562201E+01 0.41801281209E+01 0.44246461735E+01
 0.45104405607E+01 0.44246361527E+01 0.41801231870E+01 0.38120639605E+01 0.33689300669E+01
 0.29015090549E+01 0.24533507271E+01 0.20548842586E+01 0.17219113297E+01 0.14578162783E+01
 0.12578734633E+01 0.11138046979E+01 0.10172789703E+01 0.96189044552E+00 0.94383571906E+00
 0.10565029709E+01 0.11138184849E+01 0.12047691434E+01 0.13349879595E+01 0.15107905354E+01
 0.17371882886E+01 0.20148529126E+01 0.23366272132E+01 0.26848902215E+01 0.30312853282E+01
 0.33397175428E+01 0.35724259399E+01 0.36978071767E+01 0.36978021565E+01 0.35724144408E+01
 0.33397080212E+01 0.30312886226E+01 0.26849174850E+01 0.23366804156E+01 0.20149130639E+01
 0.17372232000E+01 0.15107840237E+01 0.13349575004E+01 0.12047475576E+01 0.11138215100E+01
 0.10565194000E+01 0.10288596727E+01 0.10288509434E+01 0.12072407336E+01 0.12578792451E+01
 0.13349879595E+01 0.14436864625E+01 0.15886982484E+01 0.17725114347E+01 0.19929766265E+01
 0.22409649044E+01 0.24992005038E+01 0.27433012488E+01 0.29453171440E+01 0.30790783543E+01
 0.31259188580E+01 0.30790682583E+01 0.29453026460E+01 0.27432965639E+01 0.24992217633E+01
 0.22410113578E+01 0.19930202036E+01 0.17725160131E+01 0.15886555953E+01 0.14436278030E+01
 0.13349542669E+01 0.12578841535E+01 0.12072661381E+01 0.11787715263E+01 0.11695881883E+01
 0.11787515496E+01 0.14245910279E+01 0.14577892510E+01 0.15107905354E+01 0.15886982484E+01
 0.16952419039E+01 0.18312436667E+01 0.19929758453E+01 0.21709230784E+01 0.23497269135E+01
 0.25098800574E+01 0.26310855713E+01 0.26964767560E+01 0.26964728355E+01 0.26310761732E+01
 0.25098735112E+01 0.23497342196E+01 0.21709446835E+01 0.19929925972E+01 0.18312302424E+01
 0.16951942507E+01 0.15886430898E+01 0.15107622719E+01 0.14577992168E+01 0.14246223397E+01
 0.14060429365E+01 0.13979018079E+01 0.13978912710E+01 0.14060148657E+01 0.17207148830E+01
 0.17218500676E+01 0.17371882886E+01 0.17725114347E+01 0.18312436667E+01 0.19134148716E+01
 0.20148524599E+01 0.21268695647E+01 0.22368805151E+01 0.23302178085E+01 0.23929641428E+01
 0.24150972151E+01 0.23929625848E+01 0.23302143774E+01 0.22368770182E+01 0.21268676747E+01
 0.20148487449E+01 0.19134030748E+01 0.18312240568E+01 0.17724941118E+01 0.17371848604E+01
 0.17218639416E+01 0.17207399519E+01 0.17269048394E+01 0.17337865231E+01 0.17366500495E+01
 0.17337705198E+01 0.17268791846E+01 0.21056424979E+01 0.20548165012E+01 0.20148529126E+01
 0.19929766265E+01 0.19929758453E+01 0.20148524599E+01 0.20548183174E+01 0.21056447756E+01
 0.21575848453E+01 0.22000563890E+01 0.22239482890E+01 0.22239531556E+01 0.22000651120E+01
 0.21575883656E+01 0.21056434483E+01 0.20548204347E+01 0.20148634922E+01 0.19929938612E+01
 0.19929954504E+01 0.20148662584E+01 0.20548220903E+01 0.21056452022E+01 0.21575914018E+01
 0.22000671030E+01 0.22239521062E+01 0.22239462534E+01 0.22000556662E+01 0.21575840886E+01
 0.25816791662E+01 0.24533036139E+01 0.23366272132E+01 0.22409649044E+01 0.21709230784E+01
 0.21268695647E+01 0.21056447756E+01 0.21013690552E+01 0.21065197708E+01 0.21134932012E+01
 0.21165448999E+01 0.21135155726E+01 0.21065472759E+01 0.21013930035E+01 0.21056746447E+01
 0.21269121187E+01 0.21709654782E+01 0.22409866238E+01 0.23366213510E+01 0.24532804662E+01
 0.25816550495E+01 0.27079903706E+01 0.28156963351E+01 0.28884603275E+01 0.29142026523E+01
 0.28884562943E+01 0.28156972000E+01 0.27080037744E+01 0.31373607162E+01 0.29014839283E+01
 0.26848902215E+01 0.24992005038E+01 0.23497269135E+01 0.22368805151E+01 0.21575848453E+01
 0.21065197708E+01 0.20774085358E+01 0.20645728091E+01 0.20645928633E+01 0.20774559318E+01
 0.21065753211E+01 0.21576453870E+01 0.22369442792E+01 0.23497694940E+01 0.24991906430E+01
 0.26848290854E+01 0.29014097085E+01 0.31373100298E+01 0.33738795452E+01 0.35865573596E+01
 0.37484916952E+01 0.38363141110E+01 0.38363178284E+01 0.37484994088E+01 0.35865668327E+01
 0.33739016142E+01 0.37429803422E+01 0.33689145553E+01 0.30312853282E+01 0.27433012488E+01
 0.25098800574E+01 0.23302178085E+01 0.22000563890E+01 0.21134932012E+01 0.20645728091E+01
 0.20488374343E+01 0.20646181288E+01 0.21135669944E+01 0.22001413024E+01 0.23302938437E+01
 0.25099098779E+01 0.27432476605E+01 0.30311572794E+01 0.33687753322E+01 0.37428928607E+01
 0.41299280701E+01 0.44959781269E+01 0.48003653022E+01 0.50030501351E+01 0.50742976140E+01
 0.50030694888E+01 0.48003826538E+01 0.44959861694E+01 0.41299565762E+01 0.43497258233E+01
 0.38120562201E+01 0.33397175428E+01 0.29453171440E+01 0.26310855713E+01 0.23929641428E+01
 0.22239482890E+01 0.21165448999E+01 0.20645928633E+01 0.20646181288E+01 0.21166150890E+01
 0.22240460019E+01 0.23930545681E+01 0.26311138916E+01 0.29452361043E+01 0.33395369236E+01
 0.38118536858E+01 0.43495880478E+01 0.49258031607E+01 0.54974214546E+01 0.60077191470E+01
 0.63946105440E+01 0.66039636600E+01 0.66039732517E+01 0.63946259999E+01 0.60077207597E+01
 0.54974209165E+01 0.49258510103E+01 0.48939753248E+01 0.41801281209E+01 0.35724259399E+01
 0.30790783543E+01 0.26964767560E+01 0.24150972151E+01 0.22239531556E+01 0.21135155726E+01
 0.20774559318E+01 0.21135669944E+01 0.22240460019E+01 0.24151962483E+01 0.26965164148E+01
 0.30789958980E+01 0.35722194453E+01 0.41798770782E+01 0.48937867501E+01 0.56875058589E+01
 0.65116609817E+01 0.72939044947E+01 0.79464030605E+01 0.83819021633E+01 0.85351603686E+01
 0.83818881875E+01 0.79463697287E+01 0.72938593974E+01 0.65116445558E+01 0.56875788318E+01
 0.53073296558E+01 0.44246461735E+01 0.36978071767E+01 0.31259188580E+01 0.26964728355E+01
 0.23929625848E+01 0.22000651120E+01 0.21065472759E+01 0.21065753211E+01 0.22001413024E+01
 0.23930545681E+01 0.26965164148E+01 0.31258441234E+01 0.36975964291E+01 0.44243690005E+01
 0.53071062590E+01 0.63258854848E+01 0.74314071470E+01 0.85405754451E+01 0.95404589098E+01
 0.10304395298E+02 0.10719828054E+02 0.10719813169E+02 0.10304344750E+02 0.95403690229E+01
 0.85404738065E+01 0.74313633578E+01 0.63259716053E+01 0.55310721756E+01 0.45104405607E+01
 0.36978021565E+01 0.30790682583E+01 0.26310761732E+01 0.23302143774E+01 0.21575883656E+01
 0.21013930035E+01 0.21576453870E+01 0.23302938437E+01 0.26311138916E+01 0.30789958980E+01
 0.36975964291E+01 0.45101606719E+01 0.55308405457E+01 0.67530262661E+01 0.81366817205E+01
 0.95980626275E+01 0.11006912037E+02 0.12197847416E+02 0.13000615544E+02 0.13284637789E+02
 0.13000633137E+02 0.12197824996E+02 0.11006806694E+02 0.95979143598E+01 0.81366009582E+01
 0.67531051477E+01 0.55310581070E+01 0.44246361527E+01 0.35724144408E+01 0.29453026460E+01
 0.25098735112E+01 0.22368770182E+01 0.21056434483E+01 0.21056746447E+01 0.22369442792E+01
 0.25099098779E+01 0.29452361043E+01 0.35722194453E+01 0.44243690005E+01 0.55308405457E+01
 0.69035060423E+01 0.85209832947E+01 0.10312376594E+02 0.12145490572E+02 0.13828029472E+02
 0.15132563012E+02 0.15848907008E+02 0.15848980841E+02 0.15132708095E+02 0.13828093438E+02
 0.12145395065E+02 0.10312192043E+02 0.85208645191E+01 0.69035621541E+01 0.53073058821E+01
 0.41801231870E+01 0.33397080212E+01 0.27432965639E+01 0.23497342196E+01 0.21268676747E+01
 0.20548204347E+01 0.21269121187E+01 0.23497694940E+01 0.27432476605E+01 0.33395369236E+01
 0.41798770782E+01 0.53071062590E+01 0.67530262661E+01 0.85209832947E+01 0.10565347226E+02
 0.12771162240E+02 0.14941871605E+02 0.16810148906E+02 0.18086504423E+02 0.18541341914E+02
 0.18086722498E+02 0.16810411203E+02 0.14941981236E+02 0.12771057515E+02 0.10565134301E+02
 0.85208384168E+01 0.67530625472E+01 0.48939700098E+01 0.38120639605E+01 0.30312886226E+01
 0.24992217633E+01 0.21709446835E+01 0.20148487449E+01 0.20148634922E+01 0.21709654782E+01
 0.24991906430E+01 0.30311572794E+01 0.38118536858E+01 0.48937867501E+01 0.63258854848E+01
 0.81366817205E+01 0.10312376594E+02 0.12771162240E+02 0.15338791949E+02 0.17740222802E+02
 0.19629465399E+02 0.20673029570E+02 0.20673153097E+02 0.19629750888E+02 0.17740479099E+02
 0.15338860926E+02 0.12771023982E+02 0.10312150519E+02 0.81365365194E+01 0.63259206199E+01
 0.43497394863E+01 0.33689300669E+01 0.26849174850E+01 0.22410113578E+01 0.19929925972E+01
 0.19134030748E+01 0.19929938612E+01 0.22409866238E+01 0.26848290854E+01 0.33687753322E+01
 0.43495880478E+01 0.56875058589E+01 0.74314071470E+01 0.95980626275E+01 0.12145490572E+02
 0.14941871605E+02 0.17740222802E+02 0.20180876500E+02 0.21853656939E+02 0.22449049366E+02
 0.21853816936E+02 0.20181098820E+02 0.17740371413E+02 0.14941854980E+02 0.12145320027E+02
 0.95978481783E+01 0.74312876048E+01 0.56875469677E+01 0.37429962942E+01 0.29015090549E+01
 0.23366804156E+01 0.19930202036E+01 0.18312302424E+01 0.18312240568E+01 0.19929954504E+01
 0.23366213510E+01 0.29014097085E+01 0.37428928607E+01 0.49258031607E+01 0.65116609817E+01
 0.85405754451E+01 0.11006912037E+02 0.13828029472E+02 0.16810148906E+02 0.19629465399E+02
 0.21853656939E+02 0.23081812862E+02 0.23081852712E+02 0.21853750825E+02 0.19629551983E+02
 0.16810162508E+02 0.13827936266E+02 0.11006736299E+02 0.85403987787E+01 0.65115750415E+01
 0.49258369907E+01 0.31373809978E+01 0.24533507271E+01 0.20149130639E+01 0.17725160131E+01
 0.16951942507E+01 0.17724941118E+01 0.20148662584E+01 0.24532804662E+01 0.31373100298E+01
 0.41299280701E+01 0.54974214546E+01 0.72939044947E+01 0.95404589098E+01 0.12197847416E+02
 0.15132563012E+02 0.18086504423E+02 0.20673029570E+02 0.22449049366E+02 0.23081852712E+02
 0.22449027696E+02 0.20672984353E+02 0.18086437629E+02 0.15132474135E+02 0.12197730990E+02
 0.95403202070E+01 0.72937821359E+01 0.54973661646E+01 0.41299533321E+01 0.25817242978E+01
 0.20548842586E+01 0.17372232000E+01 0.15886555953E+01 0.15886430898E+01 0.17371848604E+01
 0.20548220903E+01 0.25816550495E+01 0.33738795452E+01 0.44959781269E+01 0.60077191470E+01
 0.79464030605E+01 0.10304395298E+02 0.13000615544E+02 0.15848907008E+02 0.18541341914E+02
 0.20673153097E+02 0.21853816936E+02 0.21853750825E+02 0.20672984353E+02 0.18541144111E+02
 0.15848750064E+02 0.13000518323E+02 0.10304323770E+02 0.79463256455E+01 0.60076524327E+01
 0.44959606326E+01 0.33739203452E+01 0.21057152182E+01 0.17219113297E+01 0.15107840237E+01
 0.14436278030E+01 0.15107622719E+01 0.17218639416E+01 0.21056452022E+01 0.27079903706E+01
 0.35865573596E+01 0.48003653022E+01 0.63946105440E+01 0.83819021633E+01 0.10719828054E+02
 0.13284637789E+02 0.15848980841E+02 0.18086722498E+02 0.19629750888E+02 0.20181098820E+02
 0.19629551983E+02 0.18086437629E+02 0.15848750064E+02 0.13284527756E+02 0.10719802079E+02
 0.83818855125E+01 0.63945783969E+01 0.48003503938E+01 0.35865903788E+01 0.27080597325E+01
 0.17207857610E+01 0.14578162783E+01 0.13349575004E+01 0.13349542669E+01 0.14577992168E+01
 0.17207399519E+01 0.21575914018E+01 0.28156963351E+01 0.37484916952E+01 0.50030501351E+01
 0.66039636600E+01 0.85351603686E+01 0.10719813169E+02 0.13000633137E+02 0.15132708095E+02
 0.16810411203E+02 0.17740479099E+02 0.17740371413E+02 0.16810162508E+02 0.15132474135E+02
 0.13000518323E+02 0.10719802079E+02 0.85351718600E+01 0.66039549541E+01 0.50030473122E+01
 0.37485324901E+01 0.28157748906E+01 0.21576677445E+01 0.14246272885E+01 0.12578734633E+01
 0.12047475576E+01 0.12578841535E+01 0.14246223397E+01 0.17269048394E+01 0.22000671030E+01
 0.28884603275E+01 0.38363141110E+01 0.50742976140E+01 0.66039732517E+01 0.83818881875E+01
 0.10304344750E+02 0.12197824996E+02 0.13828093438E+02 0.14941981236E+02 0.15338860926E+02
 0.14941854980E+02 0.13827936266E+02 0.12197730990E+02 0.10304323770E+02 0.83818855125E+01
 0.66039549541E+01 0.50742906176E+01 0.38363604927E+01 0.28885562852E+01 0.22001623615E+01
 0.17269554068E+01 0.12072376177E+01 0.11138046979E+01 0.11138215100E+01 0.12072661381E+01
 0.14060429365E+01 0.17337865231E+01 0.22239521062E+01 0.29142026523E+01 0.38363178284E+01
 0.50030694888E+01 0.63946259999E+01 0.79463697287E+01 0.95403690229E+01 0.11006806694E+02
 0.12145395065E+02 0.12771057515E+02 0.12771023982E+02 0.12145320027E+02 0.11006736299E+02
 0.95403202070E+01 0.79463256455E+01 0.63945783969E+01 0.50030473122E+01 0.38363604927E+01
 0.29143102345E+01 0.22240732536E+01 0.17338606392E+01 0.14060503838E+01 0.10564808404E+01
 0.10172789703E+01 0.10565194000E+01 0.11787715263E+01 0.13979018079E+01 0.17366500495E+01
 0.22239462534E+01 0.28884562943E+01 0.37484994088E+01 0.48003826538E+01 0.60077207597E+01
 0.72938593974E+01 0.85404738065E+01 0.95979143598E+01 0.10312192043E+02 0.10565134301E+02
 0.10312150519E+02 0.95978481783E+01 0.85403987787E+01 0.72937821359E+01 0.60076524327E+01
 0.48003503938E+01 0.37485324901E+01 0.28885562852E+01 0.22240732536E+01 0.17367446265E+01
 0.13979267828E+01 0.11787394047E+01 0.96186722833E+00 0.96189044552E+00 0.10288596727E+01
 0.11695881883E+01 0.13978912710E+01 0.17337705198E+01 0.22000556662E+01 0.28156972000E+01
 0.35865668327E+01 0.44959861694E+01 0.54974209165E+01 0.65116445558E+01 0.74313633578E+01
 0.81366009582E+01 0.85208645191E+01 0.85208384168E+01 0.81365365194E+01 0.74312876048E+01
 0.65115750415E+01 0.54973661646E+01 0.44959606326E+01 0.35865903788E+01 0.28157748906E+01
 0.22001623615E+01 0.17338606392E+01 0.13979267828E+01 0.11695650017E+01 0.10288124429E+01
 0.91628769617E+00 0.94383571906E+00 0.10288509434E+01 0.11787515496E+01 0.14060148657E+01
 0.17268791846E+01 0.21575840886E+01 0.27080037744E+01 0.33739016142E+01 0.41299565762E+01
 0.49258510103E+01 0.56875788318E+01 0.63259716053E+01 0.67531051477E+01 0.69035621541E+01
 0.67530625472E+01 0.63259206199E+01 0.56875469677E+01 0.49258369907E+01 0.41299533321E+01
 0.33739203452E+01 0.27080597325E+01 0.21576677445E+01 0.17269554068E+01 0.14060503838E+01
 0.11787394047E+01 0.10288124429E+01 0.94380433062E+00 0.99963331995E+00 0.10565045097E+01
 0.11558322002E+01 0.13043542902E+01 0.15106827951E+01 0.17832701543E+01 0.21268688577E+01
 0.25379231840E+01 0.30001949193E+01 0.34824621770E+01 0.39399372670E+01 0.43201794365E+01
 0.45729362730E+01 0.46616538911E+01 0.45729291280E+01 0.43201788480E+01 0.39399530654E+01
 0.34824946735E+01 0.30002448631E+01 0.25379904897E+01 0.21269372486E+01 0.17833096961E+01
 0.15106780489E+01 0.13043222369E+01 0.11558041866E+01 0.10564957861E+01 0.99963573692E+00
 0.98112853671E+00 0.10565045097E+01 0.11138197292E+01 0.12047695841E+01 0.13349879224E+01
 0.15107905809E+01 0.17371881108E+01 0.20148518819E+01 0.23366255486E+01 0.26848886069E+01
 0.30312838880E+01 0.33397162550E+01 0.35724255128E+01 0.36978083510E+01 0.36978045274E+01
 0.35724169868E+01 0.33397103257E+01 0.30312905808E+01 0.26849184070E+01 0.23366796153E+01
 0.20149109472E+01 0.17372207398E+01 0.15107816034E+01 0.13349552452E+01 0.12047461986E+01
 0.11138217348E+01 0.10565207600E+01 0.10288611932E+01 0.10288523844E+01 0.11558322002E+01
 0.12047695841E+01 0.12790579489E+01 0.13836542292E+01 0.15232730204E+01 0.17005165397E+01