   2   2   0   0
  0.2001288E+02  0.3839590E-09  0.3839590E-09  0.3839590E-09  0.5000000E-15
  1.000000000000000E-004
  CAR 
 unknown system                          
     17.08484328     -8.03983610  301      6.16327569      1.00000000
     -8.040  0.0000E+00  0.0000E+00
     -7.956  0.0000E+00  0.0000E+00
     -7.872  0.0000E+00  0.0000E+00
     -7.789  0.0000E+00  0.0000E+00
     -7.705  0.0000E+00  0.0000E+00
     -7.621  0.0000E+00  0.0000E+00
     -7.537  0.0000E+00  0.0000E+00
     -7.454  0.0000E+00  0.0000E+00
     -7.370  0.0000E+00  0.0000E+00
     -7.286  0.0000E+00  0.0000E+00
     -7.202  0.1637E-17  0.1371E-18
     -7.119  0.1743E-15  0.1473E-16
     -7.035  0.1443E-13  0.1223E-14
     -6.951  0.8453E-12  0.7202E-13
     -6.867  0.3507E-10  0.3009E-11
     -6.784  0.1030E-08  0.8931E-10
     -6.700  0.2146E-07  0.1887E-08
     -6.616  0.3170E-06  0.2844E-07
     -6.532  0.3325E-05  0.3069E-06
     -6.449  0.2478E-04  0.2383E-05
     -6.365  0.1317E-03  0.1342E-04
     -6.281  0.5026E-03  0.5551E-04
     -6.197  0.1399E-02  0.1726E-03
     -6.114  0.2947E-02  0.4194E-03
     -6.030  0.5042E-02  0.8417E-03
     -5.946  0.7636E-02  0.1481E-02
     -5.862  0.1063E-01  0.2372E-02
     -5.779  0.1329E-01  0.3485E-02
     -5.695  0.1485E-01  0.4728E-02
     -5.611  0.1563E-01  0.6037E-02
     -5.527  0.1638E-01  0.7409E-02
     -5.444  0.1758E-01  0.8881E-02
     -5.360  0.1958E-01  0.1052E-01
     -5.276  0.2230E-01  0.1239E-01
     -5.192  0.2529E-01  0.1451E-01
     -5.109  0.2760E-01  0.1682E-01
     -5.025  0.2765E-01  0.1913E-01
     -4.941  0.2515E-01  0.2124E-01
     -4.857  0.2243E-01  0.2312E-01
     -4.774  0.2242E-01  0.2499E-01
     -4.690  0.2631E-01  0.2720E-01
     -4.606  0.3283E-01  0.2995E-01
     -4.522  0.3920E-01  0.3323E-01
     -4.439  0.4266E-01  0.3680E-01
     -4.355  0.4152E-01  0.4028E-01
     -4.271  0.3701E-01  0.4338E-01
     -4.187  0.3358E-01  0.4619E-01
     -4.104  0.3511E-01  0.4913E-01
     -4.020  0.4106E-01  0.5257E-01
     -3.936  0.4698E-01  0.5651E-01
     -3.852  0.4891E-01  0.6060E-01
     -3.769  0.4758E-01  0.6459E-01
     -3.685  0.4762E-01  0.6858E-01
     -3.601  0.5253E-01  0.7298E-01
     -3.517  0.6054E-01  0.7805E-01
     -3.434  0.6621E-01  0.8359E-01
     -3.350  0.6643E-01  0.8915E-01
     -3.266  0.6141E-01  0.9430E-01
     -3.182  0.5112E-01  0.9858E-01
     -3.099  0.3729E-01  0.1017E+00
     -3.015  0.2623E-01  0.1039E+00
     -2.931  0.2283E-01  0.1058E+00
     -2.847  0.2489E-01  0.1079E+00
     -2.764  0.2806E-01  0.1102E+00
     -2.680  0.3290E-01  0.1130E+00
     -2.596  0.4154E-01  0.1165E+00
     -2.512  0.5056E-01  0.1207E+00
     -2.429  0.5272E-01  0.1251E+00
     -2.345  0.4460E-01  0.1289E+00
     -2.261  0.2981E-01  0.1314E+00
     -2.177  0.1540E-01  0.1326E+00
     -2.094  0.6007E-02  0.1332E+00
     -2.010  0.1737E-02  0.1333E+00
     -1.926  0.3685E-03  0.1333E+00
     -1.842  0.7446E-04  0.1333E+00
     -1.759  0.1664E-03  0.1333E+00
     -1.675  0.9952E-03  0.1334E+00
     -1.591  0.4405E-02  0.1338E+00
     -1.507  0.1395E-01  0.1350E+00
     -1.424  0.3173E-01  0.1376E+00
     -1.340  0.5237E-01  0.1420E+00
     -1.256  0.6448E-01  0.1474E+00
     -1.172  0.6406E-01  0.1528E+00
     -1.089  0.6053E-01  0.1578E+00
     -1.005  0.6225E-01  0.1631E+00
     -0.921  0.6421E-01  0.1684E+00
     -0.837  0.5853E-01  0.1733E+00
     -0.754  0.4987E-01  0.1775E+00
     -0.670  0.4993E-01  0.1817E+00
     -0.586  0.5935E-01  0.1867E+00
     -0.502  0.6497E-01  0.1921E+00
     -0.419  0.5732E-01  0.1969E+00
     -0.335  0.4251E-01  0.2005E+00
     -0.251  0.3219E-01  0.2032E+00
     -0.167  0.2959E-01  0.2056E+00
     -0.084  0.3171E-01  0.2083E+00
      0.000  0.3763E-01  0.2115E+00
      0.084  0.4620E-01  0.2153E+00
      0.168  0.5047E-01  0.2195E+00
      0.251  0.4358E-01  0.2232E+00
      0.335  0.2815E-01  0.2256E+00
      0.419  0.1336E-01  0.2267E+00
      0.503  0.4957E-02  0.2271E+00
      0.586  0.3020E-02  0.2273E+00
      0.670  0.6538E-02  0.2279E+00
      0.754  0.1548E-01  0.2292E+00
      0.838  0.2778E-01  0.2315E+00
      0.921  0.3709E-01  0.2346E+00
      1.005  0.3699E-01  0.2377E+00
      1.089  0.2783E-01  0.2400E+00
      1.173  0.1677E-01  0.2415E+00
      1.256  0.1095E-01  0.2424E+00
      1.340  0.1264E-01  0.2434E+00
      1.424  0.2047E-01  0.2451E+00
      1.508  0.3249E-01  0.2479E+00
      1.591  0.4682E-01  0.2518E+00
      1.675  0.6117E-01  0.2569E+00
      1.759  0.7343E-01  0.2631E+00
      1.843  0.8084E-01  0.2698E+00
      1.926  0.7972E-01  0.2765E+00
      2.010  0.7002E-01  0.2824E+00
      2.094  0.5869E-01  0.2873E+00
      2.178  0.5537E-01  0.2919E+00
      2.261  0.6421E-01  0.2973E+00
      2.345  0.7850E-01  0.3039E+00
      2.429  0.8533E-01  0.3110E+00
      2.513  0.7926E-01  0.3177E+00
      2.596  0.6764E-01  0.3233E+00
      2.680  0.6195E-01  0.3285E+00
      2.764  0.6822E-01  0.3342E+00
      2.848  0.8317E-01  0.3412E+00
      2.931  0.9588E-01  0.3492E+00
      3.015  0.9835E-01  0.3575E+00
      3.099  0.9546E-01  0.3654E+00
      3.183  0.9708E-01  0.3736E+00
      3.266  0.1030E+00  0.3822E+00
      3.350  0.1048E+00  0.3910E+00
      3.434  0.9909E-01  0.3993E+00
      3.518  0.9076E-01  0.4069E+00
      3.601  0.8592E-01  0.4141E+00
      3.685  0.8436E-01  0.4211E+00
      3.769  0.8150E-01  0.4280E+00
      3.853  0.7806E-01  0.4345E+00
      3.936  0.7890E-01  0.4411E+00
      4.020  0.8386E-01  0.4481E+00
      4.104  0.8944E-01  0.4556E+00
      4.188  0.9419E-01  0.4635E+00
      4.271  0.9594E-01  0.4715E+00
      4.355  0.9116E-01  0.4792E+00
      4.439  0.8011E-01  0.4859E+00
      4.523  0.6667E-01  0.4915E+00
      4.606  0.5423E-01  0.4960E+00
      4.690  0.4644E-01  0.4999E+00
      4.774  0.4665E-01  0.5038E+00
      4.857  0.5241E-01  0.5082E+00
      4.941  0.5570E-01  0.5129E+00
      5.025  0.5151E-01  0.5172E+00
      5.109  0.4200E-01  0.5207E+00
      5.192  0.3183E-01  0.5234E+00
      5.276  0.2370E-01  0.5253E+00
      5.360  0.1845E-01  0.5269E+00
      5.444  0.1601E-01  0.5282E+00
      5.527  0.1516E-01  0.5295E+00
      5.611  0.1417E-01  0.5307E+00
      5.695  0.1220E-01  0.5317E+00
      5.779  0.9267E-02  0.5325E+00
      5.862  0.5853E-02  0.5330E+00
      5.946  0.2882E-02  0.5332E+00
      6.030  0.1056E-02  0.5333E+00
      6.114  0.2856E-03  0.5333E+00
      6.197  0.9346E-04  0.5333E+00
      6.281  0.2511E-03  0.5334E+00
      6.365  0.1075E-02  0.5334E+00
      6.449  0.3442E-02  0.5337E+00
      6.532  0.8093E-02  0.5344E+00
      6.616  0.1413E-01  0.5356E+00
      6.700  0.1863E-01  0.5372E+00
      6.784  0.1922E-01  0.5388E+00
      6.867  0.1743E-01  0.5402E+00
      6.951  0.1794E-01  0.5417E+00
      7.035  0.2338E-01  0.5437E+00
      7.119  0.3135E-01  0.5463E+00
      7.202  0.3822E-01  0.5495E+00
      7.286  0.4387E-01  0.5532E+00
      7.370  0.4955E-01  0.5573E+00
      7.454  0.5413E-01  0.5619E+00
      7.537  0.5597E-01  0.5666E+00
      7.621  0.5534E-01  0.5712E+00
      7.705  0.5508E-01  0.5758E+00
      7.789  0.6069E-01  0.5809E+00
      7.872  0.7544E-01  0.5872E+00
      7.956  0.9359E-01  0.5950E+00
      8.040  0.1036E+00  0.6037E+00
      8.124  0.9962E-01  0.6121E+00
      8.207  0.8633E-01  0.6193E+00
      8.291  0.7473E-01  0.6256E+00
      8.375  0.7456E-01  0.6318E+00
      8.459  0.8605E-01  0.6390E+00
      8.542  0.9725E-01  0.6472E+00
      8.626  0.9690E-01  0.6553E+00
      8.710  0.8860E-01  0.6627E+00
      8.794  0.8524E-01  0.6698E+00
      8.877  0.9210E-01  0.6775E+00
      8.961  0.1032E+00  0.6862E+00
      9.045  0.1108E+00  0.6955E+00
      9.129  0.1101E+00  0.7047E+00
      9.212  0.1025E+00  0.7133E+00
      9.296  0.9725E-01  0.7214E+00
      9.380  0.1027E+00  0.7300E+00
      9.464  0.1143E+00  0.7396E+00
      9.547  0.1206E+00  0.7497E+00
      9.631  0.1163E+00  0.7594E+00
      9.715  0.1051E+00  0.7682E+00
      9.799  0.9419E-01  0.7761E+00
      9.882  0.8726E-01  0.7834E+00
      9.966  0.8366E-01  0.7904E+00
     10.050  0.8130E-01  0.7973E+00
     10.134  0.7928E-01  0.8039E+00
     10.217  0.7896E-01  0.8105E+00
     10.301  0.8345E-01  0.8175E+00
     10.385  0.9237E-01  0.8252E+00
     10.469  0.9859E-01  0.8335E+00
     10.552  0.9668E-01  0.8416E+00
     10.636  0.9139E-01  0.8492E+00
     10.720  0.9051E-01  0.8568E+00
     10.804  0.9379E-01  0.8647E+00
     10.887  0.9491E-01  0.8726E+00
     10.971  0.8969E-01  0.8801E+00
     11.055  0.7890E-01  0.8867E+00
     11.139  0.6641E-01  0.8923E+00
     11.222  0.5485E-01  0.8969E+00
     11.306  0.4406E-01  0.9006E+00
     11.390  0.3610E-01  0.9036E+00
     11.474  0.3765E-01  0.9068E+00
     11.557  0.5306E-01  0.9112E+00
     11.641  0.7677E-01  0.9176E+00
     11.725  0.9768E-01  0.9258E+00
     11.809  0.1102E+00  0.9350E+00
     11.892  0.1140E+00  0.9446E+00
     11.976  0.1078E+00  0.9536E+00
     12.060  0.9197E-01  0.9613E+00
     12.144  0.7259E-01  0.9674E+00
     12.227  0.5622E-01  0.9721E+00
     12.311  0.4515E-01  0.9759E+00
     12.395  0.3951E-01  0.9792E+00
     12.479  0.3933E-01  0.9825E+00
     12.562  0.4377E-01  0.9862E+00
     12.646  0.4831E-01  0.9902E+00
     12.730  0.4679E-01  0.9941E+00
     12.814  0.4030E-01  0.9975E+00
     12.897  0.3750E-01  0.1001E+01
     12.981  0.4240E-01  0.1004E+01
     13.065  0.4841E-01  0.1008E+01
     13.149  0.4884E-01  0.1012E+01
     13.232  0.4722E-01  0.1016E+01
     13.316  0.5179E-01  0.1021E+01
     13.400  0.6297E-01  0.1026E+01
     13.484  0.7091E-01  0.1032E+01
     13.567  0.6654E-01  0.1037E+01
     13.651  0.5225E-01  0.1042E+01
     13.735  0.3801E-01  0.1045E+01
     13.819  0.2916E-01  0.1047E+01
     13.902  0.2302E-01  0.1049E+01
     13.986  0.1607E-01  0.1051E+01
     14.070  0.8931E-02  0.1051E+01
     14.154  0.4155E-02  0.1052E+01
     14.237  0.3169E-02  0.1052E+01
     14.321  0.6317E-02  0.1053E+01
     14.405  0.1279E-01  0.1054E+01
     14.489  0.1906E-01  0.1055E+01
     14.572  0.2030E-01  0.1057E+01
     14.656  0.1565E-01  0.1058E+01
     14.740  0.9720E-02  0.1059E+01
     14.824  0.7698E-02  0.1060E+01
     14.907  0.1095E-01  0.1061E+01
     14.991  0.1656E-01  0.1062E+01
     15.075  0.1959E-01  0.1064E+01
     15.159  0.1719E-01  0.1065E+01
     15.242  0.1110E-01  0.1066E+01
     15.326  0.5252E-02  0.1066E+01
     15.410  0.1814E-02  0.1067E+01
     15.494  0.4547E-03  0.1067E+01
     15.577  0.8235E-04  0.1067E+01
     15.661  0.1073E-04  0.1067E+01
     15.745  0.1001E-05  0.1067E+01
     15.829  0.6672E-07  0.1067E+01
     15.912  0.3169E-08  0.1067E+01
     15.996  0.1070E-09  0.1067E+01
     16.080  0.2566E-11  0.1067E+01
     16.164  0.4363E-13  0.1067E+01
     16.247  0.5254E-15  0.1067E+01
     16.331  0.4910E-17  0.1067E+01
     16.415  0.0000E+00  0.1067E+01
     16.499  0.0000E+00  0.1067E+01
     16.582  0.0000E+00  0.1067E+01
     16.666  0.0000E+00  0.1067E+01
     16.750  0.0000E+00  0.1067E+01
     16.834  0.0000E+00  0.1067E+01
     16.917  0.0000E+00  0.1067E+01
     17.001  0.0000E+00  0.1067E+01
     17.085  0.0000E+00  0.1067E+01
