    2    2   15    1
  0.2001288E+02  0.3839590E-09  0.3839590E-09  0.3839590E-09  0.5000000E-15
  1.000000000000000E-004
  CAR 
 unknown system                          
      8     28      8
 
  0.8333333E-01  0.8333333E-01  0.8333333E-01  0.9259259E-02
    1       -6.041196   1.000000
    2        4.989227   1.000000
    3        5.707083   0.999341
    4        5.707083   0.999341
    5        8.466941   0.000000
    6        8.637737   0.000000
    7        8.637737   0.000000
    8        9.872203   0.000000
 
  0.2500000E+00  0.8333333E-01  0.8333333E-01  0.2777778E-01
    1       -5.562635   1.000000
    2        2.897037   1.000000
    3        4.458813   1.000000
    4        5.494272   0.999999
    5        8.578807   0.000000
    6        9.036579   0.000000
    7        9.403087   0.000000
    8       11.604310   0.000000
 
  0.4166667E+00  0.8333333E-01  0.8333333E-01  0.2777778E-01
    1       -4.464896   1.000000
    2        0.117658   1.000000
    3        3.990478   1.000000
    4        4.849499   1.000000
    5        8.068879   0.000000
    6        9.430438   0.000000
    7        9.475093   0.000000
    8       13.364047   0.000000
 
 -0.4166667E+00  0.8333333E-01  0.8333333E-01  0.2777778E-01
    1       -3.760893   1.000000
    2       -1.034647   1.000000
    3        4.058614   1.000000
    4        4.463934   1.000000
    5        7.907599   0.000000
    6        9.144127   0.000000
    7        9.580755   0.000000
    8       13.784395   0.000000
 
 -0.2500000E+00  0.8333333E-01  0.8333333E-01  0.2777778E-01
    1       -4.878942   1.000000
    2        0.969038   1.000000
    3        4.524860   1.000000
    4        4.563069   1.000000
    5        8.154967   0.000000
    6        9.170986   0.000000
    7        9.970302   0.000000
    8       11.871582   0.000000
 
 -0.8333333E-01  0.8333333E-01  0.8333333E-01  0.2777778E-01
    1       -5.799624   1.000000
    2        3.916878   1.000000
    3        5.052975   1.000000
    4        5.244816   1.000000
    5        8.172319   0.000000
    6        9.086150   0.000000
    7        9.549328   0.000000
    8       10.758453   0.000000
 
  0.2500000E+00  0.2500000E+00  0.8333333E-01  0.2777778E-01
    1       -5.320522   1.000000
    2        2.714653   1.000000
    3        4.303083   1.000000
    4        4.314704   1.000000
    5        7.585319   0.000000
    6        9.767087   0.000000
    7       10.564561   0.000000
    8       10.786631   0.000000
 
  0.4166667E+00  0.2500000E+00  0.8333333E-01  0.5555556E-01
    1       -4.406014   1.000000
    2        0.864753   1.000000
    3        2.971164   1.000000
    4        3.924542   1.000000
    5        7.989376   0.000000
    6        9.626201   0.000000
    7       10.442443   0.000000
    8       11.921289   0.000000
 
 -0.4166667E+00  0.2500000E+00  0.8333333E-01  0.5555556E-01
    1       -3.282045   1.000000
    2       -0.899841   1.000000
    3        2.367842   1.000000
    4        3.694946   1.000000
    5        8.243554   0.000000
    6        9.815976   0.000000
    7       11.792552   0.000000
    8       12.170794   0.000000
 
 -0.2500000E+00  0.2500000E+00  0.8333333E-01  0.5555556E-01
    1       -4.009013   1.000000
    2        0.166862   1.000000
    3        2.322392   1.000000
    4        4.186495   1.000000
    5        8.850387   0.000000
    6        9.481242   0.000000
    7       11.174533   0.000000
    8       11.666656   0.000000
 
 -0.8333333E-01  0.2500000E+00  0.8333333E-01  0.5555556E-01
    1       -5.094023   1.000000
    2        1.868458   1.000000
    3        3.673802   1.000000
    4        4.863596   1.000000
    5        8.485635   0.000000
    6        9.381278   0.000000
    7       10.446013   0.000000
    8       10.787148   0.000000
 
  0.4166667E+00  0.4166667E+00  0.8333333E-01  0.2777778E-01
    1       -3.691499   1.000000
    2        0.038319   1.000000
    3        2.932796   1.000000
    4        3.276491   1.000000
    5        6.751842   0.000015
    6        7.731828   0.000000
    7       13.494229   0.000000
    8       13.549629   0.000000
 
 -0.4166667E+00  0.4166667E+00  0.8333333E-01  0.5555556E-01
    1       -2.489059   1.000000
    2       -1.308621   1.000000
    3        2.082590   1.000000
    4        2.865457   1.000000
    5        7.378922   0.000000
    6        8.514680   0.000000
    7       13.020176   0.000000
    8       14.502306   0.000000
 
 -0.2500000E+00  0.4166667E+00  0.8333333E-01  0.5555556E-01
    1       -2.860365   1.000000
    2       -0.974832   1.000000
    3        1.596893   1.000000
    4        3.416185   1.000000
    5        8.004623   0.000000
    6       10.949701   0.000000
    7       11.943550   0.000000
    8       12.624250   0.000000
 
 -0.8333333E-01  0.4166667E+00  0.8333333E-01  0.5555556E-01
    1       -3.895485   1.000000
    2       -0.527798   1.000000
    3        3.276380   1.000000
    4        4.285068   1.000000
    5        8.470764   0.000000
    6        9.080826   0.000000
    7       10.426401   0.000000
    8       12.662380   0.000000
 
 -0.4166667E+00 -0.4166667E+00  0.8333333E-01  0.2777778E-01
    1       -2.582222   1.000000
    2       -1.317012   1.000000
    3        2.660818   1.000000
    4        3.058871   1.000000
    5        6.633088   0.000425
    6        7.206372   0.000000
    7       14.993064   0.000000
    8       15.083436   0.000000
 
 -0.2500000E+00 -0.4166667E+00  0.8333333E-01  0.5555556E-01
    1       -3.521560   1.000000
    2       -0.187511   1.000000
    3        2.408537   1.000000
    4        3.208332   1.000000
    5        7.592106   0.000000
    6        8.886429   0.000000
    7       11.652664   0.000000
    8       13.493116   0.000000
 
 -0.2500000E+00 -0.2500000E+00  0.8333333E-01  0.2777778E-01
    1       -4.612724   1.000000
    2        1.409496   1.000000
    3        3.482995   1.000000
    4        3.702903   1.000000
    5        7.074664   0.000000
    6        8.652846   0.000000
    7       11.939111   0.000000
    8       12.137580   0.000000
 
  0.2500000E+00  0.2500000E+00  0.2500000E+00  0.9259259E-02
    1       -5.332037   1.000000
    2        1.909275   1.000000
    3        5.085502   1.000000
    4        5.085502   1.000000
    5        7.884998   0.000000
    6        9.378452   0.000000
    7        9.378452   0.000000
    8       12.769568   0.000000
 
  0.4166667E+00  0.2500000E+00  0.2500000E+00  0.2777778E-01
    1       -4.649786   1.000000
    2        0.976233   1.000000
    3        2.934341   1.000000
    4        4.914405   1.000000
    5        8.650169   0.000000
    6        9.877485   0.000000
    7       10.055446   0.000000
    8       12.003819   0.000000
 
 -0.4166667E+00  0.2500000E+00  0.2500000E+00  0.2777778E-01
    1       -3.464082   1.000000
    2       -0.469628   1.000000
    3        1.818594   1.000000
    4        4.120702   1.000000
    5        7.891170   0.000000
    6       11.211548   0.000000
    7       11.330531   0.000000
    8       13.066794   0.000000
 
 -0.2500000E+00  0.2500000E+00  0.2500000E+00  0.2777778E-01
    1       -3.411942   1.000000
    2       -0.549556   1.000000
    3        2.301823   1.000000
    4        3.633597   1.000000
    5        7.385967   0.000000
    6       10.335336   0.000000
    7       11.624860   0.000000
    8       11.822711   0.000000
 
  0.4166667E+00  0.4166667E+00  0.2500000E+00  0.2777778E-01
    1       -4.223599   1.000000
    2        0.162940   1.000000
    3        3.407283   1.000000
    4        4.009546   1.000000
    5        7.874952   0.000000
    6       10.132951   0.000000
    7       10.787528   0.000000
    8       10.940044   0.000000
 
 -0.4166667E+00  0.4166667E+00  0.2500000E+00  0.5555556E-01
    1       -3.216188   1.000000
    2       -0.580534   1.000000
    3        1.918629   1.000000
    4        3.206016   1.000000
    5        9.101533   0.000000
    6        9.644258   0.000000
    7       10.637611   0.000000
    8       13.410353   0.000000
 
 -0.2500000E+00  0.4166667E+00  0.2500000E+00  0.5555556E-01
    1       -2.380821   1.000000
    2       -1.316424   1.000000
    3        1.750394   1.000000
    4        2.531806   1.000000
    5        8.899425   0.000000
    6       10.171975   0.000000
    7       10.988447   0.000000
    8       12.385074   0.000000
 
 -0.4166667E+00 -0.4166667E+00  0.2500000E+00  0.2777778E-01
    1       -2.592174   1.000000
    2       -1.223940   1.000000
    3        1.623205   1.000000
    4        3.437386   1.000000
    5        7.104041   0.000000
    6       10.045578   0.000000
    7       13.007524   0.000000
    8       13.207075   0.000000
 
  0.4166667E+00  0.4166667E+00  0.4166667E+00  0.9259259E-02
    1       -4.133312   1.000000
    2       -0.631767   1.000000
    3        4.693008   1.000000
    4        4.693008   1.000000
    5        7.451708   0.000000
    6        9.278932   0.000000
    7        9.278932   0.000000
    8       13.659427   0.000000
 
 -0.4166667E+00  0.4166667E+00  0.4166667E+00  0.2777778E-01
    1       -3.524379   1.000000
    2       -0.933267   1.000000
    3        2.847688   1.000000
    4        4.247924   1.000000
    5        8.053015   0.000000
    6        9.944305   0.000000
    7       10.286257   0.000000
    8       13.878315   0.000000
