       N       E                     dE             d eps       ncg     rms          rms(c)
DAV:   1    -0.281481693394E+01   -0.28148E+01   -0.19917E+03   480   0.374E+02
DAV:   2    -0.109079796053E+02   -0.80932E+01   -0.74380E+01   720   0.514E+01
DAV:   3    -0.109764585791E+02   -0.68479E-01   -0.68479E-01   568   0.578E+00
DAV:   4    -0.109766202480E+02   -0.16167E-03   -0.16167E-03   736   0.277E-01
DAV:   5    -0.109766202885E+02   -0.40528E-07   -0.40814E-07   512   0.411E-03    0.299E+00
DAV:   6    -0.108526466201E+02    0.12397E+00   -0.80499E-02   552   0.147E+00    0.177E+00
DAV:   7    -0.107960346499E+02    0.56612E-01   -0.14787E-01   560   0.212E+00    0.151E-01
DAV:   8    -0.107973290314E+02   -0.12944E-02   -0.37036E-03   488   0.441E-01    0.243E-02
DAV:   9    -0.107974206593E+02   -0.91628E-04   -0.85098E-05   368   0.725E-02
   1 F= -.10797421E+02 E0= -.10797408E+02  d E =-.107974E+02
       N       E                     dE             d eps       ncg     rms          rms(c)
DAV:   1    -0.108060571607E+02   -0.87281E-02   -0.23994E-01   584   0.271E+00    0.311E-01
DAV:   2    -0.108019679440E+02    0.40892E-02   -0.32022E-03   552   0.351E-01    0.178E-01
DAV:   3    -0.107998443869E+02    0.21236E-02   -0.42843E-03   552   0.328E-01    0.222E-02
DAV:   4    -0.107998319545E+02    0.12432E-04   -0.38513E-05   240   0.524E-02
   2 F= -.10799832E+02 E0= -.10799826E+02  d E =-.241130E-02
       N       E                     dE             d eps       ncg     rms          rms(c)
DAV:   1    -0.108029245481E+02   -0.30802E-02   -0.38187E-02   568   0.109E+00    0.125E-01
DAV:   2    -0.108022808369E+02    0.64371E-03   -0.50767E-04   552   0.140E-01    0.715E-02
DAV:   3    -0.108019548486E+02    0.32599E-03   -0.66509E-04   336   0.131E-01
   3 F= -.10801955E+02 E0= -.10801947E+02  d E =-.453419E-02
