 running on    8 total cores
 distrk:  each k-point on    8 cores,    1 groups
 distr:  one band on    1 cores,    8 groups
 using from now: INCAR     
 vasp.5.4.4.18Apr17-6-g9f103f2a35 (build Dec 09 2018 21:25:21) complex          
  
 POSCAR found type information on POSCAR  Si
 POSCAR found :  1 types and       2 ions
 scaLAPACK will be used

 ----------------------------------------------------------------------------- 
|                                                                             |
|           W    W    AA    RRRRR   N    N  II  N    N   GGGG   !!!           |
|           W    W   A  A   R    R  NN   N  II  NN   N  G    G  !!!           |
|           W    W  A    A  R    R  N N  N  II  N N  N  G       !!!           |
|           W WW W  AAAAAA  RRRRR   N  N N  II  N  N N  G  GGG   !            |
|           WW  WW  A    A  R   R   N   NN  II  N   NN  G    G                |
|           W    W  A    A  R    R  N    N  II  N    N   GGGG   !!!           |
|                                                                             |
|      For optimal performance we recommend to set                            |
|        NCORE= 4 - approx SQRT( number of cores)                             |
|      NCORE specifies how many cores store one orbital (NPAR=cpu/NCORE).     |
|      This setting can  greatly improve the performance of VASP for DFT.     |
|      The default,   NCORE=1            might be grossly inefficient         |
|      on modern multi-core architectures or massively parallel machines.     |
|      Do your own testing !!!!                                               |
|      Unfortunately you need to use the default for GW and RPA calculations. |
|      (for HF NCORE is supported but not extensively tested yet)             |
|                                                                             |
 ----------------------------------------------------------------------------- 

 LDA part: xc-table for Pade appr. of Perdew
 POSCAR, INCAR and KPOINTS ok, starting setup
 FFT: planning ...
 WAVECAR not read
 entering main loop
       N       E                     dE             d eps       ncg     rms          rms(c)
DAV:   1    -0.281481693394E+01   -0.28148E+01   -0.19917E+03   480   0.374E+02
DAV:   2    -0.109079796053E+02   -0.80932E+01   -0.74380E+01   720   0.514E+01
DAV:   3    -0.109764585791E+02   -0.68479E-01   -0.68479E-01   568   0.578E+00
DAV:   4    -0.109766202480E+02   -0.16167E-03   -0.16167E-03   736   0.277E-01
DAV:   5    -0.109766202885E+02   -0.40528E-07   -0.40814E-07   512   0.411E-03    0.299E+00
DAV:   6    -0.108526466201E+02    0.12397E+00   -0.80499E-02   552   0.147E+00    0.177E+00
DAV:   7    -0.107960346499E+02    0.56612E-01   -0.14787E-01   560   0.212E+00    0.151E-01
DAV:   8    -0.107973290314E+02   -0.12944E-02   -0.37036E-03   488   0.441E-01    0.243E-02
DAV:   9    -0.107974206593E+02   -0.91628E-04   -0.85098E-05   368   0.725E-02
   1 F= -.10797421E+02 E0= -.10797408E+02  d E =-.107974E+02
 curvature:   0.00 expect dE= 0.000E+00 dE for cont linesearch  0.000E+00
 trial: gam= 0.00000 g(F)=  0.118E-43 g(S)=  0.000E+00 ort = 0.000E+00 (trialstep = 0.100E+01)
 search vector abs. value=  0.100E-09
 reached required accuracy - stopping structural energy minimisation
 writing wavefunctions
