unknown system                          
   1.00000000000000     
     0.000000    2.733151    2.733151
     2.733151   -0.000000    2.733151
     2.733151    2.733151    0.000000
   Si
     2
Direct
  0.500000  0.500000  0.500000
  0.750000  0.750000  0.750000
 
   32   32   32
 0.84633147682E+00 0.86760311263E+00 0.93265761746E+00 0.10451846725E+01 0.12112457838E+01
 0.14390421453E+01 0.17382153118E+01 0.21182088334E+01 0.25853348271E+01 0.31386554490E+01
 0.37654817584E+01 0.44379157892E+01 0.51120762997E+01 0.57312662983E+01 0.62333962787E+01
 0.65616405698E+01 0.66758868214E+01 0.65616409340E+01 0.62333970219E+01 0.57312648881E+01
 0.51120693749E+01 0.44379044407E+01 0.37654716778E+01 0.31386507521E+01 0.25853345552E+01
 0.21182102149E+01 0.17382173286E+01 0.14390447113E+01 0.12112481796E+01 0.10451863760E+01
 0.93265893801E+00 0.86760406424E+00 0.86760311263E+00 0.90431771698E+00 0.97976897271E+00
 0.10978423593E+01 0.12640027661E+01 0.14848696545E+01 0.17674044735E+01 0.21173249446E+01
 0.25364985064E+01 0.30195260146E+01 0.35503560607E+01 0.41002633890E+01 0.46285570246E+01
 0.50868071363E+01 0.54263110267E+01 0.56072803218E+01 0.56072822503E+01 0.54263134600E+01
 0.50868022443E+01 0.46285401229E+01 0.41002417755E+01 0.35503466703E+01 0.30195385868E+01
 0.25365223918E+01 0.21173385576E+01 0.17673984401E+01 0.14848552361E+01 0.12639958378E+01
 0.10978451109E+01 0.97977208928E+00 0.90431605587E+00 0.86760121141E+00 0.93265761746E+00
 0.97976897271E+00 0.10609573369E+01 0.11799198960E+01 0.13412957019E+01 0.15501450683E+01
 0.18110574399E+01 0.21266162590E+01 0.24951242199E+01 0.29079155852E+01 0.33470942538E+01
 0.37848404020E+01 0.41852602779E+01 0.45090631416E+01 0.47203445498E+01 0.47938136461E+01
 0.47203449085E+01 0.45090633871E+01 0.41852600548E+01 0.37848399527E+01 0.33470941665E+01
 0.29079160366E+01 0.24951246398E+01 0.21266159296E+01 0.18110563722E+01 0.15501440611E+01
 0.13412954588E+01 0.11799202668E+01 0.10609575895E+01 0.97976871300E+00 0.93265720554E+00
 0.91723047524E+00 0.10451846725E+01 0.10978423593E+01 0.11799198960E+01 0.12947607418E+01
 0.14462176016E+01 0.16380409727E+01 0.18728918253E+01 0.21508552372E+01 0.24675278176E+01
 0.28120966945E+01 0.31661665191E+01 0.35041879962E+01 0.37960298937E+01 0.40115501617E+01
 0.41262115997E+01 0.41262115263E+01 0.40115497054E+01 0.37960308449E+01 0.35041949916E+01
 0.31661796495E+01 0.28121055082E+01 0.24675198439E+01 0.21508319893E+01 0.18728707112E+01
 0.16380378331E+01 0.14462307324E+01 0.12947755066E+01 0.11799258485E+01 0.10978409429E+01
 0.10451820532E+01 0.10195003908E+01 0.10195013203E+01 0.12112457838E+01 0.12640027661E+01
 0.13412957019E+01 0.14462176016E+01 0.15820739631E+01 0.17516405585E+01 0.19560861911E+01
 0.21935882699E+01 0.24578513644E+01 0.27369720358E+01 0.30132425679E+01 0.32644081018E+01
 0.34665195059E+01 0.35979453177E+01 0.36435655048E+01 0.35979458273E+01 0.34665199399E+01
 0.32644077408E+01 0.30132409211E+01 0.27369689681E+01 0.24578473498E+01 0.21935846516E+01
 0.19560846654E+01 0.17516417966E+01 0.15820767501E+01 0.14462197641E+01 0.13412960320E+01
 0.12640018121E+01 0.12112447843E+01 0.11806015643E+01 0.11705577724E+01 0.11806020215E+01
 0.14390421453E+01 0.14848696545E+01 0.15501450683E+01 0.16380409727E+01 0.17516405585E+01
 0.18930563100E+01 0.20623353112E+01 0.22562903792E+01 0.24675284813E+01 0.26840635416E+01
 0.28898957905E+01 0.30667479732E+01 0.31967878720E+01 0.32657671777E+01 0.32657665182E+01
 0.31967874140E+01 0.30667486814E+01 0.28898938947E+01 0.26840548022E+01 0.24675167372E+01
 0.22562873192E+01 0.20623485229E+01 0.18930789107E+01 0.17516557095E+01 0.16380375214E+01
 0.15501276943E+01 0.14848532490E+01 0.14390371837E+01 0.14100115138E+01 0.13959473347E+01
 0.13959441677E+01 0.14100074108E+01 0.17382153118E+01 0.17674044735E+01 0.18110574399E+01
 0.18728918253E+01 0.19560861911E+01 0.20623353112E+01 0.21908850497E+01 0.23377165261E+01
 0.24951242199E+01 0.26519624483E+01 0.27947332324E+01 0.29094427495E+01 0.29838622376E+01
 0.30096547612E+01 0.29838638589E+01 0.29094448783E+01 0.27947351331E+01 0.26519646448E+01
 0.24951275275E+01 0.23377205382E+01 0.21908880671E+01 0.20623357850E+01 0.19560839867E+01
 0.18728881112E+01 0.18110536688E+01 0.17674015771E+01 0.17382135483E+01 0.17200301830E+01
 0.17101934239E+01 0.17070917670E+01 0.17101936955E+01 0.17200310122E+01 0.21182088334E+01
 0.21173249446E+01 0.21266162590E+01 0.21508552372E+01 0.21935882699E+01 0.22562903792E+01
 0.23377165261E+01 0.24335492065E+01 0.25364978427E+01 0.26370017853E+01 0.27245366174E+01
 0.27892736777E+01 0.28236772364E+01 0.28236798390E+01 0.27892788613E+01 0.27245402785E+01
 0.26370044112E+01 0.25365040712E+01 0.24335602140E+01 0.23377244715E+01 0.22562836211E+01
 0.21935644047E+01 0.21508279054E+01 0.21266050674E+01 0.21173362560E+01 0.21182288728E+01
 0.21242251403E+01 0.21308933411E+01 0.21350492596E+01 0.21350529081E+01 0.21308961837E+01
 0.21242149526E+01 0.25853348271E+01 0.25364985064E+01 0.24951242199E+01 0.24675278176E+01
 0.24578513644E+01 0.24675284813E+01 0.24951242199E+01 0.25364978427E+01 0.25853348271E+01
 0.26341012361E+01 0.26753017683E+01 0.27027205729E+01 0.27123233179E+01 0.27027216619E+01
 0.26753032659E+01 0.26341034630E+01 0.25853380140E+01 0.25364994592E+01 0.24951205260E+01
 0.24675192859E+01 0.24578407634E+01 0.24675199496E+01 0.24951205260E+01 0.25364987954E+01
 0.25853380140E+01 0.26341041268E+01 0.26753032659E+01 0.27027209982E+01 0.27123233179E+01
 0.27027212366E+01 0.26753017683E+01 0.26341005723E+01 0.31386554490E+01 0.30195260146E+01
 0.29079155852E+01 0.28120966945E+01 0.27369720358E+01 0.26840635416E+01 0.26519624483E+01
 0.26370017853E+01 0.26341012361E+01 0.26377784372E+01 0.26431651628E+01 0.26467554402E+01
 0.26467552225E+01 0.26431635805E+01 0.26377762640E+01 0.26341023642E+01 0.26370051909E+01
 0.26519590431E+01 0.26840491172E+01 0.27369584504E+01 0.28121000983E+01 0.29079348440E+01
 0.30195421616E+01 0.31386538359E+01 0.32544062402E+01 0.33548552727E+01 0.34289207890E+01
 0.34681974724E+01 0.34681975945E+01 0.34289250914E+01 0.33548681004E+01 0.32544208279E+01
 0.37654817584E+01 0.35503560607E+01 0.33470942538E+01 0.31661665191E+01 0.30132425679E+01
 0.28898957905E+01 0.27947332324E+01 0.27245366174E+01 0.26753017683E+01 0.26431651628E+01
 0.26251053961E+01 0.26192870673E+01 0.26251060332E+01 0.26431646955E+01 0.26753013689E+01
 0.27245390690E+01 0.27947369263E+01 0.28898960949E+01 0.30132394781E+01 0.31661649429E+01
 0.33470962043E+01 0.35503584861E+01 0.37654828000E+01 0.39775066947E+01 0.41686032990E+01
 0.43207744826E+01 0.44188070919E+01 0.44526499688E+01 0.44188063586E+01 0.43207720322E+01
 0.41686002798E+01 0.39775051325E+01 0.44379157892E+01 0.41002633890E+01 0.37848404020E+01
 0.35041879962E+01 0.32644081018E+01 0.30667479732E+01 0.29094427495E+01 0.27892736777E+01
 0.27027205729E+01 0.26467554402E+01 0.26192870673E+01 0.26192865171E+01 0.26467552344E+01
 0.27027229658E+01 0.27892779277E+01 0.29094452879E+01 0.30667480170E+01 0.32644100550E+01
 0.35041937877E+01 0.37848425146E+01 0.41002534986E+01 0.44378998022E+01 0.47783693431E+01
 0.50967790203E+01 0.53660973112E+01 0.55614611473E+01 0.56641279582E+01 0.56641224006E+01
 0.55614442127E+01 0.53660743893E+01 0.50967648663E+01 0.47783742631E+01 0.51120762997E+01
 0.46285570246E+01 0.41852602779E+01 0.37960298937E+01 0.34665195059E+01 0.31967878720E+01
 0.29838622376E+01 0.28236772364E+01 0.27123233179E+01 0.26467552225E+01 0.26251060332E+01
 0.26467552344E+01 0.27123235075E+01 0.28236782263E+01 0.29838634285E+01 0.31967865089E+01
 0.34665143293E+01 0.37960247207E+01 0.41852605230E+01 0.46285632741E+01 0.51120845005E+01
 0.56122927025E+01 0.60967560950E+01 0.65277017759E+01 0.68676313124E+01 0.70852731753E+01
 0.71601792652E+01 0.70852772070E+01 0.68676345799E+01 0.65277009021E+01 0.60967516034E+01
 0.56122858404E+01 0.57312662983E+01 0.50868071363E+01 0.45090631416E+01 0.40115501617E+01
 0.35979453177E+01 0.32657671777E+01 0.30096547612E+01 0.28236798390E+01 0.27027216619E+01
 0.26431635805E+01 0.26431646955E+01 0.27027229658E+01 0.28236782263E+01 0.30096504433E+01
 0.32657627582E+01 0.35979414503E+01 0.40115454292E+01 0.45090593713E+01 0.50868118913E+01
 0.57312861313E+01 0.64162988003E+01 0.71026148736E+01 0.77410639294E+01 0.82789565758E+01
 0.86681439607E+01 0.88723923685E+01 0.88724077910E+01 0.86681783474E+01 0.82789840911E+01
 0.77410655064E+01 0.71025918445E+01 0.64162686695E+01 0.62333962787E+01 0.54263110267E+01
 0.47203445498E+01 0.41262115997E+01 0.36435655048E+01 0.32657665182E+01 0.29838638589E+01
 0.27892788613E+01 0.26753032659E+01 0.26377762640E+01 0.26753013689E+01 0.27892779277E+01
 0.29838634285E+01 0.32657627582E+01 0.36435586788E+01 0.41262084105E+01 0.47203509895E+01
 0.54263264122E+01 0.62334152592E+01 0.71155700987E+01 0.80293696052E+01 0.89157196981E+01
 0.97058701858E+01 0.10330842535E+02 0.10732024693E+02 0.10870318102E+02 0.10732028142E+02
 0.10330849048E+02 0.97058761379E+01 0.89157193093E+01 0.80293600068E+01 0.71155533839E+01
 0.65616405698E+01 0.56072803218E+01 0.47938136461E+01 0.41262115263E+01 0.35979458273E+01
 0.31967874140E+01 0.29094448783E+01 0.27245402785E+01 0.26341034630E+01 0.26341023642E+01
 0.27245390690E+01 0.29094452879E+01 0.31967865089E+01 0.35979414503E+01 0.41262084105E+01
 0.47938194701E+01 0.56072976760E+01 0.65616641191E+01 0.76347544680E+01 0.87833383343E+01
 0.99426387913E+01 0.11030340788E+02 0.11955380537E+02 0.12630648597E+02 0.12987303734E+02
 0.12987287202E+02 0.12630617916E+02 0.11955368021E+02 0.11030353237E+02 0.99426549123E+01
 0.87833377730E+01 0.76347364187E+01 0.66758868214E+01 0.56072822503E+01 0.47203449085E+01
 0.40115497054E+01 0.34665199399E+01 0.30667486814E+01 0.27947351331E+01 0.26370044112E+01
 0.25853380140E+01 0.26370051909E+01 0.27947369263E+01 0.30667480170E+01 0.34665143293E+01
 0.40115454292E+01 0.47203509895E+01 0.56072976760E+01 0.66759027192E+01 0.79118858462E+01
 0.92775842513E+01 0.10709063706E+02 0.12116911463E+02 0.13391817586E+02 0.14416265102E+02
 0.15082337832E+02 0.15313280206E+02 0.15082334344E+02 0.14416266225E+02 0.13391824169E+02
 0.12116914536E+02 0.10709058344E+02 0.92775742004E+01 0.79118735294E+01 0.65616409340E+01
 0.54263134600E+01 0.45090633871E+01 0.37960308449E+01 0.32644077408E+01 0.28898938947E+01
 0.26519646448E+01 0.25365040712E+01 0.25364994592E+01 0.26519590431E+01 0.28898960949E+01
 0.32644100550E+01 0.37960247207E+01 0.45090593713E+01 0.54263264122E+01 0.65616641191E+01
 0.79118858462E+01 0.94498739493E+01 0.11119756855E+02 0.12834344851E+02 0.14475641156E+02
 0.15899974222E+02 0.16949948270E+02 0.17505226858E+02 0.17505240029E+02 0.16949974082E+02
 0.15899986789E+02 0.14475631248E+02 0.12834328141E+02 0.11119750127E+02 0.94498716532E+01
 0.79118719370E+01 0.62333970219E+01 0.50868022443E+01 0.41852600548E+01 0.35041949916E+01
 0.30132409211E+01 0.26840548022E+01 0.24951275275E+01 0.24335602140E+01 0.24951205260E+01
 0.26840491172E+01 0.30132394781E+01 0.35041937877E+01 0.41852605230E+01 0.50868118913E+01
 0.62334152592E+01 0.76347544680E+01 0.92775842513E+01 0.11119756855E+02 0.13085483989E+02
 0.15060978030E+02 0.16884964528E+02 0.18354742140E+02 0.19305037183E+02 0.19633351719E+02
 0.19305036342E+02 0.18354739736E+02 0.16884958582E+02 0.15060969107E+02 0.13085477088E+02
 0.11119753753E+02 0.92775779108E+01 0.76347389162E+01 0.57312648881E+01 0.46285401229E+01
 0.37848399527E+01 0.31661796495E+01 0.27369689681E+01 0.24675167372E+01 0.23377205382E+01
 0.23377244715E+01 0.24675192859E+01 0.27369584504E+01 0.31661649429E+01 0.37848425146E+01
 0.46285632741E+01 0.57312861313E+01 0.71155700987E+01 0.87833383343E+01 0.10709063706E+02
 0.12834344851E+02 0.15060978030E+02 0.17230080545E+02 0.19109148603E+02 0.20488477533E+02
 0.21217620184E+02 0.21217606462E+02 0.20488452020E+02 0.19109134834E+02 0.17230077819E+02
 0.15060970939E+02 0.12834333893E+02 0.10709063511E+02 0.87833481801E+01 0.71155692970E+01
 0.51120693749E+01 0.41002417755E+01 0.33470941665E+01 0.28121055082E+01 0.24578473498E+01
 0.22562873192E+01 0.21908880671E+01 0.22562836211E+01 0.24578407634E+01 0.28121000983E+01
 0.33470962043E+01 0.41002534986E+01 0.51120845005E+01 0.64162988003E+01 0.80293696052E+01
 0.99426387913E+01 0.12116911463E+02 0.14475641156E+02 0.16884964528E+02 0.19109148603E+02
 0.20901406441E+02 0.22063909779E+02 0.22466654659E+02 0.22063894733E+02 0.20901383517E+02
 0.19109128000E+02 0.16884954567E+02 0.14475645022E+02 0.12116925660E+02 0.99426539303E+01
 0.80293752894E+01 0.64162910813E+01 0.44379044407E+01 0.35503466703E+01 0.29079160366E+01
 0.24675198439E+01 0.21935846516E+01 0.20623485229E+01 0.20623357850E+01 0.21935644047E+01
 0.24675199496E+01 0.29079348440E+01 0.35503584861E+01 0.44378998022E+01 0.56122927025E+01
 0.71026148736E+01 0.89157196981E+01 0.11030340788E+02 0.13391817586E+02 0.15899974222E+02
 0.18354742140E+02 0.20488477533E+02 0.22063909779E+02 0.22901103796E+02 0.22901100789E+02
 0.22063892343E+02 0.20488442641E+02 0.18354716053E+02 0.15899985952E+02 0.13391856529E+02
 0.11030367376E+02 0.89157170385E+01 0.71026046666E+01 0.56122954144E+01 0.37654716778E+01
 0.30195385868E+01 0.24951246398E+01 0.21508319893E+01 0.19560846654E+01 0.18930789107E+01
 0.19560839867E+01 0.21508279054E+01 0.24951205260E+01 0.30195421616E+01 0.37654828000E+01
 0.47783693431E+01 0.60967560950E+01 0.77410639294E+01 0.97058701858E+01 0.11955380537E+02
 0.14416265102E+02 0.16949948270E+02 0.19305037183E+02 0.21217620184E+02 0.22466654659E+02
 0.22901100789E+02 0.22466647210E+02 0.21217603666E+02 0.19305018741E+02 0.16949941956E+02
 0.14416276501E+02 0.11955401521E+02 0.97058897523E+01 0.77410760096E+01 0.60967574947E+01
 0.47783604632E+01 0.31386507521E+01 0.25365223918E+01 0.21266159296E+01 0.18728707112E+01
 0.17516417966E+01 0.17516557095E+01 0.18728881112E+01 0.21266050674E+01 0.25364987954E+01
 0.31386538359E+01 0.39775066947E+01 0.50967790203E+01 0.65277017759E+01 0.82789565758E+01
 0.10330842535E+02 0.12630648597E+02 0.15082337832E+02 0.17505226858E+02 0.19633351719E+02
 0.21217606462E+02 0.22063894733E+02 0.22063892343E+02 0.21217603666E+02 0.19633352837E+02
 0.17505225541E+02 0.15082327047E+02 0.12630639818E+02 0.10330858133E+02 0.82789949056E+01
 0.65277273275E+01 0.50967656998E+01 0.39774773882E+01 0.25853345552E+01 0.21173385576E+01
 0.18110563722E+01 0.16380378331E+01 0.15820767501E+01 0.16380375214E+01 0.18110536688E+01
 0.21173362560E+01 0.25853380140E+01 0.32544062402E+01 0.41686032990E+01 0.53660973112E+01
 0.68676313124E+01 0.86681439607E+01 0.10732024693E+02 0.12987303734E+02 0.15313280206E+02
 0.17505240029E+02 0.19305036342E+02 0.20488452020E+02 0.20901383517E+02 0.20488442641E+02
 0.19305018741E+02 0.17505225541E+02 0.15313284390E+02 0.12987327753E+02 0.10732053370E+02
 0.86681640969E+01 0.68676416031E+01 0.53661000322E+01 0.41685988331E+01 0.32543985691E+01
 0.21182102149E+01 0.17673984401E+01 0.15501440611E+01 0.14462307324E+01 0.14462197641E+01
 0.15501276943E+01 0.17674015771E+01 0.21182288728E+01 0.26341041268E+01 0.33548552727E+01
 0.43207744826E+01 0.55614611473E+01 0.70852731753E+01 0.88723923685E+01 0.10870318102E+02
 0.12987287202E+02 0.15082334344E+02 0.16949974082E+02 0.18354739736E+02 0.19109134834E+02
 0.19109128000E+02 0.18354716053E+02 0.16949941956E+02 0.15082327047E+02 0.12987327753E+02
 0.10870380647E+02 0.88724270919E+01 0.70852668685E+01 0.55614466771E+01 0.43207786238E+01
 0.33548649396E+01 0.26340961151E+01 0.17382173286E+01 0.14848552361E+01 0.13412954588E+01
 0.12947755066E+01 0.13412960320E+01 0.14848532490E+01 0.17382135483E+01 0.21242251403E+01
 0.26753032659E+01 0.34289207890E+01 0.44188070919E+01 0.56641279582E+01 0.71601792652E+01
 0.88724077910E+01 0.10732028142E+02 0.12630617916E+02 0.14416266225E+02 0.15899986789E+02
 0.16884958582E+02 0.17230077819E+02 0.16884954567E+02 0.15899985952E+02 0.14416276501E+02
 0.12630639818E+02 0.10732053370E+02 0.88724270919E+01 0.71601898582E+01 0.56641316987E+01
 0.44188052196E+01 0.34289148650E+01 0.26752982383E+01 0.21242254754E+01 0.14390447113E+01
 0.12639958378E+01 0.11799202668E+01 0.11799258485E+01 0.12640018121E+01 0.14390371837E+01
 0.17200301830E+01 0.21308933411E+01 0.27027209982E+01 0.34681974724E+01 0.44526499688E+01
 0.56641224006E+01 0.70852772070E+01 0.86681783474E+01 0.10330849048E+02 0.11955368021E+02
 0.13391824169E+02 0.14475631248E+02 0.15060969107E+02 0.15060970939E+02 0.14475645022E+02
 0.13391856529E+02 0.11955401521E+02 0.10330858133E+02 0.86681640969E+01 0.70852668685E+01
 0.56641316987E+01 0.44526638123E+01 0.34681965095E+01 0.27027113935E+01 0.21308947321E+01
 0.17200436748E+01 0.12112481796E+01 0.10978451109E+01 0.10609575895E+01 0.10978409429E+01
 0.12112447843E+01 0.14100115138E+01 0.17101934239E+01 0.21350492596E+01 0.27123233179E+01
 0.34681975945E+01 0.44188063586E+01 0.55614442127E+01 0.68676345799E+01 0.82789840911E+01
 0.97058761379E+01 0.11030353237E+02 0.12116914536E+02 0.12834328141E+02 0.13085477088E+02
 0.12834333893E+02 0.12116925660E+02 0.11030367376E+02 0.97058897523E+01 0.82789949056E+01
 0.68676416031E+01 0.55614466771E+01 0.44188052196E+01 0.34681965095E+01 0.27123248710E+01
 0.21350516048E+01 0.17101939911E+01 0.14100120239E+01 0.10451863760E+01 0.97977208928E+00
 0.97976871300E+00 0.10451820532E+01 0.11806015643E+01 0.13959473347E+01 0.17070917670E+01
 0.21350529081E+01 0.27027212366E+01 0.34289250914E+01 0.43207720322E+01 0.53660743893E+01
 0.65277009021E+01 0.77410655064E+01 0.89157193093E+01 0.99426549123E+01 0.10709058344E+02
 0.11119750127E+02 0.11119753753E+02 0.10709063511E+02 0.99426539303E+01 0.89157170385E+01
 0.77410760096E+01 0.65277273275E+01 0.53661000322E+01 0.43207786238E+01 0.34289148650E+01
 0.27027113935E+01 0.21350516048E+01 0.17070918642E+01 0.13959436504E+01 0.11805999199E+01
 0.93265893801E+00 0.90431605587E+00 0.93265720554E+00 0.10195003908E+01 0.11705577724E+01
 0.13959441677E+01 0.17101936955E+01 0.21308961837E+01 0.26753017683E+01 0.33548681004E+01
 0.41686002798E+01 0.50967648663E+01 0.60967516034E+01 0.71025918445E+01 0.80293600068E+01
 0.87833377730E+01 0.92775742004E+01 0.94498716532E+01 0.92775779108E+01 0.87833481801E+01
 0.80293752894E+01 0.71026046666E+01 0.60967574947E+01 0.50967656998E+01 0.41685988331E+01
 0.33548649396E+01 0.26752982383E+01 0.21308947321E+01 0.17101939911E+01 0.13959436504E+01
 0.11705565496E+01 0.10195008731E+01 0.86760406424E+00 0.86760121141E+00 0.91723047524E+00
 0.10195013203E+01 0.11806020215E+01 0.14100074108E+01 0.17200310122E+01 0.21242149526E+01
 0.26341005723E+01 0.32544208279E+01 0.39775051325E+01 0.47783742631E+01 0.56122858404E+01
 0.64162686695E+01 0.71155533839E+01 0.76347364187E+01 0.79118735294E+01 0.79118719370E+01
 0.76347389162E+01 0.71155692970E+01 0.64162910813E+01 0.56122954144E+01 0.47783604632E+01
 0.39774773882E+01 0.32543985691E+01 0.26340961151E+01 0.21242254754E+01 0.17200436748E+01
 0.14100120239E+01 0.11805999199E+01 0.10195008731E+01 0.91723461336E+00 0.86760387611E+00
 0.90431803261E+00 0.97976897887E+00 0.10978424530E+01 0.12640028815E+01 0.14848694705E+01
 0.17674041180E+01 0.21173248148E+01 0.25364986061E+01 0.30195261443E+01 0.35503564398E+01
 0.41002643905E+01 0.46285584836E+01 0.50868085871E+01 0.54263124087E+01 0.56072817808E+01
 0.56072834721E+01 0.54263139079E+01 0.50868018784E+01 0.46285392359E+01 0.41002403522E+01
 0.35503445959E+01 0.30195362663E+01 0.25365204518E+01 0.21173371076E+01 0.17673972688E+01
 0.14848544972E+01 0.12639958480E+01 0.10978456793E+01 0.97977273820E+00 0.90431671488E+00
 0.86760204053E+00 0.90431803261E+00 0.95028775699E+00 0.10296084462E+01 0.11459869583E+01
 0.13040078120E+01 0.15085977855E+01 0.17641539505E+01 0.20730676504E+01 0.24335501858E+01
 0.28370657135E+01 0.32661558884E+01 0.36937429738E+01 0.40848718191E+01 0.44012131721E+01
 0.46076700574E+01 0.46794747469E+01 0.46076752042E+01 0.44012104607E+01 0.40848534219E+01
 0.36937198206E+01 0.32661489558E+01 0.28370838034E+01 0.24335791509E+01 0.20730835664E+01
 0.17641463239E+01 0.15085780035E+01 0.13039946842E+01 0.11459868202E+01 0.10296123468E+01
 0.95028641744E+00 0.90431359379E+00 0.88927422377E+00 0.97976897887E+00 0.10296084462E+01
 0.11075860456E+01 0.12170738805E+01 0.13618202175E+01 0.15453286823E+01 0.17699452527E+01
 0.20355252685E+01 0.23377165322E+01 0.26662052218E+01 0.30035958127E+01 0.33257272808E+01
 0.36039943833E+01 0.38096286426E+01 0.39190915678E+01 0.39190934569E+01 0.38096310577E+01
 0.36039927462E+01 0.33257233293E+01 0.30035960969E+01 0.26662124505E+01 0.23377257497E+01
 0.20355294305E+01 0.17699424570E+01 0.15453228682E+01 0.13618161688E+01 0.12170728253E+01
 0.11075857304E+01 0.10296065513E+01 0.97976597793E+00 0.95552853636E+00 0.95553003325E+00
 0.10978424530E+01 0.11459869583E+01 0.12170738805E+01 0.13142242148E+01 0.14405934158E+01
 0.15986522850E+01 0.17892472461E+01 0.20104456957E+01 0.22562898091E+01 0.25157896979E+01
 0.27726730977E+01 0.30064082455E+01 0.31947253936E+01 0.33173285245E+01 0.33599191449E+01
 0.33173320488E+01 0.31947278079E+01 0.30064097766E+01 0.27726792742E+01 0.25157994477E+01
 0.22562917055E+01 0.20104326628E+01 0.17892294188E+01 0.15986467974E+01 0.14406033489E+01
 0.13142358927E+01 0.12170754875E+01 0.11459816122E+01 0.10978394987E+01 0.10700748467E+01
 0.10610116540E+01 0.10700739297E+01 0.12640028815E+01 0.13040078120E+01 0.13618202175E+01
 0.14405934158E+01 0.15432233668E+01 0.16715364246E+01 0.18253694268E+01 0.20016423911E+01
 0.21935883853E+01 0.23904117111E+01 0.25777107457E+01 0.27389105963E+01 0.28576593128E+01
 0.29207412661E+01 0.29207440788E+01 0.28576632356E+01 0.27389093345E+01 0.25777062619E+01
 0.23904108856E+01 0.21935918111E+01 0.20016434455E+01 0.18253650698E+01 0.16715322871E+01
 0.15432249401E+01 0.14405973701E+01 0.13618195243E+01 0.13040024299E+01 0.12639993555E+01
 0.12390236892E+01 0.12270562647E+01 0.12270546942E+01 0.12390224714E+01 0.14848694705E+01
 0.15085977855E+01 0.15453286823E+01 0.15986522850E+01 0.16715364246E+01 0.17654750958E+01
 0.18796797098E+01 0.20104460819E+01 0.21508557170E+01 0.22909946663E+01 0.24188371829E+01
 0.25217992454E+01 0.25887394595E+01 0.26119682760E+01 0.25887391273E+01 0.25217986107E+01
 0.24188357469E+01 0.22909920299E+01 0.21508534520E+01 0.20104478886E+01 0.18796878531E+01
 0.17654863101E+01 0.16715429611E+01 0.15986485775E+01 0.15453168710E+01 0.15085858610E+01
 0.14848640273E+01 0.14706980391E+01 0.14633436652E+01 0.14610835205E+01 0.14633407874E+01
 0.14706968651E+01 0.17674041180E+01 0.17641539505E+01 0.17699452527E+01 0.17892472461E+01
 0.18253694268E+01 0.18796797098E+01 0.19510356606E+01 0.20355249068E+01 0.21266159035E+01
 0.22157971829E+01 0.22936862848E+01 0.23514417500E+01 0.23821943095E+01 0.23821937369E+01
 0.23514410216E+01 0.22936880992E+01 0.22158038771E+01 0.21266258567E+01 0.20355322228E+01
 0.19510355028E+01 0.18796734107E+01 0.18253626195E+01 0.17892435466E+01 0.17699436953E+01
 0.17641523047E+01 0.17674023300E+01 0.17749439786E+01 0.17825590186E+01 0.17871675934E+01
 0.17871670467E+01 0.17825583066E+01 0.17749445658E+01 0.21173248148E+01 0.20730676504E+01
 0.20355252685E+01 0.20104456957E+01 0.20016423911E+01 0.20104460819E+01 0.20355249068E+01
 0.20730665412E+01 0.21173241511E+01 0.21615007510E+01 0.21988446205E+01 0.22237222528E+01
 0.22324409530E+01 0.22237219166E+01 0.21988473370E+01 0.21615107840E+01 0.21173407714E+01
 0.20730803735E+01 0.20355239365E+01 0.20104273576E+01 0.20016161297E+01 0.20104268340E+01
 0.20355219818E+01 0.20730773218E+01 0.21173380997E+01 0.21615088174E+01 0.21988452161E+01
 0.22237198123E+01 0.22324400624E+01 0.22237225639E+01 0.21988449003E+01 0.21615007867E+01
 0.25364986061E+01 0.24335501858E+01 0.23377165322E+01 0.22562898091E+01 0.21935883853E+01
 0.21508557170E+01 0.21266159035E+01 0.21173241511E+01 0.21182089332E+01 0.21242157460E+01
 0.21308965628E+01 0.21350532460E+01 0.21350507186E+01 0.21308954556E+01 0.21242265223E+01
 0.21182296681E+01 0.21173374779E+01 0.21266061790E+01 0.21508275395E+01 0.21935628539E+01
 0.22562821977E+01 0.23377230608E+01 0.24335578934E+01 0.25365014674E+01 0.26370029613E+01
 0.27245397709E+01 0.27892781224E+01 0.28236791855E+01 0.28236778048E+01 0.27892749904E+01
 0.27245372764E+01 0.26370019507E+01 0.30195261443E+01 0.28370657135E+01 0.26662052218E+01
 0.25157896979E+01 0.23904117111E+01 0.22909946663E+01 0.22157971829E+01 0.21615007510E+01
 0.21242157460E+01 0.21003276566E+01 0.20870837445E+01 0.20828450948E+01 0.20870842382E+01
 0.21003377554E+01 0.21242374169E+01 0.21615176171E+01 0.22157875021E+01 0.22909584036E+01
 0.23903776936E+01 0.25157878082E+01 0.26662338579E+01 0.28370946610E+01 0.30195310905E+01
 0.32007257794E+01 0.33651729056E+01 0.34969114039E+01 0.35821630865E+01 0.36116612562E+01
 0.35821551651E+01 0.34969087722E+01 0.33651841630E+01 0.32007398330E+01 0.35503564398E+01
 0.32661558884E+01 0.30035958127E+01 0.27726730977E+01 0.25777107457E+01 0.24188371829E+01
 0.22936862848E+01 0.21988446205E+01 0.21308965628E+01 0.20870837445E+01 0.20656030588E+01
 0.20656078438E+01 0.20871003519E+01 0.21309228450E+01 0.21988633935E+01 0.22936767433E+01
 0.24188007753E+01 0.25776768620E+01 0.27726707964E+01 0.30036234675E+01 0.32661863219E+01
 0.35503691225E+01 0.38399774853E+01 0.41135766629E+01 0.43471472005E+01 0.45178807606E+01
 0.46080641313E+01 0.46080621002E+01 0.45178757018E+01 0.43471433059E+01 0.41135781010E+01
 0.38399789161E+01 0.41002643905E+01 0.36937429738E+01 0.33257272808E+01 0.30064082455E+01
 0.27389105963E+01 0.25217992454E+01 0.23514417500E+01 0.22237222528E+01 0.21350532460E+01
 0.20828450948E+01 0.20656078438E+01 0.20828652891E+01 0.21350857663E+01 0.22237448753E+01
 0.23514301610E+01 0.25217565006E+01 0.27388735778E+01 0.30064113417E+01 0.33257639775E+01
 0.36937758617E+01 0.41002708220E+01 0.45263250089E+01 0.49443726520E+01 0.53208294872E+01
 0.56209495058E+01 0.58146337314E+01 0.58815780460E+01 0.58146302220E+01 0.56209378861E+01
 0.53208154885E+01 0.49443699653E+01 0.45263318485E+01 0.46285584836E+01 0.40848718191E+01
 0.36039943833E+01 0.31947253936E+01 0.28576593128E+01 0.25887394595E+01 0.23821943095E+01
 0.22324409530E+01 0.21350507186E+01 0.20870842382E+01 0.20871003519E+01 0.21350857663E+01
 0.22324635390E+01 0.23821789851E+01 0.25886924350E+01 0.28576185941E+01 0.31947270188E+01
 0.36040374174E+01 0.40849215865E+01 0.46285832026E+01 0.52149208632E+01 0.58112278926E+01
 0.63740234825E+01 0.68543555091E+01 0.72055091139E+01 0.73910344218E+01 0.73910352118E+01
 0.72055102954E+01 0.68543572606E+01 0.63740300881E+01 0.58112393683E+01 0.52149234038E+01
 0.50868085871E+01 0.44012131721E+01 0.38096286426E+01 0.33173285245E+01 0.29207412661E+01
 0.26119682760E+01 0.23821937369E+01 0.22237219166E+01 0.21308954556E+01 0.21003377554E+01
 0.21309228450E+01 0.22237448753E+01 0.23821789851E+01 0.26119175044E+01 0.29206961739E+01
 0.33173320173E+01 0.38096812349E+01 0.44012750499E+01 0.50868430337E+01 0.58476638381E+01
 0.66483829694E+01 0.74371396115E+01 0.81501885957E+01 0.87207325505E+01 0.90900242468E+01
 0.92178830931E+01 0.90900401149E+01 0.87207528142E+01 0.81502033741E+01 0.74371497619E+01
 0.66483912888E+01 0.58476597897E+01 0.54263124087E+01 0.46076700574E+01 0.39190915678E+01
 0.33599191449E+01 0.29207440788E+01 0.25887391273E+01 0.23514410216E+01 0.21988473370E+01
 0.21242265223E+01 0.21242374169E+01 0.21988633935E+01 0.23514301610E+01 0.25886924350E+01
 0.29206961739E+01 0.33599196430E+01 0.39191514612E+01 0.46077465571E+01 0.54263537630E+01
 0.63608988091E+01 0.73773614416E+01 0.84193964811E+01 0.94107538463E+01 0.10263486961E+02
 0.10891172047E+02 0.11224381225E+02 0.11224383231E+02 0.10891175544E+02 0.10263488580E+02
 0.94107573009E+01 0.84194109824E+01 0.73773842186E+01 0.63609033961E+01 0.56072817808E+01
 0.46794747469E+01 0.39190934569E+01 0.33173320488E+01 0.28576632356E+01 0.25217986107E+01
 0.22936880992E+01 0.21615107840E+01 0.21182296681E+01 0.21615176171E+01 0.22936767433E+01
 0.25217565006E+01 0.28576185941E+01 0.33173320173E+01 0.39191514612E+01 0.46795515097E+01
 0.56073259236E+01 0.66964432168E+01 0.79189927609E+01 0.92200602731E+01 0.10516692698E+02
 0.11703084574E+02 0.12663272438E+02 0.13290436361E+02 0.13508662145E+02 0.13290416014E+02
 0.12663252036E+02 0.11703080906E+02 0.10516707395E+02 0.92200877269E+01 0.79190207822E+01
 0.66964463103E+01 0.56072834721E+01 0.46076752042E+01 0.38096310577E+01 0.31947278079E+01
 0.27389093345E+01 0.24188357469E+01 0.22158038771E+01 0.21173407714E+01 0.21173374779E+01
 0.22157875021E+01 0.24188007753E+01 0.27388735778E+01 0.31947270188E+01 0.38096812349E+01
 0.46077465571E+01 0.56073259236E+01 0.68132310179E+01 0.82082281349E+01 0.97455359966E+01
 0.11343973705E+02 0.12888187924E+02 0.14237202862E+02 0.15243797353E+02 0.15783194484E+02
 0.15783194681E+02 0.15243799677E+02 0.14237207446E+02 0.12888191667E+02 0.11343980744E+02
 0.97455569653E+01 0.82082572193E+01 0.68132366861E+01 0.54263139079E+01 0.44012104607E+01
 0.36039927462E+01 0.30064097766E+01 0.25777062619E+01 0.22909920299E+01 0.21266258567E+01
 0.20730803735E+01 0.21266061790E+01 0.22909584036E+01 0.25776768620E+01 0.30064113417E+01
 0.36040374174E+01 0.44012750499E+01 0.54263537630E+01 0.66964432168E+01 0.82082281349E+01
 0.99288212655E+01 0.11787842992E+02 0.13672220401E+02 0.15427623508E+02 0.16872573400E+02
 0.17829002137E+02 0.18164241620E+02 0.17829023545E+02 0.16872599085E+02 0.15427633114E+02
 0.13672211969E+02 0.11787839050E+02 0.99288427693E+01 0.82082624698E+01 0.66964512452E+01
 0.50868018784E+01 0.40848534219E+01 0.33257233293E+01 0.27726792742E+01 0.23904108856E+01
 0.21508534520E+01 0.20355322228E+01 0.20355239365E+01 0.21508275395E+01 0.23903776936E+01
 0.27726707964E+01 0.33257639775E+01 0.40849215865E+01 0.50868430337E+01 0.63608988091E+01
 0.79189927609E+01 0.97455359966E+01 0.11787842992E+02 0.13946917510E+02 0.16071224640E+02
 0.17961081967E+02 0.19391903792E+02 0.20163891051E+02 0.20163886607E+02 0.19391899084E+02
 0.17961086290E+02 0.16071229176E+02 0.13946911897E+02 0.11787841171E+02 0.97455610049E+01