   2   2   0   0
  0.2001288E+02  0.3839590E-09  0.3839590E-09  0.3839590E-09  0.5000000E-15
  1.000000000000000E-004
  CAR 
 unknown system                          
     16.77142092     -8.19201566  301      5.93185512      1.00000000
     -8.192  0.0000E+00  0.0000E+00
     -8.109  0.0000E+00  0.0000E+00
     -8.026  0.0000E+00  0.0000E+00
     -7.942  0.0000E+00  0.0000E+00
     -7.859  0.0000E+00  0.0000E+00
     -7.776  0.0000E+00  0.0000E+00
     -7.693  0.0000E+00  0.0000E+00
     -7.610  0.0000E+00  0.0000E+00
     -7.526  0.0000E+00  0.0000E+00
     -7.443  0.0000E+00  0.0000E+00
     -7.360  0.2593E-18  0.2158E-19
     -7.277  0.3994E-16  0.3345E-17
     -7.193  0.3293E-14  0.2774E-15
     -7.110  0.1932E-12  0.1635E-13
     -7.027  0.8060E-11  0.6870E-12
     -6.944  0.2392E-09  0.2059E-10
     -6.861  0.5054E-08  0.4411E-09
     -6.777  0.7606E-07  0.6770E-08
     -6.694  0.8161E-06  0.7468E-07
     -6.611  0.6255E-05  0.5952E-06
     -6.528  0.3438E-04  0.3456E-05
     -6.445  0.1370E-03  0.1486E-04
     -6.361  0.4077E-03  0.4879E-04
     -6.278  0.9694E-03  0.1295E-03
     -6.195  0.2064E-02  0.3012E-03
     -6.112  0.4241E-02  0.6540E-03
     -6.029  0.7967E-02  0.1317E-02
     -5.945  0.1232E-01  0.2342E-02
     -5.862  0.1481E-01  0.3575E-02
     -5.779  0.1401E-01  0.4740E-02
     -5.696  0.1191E-01  0.5731E-02
     -5.612  0.1196E-01  0.6726E-02
     -5.529  0.1517E-01  0.7988E-02
     -5.446  0.2033E-01  0.9680E-02
     -5.363  0.2685E-01  0.1191E-01
     -5.280  0.3366E-01  0.1472E-01
     -5.196  0.3629E-01  0.1774E-01
     -5.113  0.3090E-01  0.2031E-01
     -5.030  0.2062E-01  0.2202E-01
     -4.947  0.1283E-01  0.2309E-01
     -4.864  0.1211E-01  0.2410E-01
     -4.780  0.1876E-01  0.2566E-01
     -4.697  0.3093E-01  0.2823E-01
     -4.614  0.4424E-01  0.3191E-01
     -4.531  0.5208E-01  0.3625E-01
     -4.448  0.5131E-01  0.4052E-01
     -4.364  0.4635E-01  0.4437E-01
     -4.281  0.4297E-01  0.4795E-01
     -4.198  0.4087E-01  0.5135E-01
     -4.115  0.3759E-01  0.5448E-01
     -4.031  0.3518E-01  0.5740E-01
     -3.948  0.3708E-01  0.6049E-01
     -3.865  0.4282E-01  0.6405E-01
     -3.782  0.5037E-01  0.6824E-01
     -3.699  0.5887E-01  0.7314E-01
     -3.615  0.6699E-01  0.7872E-01
     -3.532  0.7139E-01  0.8466E-01
     -3.449  0.6713E-01  0.9024E-01
     -3.366  0.5281E-01  0.9464E-01
     -3.283  0.3631E-01  0.9766E-01
     -3.199  0.2942E-01  0.1001E+00
     -3.116  0.3610E-01  0.1031E+00
     -3.033  0.4856E-01  0.1072E+00
     -2.950  0.5397E-01  0.1116E+00
     -2.866  0.4609E-01  0.1155E+00
     -2.783  0.3124E-01  0.1181E+00
     -2.700  0.2120E-01  0.1198E+00
     -2.617  0.2109E-01  0.1216E+00
     -2.534  0.2590E-01  0.1238E+00
     -2.450  0.2760E-01  0.1261E+00
     -2.367  0.2428E-01  0.1281E+00
     -2.284  0.2008E-01  0.1297E+00
     -2.201  0.1776E-01  0.1312E+00
     -2.118  0.1654E-01  0.1326E+00
     -2.034  0.1582E-01  0.1339E+00
     -1.951  0.1559E-01  0.1352E+00
     -1.868  0.1439E-01  0.1364E+00
     -1.785  0.1145E-01  0.1374E+00
     -1.702  0.9436E-02  0.1381E+00
     -1.618  0.1213E-01  0.1392E+00
     -1.535  0.1970E-01  0.1408E+00
     -1.452  0.2779E-01  0.1431E+00
     -1.369  0.3362E-01  0.1459E+00
     -1.285  0.4200E-01  0.1494E+00
     -1.202  0.5881E-01  0.1543E+00
     -1.119  0.7831E-01  0.1608E+00
     -1.036  0.8663E-01  0.1680E+00
     -0.953  0.8055E-01  0.1747E+00
     -0.869  0.7173E-01  0.1807E+00
     -0.786  0.6833E-01  0.1864E+00
     -0.703  0.6416E-01  0.1917E+00
     -0.620  0.5201E-01  0.1960E+00
     -0.537  0.3700E-01  0.1991E+00
     -0.453  0.2917E-01  0.2015E+00
     -0.370  0.3066E-01  0.2041E+00
     -0.287  0.3567E-01  0.2071E+00
     -0.204  0.3839E-01  0.2103E+00
     -0.121  0.3789E-01  0.2134E+00
     -0.037  0.3592E-01  0.2164E+00
      0.046  0.3201E-01  0.2191E+00
      0.129  0.2521E-01  0.2212E+00
      0.212  0.1910E-01  0.2228E+00
      0.296  0.1890E-01  0.2243E+00
      0.379  0.2393E-01  0.2263E+00
      0.462  0.2780E-01  0.2286E+00
      0.545  0.2704E-01  0.2309E+00
      0.628  0.2544E-01  0.2330E+00
      0.712  0.2677E-01  0.2352E+00
      0.795  0.2792E-01  0.2375E+00
      0.878  0.2425E-01  0.2396E+00
      0.961  0.1738E-01  0.2410E+00
      1.044  0.1243E-01  0.2420E+00
      1.128  0.1107E-01  0.2430E+00
      1.211  0.1206E-01  0.2440E+00
      1.294  0.1657E-01  0.2453E+00
      1.377  0.2802E-01  0.2477E+00
      1.461  0.4549E-01  0.2515E+00
      1.544  0.6070E-01  0.2565E+00
      1.627  0.6523E-01  0.2619E+00
      1.710  0.6052E-01  0.2670E+00
      1.793  0.5859E-01  0.2719E+00
      1.877  0.7032E-01  0.2777E+00
      1.960  0.9193E-01  0.2854E+00
      2.043  0.1055E+00  0.2941E+00
      2.126  0.9647E-01  0.3022E+00
      2.209  0.6997E-01  0.3080E+00
      2.293  0.4736E-01  0.3119E+00
      2.376  0.4794E-01  0.3159E+00
      2.459  0.7349E-01  0.3220E+00
      2.542  0.1044E+00  0.3307E+00
      2.625  0.1139E+00  0.3402E+00
      2.709  0.9544E-01  0.3481E+00
      2.792  0.7041E-01  0.3540E+00
      2.875  0.6268E-01  0.3592E+00
      2.958  0.7270E-01  0.3653E+00
      3.042  0.8303E-01  0.3722E+00
      3.125  0.8480E-01  0.3792E+00
      3.208  0.8893E-01  0.3866E+00
      3.291  0.1063E+00  0.3955E+00
      3.374  0.1265E+00  0.4060E+00
      3.458  0.1286E+00  0.4167E+00
      3.541  0.1076E+00  0.4256E+00
      3.624  0.7940E-01  0.4323E+00
      3.707  0.6269E-01  0.4375E+00
      3.790  0.6393E-01  0.4428E+00
      3.874  0.7905E-01  0.4494E+00
      3.957  0.9943E-01  0.4576E+00
      4.040  0.1150E+00  0.4672E+00
      4.123  0.1165E+00  0.4769E+00
      4.206  0.9960E-01  0.4852E+00
      4.290  0.7067E-01  0.4911E+00
      4.373  0.4565E-01  0.4949E+00
      4.456  0.3645E-01  0.4979E+00
      4.539  0.4219E-01  0.5014E+00
      4.623  0.5357E-01  0.5059E+00
      4.706  0.5983E-01  0.5109E+00
      4.789  0.5421E-01  0.5154E+00
      4.872  0.3867E-01  0.5186E+00
      4.955  0.2227E-01  0.5204E+00
      5.039  0.1354E-01  0.5216E+00
      5.122  0.1510E-01  0.5228E+00
      5.205  0.2317E-01  0.5247E+00
      5.288  0.2959E-01  0.5272E+00
      5.371  0.2796E-01  0.5295E+00
      5.455  0.1960E-01  0.5312E+00
      5.538  0.1103E-01  0.5321E+00
      5.621  0.6127E-02  0.5326E+00
      5.704  0.4022E-02  0.5329E+00
      5.788  0.2677E-02  0.5332E+00
      5.871  0.1504E-02  0.5333E+00
      5.954  0.9195E-03  0.5334E+00
      6.037  0.1377E-02  0.5335E+00
      6.120  0.3047E-02  0.5337E+00
      6.204  0.5511E-02  0.5342E+00
      6.287  0.7922E-02  0.5348E+00
      6.370  0.1039E-01  0.5357E+00
      6.453  0.1430E-01  0.5369E+00
      6.536  0.1982E-01  0.5385E+00
      6.620  0.2484E-01  0.5406E+00
      6.703  0.2852E-01  0.5430E+00
      6.786  0.3266E-01  0.5457E+00
      6.869  0.3763E-01  0.5488E+00
      6.952  0.4144E-01  0.5523E+00
      7.036  0.4351E-01  0.5559E+00
      7.119  0.4361E-01  0.5595E+00
      7.202  0.3922E-01  0.5628E+00
      7.285  0.3020E-01  0.5653E+00
      7.369  0.2256E-01  0.5672E+00
      7.452  0.2286E-01  0.5691E+00
      7.535  0.3385E-01  0.5719E+00
      7.618  0.5656E-01  0.5766E+00
      7.701  0.8826E-01  0.5840E+00
      7.785  0.1161E+00  0.5936E+00
      7.868  0.1230E+00  0.6038E+00
      7.951  0.1066E+00  0.6127E+00
      8.034  0.8614E-01  0.6199E+00
      8.117  0.8445E-01  0.6269E+00
      8.201  0.1045E+00  0.6356E+00
      8.284  0.1258E+00  0.6461E+00
      8.367  0.1263E+00  0.6566E+00
      8.450  0.1062E+00  0.6654E+00
      8.533  0.8622E-01  0.6726E+00
      8.617  0.8285E-01  0.6795E+00
      8.700  0.9026E-01  0.6870E+00
      8.783  0.9091E-01  0.6946E+00
      8.866  0.8176E-01  0.7014E+00
      8.950  0.7783E-01  0.7078E+00
      9.033  0.8919E-01  0.7153E+00
      9.116  0.1068E+00  0.7242E+00
      9.199  0.1167E+00  0.7339E+00
      9.282  0.1205E+00  0.7439E+00
      9.366  0.1321E+00  0.7549E+00
      9.449  0.1520E+00  0.7675E+00
      9.532  0.1621E+00  0.7810E+00
      9.615  0.1496E+00  0.7935E+00
      9.698  0.1225E+00  0.8037E+00
      9.782  0.9471E-01  0.8115E+00
      9.865  0.7052E-01  0.8174E+00
      9.948  0.5117E-01  0.8217E+00
     10.031  0.4282E-01  0.8252E+00
     10.115  0.4916E-01  0.8293E+00
     10.198  0.6368E-01  0.8346E+00
     10.281  0.7587E-01  0.8409E+00
     10.364  0.8211E-01  0.8478E+00
     10.447  0.8426E-01  0.8548E+00
     10.531  0.8073E-01  0.8615E+00
     10.614  0.6727E-01  0.8671E+00
     10.697  0.4608E-01  0.8709E+00
     10.780  0.2768E-01  0.8732E+00
     10.863  0.2336E-01  0.8752E+00
     10.947  0.3786E-01  0.8783E+00
     11.030  0.6566E-01  0.8838E+00
     11.113  0.9231E-01  0.8915E+00
     11.196  0.1058E+00  0.9003E+00
     11.279  0.1066E+00  0.9092E+00
     11.363  0.1010E+00  0.9176E+00
     11.446  0.8966E-01  0.9250E+00
     11.529  0.7365E-01  0.9311E+00
     11.612  0.6356E-01  0.9364E+00
     11.696  0.6922E-01  0.9422E+00
     11.779  0.8590E-01  0.9493E+00
     11.862  0.1002E+00  0.9577E+00
     11.945  0.1062E+00  0.9665E+00
     12.028  0.1107E+00  0.9757E+00
     12.112  0.1229E+00  0.9860E+00
     12.195  0.1367E+00  0.9973E+00
     12.278  0.1333E+00  0.1008E+01
     12.361  0.1060E+00  0.1017E+01
     12.444  0.6824E-01  0.1023E+01
     12.528  0.3601E-01  0.1026E+01
     12.611  0.1569E-01  0.1027E+01
     12.694  0.6114E-02  0.1028E+01
     12.777  0.3808E-02  0.1028E+01
     12.860  0.5432E-02  0.1029E+01
     12.944  0.7920E-02  0.1029E+01
     13.027  0.8685E-02  0.1030E+01
     13.110  0.7218E-02  0.1030E+01
     13.193  0.5545E-02  0.1031E+01
     13.277  0.5828E-02  0.1031E+01
     13.360  0.7921E-02  0.1032E+01
     13.443  0.1006E-01  0.1033E+01
     13.526  0.1203E-01  0.1034E+01
     13.609  0.1600E-01  0.1035E+01
     13.693  0.2234E-01  0.1037E+01
     13.776  0.2647E-01  0.1039E+01
     13.859  0.2396E-01  0.1041E+01
     13.942  0.1738E-01  0.1043E+01
     14.025  0.1415E-01  0.1044E+01
     14.109  0.1865E-01  0.1045E+01
     14.192  0.2792E-01  0.1048E+01
     14.275  0.3472E-01  0.1051E+01
     14.358  0.3461E-01  0.1054E+01
     14.442  0.2974E-01  0.1056E+01
     14.525  0.2530E-01  0.1058E+01
     14.608  0.2372E-01  0.1060E+01
     14.691  0.2339E-01  0.1062E+01
     14.774  0.2140E-01  0.1064E+01
     14.858  0.1654E-01  0.1065E+01
     14.941  0.1017E-01  0.1066E+01
     15.024  0.4757E-02  0.1066E+01
     15.107  0.1648E-02  0.1067E+01
     15.190  0.4154E-03  0.1067E+01
     15.274  0.7546E-04  0.1067E+01
     15.357  0.9826E-05  0.1067E+01
     15.440  0.9144E-06  0.1067E+01
     15.523  0.6071E-07  0.1067E+01
     15.606  0.2872E-08  0.1067E+01
     15.690  0.9674E-10  0.1067E+01
     15.773  0.2319E-11  0.1067E+01
     15.856  0.3951E-13  0.1067E+01
     15.939  0.4855E-15  0.1067E+01
     16.023  0.0000E+00  0.1067E+01
     16.106  0.0000E+00  0.1067E+01
     16.189  0.0000E+00  0.1067E+01
     16.272  0.0000E+00  0.1067E+01
     16.355  0.0000E+00  0.1067E+01
     16.439  0.0000E+00  0.1067E+01
     16.522  0.0000E+00  0.1067E+01
     16.605  0.0000E+00  0.1067E+01
     16.688  0.0000E+00  0.1067E+01
     16.771  0.0000E+00  0.1067E+01
