<?xml version="1.0" encoding="ISO-8859-1"?>
<modeling>
 <generator>
  <i name="program" type="string">vasp </i>
  <i name="version" type="string">5.4.4.18Apr17-6-g9f103f2a35  </i>
  <i name="subversion" type="string">(build Dec 09 2018 21:25:21) complex            parallel </i>
  <i name="platform" type="string">IFC18.0.1.163_CrayMPICH7.7.0_MKL18.0.1.163 </i>
  <i name="date" type="string">2019 03 19 </i>
  <i name="time" type="string">13:32:24 </i>
 </generator>
 <incar>
  <i type="string" name="PREC">normal</i>
  <i type="int" name="IBRION">     2</i>
  <i name="EDIFF">      0.00040000</i>
  <i name="EDIFFG">     -0.01000000</i>
  <i type="int" name="NSW">    15</i>
  <i type="int" name="ISIF">     2</i>
  <i name="ENCUT">    250.00000000</i>
  <i type="int" name="NBANDS">     8</i>
  <i type="logical" name="LREAL"> F  </i>
  <i type="int" name="ISMEAR">     0</i>
  <i name="SIGMA">      0.20000000</i>
  <v type="int" name="KPOINT_BSE">    -1     0     0     0</v>
 </incar>
 <structure name="primitive_cell" >
  <crystal>
   <varray name="basis" >
    <v>       0.00000000       2.71500000       2.71500000 </v>
    <v>       2.71500000       0.00000000       2.71500000 </v>
    <v>       2.71500000       2.71500000       0.00000000 </v>
   </varray>
   <i name="volume">     40.02575175 </i>
   <varray name="rec_basis" >
    <v>      -0.18416206       0.18416206       0.18416206 </v>
    <v>       0.18416206      -0.18416206       0.18416206 </v>
    <v>       0.18416206       0.18416206      -0.18416206 </v>
   </varray>
  </crystal>
  <varray name="positions" >
   <v>      -0.50000000      -0.50000000      -0.50000000 </v>
   <v>      -0.25000000      -0.25000000      -0.25000000 </v>
  </varray>
 </structure>
 <varray name="primitive_index" >
  <v type="int" >        1 </v>
  <v type="int" >        2 </v>
 </varray>
 <kpoints>
  <generation param="Monkhorst-Pack">
   <v type="int" name="divisions">       2        2        2 </v>
   <v name="usershift">      0.00000000       0.00000000       0.00000000 </v>
   <v name="genvec1">      0.50000000       0.00000000      -0.00000000 </v>
   <v name="genvec2">      0.00000000       0.50000000       0.00000000 </v>
   <v name="genvec3">     -0.00000000      -0.00000000       0.50000000 </v>
   <v name="shift">      0.50000000       0.50000000       0.50000000 </v>
  </generation>
  <varray name="kpointlist" >
   <v>       0.25000000       0.25000000       0.25000000 </v>
   <v>      -0.25000000       0.25000000       0.25000000 </v>
  </varray>
  <varray name="weights" >
   <v>       0.25000000 </v>
   <v>       0.75000000 </v>
  </varray>
 </kpoints>
 <parameters>
  <separator name="general" >
   <i type="string" name="SYSTEM">unknown system</i>
   <i type="logical" name="LCOMPAT"> F  </i>
  </separator>
  <separator name="electronic" >
   <i type="string" name="PREC">normal</i>
   <i name="ENMAX">    250.00000000</i>
   <i name="ENAUG">    322.06900000</i>
   <i name="EDIFF">      0.00040000</i>
   <i type="int" name="IALGO">    38</i>
   <i type="int" name="IWAVPR">    11</i>
   <i type="int" name="NBANDS">     8</i>
   <i name="NELECT">      8.00000000</i>
   <i type="int" name="TURBO">     0</i>
   <i type="int" name="IRESTART">     0</i>
   <i type="int" name="NREBOOT">     0</i>
   <i type="int" name="NMIN">     0</i>
   <i name="EREF">      0.00000000</i>
   <separator name="electronic smearing" >
    <i type="int" name="ISMEAR">     0</i>
    <i name="SIGMA">      0.20000000</i>
    <i name="KSPACING">      0.50000000</i>
    <i type="logical" name="KGAMMA"> T  </i>
   </separator>
   <separator name="electronic projectors" >
    <i type="logical" name="LREAL"> F  </i>
    <v name="ROPT">      0.00000000</v>
    <i type="int" name="LMAXPAW">  -100</i>
    <i type="int" name="LMAXMIX">     2</i>
    <i type="logical" name="NLSPLINE"> F  </i>
   </separator>
   <separator name="electronic startup" >
    <i type="int" name="ISTART">     0</i>
    <i type="int" name="ICHARG">     2</i>
    <i type="int" name="INIWAV">     1</i>
   </separator>
   <separator name="electronic spin" >
    <i type="int" name="ISPIN">     1</i>
    <i type="logical" name="LNONCOLLINEAR"> F  </i>
    <v name="MAGMOM">      1.00000000      1.00000000</v>
    <i name="NUPDOWN">     -1.00000000</i>
    <i type="logical" name="LSORBIT"> F  </i>
    <v name="SAXIS">      0.00000000      0.00000000      1.00000000</v>
    <i type="logical" name="LSPIRAL"> F  </i>
    <v name="QSPIRAL">      0.00000000      0.00000000      0.00000000</v>
    <i type="logical" name="LZEROZ"> F  </i>
   </separator>
   <separator name="electronic exchange-correlation" >
    <i type="logical" name="LASPH"> F  </i>
    <i type="logical" name="LMETAGGA"> F  </i>
   </separator>
   <separator name="electronic convergence" >
    <i type="int" name="NELM">    60</i>
    <i type="int" name="NELMDL">    -5</i>
    <i type="int" name="NELMIN">     2</i>
    <i name="ENINI">    250.00000000</i>
    <separator name="electronic convergence detail" >
     <i type="logical" name="LDIAG"> T  </i>
     <i type="logical" name="LSUBROT"> F  </i>
     <i name="WEIMIN">      0.00100000</i>
     <i name="EBREAK">      0.00001250</i>
     <i name="DEPER">      0.30000000</i>
     <i type="int" name="NRMM">     4</i>
     <i name="TIME">      0.40000000</i>
    </separator>
   </separator>
   <separator name="electronic mixer" >
    <i name="AMIX">      0.40000000</i>
    <i name="BMIX">      1.00000000</i>
    <i name="AMIN">      0.10000000</i>
    <i name="AMIX_MAG">      1.60000000</i>
    <i name="BMIX_MAG">      1.00000000</i>
    <separator name="electronic mixer details" >
     <i type="int" name="IMIX">     4</i>
     <i type="logical" name="MIXFIRST"> F  </i>
     <i type="int" name="MAXMIX">   -45</i>
     <i name="WC">    100.00000000</i>
     <i type="int" name="INIMIX">     1</i>
     <i type="int" name="MIXPRE">     1</i>
     <i type="int" name="MREMOVE">     5</i>
    </separator>
   </separator>
   <separator name="electronic dipolcorrection" >
    <i type="logical" name="LDIPOL"> F  </i>
    <i type="logical" name="LMONO"> F  </i>
    <i type="int" name="IDIPOL">     0</i>
    <i name="EPSILON">      1.00000000</i>
    <v name="DIPOL">   -100.00000000   -100.00000000   -100.00000000</v>
    <i name="EFIELD">      0.00000000</i>
   </separator>
  </separator>
  <separator name="grids" >
   <i type="int" name="NGX">    16</i>
   <i type="int" name="NGY">    16</i>
   <i type="int" name="NGZ">    16</i>
   <i type="int" name="NGXF">    32</i>
   <i type="int" name="NGYF">    32</i>
   <i type="int" name="NGZF">    32</i>
   <i type="logical" name="ADDGRID"> F  </i>
  </separator>
  <separator name="ionic" >
   <i type="int" name="NSW">    15</i>
   <i type="int" name="IBRION">     2</i>
   <i type="int" name="MDALGO">     0</i>
   <i type="int" name="ISIF">     2</i>
   <i name="PSTRESS">      0.00000000</i>
   <i name="EDIFFG">     -0.01000000</i>
   <i type="int" name="NFREE">     1</i>
   <i name="POTIM">      0.50000000</i>
   <i name="SMASS">     -3.00000000</i>
   <i name="SCALEE">      1.00000000</i>
  </separator>
  <separator name="ionic md" >
   <i name="TEBEG">      0.00010000</i>
   <i name="TEEND">      0.00010000</i>
   <i type="int" name="NBLOCK">     1</i>
   <i type="int" name="KBLOCK">    15</i>
   <i type="int" name="NPACO">   256</i>
   <i name="APACO">     16.00000000</i>
  </separator>
  <separator name="symmetry" >
   <i type="int" name="ISYM">     2</i>
   <i name="SYMPREC">      0.00001000</i>
  </separator>
  <separator name="dos" >
   <i type="int" name="LORBIT">     0</i>
   <v name="RWIGS">     -1.00000000</v>
   <i type="int" name="NEDOS">   301</i>
   <i name="EMIN">     10.00000000</i>
   <i name="EMAX">    -10.00000000</i>
   <i name="EFERMI">      0.00000000</i>
  </separator>
  <separator name="writing" >
   <i type="int" name="NWRITE">     2</i>
   <i type="logical" name="LWAVE"> T  </i>
   <i type="logical" name="LDOWNSAMPLE"> F  </i>
   <i type="logical" name="LCHARG"> T  </i>
   <i type="logical" name="LPARD"> F  </i>
   <i type="logical" name="LVTOT"> F  </i>
   <i type="logical" name="LVHAR"> F  </i>
   <i type="logical" name="LELF"> F  </i>
   <i type="logical" name="LOPTICS"> F  </i>
   <v name="STM">      0.00000000      0.00000000      0.00000000      0.00000000      0.00000000      0.00000000      0.00000000</v>
  </separator>
  <separator name="performance" >
   <i type="int" name="NPAR">     8</i>
   <i type="int" name="NSIM">     4</i>
   <i type="int" name="NBLK">    -1</i>
   <i type="logical" name="LPLANE"> T  </i>
   <i type="logical" name="LSCALAPACK"> T  </i>
   <i type="logical" name="LSCAAWARE"> F  </i>
   <i type="logical" name="LSCALU"> F  </i>
   <i type="logical" name="LASYNC"> F  </i>
   <i type="logical" name="LORBITALREAL"> F  </i>
  </separator>
  <separator name="miscellaneous" >
   <i type="int" name="IDIOT">     3</i>
   <i type="int" name="ISPECIAL">     0</i>
   <i type="logical" name="LMUSIC"> F  </i>
   <v name="POMASS">     28.08500000</v>
   <v name="DARWINR">      0.00000000</v>
   <v name="DARWINV">      1.00000000</v>
   <i type="logical" name="LCORR"> T  </i>
  </separator>
  <i type="logical" name="GGA_COMPAT"> T  </i>
  <i type="logical" name="LBERRY"> F  </i>
  <i type="int" name="ICORELEVEL">     0</i>
  <i type="logical" name="LDAU"> F  </i>
  <i type="int" name="I_CONSTRAINED_M">     0</i>
  <separator name="electronic exchange-correlation" >
   <i type="string" name="GGA">--</i>
   <i type="int" name="VOSKOWN">     0</i>
   <i type="logical" name="LHFCALC"> F  </i>
   <i type="string" name="PRECFOCK"></i>
   <i type="logical" name="LSYMGRAD"> F  </i>
   <i type="logical" name="LHFONE"> F  </i>
   <i type="logical" name="LRHFCALC"> F  </i>
   <i type="logical" name="LTHOMAS"> F  </i>
   <i type="logical" name="LMODELHF"> F  </i>
   <i name="ENCUT4O">     -1.00000000</i>
   <i type="int" name="EXXOEP">     0</i>
   <i type="int" name="FOURORBIT">     0</i>
   <i name="AEXX">      0.00000000</i>
   <i name="HFALPHA">      0.00000000</i>
   <i name="MCALPHA">      0.00000000</i>
   <i name="ALDAX">      1.00000000</i>
   <i name="AGGAX">      1.00000000</i>
   <i name="ALDAC">      1.00000000</i>
   <i name="AGGAC">      1.00000000</i>
   <i type="int" name="NKREDX">     1</i>
   <i type="int" name="NKREDY">     1</i>
   <i type="int" name="NKREDZ">     1</i>
   <i type="logical" name="SHIFTRED"> F  </i>
   <i type="logical" name="ODDONLY"> F  </i>
   <i type="logical" name="EVENONLY"> F  </i>
   <i type="int" name="LMAXFOCK">     0</i>
   <i type="int" name="NMAXFOCKAE">     0</i>
   <i type="logical" name="LFOCKAEDFT"> F  </i>
   <i name="HFSCREEN">      0.00000000</i>
   <i name="HFSCREENC">      0.00000000</i>
   <i type="int" name="NBANDSGWLOW">     0</i>
  </separator>
  <separator name="vdW DFT" >
   <i type="logical" name="LUSE_VDW"> F  </i>
   <i name="Zab_VDW">     -0.84910000</i>
   <i name="PARAM1">      0.12340000</i>
   <i name="PARAM2">      1.00000000</i>
   <i name="PARAM3">      0.00000000</i>
  </separator>
  <separator name="model GW" >
   <i type="int" name="MODEL_GW">     0</i>
   <i name="MODEL_EPS0">     12.00772552</i>
   <i name="MODEL_ALPHA">      1.00000000</i>
  </separator>
  <separator name="linear response parameters" >
   <i type="logical" name="LEPSILON"> F  </i>
   <i type="logical" name="LRPA"> F  </i>
   <i type="logical" name="LNABLA"> F  </i>
   <i type="logical" name="LVEL"> F  </i>
   <i type="int" name="KINTER">     0</i>
   <i name="CSHIFT">      0.10000000</i>
   <i name="OMEGAMAX">     -1.00000000</i>
   <i name="DEG_THRESHOLD">      0.00200000</i>
   <i name="RTIME">     -0.10000000</i>
   <i name="WPLASMAI">      0.00000000</i>
   <v name="DFIELD">      0.00000000      0.00000000      0.00000000</v>
   <v name="WPLASMA">      0.00000000      0.00000000      0.00000000      0.00000000      0.00000000      0.00000000      0.00000000      0.00000000      0.00000000</v>
  </separator>
  <separator name="orbital magnetization" >
   <i type="logical" name="NUCIND"> F  </i>
   <v name="MAGPOS">      0.00000000      0.00000000      0.00000000</v>
   <i type="logical" name="LNICSALL"> T  </i>
   <i type="logical" name="ORBITALMAG"> F  </i>
   <i type="logical" name="LMAGBLOCH"> F  </i>
   <i type="logical" name="LCHIMAG"> F  </i>
   <i type="logical" name="LGAUGE"> T  </i>
   <i type="int" name="MAGATOM">     0</i>
   <v name="MAGDIPOL">      0.00000000      0.00000000      0.00000000</v>
   <v name="AVECCONST">      0.00000000      0.00000000      0.00000000</v>
  </separator>
  <separator name="response functions" >
   <i type="logical" name="LADDER"> F  </i>
   <i type="logical" name="LRPAFORCE"> F  </i>
   <i type="logical" name="LFXC"> F  </i>
   <i type="logical" name="LHARTREE"> T  </i>
   <i type="int" name="IBSE">     0</i>
   <v type="int" name="KPOINT">    -1     0     0     0</v>
   <i type="logical" name="LTCTE"> F  </i>
   <i type="logical" name="LTETE"> F  </i>
   <i type="logical" name="LTRIPLET"> F  </i>
   <i type="logical" name="LFXCEPS"> F  </i>
   <i type="logical" name="LFXHEG"> F  </i>
   <i type="int" name="NATURALO">     2</i>
   <i type="logical" name="L2ORDER"> F  </i>
   <i type="logical" name="LMP2LT"> F  </i>
   <i type="logical" name="LUSEW"> F  </i>
   <i name="ENCUTGW">     -2.00000000</i>
   <i name="ENCUTGWSOFT">     -2.00000000</i>
   <i name="ENCUTLF">     -1.00000000</i>
   <i type="int" name="LMAXMP2">    -1</i>
   <i name="SCISSOR">      0.00000000</i>
   <i type="int" name="NOMEGA">     0</i>
   <i type="int" name="NOMEGAR">     0</i>
   <i type="int" name="NBANDSGW">    -1</i>
   <i type="int" name="NBANDSO">    -1</i>
   <i type="int" name="NBANDSV">    -1</i>
   <i type="int" name="NELM">     1</i>
   <i type="int" name="NELMHF">     1</i>
   <i type="int" name="DIM">     3</i>
   <i type="int" name="ANTIRES">     0</i>
   <i name="OMEGAMAX">    -30.00000000</i>
   <i name="OMEGAMIN">    -30.00000000</i>
   <i name="OMEGATL">   -200.00000000</i>
   <i type="int" name="OMEGAGRID">   140</i>
   <i name="CSHIFT">     -0.10000000</i>
   <i type="logical" name="SELFENERGY"> F  </i>
   <i type="logical" name="LSPECTRAL"> F  </i>
   <i type="logical" name="LSPECTRALGW"> F  </i>
   <i type="logical" name="LSINGLES"> F  </i>
   <i type="logical" name="LFERMIGW"> F  </i>
   <i type="logical" name="ODDONLYGW"> F  </i>
   <i type="logical" name="EVENONLYGW"> F  </i>
   <i type="int" name="NKREDLFX">     1</i>
   <i type="int" name="NKREDLFY">     1</i>
   <i type="int" name="NKREDLFZ">     1</i>
   <i type="int" name="MAXMEM">  2800</i>
   <i type="int" name="TELESCOPE">     0</i>
   <i type="int" name="TAUPAR">     1</i>
   <i type="int" name="OMEGAPAR">    -1</i>
   <i name="LAMBDA">      1.00000000</i>
  </separator>
  <separator name="External order field" >
   <i name="OFIELD_KAPPA">      0.00000000</i>
   <v name="OFIELD_K">      0.00000000      0.00000000      0.00000000</v>
   <i name="OFIELD_Q6_NEAR">      0.00000000</i>
   <i name="OFIELD_Q6_FAR">      0.00000000</i>
   <i name="OFIELD_A">      0.00000000</i>
  </separator>
 </parameters>
 <atominfo>
  <atoms>       2 </atoms>
  <types>       1 </types>
  <array name="atoms" >
   <dimension dim="1">ion</dimension>
   <field type="string">element</field>
   <field type="int">atomtype</field>
   <set>
    <rc><c>Si</c><c>   1</c></rc>
    <rc><c>Si</c><c>   1</c></rc>
   </set>
  </array>
  <array name="atomtypes" >
   <dimension dim="1">type</dimension>
   <field type="int">atomspertype</field>
   <field type="string">element</field>
   <field>mass</field>
   <field>valence</field>
   <field type="string">pseudopotential</field>
   <set>
    <rc><c>   2</c><c>Si</c><c>     28.08500000</c><c>      4.00000000</c><c> PAW_PBE Si 05Jan2001                   </c></rc>
   </set>
  </array>
 </atominfo>
 <structure name="initialpos" >
  <crystal>
   <varray name="basis" >
    <v>       0.00000000       2.71500000       2.71500000 </v>
    <v>       2.71500000       0.00000000       2.71500000 </v>
    <v>       2.71500000       2.71500000       0.00000000 </v>
   </varray>
   <i name="volume">     40.02575175 </i>
   <varray name="rec_basis" >
    <v>      -0.18416206       0.18416206       0.18416206 </v>
    <v>       0.18416206      -0.18416206       0.18416206 </v>
    <v>       0.18416206       0.18416206      -0.18416206 </v>
   </varray>
  </crystal>
  <varray name="positions" >
   <v>       0.50000000       0.50000000       0.50000000 </v>
   <v>       0.75000000       0.75000000       0.75000000 </v>
  </varray>
 </structure>
 <calculation>
  <scstep>
   <time name="dav">    0.02    0.03</time>
   <time name="total">    0.06    0.08</time>
   <energy>
    <i name="alphaZ">      3.36414203 </i>
    <i name="ewald">   -228.56352493 </i>
    <i name="hartreedc">    -11.00108243 </i>
    <i name="XCdc">    -18.60181216 </i>
    <i name="pawpsdc">     65.95520812 </i>
    <i name="pawaedc">    -30.76852678 </i>
    <i name="eentropy">     -0.00000000 </i>
    <i name="bandstr">     15.68750026 </i>
    <i name="atom">    206.12349923 </i>
    <i name="e_fr_energy">      2.19540333 </i>
    <i name="e_wo_entrp">      2.19540333 </i>
    <i name="e_0_energy">      2.19540333 </i>
   </energy>
  </scstep>
  <scstep>
   <time name="dav">    0.04    0.05</time>
   <time name="total">    0.04    0.06</time>
   <energy>
    <i name="e_fr_energy">    -10.72570367 </i>
    <i name="e_wo_entrp">    -10.72570367 </i>
    <i name="e_0_energy">    -10.72570367 </i>
   </energy>
  </scstep>
  <scstep>
   <time name="dav">    0.02    0.04</time>
   <time name="total">    0.03    0.04</time>
   <energy>
    <i name="e_fr_energy">    -10.85853309 </i>
    <i name="e_wo_entrp">    -10.85853309 </i>
    <i name="e_0_energy">    -10.85853309 </i>
   </energy>
  </scstep>
  <scstep>
   <time name="dav">    0.03    0.04</time>
   <time name="total">    0.03    0.04</time>
   <energy>
    <i name="e_fr_energy">    -10.85869423 </i>
    <i name="e_wo_entrp">    -10.85869423 </i>
    <i name="e_0_energy">    -10.85869423 </i>
   </energy>
  </scstep>
  <scstep>
   <time name="dav">    0.02    0.04</time>
   <time name="total">    0.04    0.05</time>
   <energy>
    <i name="e_fr_energy">    -10.85869482 </i>
    <i name="e_wo_entrp">    -10.85869482 </i>
    <i name="e_0_energy">    -10.85869482 </i>
   </energy>
  </scstep>
  <scstep>
   <time name="dav">    0.02    0.02</time>
   <time name="total">    0.06    0.08</time>
   <energy>
    <i name="e_fr_energy">    -10.72132721 </i>
    <i name="e_wo_entrp">    -10.72132721 </i>
    <i name="e_0_energy">    -10.72132721 </i>
   </energy>
  </scstep>
  <scstep>
   <time name="dav">    0.02    0.02</time>
   <time name="total">    0.06    0.08</time>
   <energy>
    <i name="e_fr_energy">    -10.65939484 </i>
    <i name="e_wo_entrp">    -10.65939484 </i>
    <i name="e_0_energy">    -10.65939484 </i>
   </energy>
  </scstep>
  <scstep>
   <time name="dav">    0.02    0.02</time>
   <time name="total">    0.06    0.08</time>
   <energy>
    <i name="e_fr_energy">    -10.66122254 </i>
    <i name="e_wo_entrp">    -10.66122254 </i>
    <i name="e_0_energy">    -10.66122254 </i>
   </energy>
  </scstep>
  <scstep>
   <time name="dav">    0.02    0.02</time>
   <time name="total">    0.05    0.07</time>
   <energy>
    <i name="alphaZ">      3.36414203 </i>
    <i name="ewald">   -228.56352493 </i>
    <i name="hartreedc">    -15.17070578 </i>
    <i name="XCdc">    -17.92016731 </i>
    <i name="pawpsdc">     75.13783541 </i>
    <i name="pawaedc">    -40.18848007 </i>
    <i name="eentropy">     -0.00000000 </i>
    <i name="bandstr">      6.55605604 </i>
    <i name="atom">    206.12349923 </i>
    <i name="e_fr_energy">    -10.66134538 </i>
    <i name="e_wo_entrp">    -10.66134538 </i>
    <i name="e_0_energy">    -10.66134538 </i>
   </energy>
  </scstep>
  <structure>
   <crystal>
    <varray name="basis" >
     <v>       0.00000000       2.71500000       2.71500000 </v>
     <v>       2.71500000       0.00000000       2.71500000 </v>
     <v>       2.71500000       2.71500000       0.00000000 </v>
    </varray>
    <i name="volume">     40.02575175 </i>
    <varray name="rec_basis" >
     <v>      -0.18416206       0.18416206       0.18416206 </v>
     <v>       0.18416206      -0.18416206       0.18416206 </v>
     <v>       0.18416206       0.18416206      -0.18416206 </v>
    </varray>
   </crystal>
   <varray name="positions" >
    <v>       0.50000000       0.50000000       0.50000000 </v>
    <v>       0.75000000       0.75000000       0.75000000 </v>
   </varray>
  </structure>
  <varray name="forces" >
   <v>       0.00000000       0.00000000       0.00000000 </v>
   <v>      -0.00000000      -0.00000000      -0.00000000 </v>
  </varray>
  <varray name="stress" >
   <v>      22.31082941      -0.00000000      -0.00000000 </v>
   <v>      -0.00000000      22.31082941       0.00000000 </v>
   <v>      -0.00000000       0.00000000      22.31082941 </v>
  </varray>
  <energy>
   <i name="e_fr_energy">    -10.66134538 </i>
   <i name="e_wo_entrp">    -10.66134538 </i>
   <i name="e_0_energy">     -0.00000000 </i>
  </energy>
  <time name="totalsc">    1.23    2.06</time>
  <eigenvalues>
   <array>
    <dimension dim="1">band</dimension>
    <dimension dim="2">kpoint</dimension>
    <dimension dim="3">spin</dimension>
    <field>eigene</field>
    <field>occ</field>
    <set>
     <set comment="spin 1">
      <set comment="kpoint 1">
       <r>   -5.3018    1.0000 </r>
       <r>    1.9383    1.0000 </r>
       <r>    5.1105    1.0000 </r>
       <r>    5.1105    1.0000 </r>
       <r>    7.9029    0.0000 </r>
       <r>    9.3769    0.0000 </r>
       <r>    9.3769    0.0000 </r>
       <r>   12.7995    0.0000 </r>
      </set>
      <set comment="kpoint 2">
       <r>   -3.3808    1.0000 </r>
       <r>   -0.5187    1.0000 </r>
       <r>    2.3261    1.0000 </r>
       <r>    3.6583    1.0000 </r>
       <r>    7.3894    0.0000 </r>
       <r>   10.3271    0.0000 </r>
       <r>   11.6269    0.0000 </r>
       <r>   11.8029    0.0000 </r>
      </set>
     </set>
    </set>
   </array>
  </eigenvalues>
  <separator name="orbital magnetization" >
   <v name="MAGDIPOLOUT">      0.00000000      0.00000000      0.00000000</v>
  </separator>
  <dos>
   <i name="efermi">      6.03275362 </i>
   <total>
    <array>
     <dimension dim="1">gridpoints</dimension>
     <dimension dim="2">spin</dimension>
     <field>energy</field>
     <field>total</field>
     <field>integrated</field>
     <set>
      <set comment="spin 1">
       <r>    -7.3018     0.0000     0.0000 </r>
       <r>    -7.2281     0.0000     0.0000 </r>
       <r>    -7.1545     0.0000     0.0000 </r>
       <r>    -7.0808     0.0000     0.0000 </r>
       <r>    -7.0071     0.0000     0.0000 </r>
       <r>    -6.9334     0.0000     0.0000 </r>
       <r>    -6.8598     0.0000     0.0000 </r>
       <r>    -6.7861     0.0000     0.0000 </r>
       <r>    -6.7124     0.0000     0.0000 </r>
       <r>    -6.6388     0.0000     0.0000 </r>
       <r>    -6.5651     0.0000     0.0000 </r>
       <r>    -6.4914     0.0000     0.0000 </r>
       <r>    -6.4177     0.0000     0.0000 </r>
       <r>    -6.3441     0.0000     0.0000 </r>
       <r>    -6.2704     0.0000     0.0000 </r>
       <r>    -6.1967     0.0000     0.0000 </r>
       <r>    -6.1231     0.0000     0.0000 </r>
       <r>    -6.0494     0.0000     0.0000 </r>
       <r>    -5.9757     0.0000     0.0000 </r>
       <r>    -5.9020     0.0001     0.0000 </r>
       <r>    -5.8284     0.0006     0.0000 </r>
       <r>    -5.7547     0.0040     0.0003 </r>
       <r>    -5.6810     0.0202     0.0018 </r>
       <r>    -5.6074     0.0794     0.0077 </r>
       <r>    -5.5337     0.2387     0.0253 </r>
       <r>    -5.4600     0.5503     0.0658 </r>
       <r>    -5.3863     0.9729     0.1375 </r>
       <r>    -5.3127     1.3192     0.2347 </r>
       <r>    -5.2390     1.3719     0.3357 </r>
       <r>    -5.1653     1.0943     0.4164 </r>
       <r>    -5.0917     0.6694     0.4657 </r>
       <r>    -5.0180     0.3140     0.4888 </r>
       <r>    -4.9443     0.1130     0.4971 </r>
       <r>    -4.8706     0.0312     0.4994 </r>
       <r>    -4.7970     0.0066     0.4999 </r>
       <r>    -4.7233     0.0011     0.5000 </r>
       <r>    -4.6496     0.0001     0.5000 </r>
       <r>    -4.5760     0.0000     0.5000 </r>
       <r>    -4.5023     0.0000     0.5000 </r>
       <r>    -4.4286     0.0000     0.5000 </r>
       <r>    -4.3549     0.0000     0.5000 </r>
       <r>    -4.2813     0.0000     0.5000 </r>
       <r>    -4.2076     0.0000     0.5000 </r>
       <r>    -4.1339     0.0000     0.5000 </r>
       <r>    -4.0603     0.0000     0.5000 </r>
       <r>    -3.9866     0.0002     0.5000 </r>
       <r>    -3.9129     0.0015     0.5001 </r>
       <r>    -3.8393     0.0104     0.5009 </r>
       <r>    -3.7656     0.0542     0.5049 </r>
       <r>    -3.6919     0.2169     0.5209 </r>
       <r>    -3.6182     0.6654     0.5699 </r>
       <r>    -3.5446     1.5649     0.6852 </r>
       <r>    -3.4709     2.8223     0.8931 </r>
       <r>    -3.3972     3.9039     1.1807 </r>
       <r>    -3.3236     4.1416     1.4858 </r>
       <r>    -3.2499     3.3700     1.7341 </r>
       <r>    -3.1762     2.1031     1.8890 </r>
       <r>    -3.1025     1.0065     1.9632 </r>
       <r>    -3.0289     0.3694     1.9904 </r>
       <r>    -2.9552     0.1039     1.9980 </r>
       <r>    -2.8815     0.0224     1.9997 </r>
       <r>    -2.8079     0.0037     2.0000 </r>
       <r>    -2.7342     0.0005     2.0000 </r>
       <r>    -2.6605     0.0000     2.0000 </r>
       <r>    -2.5868     0.0000     2.0000 </r>
       <r>    -2.5132     0.0000     2.0000 </r>
       <r>    -2.4395     0.0000     2.0000 </r>
       <r>    -2.3658     0.0000     2.0000 </r>
       <r>    -2.2922     0.0000     2.0000 </r>
       <r>    -2.2185     0.0000     2.0000 </r>
       <r>    -2.1448     0.0000     2.0000 </r>
       <r>    -2.0711     0.0000     2.0000 </r>
       <r>    -1.9975     0.0000     2.0000 </r>
       <r>    -1.9238     0.0000     2.0000 </r>
       <r>    -1.8501     0.0000     2.0000 </r>
       <r>    -1.7765     0.0000     2.0000 </r>
       <r>    -1.7028     0.0000     2.0000 </r>
       <r>    -1.6291     0.0000     2.0000 </r>
       <r>    -1.5554     0.0000     2.0000 </r>
       <r>    -1.4818     0.0000     2.0000 </r>
       <r>    -1.4081     0.0000     2.0000 </r>
       <r>    -1.3344     0.0000     2.0000 </r>
       <r>    -1.2608     0.0000     2.0000 </r>
       <r>    -1.1871     0.0000     2.0000 </r>
       <r>    -1.1134     0.0002     2.0000 </r>
       <r>    -1.0397     0.0021     2.0002 </r>
       <r>    -0.9661     0.0135     2.0012 </r>
       <r>    -0.8924     0.0679     2.0062 </r>
       <r>    -0.8187     0.2612     2.0254 </r>
       <r>    -0.7451     0.7697     2.0821 </r>
       <r>    -0.6714     1.7394     2.2103 </r>
       <r>    -0.5977     3.0143     2.4323 </r>
       <r>    -0.5241     4.0062     2.7275 </r>
       <r>    -0.4504     4.0838     3.0283 </r>
       <r>    -0.3767     3.1928     3.2635 </r>
       <r>    -0.3030     1.9145     3.4046 </r>
       <r>    -0.2294     0.8804     3.4694 </r>
       <r>    -0.1557     0.3104     3.4923 </r>
       <r>    -0.0820     0.0839     3.4985 </r>
       <r>    -0.0084     0.0174     3.4998 </r>
       <r>     0.0653     0.0028     3.5000 </r>
       <r>     0.1390     0.0003     3.5000 </r>
       <r>     0.2127     0.0000     3.5000 </r>
       <r>     0.2863     0.0000     3.5000 </r>
       <r>     0.3600     0.0000     3.5000 </r>
       <r>     0.4337     0.0000     3.5000 </r>
       <r>     0.5073     0.0000     3.5000 </r>
       <r>     0.5810     0.0000     3.5000 </r>
       <r>     0.6547     0.0000     3.5000 </r>
       <r>     0.7284     0.0000     3.5000 </r>
       <r>     0.8020     0.0000     3.5000 </r>
       <r>     0.8757     0.0000     3.5000 </r>
       <r>     0.9494     0.0000     3.5000 </r>
       <r>     1.0230     0.0000     3.5000 </r>
       <r>     1.0967     0.0000     3.5000 </r>
       <r>     1.1704     0.0000     3.5000 </r>
       <r>     1.2441     0.0000     3.5000 </r>
       <r>     1.3177     0.0000     3.5000 </r>
       <r>     1.3914     0.0003     3.5000 </r>
       <r>     1.4651     0.0024     3.5002 </r>
       <r>     1.5387     0.0132     3.5012 </r>
       <r>     1.6124     0.0559     3.5053 </r>
       <r>     1.6861     0.1809     3.5186 </r>
       <r>     1.7598     0.4493     3.5517 </r>
       <r>     1.8334     0.8580     3.6149 </r>
       <r>     1.9071     1.2714     3.7086 </r>
       <r>     1.9808     1.5113     3.8199 </r>
       <r>     2.0544     1.6045     3.9382 </r>
       <r>     2.1281     1.8742     4.0762 </r>
       <r>     2.2018     2.6151     4.2689 </r>
       <r>     2.2755     3.6240     4.5359 </r>
       <r>     2.3491     4.2102     4.8460 </r>
       <r>     2.4228     3.8437     5.1292 </r>
       <r>     2.4965     2.7080     5.3287 </r>
       <r>     2.5701     1.4655     5.4367 </r>
       <r>     2.6438     0.6084     5.4815 </r>
       <r>     2.7175     0.1937     5.4958 </r>
       <r>     2.7912     0.0473     5.4992 </r>
       <r>     2.8648     0.0088     5.4999 </r>
       <r>     2.9385     0.0013     5.5000 </r>
       <r>     3.0122     0.0002     5.5000 </r>
       <r>     3.0858     0.0005     5.5000 </r>
       <r>     3.1595     0.0038     5.5003 </r>
       <r>     3.2332     0.0227     5.5020 </r>
       <r>     3.3068     0.1049     5.5097 </r>
       <r>     3.3805     0.3722     5.5371 </r>
       <r>     3.4542     1.0124     5.6117 </r>
       <r>     3.5279     2.1116     5.7673 </r>
       <r>     3.6015     3.3776     6.0161 </r>
       <r>     3.6752     4.1437     6.3214 </r>
       <r>     3.7489     3.8989     6.6086 </r>
       <r>     3.8225     2.8137     6.8159 </r>
       <r>     3.8962     1.5573     6.9306 </r>
       <r>     3.9699     0.6609     6.9793 </r>
       <r>     4.0436     0.2151     6.9952 </r>
       <r>     4.1172     0.0537     6.9991 </r>
       <r>     4.1909     0.0103     6.9999 </r>
       <r>     4.2646     0.0015     7.0000 </r>
       <r>     4.3382     0.0002     7.0000 </r>
       <r>     4.4119     0.0000     7.0000 </r>
       <r>     4.4856     0.0001     7.0000 </r>
       <r>     4.5593     0.0006     7.0000 </r>
       <r>     4.6329     0.0043     7.0004 </r>
       <r>     4.7066     0.0241     7.0021 </r>
       <r>     4.7803     0.1035     7.0098 </r>
       <r>     4.8539     0.3402     7.0348 </r>
       <r>     4.9276     0.8572     7.0980 </r>
       <r>     5.0013     1.6563     7.2200 </r>
       <r>     5.0750     2.4543     7.4008 </r>
       <r>     5.1486     2.7893     7.6063 </r>
       <r>     5.2223     2.4313     7.7854 </r>
       <r>     5.2960     1.6254     7.9052 </r>
       <r>     5.3696     0.8334     7.9666 </r>
       <r>     5.4433     0.3276     7.9907 </r>
       <r>     5.5170     0.0988     7.9980 </r>
       <r>     5.5907     0.0228     7.9997 </r>
       <r>     5.6643     0.0040     8.0000 </r>
       <r>     5.7380     0.0005     8.0000 </r>
       <r>     5.8117     0.0001     8.0000 </r>
       <r>     5.8853     0.0000     8.0000 </r>
       <r>     5.9590     0.0000     8.0000 </r>
       <r>     6.0327     0.0000     8.0000 </r>
       <r>     6.1064     0.0000     8.0000 </r>
       <r>     6.1800     0.0000     8.0000 </r>
       <r>     6.2537     0.0000     8.0000 </r>
       <r>     6.3274     0.0000     8.0000 </r>
       <r>     6.4010     0.0000     8.0000 </r>
       <r>     6.4747     0.0000     8.0000 </r>
       <r>     6.5484     0.0000     8.0000 </r>
       <r>     6.6221     0.0000     8.0000 </r>
       <r>     6.6957     0.0000     8.0000 </r>
       <r>     6.7694     0.0001     8.0000 </r>
       <r>     6.8431     0.0010     8.0001 </r>
       <r>     6.9167     0.0073     8.0006 </r>
       <r>     6.9904     0.0402     8.0036 </r>
       <r>     7.0641     0.1693     8.0161 </r>
       <r>     7.1377     0.5468     8.0563 </r>
       <r>     7.2114     1.3538     8.1561 </r>
       <r>     7.2851     2.5705     8.3454 </r>
       <r>     7.3588     3.7433     8.6212 </r>
       <r>     7.4324     4.1828     8.9294 </r>
       <r>     7.5061     3.5947     9.1942 </r>
       <r>     7.5798     2.4111     9.3718 </r>
       <r>     7.6534     1.3733     9.4730 </r>
       <r>     7.7271     0.9199     9.5408 </r>
       <r>     7.8008     1.0057     9.6149 </r>
       <r>     7.8745     1.2876     9.7097 </r>
       <r>     7.9481     1.3976     9.8127 </r>
       <r>     8.0218     1.1837     9.8999 </r>
       <r>     8.0955     0.7710     9.9567 </r>
       <r>     8.1691     0.3853     9.9851 </r>
       <r>     8.2428     0.1477     9.9959 </r>
       <r>     8.3165     0.0434     9.9991 </r>
       <r>     8.3902     0.0098     9.9999 </r>
       <r>     8.4638     0.0017    10.0000 </r>
       <r>     8.5375     0.0002    10.0000 </r>
       <r>     8.6112     0.0000    10.0000 </r>
       <r>     8.6848     0.0000    10.0000 </r>
       <r>     8.7585     0.0001    10.0000 </r>
       <r>     8.8322     0.0007    10.0001 </r>
       <r>     8.9059     0.0051    10.0004 </r>
       <r>     8.9795     0.0278    10.0025 </r>
       <r>     9.0532     0.1162    10.0110 </r>
       <r>     9.1269     0.3731    10.0385 </r>
       <r>     9.2005     0.9183    10.1062 </r>
       <r>     9.2742     1.7332    10.2339 </r>
       <r>     9.3479     2.5088    10.4187 </r>
       <r>     9.4216     2.7852    10.6239 </r>
       <r>     9.4952     2.3716    10.7986 </r>
       <r>     9.5689     1.5488    10.9127 </r>
       <r>     9.6426     0.7757    10.9698 </r>
       <r>     9.7162     0.2981    10.9918 </r>
       <r>     9.7899     0.0890    10.9984 </r>
       <r>     9.8636     0.0290    11.0005 </r>
       <r>     9.9373     0.0522    11.0043 </r>
       <r>    10.0109     0.1993    11.0190 </r>
       <r>    10.0846     0.6213    11.0648 </r>
       <r>    10.1583     1.4880    11.1744 </r>
       <r>    10.2319     2.7332    11.3758 </r>
       <r>    10.3056     3.8503    11.6594 </r>
       <r>    10.3793     4.1600    11.9659 </r>
       <r>    10.4530     3.4473    12.2199 </r>
       <r>    10.5266     2.1910    12.3813 </r>
       <r>    10.6003     1.0679    12.4600 </r>
       <r>    10.6740     0.3991    12.4894 </r>
       <r>    10.7476     0.1144    12.4978 </r>
       <r>    10.8213     0.0251    12.4996 </r>
       <r>    10.8950     0.0042    12.5000 </r>
       <r>    10.9686     0.0006    12.5000 </r>
       <r>    11.0423     0.0004    12.5000 </r>
       <r>    11.1160     0.0027    12.5002 </r>
       <r>    11.1897     0.0173    12.5015 </r>
       <r>    11.2633     0.0842    12.5077 </r>
       <r>    11.3370     0.3163    12.5310 </r>
       <r>    11.4107     0.9206    12.5988 </r>
       <r>    11.4843     2.0958    12.7532 </r>
       <r>    11.5580     3.7847    13.0321 </r>
       <r>    11.6317     5.5328    13.4397 </r>
       <r>    11.7054     6.7021    13.9334 </r>
       <r>    11.7790     6.8477    14.4379 </r>
       <r>    11.8527     5.9154    14.8737 </r>
       <r>    11.9264     4.2581    15.1874 </r>
       <r>    12.0000     2.4961    15.3713 </r>
       <r>    12.0737     1.1662    15.4572 </r>
       <r>    12.1474     0.4275    15.4887 </r>
       <r>    12.2211     0.1218    15.4977 </r>
       <r>    12.2947     0.0278    15.4997 </r>
       <r>    12.3684     0.0111    15.5005 </r>
       <r>    12.4421     0.0317    15.5029 </r>
       <r>    12.5157     0.1130    15.5112 </r>
       <r>    12.5894     0.3140    15.5343 </r>
       <r>    12.6631     0.6694    15.5836 </r>
       <r>    12.7368     1.0943    15.6643 </r>
       <r>    12.8104     1.3719    15.7653 </r>
       <r>    12.8841     1.3192    15.8625 </r>
       <r>    12.9578     0.9729    15.9342 </r>
       <r>    13.0314     0.5503    15.9747 </r>
       <r>    13.1051     0.2387    15.9923 </r>
       <r>    13.1788     0.0794    15.9982 </r>
       <r>    13.2525     0.0202    15.9997 </r>
       <r>    13.3261     0.0040    16.0000 </r>
       <r>    13.3998     0.0006    16.0000 </r>
       <r>    13.4735     0.0001    16.0000 </r>
       <r>    13.5471     0.0000    16.0000 </r>
       <r>    13.6208     0.0000    16.0000 </r>
       <r>    13.6945     0.0000    16.0000 </r>
       <r>    13.7682     0.0000    16.0000 </r>
       <r>    13.8418     0.0000    16.0000 </r>
       <r>    13.9155     0.0000    16.0000 </r>
       <r>    13.9892     0.0000    16.0000 </r>
       <r>    14.0628     0.0000    16.0000 </r>
       <r>    14.1365     0.0000    16.0000 </r>
       <r>    14.2102     0.0000    16.0000 </r>
       <r>    14.2838     0.0000    16.0000 </r>
       <r>    14.3575     0.0000    16.0000 </r>
       <r>    14.4312     0.0000    16.0000 </r>
       <r>    14.5049     0.0000    16.0000 </r>
       <r>    14.5785     0.0000    16.0000 </r>
       <r>    14.6522     0.0000    16.0000 </r>
       <r>    14.7259     0.0000    16.0000 </r>
       <r>    14.7995     0.0000    16.0000 </r>
      </set>
     </set>
    </array>
   </total>
  </dos>
 </calculation>
 <structure name="finalpos" >
  <crystal>
   <varray name="basis" >
    <v>       0.00000000       2.71500000       2.71500000 </v>
    <v>       2.71500000       0.00000000       2.71500000 </v>
    <v>       2.71500000       2.71500000       0.00000000 </v>
   </varray>
   <i name="volume">     40.02575175 </i>
   <varray name="rec_basis" >
    <v>      -0.18416206       0.18416206       0.18416206 </v>
    <v>       0.18416206      -0.18416206       0.18416206 </v>
    <v>       0.18416206       0.18416206      -0.18416206 </v>
   </varray>
  </crystal>
  <varray name="positions" >
   <v>       0.50000000       0.50000000       0.50000000 </v>
   <v>       0.75000000       0.75000000       0.75000000 </v>
  </varray>
 </structure>
</modeling>
