    2    2   15    1
  0.2001288E+02  0.3839590E-09  0.3839590E-09  0.3839590E-09  0.5000000E-15
  1.000000000000000E-004
  CAR 
 unknown system                          
      8     56      8
 
  0.0000000E+00  0.0000000E+00  0.0000000E+00  0.7513148E-03
    1       -6.196392   1.000000
    2        5.649826   0.982701
    3        5.649860   0.982691
    4        5.649860   0.982691
    5        8.212239   0.000000
    6        8.212253   0.000000
    7        8.212253   0.000000
    8        8.767611   0.000000
 
  0.9090909E-01 -0.1591537E-17  0.3465480E-17  0.6010518E-02
    1       -6.090022   1.000000
    2        4.657662   1.000000
    3        5.483027   0.999503
    4        5.483054   0.999503
    5        8.199284   0.000000
    6        8.455805   0.000000
    7        8.455823   0.000000
    8        9.597410   0.000000
 
  0.1818182E+00 -0.3183074E-17  0.6930960E-17  0.6010518E-02
    1       -5.775056   1.000000
    2        2.987064   1.000000
    3        5.143768   1.000000
    4        5.143799   1.000000
    5        7.878784   0.000000
    6        8.927649   0.000000
    7        8.927681   0.000000
    8       11.200853   0.000000
 
  0.2727273E+00  0.1406449E-16  0.1931292E-16  0.6010518E-02
    1       -5.267694   1.000000
    2        1.346338   1.000000
    3        4.821521   1.000000
    4        4.821554   1.000000
    5        7.530232   0.000000
    6        9.190429   0.000000
    7        9.190477   0.000000
    8       12.770046   0.000000
 
  0.3636364E+00 -0.6366148E-17  0.1386192E-16  0.6010518E-02
    1       -4.619548   1.000000
    2       -0.089359   1.000000
    3        4.590315   1.000000
    4        4.590353   1.000000
    5        7.272232   0.000000
    6        9.146048   0.000000
    7        9.146100   0.000000
    8       13.495202   0.000000
 
  0.4545455E+00  0.9587941E-18  0.8410920E-17  0.6010518E-02
    1       -4.022682   1.000000
    2       -1.087546   1.000000
    3        4.469856   1.000000
    4        4.469901   1.000000
    5        7.135622   0.000000
    6        9.036040   0.000000
    7        9.036117   0.000000
    8       13.378396   0.000000
 
  0.9090909E-01  0.9090909E-01  0.7557855E-17  0.4507889E-02
    1       -6.054321   1.000000
    2        4.825814   1.000000
    3        5.162187   1.000000
    4        5.162208   1.000000
    5        7.897232   0.000000
    6        8.874363   0.000000
    7        8.874374   0.000000
    8        9.520943   0.000000
 
  0.1818182E+00  0.9090909E-01  0.7213366E-17  0.1803156E-01
    1       -5.808038   1.000000
    2        3.478896   1.000000
    3        4.768757   1.000000
    4        4.943697   1.000000
    5        7.932283   0.000000
    6        8.896691   0.000000
    7        9.463243   0.000000
    8       10.528192   0.000000
 
  0.2727273E+00  0.9090909E-01  0.5717536E-17  0.1803156E-01
    1       -5.362287   1.000000
    2        1.872847   1.000000
    3        4.451901   1.000000
    4        4.571982   1.000000
    5        8.039251   0.000000
    6        8.906482   0.000000
    7        9.825149   0.000000
    8       11.019352   0.000000
 
  0.3636364E+00  0.9090909E-01  0.2306080E-16  0.1803156E-01
    1       -4.751359   1.000000
    2        0.384575   1.000000
    3        4.191090   1.000000
    4        4.262969   1.000000
    5        7.873169   0.000000
    6        8.971264   0.000000
    7        9.767088   0.000000
    8       11.788662   0.000000
 
  0.4545455E+00  0.9090909E-01  0.7687187E-17  0.1803156E-01
    1       -4.095257   1.000000
    2       -0.789396   1.000000
    3        3.895781   1.000000
    4        4.220685   1.000000
    5        7.729123   0.000000
    6        8.945034   0.000000
    7        9.545774   0.000000
    8       13.012498   0.000000
 
 -0.4545455E+00  0.9090909E-01 -0.2682883E-16  0.1803156E-01
    1       -3.832281   1.000000
    2       -1.182474   1.000000
    3        3.720889   1.000000
    4        4.320325   1.000000
    5        7.699908   0.000000
    6        9.004619   0.000000
    7        9.363444   0.000000
    8       13.687870   0.000000
 
 -0.3636364E+00  0.9090909E-01 -0.4663035E-17  0.1803156E-01
    1       -4.304170   1.000000
    2       -0.448050   1.000000
    3        3.686869   1.000000
    4        4.545558   1.000000
    5        7.798382   0.000000
    6        9.197078   0.000000
    7        9.281331   0.000000
    8       13.375271   0.000000
 
 -0.2727273E+00  0.9090909E-01 -0.1011403E-16  0.1803156E-01
    1       -4.970704   1.000000
    2        0.860720   1.000000
    3        3.809899   1.000000
    4        4.867704   1.000000
    5        8.012621   0.000000
    6        9.202179   0.000000
    7        9.401495   0.000000
    8       12.320600   0.000000
 
 -0.1818182E+00  0.9090909E-01 -0.6648554E-17  0.1803156E-01
    1       -5.532818   1.000000
    2        2.391541   1.000000
    3        4.108762   1.000000
    4        5.229844   1.000000
    5        8.309990   0.000000
    6        8.907690   0.000000
    7        9.261154   0.000000
    8       11.412291   0.000000
 
 -0.9090909E-01  0.9090909E-01 -0.3183074E-17  0.9015778E-02
    1       -5.913739   1.000000
    2        3.851311   1.000000
    3        4.670390   1.000000
    4        5.504298   0.999161
    5        8.506589   0.000000
    6        8.538176   0.000000
    7        8.671786   0.000000
    8       10.495287   0.000000
 
  0.1818182E+00  0.1818182E+00  0.1511571E-16  0.4507889E-02
    1       -5.630703   1.000000
    2        3.322328   1.000000
    3        4.339489   1.000000
    4        4.339509   1.000000
    5        7.259039   0.000000
    6        9.741131   0.000000
    7       10.213366   0.000000
    8       10.213379   0.000000
 
  0.2727273E+00  0.1818182E+00  0.6503012E-17  0.1803156E-01
    1       -5.249953   1.000000
    2        2.174214   1.000000
    3        3.921472   1.000000
    4        3.998434   1.000000
    5        7.314083   0.000000
    6        9.347544   0.000000
    7       10.508670   0.000000
    8       10.806212   0.000000
 
  0.3636364E+00  0.1818182E+00  0.1442673E-16  0.1803156E-01
    1       -4.688398   1.000000
    2        0.821604   1.000000
    3        3.393932   1.000000
    4        3.802639   1.000000
    5        7.551620   0.000000
    6        9.708144   0.000000
    7       10.310300   0.000000
    8       10.897854   0.000000
 
  0.4545455E+00  0.1818182E+00  0.2680869E-16  0.1803156E-01
    1       -4.020959   1.000000
    2       -0.396889   1.000000
    3        2.920715   1.000000
    4        3.768773   1.000000
    5        7.588637   0.000000
    6       10.066606   0.000000
    7       10.652857   0.000000
    8       10.928006   0.000000
 
 -0.4545455E+00  0.1818182E+00  0.1012563E-16  0.1803156E-01
    1       -3.549595   1.000000
    2       -1.092291   1.000000
    3        2.589728   1.000000
    4        3.897726   1.000000
    5        7.685123   0.000000
    6        9.942842   0.000000
    7       10.366411   0.000000
    8       12.545583   0.000000
 
 -0.3636364E+00  0.1818182E+00 -0.1329711E-16  0.1803156E-01
    1       -3.828194   1.000000
    2       -0.689184   1.000000
    3        2.440210   1.000000
    4        4.172268   1.000000
    5        7.929997   0.000000
    6        9.938954   0.000000
    7       10.138625   0.000000
    8       13.338958   0.000000
 
 -0.2727273E+00  0.1818182E+00 -0.9151488E-18  0.1803156E-01
    1       -4.486540   1.000000
    2        0.408699   1.000000
    3        2.524620   1.000000
    4        4.554927   1.000000
    5        8.285287   0.000000
    6        9.882041   0.000000
    7        9.997788   0.000000
    8       11.943264   0.000000
 
 -0.1818182E+00  0.1818182E+00 -0.6366148E-17  0.9015778E-02
    1       -5.092588   1.000000
    2        1.583364   1.000000
    3        3.004727   1.000000
    4        4.963857   1.000000
    5        8.596796   0.000000
    6        9.387572   0.000000
    7        9.687761   0.000000
    8       11.266981   0.000000
 
  0.2727273E+00  0.2727273E+00  0.2267357E-16  0.4507889E-02
    1       -4.933749   1.000000
    2        1.710703   1.000000
    3        3.624071   1.000000
    4        3.624093   1.000000
    5        6.679205   0.000000
    6        8.480317   0.000000
    7       11.778714   0.000000
    8       11.778726   0.000000
 
  0.3636364E+00  0.2727273E+00  0.2858693E-16  0.1803156E-01
    1       -4.428640   1.000000
    2        0.766378   1.000000
    3        3.094166   1.000000
    4        3.394318   1.000000
    5        6.812412   0.000000
    6        8.192994   0.000000
    7       12.057256   0.000000
    8       12.250363   0.000000
 
  0.4545455E+00  0.2727273E+00  0.1817462E-16  0.1803156E-01
    1       -3.780361   1.000000
    2       -0.247956   1.000000
    3        2.378433   1.000000
    4        3.332670   1.000000
    5        7.015943   0.000000
    6        8.938373   0.000000
    7       11.886239   0.000000
    8       12.126061   0.000000
 
 -0.4545455E+00  0.2727273E+00  0.1141417E-16  0.1803156E-01
    1       -3.178995   1.000000
    2       -1.035062   1.000000
    3        1.814290   1.000000
    4        3.443674   1.000000
    5        7.149410   0.000000
    6       10.413934   0.000000
    7       11.710145   0.000000
    8       11.802204   0.000000
 
 -0.3636364E+00  0.2727273E+00  0.5824396E-17  0.1803156E-01
    1       -3.234847   1.000000
    2       -0.956135   1.000000
    3        1.534897   1.000000
    4        3.715224   1.000000
    5        7.434023   0.000000
    6       11.442921   0.000000
    7       11.472548   0.000000
    8       12.338548   0.000000
 
 -0.2727273E+00  0.2727273E+00 -0.2738218E-16  0.9015778E-02
    1       -3.856984   1.000000
    2       -0.208580   1.000000
    3        1.694486   1.000000
    4        4.112232   1.000000
    5        7.868958   0.000000
    6       10.833865   0.000000
    7       11.200847   0.000000
    8       11.981288   0.000000
 
  0.3636364E+00  0.3636364E+00  0.3023142E-16  0.4507889E-02
    1       -3.979391   1.000000
    2        0.110793   1.000000
    3        3.120803   1.000000
    4        3.120830   1.000000
    5        6.327067   0.003728
    6        7.353591   0.000000
    7       13.440815   0.000000
    8       13.440824   0.000000
 
  0.4545455E+00  0.3636364E+00  0.3729612E-16  0.1803156E-01
    1       -3.367358   1.000000
    2       -0.693066   1.000000
    3        2.597979   1.000000
    4        3.016655   1.000000
    5        6.537984   0.000015
    6        7.365464   0.000000
    7       13.751994   0.000000
    8       13.777295   0.000000
 
 -0.4545455E+00  0.3636364E+00 -0.2497548E-16  0.1803156E-01
    1       -2.705612   1.000000
    2       -1.400358   1.000000
    3        1.834992   1.000000
    4        3.088752   1.000000
    5        6.707767   0.000000
    6        8.536361   0.000000
    7       13.485713   0.000000
    8       13.608360   0.000000
 
 -0.3636364E+00  0.3636364E+00 -0.1273230E-16  0.9015778E-02
    1       -2.645331   1.000000
    2       -1.429305   1.000000
    3        1.359324   1.000000
    4        3.331470   1.000000
    5        6.986254   0.000000
    6       10.251528   0.000000
    7       12.799247   0.000000
    8       13.350293   0.000000
 
  0.4545455E+00  0.4545455E+00  0.3778928E-16  0.4507889E-02
    1       -2.792245   1.000000
    2       -1.411458   1.000000
    3        2.864642   1.000000
    4        2.864668   1.000000
    5        6.291571   0.007659
    6        6.620429   0.000001
    7       15.107582   0.000000
    8       15.107595   0.000000
 
 -0.4545455E+00  0.4545455E+00 -0.2569921E-16  0.9015778E-02
    1       -2.157405   1.000000
    2       -2.045784   1.000000
    3        2.434667   1.000000
    4        2.889406   1.000000
    5        6.473416   0.000103
    6        7.056837   0.000000
    7       15.017026   0.000000
    8       15.230996   0.000000
 
  0.2727273E+00  0.1818182E+00  0.9090909E-01  0.1803156E-01
    1       -5.495079   1.000000
    2        2.617882   1.000000
    3        3.839107   1.000000
    4        4.830369   1.000000
    5        7.992186   0.000000
    6        9.210560   0.000000
    7       10.012401   0.000000
    8       10.441942   0.000000
 
  0.3636364E+00  0.1818182E+00  0.9090909E-01  0.3606311E-01
    1       -4.990546   1.000000
    2        1.314121   1.000000
    3        3.279984   1.000000
    4        4.515362   1.000000
    5        8.300976   0.000000
    6        9.179623   0.000000
    7       10.349077   0.000000
    8       10.567444   0.000000
 
  0.4545455E+00  0.1818182E+00  0.9090909E-01  0.3606311E-01
    1       -4.343809   1.000000
    2       -0.008790   1.000000
    3        3.021819   1.000000
    4        4.174835   1.000000
    5        8.322669   0.000000
    6        9.008484   0.000000
    7       10.443835   0.000000
    8       11.401358   0.000000
 
 -0.4545455E+00  0.1818182E+00  0.9090909E-01  0.3606311E-01
    1       -3.742355   1.000000
    2       -0.972654   1.000000
    3        2.921526   1.000000
    4        3.968307   1.000000
    5        8.291544   0.000000
    6        8.827223   0.000000
    7       10.385649   0.000000
    8       12.854784   0.000000
 
  0.3636364E+00  0.2727273E+00  0.9090909E-01  0.1803156E-01
    1       -4.808089   1.000000
    2        1.333373   1.000000
    3        3.131198   1.000000
    4        3.836116   1.000000
    5        7.439547   0.000000
    6        8.969824   0.000000
    7       10.619067   0.000000
    8       11.664630   0.000000
 
  0.4545455E+00  0.2727273E+00  0.9090909E-01  0.3606311E-01
    1       -4.200725   1.000000
    2        0.268122   1.000000
    3        2.562432   1.000000
    4        3.528440   1.000000
    5        7.801132   0.000000
    6        9.386568   0.000000
    7       10.300600   0.000000
    8       12.058092   0.000000
 
 -0.4545455E+00  0.2727273E+00  0.9090909E-01  0.3606311E-01
    1       -3.540605   1.000000
    2       -0.723641   1.000000
    3        2.180160   1.000000
    4        3.376022   1.000000
    5        7.936727   0.000000
    6        9.921223   0.000000
    7       10.732412   0.000000
    8       12.013322   0.000000
 
 -0.3636364E+00  0.2727273E+00  0.9090909E-01  0.3606311E-01
    1       -3.280424   1.000000
    2       -1.065077   1.000000
    3        1.953687   1.000000
    4        3.464044   1.000000
    5        8.143569   0.000000
    6        9.657002   0.000000
    7       11.895260   0.000000
    8       12.424467   0.000000
 
 -0.2727273E+00  0.2727273E+00  0.9090909E-01  0.3606311E-01
    1       -3.775901   1.000000
    2       -0.389633   1.000000
    3        1.945873   1.000000
    4        3.754933   1.000000
    5        8.497342   0.000000
    6        9.468047   0.000000
    7       11.183840   0.000000
    8       11.841433   0.000000
 
 -0.1818182E+00  0.2727273E+00  0.9090909E-01  0.1803156E-01
    1       -4.439124   1.000000
    2        0.577719   1.000000
    3        2.320553   1.000000
    4        4.164193   1.000000
    5        8.923518   0.000000
    6        9.050819   0.000000
    7       10.316170   0.000000
    8       11.378439   0.000000
 
  0.4545455E+00  0.3636364E+00  0.9090909E-01  0.1803156E-01
    1       -3.872111   1.000000
    2       -0.024459   1.000000
    3        2.661521   1.000000
    4        3.047827   1.000000
    5        7.089753   0.000000
    6        7.949622   0.000000
    7       11.991852   0.000000
    8       13.406410   0.000000
 
 -0.4545455E+00  0.3636364E+00  0.9090909E-01  0.3606311E-01
    1       -3.203198   1.000000
    2       -0.836093   1.000000
    3        2.031003   1.000000
    4        2.872645   1.000000
    5        7.438178   0.000000
    6        8.758075   0.000000
    7       11.642011   0.000000
    8       13.760573   0.000000
 
 -0.3636364E+00  0.3636364E+00  0.9090909E-01  0.3606311E-01
    1       -2.744578   1.000000
    2       -1.325833   1.000000
    3        1.518921   1.000000
    4        2.986641   1.000000
    5        7.647793   0.000000
    6       10.323145   0.000000
    7       11.334600   0.000000
    8       12.929087   0.000000
 
 -0.2727273E+00  0.3636364E+00  0.9090909E-01  0.1803156E-01
    1       -3.124274   1.000000
    2       -0.930616   1.000000
    3        1.416297   1.000000
    4        3.305820   1.000000
    5        8.015549   0.000000
    6       10.731105   0.000000
    7       11.451762   0.000000
    8       12.344886   0.000000
 
 -0.4545455E+00  0.4545455E+00  0.9090909E-01  0.1803156E-01
    1       -2.720694   1.000000
    2       -1.409292   1.000000
    3        2.472514   1.000000
    4        2.592832   1.000000
    5        7.026268   0.000000
    6        7.300656   0.000000
    7       13.523916   0.000000
    8       14.892227   0.000000
 
 -0.3636364E+00  0.4545455E+00  0.9090909E-01  0.1803156E-01
    1       -2.226271   1.000000
    2       -1.849473   1.000000
    3        1.826581   1.000000
    4        2.664152   1.000000
    5        7.304501   0.000000
    6        8.547373   0.000000
    7       13.068586   0.000000
    8       13.293123   0.000000
 
 -0.4545455E+00  0.3636364E+00  0.1818182E+00  0.1803156E-01
    1       -3.567737   1.000000
    2       -0.411967   1.000000
    3        1.918731   1.000000
    4        3.072751   1.000000
    5        8.736835   0.000000
    6        9.401744   0.000000
    7        9.925415   0.000000
    8       13.308517   0.000000
 
 -0.3636364E+00  0.3636364E+00  0.1818182E+00  0.3606311E-01
    1       -2.945103   1.000000
    2       -1.102590   1.000000
    3        1.642076   1.000000
    4        2.758492   1.000000
    5        9.118550   0.000000
    6        9.460439   0.000000
    7       10.724314   0.000000
    8       12.581241   0.000000
 
 -0.3636364E+00  0.4545455E+00  0.1818182E+00  0.1803156E-01
    1       -2.539559   1.000000
    2       -1.453996   1.000000
    3        1.870814   1.000000
    4        2.248010   1.000000
    5        8.658821   0.000000
    6        8.872289   0.000000
    7       11.233727   0.000000
    8       12.822178   0.000000
 
 -0.2727273E+00  0.4545455E+00  0.1818182E+00  0.1803156E-01
    1       -2.344532   1.000000
    2       -1.616013   1.000000
    3        1.597023   1.000000
    4        2.283810   1.000000
    5        9.011618   0.000000
    6       10.299175   0.000000
    7       10.990105   0.000000
    8       11.008440   0.000000
