       N       E                     dE             d eps       ncg     rms          rms(c)
DAV:   1    -0.205016562954E+01   -0.20502E+01   -0.21040E+03   944   0.378E+02
DAV:   2    -0.108934054213E+02   -0.88432E+01   -0.82896E+01  1392   0.539E+01
DAV:   3    -0.109765023058E+02   -0.83097E-01   -0.83097E-01  1128   0.633E+00
DAV:   4    -0.109767357411E+02   -0.23344E-03   -0.23344E-03  1416   0.341E-01
DAV:   5    -0.109767359580E+02   -0.21692E-06   -0.21695E-06  1120   0.608E-03    0.299E+00
DAV:   6    -0.108527118781E+02    0.12402E+00   -0.80482E-02  1040   0.147E+00    0.177E+00
DAV:   7    -0.107961206419E+02    0.56591E-01   -0.14809E-01  1128   0.212E+00    0.151E-01
DAV:   8    -0.107974061328E+02   -0.12855E-02   -0.36832E-03   960   0.439E-01    0.247E-02
DAV:   9    -0.107974987509E+02   -0.92618E-04   -0.89007E-05   712   0.745E-02
   1 F= -.10797499E+02 E0= -.10797441E+02  d E =-.107975E+02
       N       E                     dE             d eps       ncg     rms          rms(c)
DAV:   1    -0.108061203663E+02   -0.87142E-02   -0.23934E-01  1096   0.271E+00    0.311E-01
DAV:   2    -0.108020272910E+02    0.40931E-02   -0.32360E-03  1152   0.355E-01    0.178E-01
DAV:   3    -0.107999255773E+02    0.21017E-02   -0.42724E-03  1048   0.328E-01    0.222E-02
DAV:   4    -0.107999138135E+02    0.11764E-04   -0.39328E-05   448   0.528E-02
   2 F= -.10799914E+02 E0= -.10799879E+02  d E =-.241506E-02
       N       E                     dE             d eps       ncg     rms          rms(c)
DAV:   1    -0.108029957127E+02   -0.30701E-02   -0.38063E-02  1064   0.109E+00    0.125E-01
DAV:   2    -0.108023617583E+02    0.63395E-03   -0.51109E-04  1096   0.142E-01    0.714E-02
DAV:   3    -0.108020291159E+02    0.33264E-03   -0.66254E-04   656   0.131E-01
   3 F= -.10802029E+02 E0= -.10801988E+02  d E =-.453037E-02
