<?xml version="1.0" encoding="ISO-8859-1"?>
<modeling>
 <generator>
  <i name="program" type="string">vasp </i>
  <i name="version" type="string">5.4.4.18Apr17-6-g9f103f2a35  </i>
  <i name="subversion" type="string">(build Dec 09 2018 21:25:21) complex            parallel </i>
  <i name="platform" type="string">IFC18.0.1.163_CrayMPICH7.7.0_MKL18.0.1.163 </i>
  <i name="date" type="string">2019 03 19 </i>
  <i name="time" type="string">13:05:41 </i>
 </generator>
 <incar>
  <i type="string" name="PREC">normal</i>
  <i type="int" name="IBRION">     2</i>
  <i name="EDIFF">      0.00040000</i>
  <i name="EDIFFG">     -0.01000000</i>
  <i type="int" name="NSW">    15</i>
  <i type="int" name="ISIF">     2</i>
  <i name="ENCUT">    200.00000000</i>
  <i type="int" name="NBANDS">     8</i>
  <i type="logical" name="LREAL"> F  </i>
  <i type="int" name="ISMEAR">     0</i>
  <i name="SIGMA">      0.20000000</i>
  <v type="int" name="KPOINT_BSE">    -1     0     0     0</v>
 </incar>
 <structure name="primitive_cell" >
  <crystal>
   <varray name="basis" >
    <v>      -2.45000000       2.45000000       1.27400000 </v>
    <v>       2.45000000      -2.45000000       1.27400000 </v>
    <v>       2.45000000       2.45000000      -1.27400000 </v>
   </varray>
   <i name="volume">     30.58874000 </i>
   <varray name="rec_basis" >
    <v>       0.00000000       0.20408163       0.39246468 </v>
    <v>       0.20408163       0.00000000       0.39246468 </v>
    <v>       0.20408163       0.20408163      -0.00000000 </v>
   </varray>
  </crystal>
  <varray name="positions" >
   <v>       0.25000000      -0.25000000      -0.50000000 </v>
   <v>       0.00000000       0.00000000       0.00000000 </v>
  </varray>
 </structure>
 <varray name="primitive_index" >
  <v type="int" >        1 </v>
  <v type="int" >        2 </v>
 </varray>
 <kpoints>
  <generation param="Monkhorst-Pack">
   <v type="int" name="divisions">      10       10       10 </v>
   <v name="usershift">      0.00000000       0.00000000       0.00000000 </v>
   <v name="genvec1">      0.10000000       0.00000000      -0.00000000 </v>
   <v name="genvec2">      0.00000000       0.10000000      -0.00000000 </v>
   <v name="genvec3">      0.00000000      -0.00000000       0.10000000 </v>
   <v name="shift">      0.50000000       0.50000000       0.50000000 </v>
  </generation>
  <varray name="kpointlist" >
   <v>       0.05000000       0.05000000       0.05000000 </v>
   <v>       0.15000000       0.05000000       0.05000000 </v>
   <v>       0.25000000       0.05000000       0.05000000 </v>
   <v>       0.35000000       0.05000000       0.05000000 </v>
   <v>       0.45000000       0.05000000       0.05000000 </v>
   <v>      -0.05000000       0.05000000       0.05000000 </v>
   <v>       0.15000000       0.15000000       0.05000000 </v>
   <v>       0.25000000       0.15000000       0.05000000 </v>
   <v>       0.35000000       0.15000000       0.05000000 </v>
   <v>       0.45000000       0.15000000       0.05000000 </v>
   <v>      -0.45000000       0.15000000       0.05000000 </v>
   <v>      -0.35000000       0.15000000       0.05000000 </v>
   <v>      -0.25000000       0.15000000       0.05000000 </v>
   <v>      -0.15000000       0.15000000       0.05000000 </v>
   <v>      -0.05000000       0.15000000       0.05000000 </v>
   <v>       0.25000000       0.25000000       0.05000000 </v>
   <v>       0.35000000       0.25000000       0.05000000 </v>
   <v>       0.45000000       0.25000000       0.05000000 </v>
   <v>      -0.45000000       0.25000000       0.05000000 </v>
   <v>      -0.35000000       0.25000000       0.05000000 </v>
   <v>      -0.25000000       0.25000000       0.05000000 </v>
   <v>      -0.15000000       0.25000000       0.05000000 </v>
   <v>      -0.05000000       0.25000000       0.05000000 </v>
   <v>       0.35000000       0.35000000       0.05000000 </v>
   <v>       0.45000000       0.35000000       0.05000000 </v>
   <v>      -0.45000000       0.35000000       0.05000000 </v>
   <v>      -0.35000000       0.35000000       0.05000000 </v>
   <v>      -0.25000000       0.35000000       0.05000000 </v>
   <v>      -0.15000000       0.35000000       0.05000000 </v>
   <v>      -0.05000000       0.35000000       0.05000000 </v>
   <v>       0.45000000       0.45000000       0.05000000 </v>
   <v>      -0.45000000       0.45000000       0.05000000 </v>
   <v>      -0.35000000       0.45000000       0.05000000 </v>
   <v>      -0.25000000       0.45000000       0.05000000 </v>
   <v>      -0.15000000       0.45000000       0.05000000 </v>
   <v>      -0.05000000       0.45000000       0.05000000 </v>
   <v>      -0.45000000      -0.45000000       0.05000000 </v>
   <v>      -0.35000000      -0.45000000       0.05000000 </v>
   <v>      -0.25000000      -0.45000000       0.05000000 </v>
   <v>      -0.15000000      -0.45000000       0.05000000 </v>
   <v>      -0.05000000      -0.45000000       0.05000000 </v>
   <v>      -0.35000000      -0.35000000       0.05000000 </v>
   <v>      -0.25000000      -0.35000000       0.05000000 </v>
   <v>      -0.15000000      -0.35000000       0.05000000 </v>
   <v>      -0.05000000      -0.35000000       0.05000000 </v>
   <v>      -0.25000000      -0.25000000       0.05000000 </v>
   <v>      -0.15000000      -0.25000000       0.05000000 </v>
   <v>      -0.05000000      -0.25000000       0.05000000 </v>
   <v>      -0.15000000      -0.15000000       0.05000000 </v>
   <v>      -0.05000000      -0.15000000       0.05000000 </v>
   <v>      -0.05000000      -0.05000000       0.05000000 </v>
   <v>       0.15000000       0.15000000       0.15000000 </v>
   <v>       0.25000000       0.15000000       0.15000000 </v>
   <v>       0.35000000       0.15000000       0.15000000 </v>
   <v>      -0.15000000       0.15000000       0.15000000 </v>
   <v>       0.25000000       0.25000000       0.15000000 </v>
   <v>       0.35000000       0.25000000       0.15000000 </v>
   <v>       0.45000000       0.25000000       0.15000000 </v>
   <v>      -0.25000000       0.25000000       0.15000000 </v>
   <v>      -0.15000000       0.25000000       0.15000000 </v>
   <v>       0.35000000       0.35000000       0.15000000 </v>
   <v>      -0.35000000       0.35000000       0.15000000 </v>
   <v>      -0.25000000       0.35000000       0.15000000 </v>
   <v>      -0.15000000       0.35000000       0.15000000 </v>
   <v>      -0.45000000       0.45000000       0.15000000 </v>
   <v>      -0.35000000       0.45000000       0.15000000 </v>
   <v>      -0.25000000       0.45000000       0.15000000 </v>
   <v>      -0.15000000       0.45000000       0.15000000 </v>
   <v>      -0.45000000      -0.45000000       0.15000000 </v>
   <v>      -0.35000000      -0.45000000       0.15000000 </v>
   <v>      -0.25000000      -0.45000000       0.15000000 </v>
   <v>      -0.15000000      -0.45000000       0.15000000 </v>
   <v>      -0.35000000      -0.35000000       0.15000000 </v>
   <v>      -0.25000000      -0.35000000       0.15000000 </v>
   <v>      -0.15000000      -0.35000000       0.15000000 </v>
   <v>      -0.25000000      -0.25000000       0.15000000 </v>
   <v>      -0.15000000      -0.25000000       0.15000000 </v>
   <v>      -0.15000000      -0.15000000       0.15000000 </v>
   <v>       0.25000000       0.25000000       0.25000000 </v>
   <v>      -0.25000000       0.25000000       0.25000000 </v>
   <v>      -0.35000000       0.35000000       0.25000000 </v>
   <v>      -0.25000000       0.35000000       0.25000000 </v>
   <v>      -0.45000000       0.45000000       0.25000000 </v>
   <v>      -0.35000000       0.45000000       0.25000000 </v>
   <v>      -0.25000000       0.45000000       0.25000000 </v>
   <v>      -0.45000000      -0.45000000       0.25000000 </v>
   <v>      -0.35000000      -0.45000000       0.25000000 </v>
   <v>      -0.25000000      -0.45000000       0.25000000 </v>
   <v>      -0.35000000      -0.35000000       0.25000000 </v>
   <v>      -0.25000000      -0.35000000       0.25000000 </v>
   <v>      -0.25000000      -0.25000000       0.25000000 </v>
   <v>      -0.35000000       0.35000000       0.35000000 </v>
   <v>      -0.45000000       0.45000000       0.35000000 </v>
   <v>      -0.35000000       0.45000000       0.35000000 </v>
   <v>      -0.45000000      -0.45000000       0.35000000 </v>
   <v>      -0.35000000      -0.45000000       0.35000000 </v>
   <v>      -0.35000000      -0.35000000       0.35000000 </v>
   <v>      -0.45000000       0.45000000       0.45000000 </v>
   <v>      -0.45000000      -0.45000000       0.45000000 </v>
  </varray>
  <varray name="weights" >
   <v>       0.00800000 </v>
   <v>       0.01600000 </v>
   <v>       0.01600000 </v>
   <v>       0.01600000 </v>
   <v>       0.00800000 </v>
   <v>       0.00400000 </v>
   <v>       0.00800000 </v>
   <v>       0.01600000 </v>
   <v>       0.01600000 </v>
   <v>       0.01600000 </v>
   <v>       0.01600000 </v>
   <v>       0.01600000 </v>
   <v>       0.00800000 </v>
   <v>       0.00800000 </v>
   <v>       0.00800000 </v>
   <v>       0.00800000 </v>
   <v>       0.01600000 </v>
   <v>       0.01600000 </v>
   <v>       0.01600000 </v>
   <v>       0.00800000 </v>
   <v>       0.00800000 </v>
   <v>       0.01600000 </v>
   <v>       0.00800000 </v>
   <v>       0.00800000 </v>
   <v>       0.01600000 </v>
   <v>       0.00800000 </v>
   <v>       0.00800000 </v>
   <v>       0.01600000 </v>
   <v>       0.01600000 </v>
   <v>       0.00800000 </v>
   <v>       0.00400000 </v>
   <v>       0.00800000 </v>
   <v>       0.01600000 </v>
   <v>       0.01600000 </v>
   <v>       0.01600000 </v>
   <v>       0.00800000 </v>
   <v>       0.00800000 </v>
   <v>       0.01600000 </v>
   <v>       0.01600000 </v>
   <v>       0.01600000 </v>
   <v>       0.00800000 </v>
   <v>       0.00800000 </v>
   <v>       0.01600000 </v>
   <v>       0.01600000 </v>
   <v>       0.00800000 </v>
   <v>       0.00800000 </v>
   <v>       0.01600000 </v>
   <v>       0.00800000 </v>
   <v>       0.00800000 </v>
   <v>       0.00800000 </v>
   <v>       0.00200000 </v>
   <v>       0.00800000 </v>
   <v>       0.01600000 </v>
   <v>       0.00800000 </v>
   <v>       0.00400000 </v>
   <v>       0.00800000 </v>
   <v>       0.01600000 </v>
   <v>       0.00800000 </v>
   <v>       0.00800000 </v>
   <v>       0.00800000 </v>
   <v>       0.00400000 </v>
   <v>       0.00800000 </v>
   <v>       0.01600000 </v>
   <v>       0.00800000 </v>
   <v>       0.00800000 </v>
   <v>       0.01600000 </v>
   <v>       0.01600000 </v>
   <v>       0.00800000 </v>
   <v>       0.00800000 </v>
   <v>       0.01600000 </v>
   <v>       0.01600000 </v>
   <v>       0.00800000 </v>
   <v>       0.00800000 </v>
   <v>       0.01600000 </v>
   <v>       0.00800000 </v>
   <v>       0.00800000 </v>
   <v>       0.00800000 </v>
   <v>       0.00200000 </v>
   <v>       0.00200000 </v>
   <v>       0.00400000 </v>
   <v>       0.00800000 </v>
   <v>       0.00800000 </v>
   <v>       0.00800000 </v>
   <v>       0.01600000 </v>
   <v>       0.00800000 </v>
   <v>       0.00800000 </v>
   <v>       0.01600000 </v>
   <v>       0.00800000 </v>
   <v>       0.00800000 </v>
   <v>       0.00800000 </v>
   <v>       0.00200000 </v>
   <v>       0.00400000 </v>
   <v>       0.00800000 </v>
   <v>       0.00800000 </v>
   <v>       0.00800000 </v>
   <v>       0.00800000 </v>
   <v>       0.00200000 </v>
   <v>       0.00400000 </v>
   <v>       0.00200000 </v>
  </varray>
 </kpoints>
 <parameters>
  <separator name="general" >
   <i type="string" name="SYSTEM">unknown system</i>
   <i type="logical" name="LCOMPAT"> F  </i>
  </separator>
  <separator name="electronic" >
   <i type="string" name="PREC">normal</i>
   <i name="ENMAX">    200.00000000</i>
   <i name="ENAUG">    322.06900000</i>
   <i name="EDIFF">      0.00040000</i>
   <i type="int" name="IALGO">    38</i>
   <i type="int" name="IWAVPR">    11</i>
   <i type="int" name="NBANDS">     8</i>
   <i name="NELECT">      8.00000000</i>
   <i type="int" name="TURBO">     0</i>
   <i type="int" name="IRESTART">     0</i>
   <i type="int" name="NREBOOT">     0</i>
   <i type="int" name="NMIN">     0</i>
   <i name="EREF">      0.00000000</i>
   <separator name="electronic smearing" >
    <i type="int" name="ISMEAR">     0</i>
    <i name="SIGMA">      0.20000000</i>
    <i name="KSPACING">      0.50000000</i>
    <i type="logical" name="KGAMMA"> T  </i>
   </separator>
   <separator name="electronic projectors" >
    <i type="logical" name="LREAL"> F  </i>
    <v name="ROPT">      0.00000000</v>
    <i type="int" name="LMAXPAW">  -100</i>
    <i type="int" name="LMAXMIX">     2</i>
    <i type="logical" name="NLSPLINE"> F  </i>
   </separator>
   <separator name="electronic startup" >
    <i type="int" name="ISTART">     1</i>
    <i type="int" name="ICHARG">     0</i>
    <i type="int" name="INIWAV">     1</i>
   </separator>
   <separator name="electronic spin" >
    <i type="int" name="ISPIN">     1</i>
    <i type="logical" name="LNONCOLLINEAR"> F  </i>
    <v name="MAGMOM">      1.00000000      1.00000000</v>
    <i name="NUPDOWN">     -1.00000000</i>
    <i type="logical" name="LSORBIT"> F  </i>
    <v name="SAXIS">      0.00000000      0.00000000      1.00000000</v>
    <i type="logical" name="LSPIRAL"> F  </i>
    <v name="QSPIRAL">      0.00000000      0.00000000      0.00000000</v>
    <i type="logical" name="LZEROZ"> F  </i>
   </separator>
   <separator name="electronic exchange-correlation" >
    <i type="logical" name="LASPH"> F  </i>
    <i type="logical" name="LMETAGGA"> F  </i>
   </separator>
   <separator name="electronic convergence" >
    <i type="int" name="NELM">    60</i>
    <i type="int" name="NELMDL">     0</i>
    <i type="int" name="NELMIN">     2</i>
    <i name="ENINI">    200.00000000</i>
    <separator name="electronic convergence detail" >
     <i type="logical" name="LDIAG"> T  </i>
     <i type="logical" name="LSUBROT"> F  </i>
     <i name="WEIMIN">      0.00100000</i>
     <i name="EBREAK">      0.00001250</i>
     <i name="DEPER">      0.30000000</i>
     <i type="int" name="NRMM">     4</i>
     <i name="TIME">      0.40000000</i>
    </separator>
   </separator>
   <separator name="electronic mixer" >
    <i name="AMIX">      0.40000000</i>
    <i name="BMIX">      1.00000000</i>
    <i name="AMIN">      0.10000000</i>
    <i name="AMIX_MAG">      1.60000000</i>
    <i name="BMIX_MAG">      1.00000000</i>
    <separator name="electronic mixer details" >
     <i type="int" name="IMIX">     4</i>
     <i type="logical" name="MIXFIRST"> F  </i>
     <i type="int" name="MAXMIX">   -45</i>
     <i name="WC">    100.00000000</i>
     <i type="int" name="INIMIX">     1</i>
     <i type="int" name="MIXPRE">     1</i>
     <i type="int" name="MREMOVE">     5</i>
    </separator>
   </separator>
   <separator name="electronic dipolcorrection" >
    <i type="logical" name="LDIPOL"> F  </i>
    <i type="logical" name="LMONO"> F  </i>
    <i type="int" name="IDIPOL">     0</i>
    <i name="EPSILON">      1.00000000</i>
    <v name="DIPOL">   -100.00000000   -100.00000000   -100.00000000</v>
    <i name="EFIELD">      0.00000000</i>
   </separator>
  </separator>
  <separator name="grids" >
   <i type="int" name="NGX">    14</i>
   <i type="int" name="NGY">    14</i>
   <i type="int" name="NGZ">    14</i>
   <i type="int" name="NGXF">    28</i>
   <i type="int" name="NGYF">    28</i>
   <i type="int" name="NGZF">    28</i>
   <i type="logical" name="ADDGRID"> F  </i>
  </separator>
  <separator name="ionic" >
   <i type="int" name="NSW">    15</i>
   <i type="int" name="IBRION">     2</i>
   <i type="int" name="MDALGO">     0</i>
   <i type="int" name="ISIF">     2</i>
   <i name="PSTRESS">      0.00000000</i>
   <i name="EDIFFG">     -0.01000000</i>
   <i type="int" name="NFREE">     1</i>
   <i name="POTIM">      0.50000000</i>
   <i name="SMASS">     -3.00000000</i>
   <i name="SCALEE">      1.00000000</i>
  </separator>
  <separator name="ionic md" >
   <i name="TEBEG">      0.00010000</i>
   <i name="TEEND">      0.00010000</i>
   <i type="int" name="NBLOCK">     1</i>
   <i type="int" name="KBLOCK">    15</i>
   <i type="int" name="NPACO">   256</i>
   <i name="APACO">     16.00000000</i>
  </separator>
  <separator name="symmetry" >
   <i type="int" name="ISYM">     2</i>
   <i name="SYMPREC">      0.00001000</i>
  </separator>
  <separator name="dos" >
   <i type="int" name="LORBIT">     0</i>
   <v name="RWIGS">     -1.00000000</v>
   <i type="int" name="NEDOS">   301</i>
   <i name="EMIN">     10.00000000</i>
   <i name="EMAX">    -10.00000000</i>
   <i name="EFERMI">      0.00000000</i>
  </separator>
  <separator name="writing" >
   <i type="int" name="NWRITE">     2</i>
   <i type="logical" name="LWAVE"> T  </i>
   <i type="logical" name="LDOWNSAMPLE"> F  </i>
   <i type="logical" name="LCHARG"> T  </i>
   <i type="logical" name="LPARD"> F  </i>
   <i type="logical" name="LVTOT"> F  </i>
   <i type="logical" name="LVHAR"> F  </i>
   <i type="logical" name="LELF"> F  </i>
   <i type="logical" name="LOPTICS"> F  </i>
   <v name="STM">      0.00000000      0.00000000      0.00000000      0.00000000      0.00000000      0.00000000      0.00000000</v>
  </separator>
  <separator name="performance" >
   <i type="int" name="NPAR">     8</i>
   <i type="int" name="NSIM">     4</i>
   <i type="int" name="NBLK">    -1</i>
   <i type="logical" name="LPLANE"> T  </i>
   <i type="logical" name="LSCALAPACK"> T  </i>
   <i type="logical" name="LSCAAWARE"> F  </i>
   <i type="logical" name="LSCALU"> F  </i>
   <i type="logical" name="LASYNC"> F  </i>
   <i type="logical" name="LORBITALREAL"> F  </i>
  </separator>
  <separator name="miscellaneous" >
   <i type="int" name="IDIOT">     3</i>
   <i type="int" name="ISPECIAL">     0</i>
   <i type="logical" name="LMUSIC"> F  </i>
   <v name="POMASS">     28.08500000</v>
   <v name="DARWINR">      0.00000000</v>
   <v name="DARWINV">      1.00000000</v>
   <i type="logical" name="LCORR"> T  </i>
  </separator>
  <i type="logical" name="GGA_COMPAT"> T  </i>
  <i type="logical" name="LBERRY"> F  </i>
  <i type="int" name="ICORELEVEL">     0</i>
  <i type="logical" name="LDAU"> F  </i>
  <i type="int" name="I_CONSTRAINED_M">     0</i>
  <separator name="electronic exchange-correlation" >
   <i type="string" name="GGA">--</i>
   <i type="int" name="VOSKOWN">     0</i>
   <i type="logical" name="LHFCALC"> F  </i>
   <i type="string" name="PRECFOCK"></i>
   <i type="logical" name="LSYMGRAD"> F  </i>
   <i type="logical" name="LHFONE"> F  </i>
   <i type="logical" name="LRHFCALC"> F  </i>
   <i type="logical" name="LTHOMAS"> F  </i>
   <i type="logical" name="LMODELHF"> F  </i>
   <i name="ENCUT4O">     -1.00000000</i>
   <i type="int" name="EXXOEP">     0</i>
   <i type="int" name="FOURORBIT">     0</i>
   <i name="AEXX">      0.00000000</i>
   <i name="HFALPHA">      0.00000000</i>
   <i name="MCALPHA">      0.00000000</i>
   <i name="ALDAX">      1.00000000</i>
   <i name="AGGAX">      1.00000000</i>
   <i name="ALDAC">      1.00000000</i>
   <i name="AGGAC">      1.00000000</i>
   <i type="int" name="NKREDX">     1</i>
   <i type="int" name="NKREDY">     1</i>
   <i type="int" name="NKREDZ">     1</i>
   <i type="logical" name="SHIFTRED"> F  </i>
   <i type="logical" name="ODDONLY"> F  </i>
   <i type="logical" name="EVENONLY"> F  </i>
   <i type="int" name="LMAXFOCK">     0</i>
   <i type="int" name="NMAXFOCKAE">     0</i>
   <i type="logical" name="LFOCKAEDFT"> F  </i>
   <i name="HFSCREEN">      0.00000000</i>
   <i name="HFSCREENC">      0.00000000</i>
   <i type="int" name="NBANDSGWLOW">     0</i>
  </separator>
  <separator name="vdW DFT" >
   <i type="logical" name="LUSE_VDW"> F  </i>
   <i name="Zab_VDW">     -0.84910000</i>
   <i name="PARAM1">      0.12340000</i>
   <i name="PARAM2">      1.00000000</i>
   <i name="PARAM3">      0.00000000</i>
  </separator>
  <separator name="model GW" >
   <i type="int" name="MODEL_GW">     0</i>
   <i name="MODEL_EPS0">      9.17662200</i>
   <i name="MODEL_ALPHA">      1.00000000</i>
  </separator>
  <separator name="linear response parameters" >
   <i type="logical" name="LEPSILON"> F  </i>
   <i type="logical" name="LRPA"> F  </i>
   <i type="logical" name="LNABLA"> F  </i>
   <i type="logical" name="LVEL"> F  </i>
   <i type="int" name="KINTER">     0</i>
   <i name="CSHIFT">      0.10000000</i>
   <i name="OMEGAMAX">     -1.00000000</i>
   <i name="DEG_THRESHOLD">      0.00200000</i>
   <i name="RTIME">     -0.10000000</i>
   <i name="WPLASMAI">      0.00000000</i>
   <v name="DFIELD">      0.00000000      0.00000000      0.00000000</v>
   <v name="WPLASMA">      0.00000000      0.00000000      0.00000000      0.00000000      0.00000000      0.00000000      0.00000000      0.00000000      0.00000000</v>
  </separator>
  <separator name="orbital magnetization" >
   <i type="logical" name="NUCIND"> F  </i>
   <v name="MAGPOS">      0.00000000      0.00000000      0.00000000</v>
   <i type="logical" name="LNICSALL"> T  </i>
   <i type="logical" name="ORBITALMAG"> F  </i>
   <i type="logical" name="LMAGBLOCH"> F  </i>
   <i type="logical" name="LCHIMAG"> F  </i>
   <i type="logical" name="LGAUGE"> T  </i>
   <i type="int" name="MAGATOM">     0</i>
   <v name="MAGDIPOL">      0.00000000      0.00000000      0.00000000</v>
   <v name="AVECCONST">      0.00000000      0.00000000      0.00000000</v>
  </separator>
  <separator name="response functions" >
   <i type="logical" name="LADDER"> F  </i>
   <i type="logical" name="LRPAFORCE"> F  </i>
   <i type="logical" name="LFXC"> F  </i>
   <i type="logical" name="LHARTREE"> T  </i>
   <i type="int" name="IBSE">     0</i>
   <v type="int" name="KPOINT">    -1     0     0     0</v>
   <i type="logical" name="LTCTE"> F  </i>
   <i type="logical" name="LTETE"> F  </i>
   <i type="logical" name="LTRIPLET"> F  </i>
   <i type="logical" name="LFXCEPS"> F  </i>
   <i type="logical" name="LFXHEG"> F  </i>
   <i type="int" name="NATURALO">     2</i>
   <i type="logical" name="L2ORDER"> F  </i>
   <i type="logical" name="LMP2LT"> F  </i>
   <i type="logical" name="LUSEW"> F  </i>
   <i name="ENCUTGW">     -2.00000000</i>
   <i name="ENCUTGWSOFT">     -2.00000000</i>
   <i name="ENCUTLF">     -1.00000000</i>
   <i type="int" name="LMAXMP2">    -1</i>
   <i name="SCISSOR">      0.00000000</i>
   <i type="int" name="NOMEGA">     0</i>
   <i type="int" name="NOMEGAR">     0</i>
   <i type="int" name="NBANDSGW">    -1</i>
   <i type="int" name="NBANDSO">    -1</i>
   <i type="int" name="NBANDSV">    -1</i>
   <i type="int" name="NELM">     1</i>
   <i type="int" name="NELMHF">     1</i>
   <i type="int" name="DIM">     3</i>
   <i type="int" name="ANTIRES">     0</i>
   <i name="OMEGAMAX">    -30.00000000</i>
   <i name="OMEGAMIN">    -30.00000000</i>
   <i name="OMEGATL">   -200.00000000</i>
   <i type="int" name="OMEGAGRID">   140</i>
   <i name="CSHIFT">     -0.10000000</i>
   <i type="logical" name="SELFENERGY"> F  </i>
   <i type="logical" name="LSPECTRAL"> F  </i>
   <i type="logical" name="LSPECTRALGW"> F  </i>
   <i type="logical" name="LSINGLES"> F  </i>
   <i type="logical" name="LFERMIGW"> F  </i>
   <i type="logical" name="ODDONLYGW"> F  </i>
   <i type="logical" name="EVENONLYGW"> F  </i>
   <i type="int" name="NKREDLFX">     1</i>
   <i type="int" name="NKREDLFY">     1</i>
   <i type="int" name="NKREDLFZ">     1</i>
   <i type="int" name="MAXMEM">  2800</i>
   <i type="int" name="TELESCOPE">     0</i>
   <i type="int" name="TAUPAR">     1</i>
   <i type="int" name="OMEGAPAR">    -1</i>
   <i name="LAMBDA">      1.00000000</i>
  </separator>
  <separator name="External order field" >
   <i name="OFIELD_KAPPA">      0.00000000</i>
   <v name="OFIELD_K">      0.00000000      0.00000000      0.00000000</v>
   <i name="OFIELD_Q6_NEAR">      0.00000000</i>
   <i name="OFIELD_Q6_FAR">      0.00000000</i>
   <i name="OFIELD_A">      0.00000000</i>
  </separator>
 </parameters>
 <atominfo>
  <atoms>       2 </atoms>
  <types>       1 </types>
  <array name="atoms" >
   <dimension dim="1">ion</dimension>
   <field type="string">element</field>
   <field type="int">atomtype</field>
   <set>
    <rc><c>Si</c><c>   1</c></rc>
    <rc><c>Si</c><c>   1</c></rc>
   </set>
  </array>
  <array name="atomtypes" >
   <dimension dim="1">type</dimension>
   <field type="int">atomspertype</field>
   <field type="string">element</field>
   <field>mass</field>
   <field>valence</field>
   <field type="string">pseudopotential</field>
   <set>
    <rc><c>   2</c><c>Si</c><c>     28.08500000</c><c>      4.00000000</c><c> PAW_PBE Si 05Jan2001                   </c></rc>
   </set>
  </array>
 </atominfo>
 <structure name="initialpos" >
  <crystal>
   <varray name="basis" >
    <v>      -2.45000000       2.45000000       1.27400000 </v>
    <v>       2.45000000      -2.45000000       1.27400000 </v>
    <v>       2.45000000       2.45000000      -1.27400000 </v>
   </varray>
   <i name="volume">     30.58874000 </i>
   <varray name="rec_basis" >
    <v>       0.00000000       0.20408163       0.39246468 </v>
    <v>       0.20408163       0.00000000       0.39246468 </v>
    <v>       0.20408163       0.20408163      -0.00000000 </v>
   </varray>
  </crystal>
  <varray name="positions" >
   <v>       0.25000000       0.75000000       0.50000000 </v>
   <v>       0.00000000       0.00000000       0.00000000 </v>
  </varray>
 </structure>
 <calculation>
  <scstep>
   <time name="dav">    0.52    0.52</time>
   <time name="total">    0.58    0.64</time>
   <energy>
    <i name="alphaZ">      4.40202223 </i>
    <i name="ewald">   -265.18101312 </i>
    <i name="hartreedc">     -2.50972925 </i>
    <i name="XCdc">    -17.56024609 </i>
    <i name="pawpsdc">     71.44121173 </i>
    <i name="pawaedc">    -36.36493124 </i>
    <i name="eentropy">     -0.01655262 </i>
    <i name="bandstr">     29.48389643 </i>
    <i name="atom">    206.11247263 </i>
    <i name="e_fr_energy">    -10.19286930 </i>
    <i name="e_wo_entrp">    -10.17631668 </i>
    <i name="e_0_energy">    -10.18459299 </i>
   </energy>
  </scstep>
  <scstep>
   <time name="dav">    0.46    0.46</time>
   <time name="total">    0.49    0.50</time>
   <energy>
    <i name="alphaZ">      4.40202223 </i>
    <i name="ewald">   -265.18101312 </i>
    <i name="hartreedc">     -2.51016102 </i>
    <i name="XCdc">    -17.56021246 </i>
    <i name="pawpsdc">     71.44145853 </i>
    <i name="pawaedc">    -36.36519012 </i>
    <i name="eentropy">     -0.01655502 </i>
    <i name="bandstr">     29.48431033 </i>
    <i name="atom">    206.11247263 </i>
    <i name="e_fr_energy">    -10.19286801 </i>
    <i name="e_wo_entrp">    -10.17631299 </i>
    <i name="e_0_energy">    -10.18459050 </i>
   </energy>
  </scstep>
  <structure>
   <crystal>
    <varray name="basis" >
     <v>      -2.45000000       2.45000000       1.27400000 </v>
     <v>       2.45000000      -2.45000000       1.27400000 </v>
     <v>       2.45000000       2.45000000      -1.27400000 </v>
    </varray>
    <i name="volume">     30.58874000 </i>
    <varray name="rec_basis" >
     <v>       0.00000000       0.20408163       0.39246468 </v>
     <v>       0.20408163       0.00000000       0.39246468 </v>
     <v>       0.20408163       0.20408163      -0.00000000 </v>
    </varray>
   </crystal>
   <varray name="positions" >
    <v>       0.25000000       0.75000000       0.50000000 </v>
    <v>       0.00000000       0.00000000       0.00000000 </v>
   </varray>
  </structure>
  <varray name="forces" >
   <v>       0.00000000      -0.00000000      -0.00000000 </v>
   <v>      -0.00000000       0.00000000       0.00000000 </v>
  </varray>
  <varray name="stress" >
   <v>     -10.87349472       0.00000000       0.00000000 </v>
   <v>      -0.00000000     -10.87349472       0.00000000 </v>
   <v>       0.00000000       0.00000000      32.05790116 </v>
  </varray>
  <energy>
   <i name="e_fr_energy">    -10.19286801 </i>
   <i name="e_wo_entrp">    -10.18459050 </i>
   <i name="e_0_energy">     -0.01655502 </i>
  </energy>
  <time name="totalsc">    2.11    3.17</time>
  <eigenvalues>
   <array>
    <dimension dim="1">band</dimension>
    <dimension dim="2">kpoint</dimension>
    <dimension dim="3">spin</dimension>
    <field>eigene</field>
    <field>occ</field>
    <set>
     <set comment="spin 1">
      <set comment="kpoint 1">
       <r>   -4.2715    1.0000 </r>
       <r>    4.7356    1.0000 </r>
       <r>    6.6060    1.0000 </r>
       <r>    7.7504    1.0000 </r>
       <r>   11.5469    0.0000 </r>
       <r>   15.0953    0.0000 </r>
       <r>   16.1359    0.0000 </r>
       <r>   17.0052    0.0000 </r>
      </set>
      <set comment="kpoint 2">
       <r>   -3.4273    1.0000 </r>
       <r>    4.4614    1.0000 </r>
       <r>    6.8653    1.0000 </r>
       <r>    9.1523    0.3270 </r>
       <r>   12.6363    0.0000 </r>
       <r>   13.0813    0.0000 </r>
       <r>   13.4586    0.0000 </r>
       <r>   15.4033    0.0000 </r>
      </set>
      <set comment="kpoint 3">
       <r>   -2.0301    1.0000 </r>
       <r>    4.6675    1.0000 </r>
       <r>    7.1821    1.0000 </r>
       <r>    8.5964    0.9998 </r>
       <r>   10.7165    0.0000 </r>
       <r>   12.0255    0.0000 </r>
       <r>   13.7287    0.0000 </r>
       <r>   14.4483    0.0000 </r>
      </set>
      <set comment="kpoint 4">
       <r>   -0.0967    1.0000 </r>
       <r>    5.1205    1.0000 </r>
       <r>    5.6109    1.0000 </r>
       <r>    7.6033    1.0000 </r>
       <r>    8.9009    0.9082 </r>
       <r>   11.8259    0.0000 </r>
       <r>   13.7548    0.0000 </r>
       <r>   14.2027    0.0000 </r>
      </set>
      <set comment="kpoint 5">
       <r>    2.0964    1.0000 </r>
       <r>    2.6454    1.0000 </r>
       <r>    6.5185    1.0000 </r>
       <r>    6.6731    1.0000 </r>
       <r>    8.8182    0.9722 </r>
       <r>   10.8068    0.0000 </r>
       <r>   13.5664    0.0000 </r>
       <r>   14.5794    0.0000 </r>
      </set>
      <set comment="kpoint 6">
       <r>   -4.5538    1.0000 </r>
       <r>    5.1763    1.0000 </r>
       <r>    6.0596    1.0000 </r>
       <r>    7.4289    1.0000 </r>
       <r>   10.9550    0.0000 </r>
       <r>   15.5430    0.0000 </r>
       <r>   17.4265    0.0000 </r>
       <r>   18.1320    0.0000 </r>
      </set>
      <set comment="kpoint 7">
       <r>   -2.1473    1.0000 </r>
       <r>    4.6296    1.0000 </r>
       <r>    8.1658    1.0000 </r>
       <r>    9.0787    0.5287 </r>
       <r>   10.1521    0.0000 </r>
       <r>   11.0048    0.0000 </r>
       <r>   14.5478    0.0000 </r>
       <r>   14.5494    0.0000 </r>
      </set>
      <set comment="kpoint 8">
       <r>   -0.3267    1.0000 </r>
       <r>    5.2265    1.0000 </r>
       <r>    6.2084    1.0000 </r>
       <r>    7.1362    1.0000 </r>
       <r>    9.7988    0.0000 </r>
       <r>   12.4096    0.0000 </r>
       <r>   12.8365    0.0000 </r>
       <r>   13.7158    0.0000 </r>
      </set>
      <set comment="kpoint 9">
       <r>    1.9647    1.0000 </r>
       <r>    3.2195    1.0000 </r>
       <r>    5.3457    1.0000 </r>
       <r>    6.3772    1.0000 </r>
       <r>    9.8830    0.0000 </r>
       <r>   11.7842    0.0000 </r>
       <r>   12.8369    0.0000 </r>
       <r>   15.3204    0.0000 </r>
      </set>
      <set comment="kpoint 10">
       <r>    0.5933    1.0000 </r>
       <r>    3.9053    1.0000 </r>
       <r>    4.9610    1.0000 </r>
       <r>    7.6470    1.0000 </r>
       <r>    9.2125    0.1911 </r>
       <r>   12.2040    0.0000 </r>
       <r>   13.4738    0.0000 </r>
       <r>   15.2029    0.0000 </r>
      </set>
      <set comment="kpoint 11">
       <r>   -1.4443    1.0000 </r>
       <r>    3.0977    1.0000 </r>
       <r>    7.5744    1.0000 </r>
       <r>    8.2101    1.0000 </r>
       <r>   10.3569    0.0000 </r>
       <r>   12.5749    0.0000 </r>
       <r>   12.8517    0.0000 </r>
       <r>   15.3297    0.0000 </r>
      </set>
      <set comment="kpoint 12">
       <r>   -2.9544    1.0000 </r>
       <r>    2.7698    1.0000 </r>
       <r>    7.2798    1.0000 </r>
       <r>    9.8329    0.0000 </r>
       <r>   12.0185    0.0000 </r>
       <r>   12.5251    0.0000 </r>
       <r>   14.0741    0.0000 </r>
       <r>   15.5495    0.0000 </r>
      </set>
      <set comment="kpoint 13">
       <r>   -3.9150    1.0000 </r>
       <r>    2.9594    1.0000 </r>
       <r>    6.9363    1.0000 </r>
       <r>    8.5728    0.9999 </r>
       <r>   13.2593    0.0000 </r>
       <r>   13.5449    0.0000 </r>
       <r>   15.0068    0.0000 </r>
       <r>   16.5067    0.0000 </r>
      </set>
      <set comment="kpoint 14">
       <r>   -4.3158    1.0000 </r>
       <r>    3.6241    1.0000 </r>
       <r>    6.0939    1.0000 </r>
       <r>    8.4830    1.0000 </r>
       <r>   12.2577    0.0000 </r>
       <r>   13.7446    0.0000 </r>
       <r>   16.2933    0.0000 </r>
       <r>   19.3788    0.0000 </r>
      </set>
      <set comment="kpoint 15">
       <r>   -4.1527    1.0000 </r>
       <r>    4.4130    1.0000 </r>
       <r>    5.6956    1.0000 </r>
       <r>    8.8711    0.9382 </r>
       <r>   12.0726    0.0000 </r>
       <r>   13.8636    0.0000 </r>
       <r>   15.9785    0.0000 </r>
       <r>   17.6689    0.0000 </r>
      </set>
      <set comment="kpoint 16">
       <r>    1.8710    1.0000 </r>
       <r>    4.1437    1.0000 </r>
       <r>    4.2244    1.0000 </r>
       <r>    6.2995    1.0000 </r>
       <r>   10.5309    0.0000 </r>
       <r>   11.6994    0.0000 </r>
       <r>   13.5514    0.0000 </r>
       <r>   14.2030    0.0000 </r>
      </set>
      <set comment="kpoint 17">
       <r>    1.5034    1.0000 </r>
       <r>    2.6207    1.0000 </r>
       <r>    4.7173    1.0000 </r>
       <r>    7.6219    1.0000 </r>
       <r>    9.8043    0.0000 </r>
       <r>   11.1882    0.0000 </r>
       <r>   14.8689    0.0000 </r>
       <r>   15.7795    0.0000 </r>
      </set>
      <set comment="kpoint 18">
       <r>   -0.6291    1.0000 </r>
       <r>    1.6580    1.0000 </r>
       <r>    7.7448    1.0000 </r>
       <r>    8.3654    1.0000 </r>
       <r>    9.9512    0.0000 </r>
       <r>   11.6854    0.0000 </r>
       <r>   13.4428    0.0000 </r>
       <r>   15.4352    0.0000 </r>
      </set>
      <set comment="kpoint 19">
       <r>   -2.2482    1.0000 </r>
       <r>    1.2130    1.0000 </r>
       <r>    7.9168    1.0000 </r>
       <r>   10.3460    0.0000 </r>
       <r>   11.0750    0.0000 </r>
       <r>   12.1242    0.0000 </r>
       <r>   13.4755    0.0000 </r>
       <r>   14.4811    0.0000 </r>
      </set>
      <set comment="kpoint 20">
       <r>   -3.3226    1.0000 </r>
       <r>    1.3032    1.0000 </r>
       <r>    7.4872    1.0000 </r>
       <r>    9.3074    0.0612 </r>
       <r>   11.8349    0.0000 </r>
       <r>   13.6588    0.0000 </r>
       <r>   15.4734    0.0000 </r>
       <r>   16.1128    0.0000 </r>
      </set>
      <set comment="kpoint 21">
       <r>   -3.8407    1.0000 </r>
       <r>    1.9171    1.0000 </r>
       <r>    6.5211    1.0000 </r>
       <r>    9.2517    0.1248 </r>
       <r>   12.0386    0.0000 </r>
       <r>   14.4604    0.0000 </r>
       <r>   14.8000    0.0000 </r>
       <r>   19.0767    0.0000 </r>
      </set>
      <set comment="kpoint 22">
       <r>   -3.7966    1.0000 </r>
       <r>    2.9980    1.0000 </r>
       <r>    5.6667    1.0000 </r>
       <r>    9.9256    0.0000 </r>
       <r>   12.1637    0.0000 </r>
       <r>   13.6635    0.0000 </r>
       <r>   15.3628    0.0000 </r>
       <r>   16.9701    0.0000 </r>
      </set>
      <set comment="kpoint 23">
       <r>   -3.1909    1.0000 </r>
       <r>    4.1789    1.0000 </r>
       <r>    5.6452    1.0000 </r>
       <r>   10.3269    0.0000 </r>
       <r>   12.3561    0.0000 </r>
       <r>   12.6179    0.0000 </r>
       <r>   13.8334    0.0000 </r>
       <r>   15.0772    0.0000 </r>
      </set>
      <set comment="kpoint 24">
       <r>    0.4045    1.0000 </r>
       <r>    0.4125    1.0000 </r>
       <r>    7.6867    1.0000 </r>
       <r>    8.7570    0.9905 </r>
       <r>    9.6451    0.0000 </r>
       <r>   11.2646    0.0000 </r>
       <r>   14.0642    0.0000 </r>
       <r>   14.8372    0.0000 </r>
      </set>
      <set comment="kpoint 25">
       <r>   -1.3128    1.0000 </r>
       <r>   -0.1551    1.0000 </r>
       <r>    8.7526    0.9913 </r>
       <r>    9.7464    0.0000 </r>
       <r>   10.9523    0.0000 </r>
       <r>   12.1541    0.0000 </r>
       <r>   13.1937    0.0000 </r>
       <r>   13.5164    0.0000 </r>
      </set>
      <set comment="kpoint 26">
       <r>   -2.4979    1.0000 </r>
       <r>   -0.1744    1.0000 </r>
       <r>    8.2560    1.0000 </r>
       <r>   10.1449    0.0000 </r>
       <r>   10.4469    0.0000 </r>
       <r>   12.3475    0.0000 </r>
       <r>   15.8551    0.0000 </r>
       <r>   15.8673    0.0000 </r>
      </set>
      <set comment="kpoint 27">
       <r>   -3.1311    1.0000 </r>
       <r>    0.3484    1.0000 </r>
       <r>    7.1873    1.0000 </r>
       <r>   10.0408    0.0000 </r>
       <r>   10.5091    0.0000 </r>
       <r>   13.3741    0.0000 </r>
       <r>   16.9859    0.0000 </r>
       <r>   18.8856    0.0000 </r>
      </set>
      <set comment="kpoint 28">
       <r>   -3.2054    1.0000 </r>
       <r>    1.3944    1.0000 </r>
       <r>    6.1705    1.0000 </r>
       <r>   10.5446    0.0000 </r>
       <r>   10.7488    0.0000 </r>
       <r>   14.4703    0.0000 </r>
       <r>   15.7892    0.0000 </r>
       <r>   16.2431    0.0000 </r>
      </set>
      <set comment="kpoint 29">
       <r>   -2.7197    1.0000 </r>
       <r>    2.8968    1.0000 </r>
       <r>    5.6440    1.0000 </r>
       <r>   10.4988    0.0000 </r>
       <r>   11.1087    0.0000 </r>
       <r>   12.7208    0.0000 </r>
       <r>   14.6260    0.0000 </r>
       <r>   15.8480    0.0000 </r>
      </set>
      <set comment="kpoint 30">
       <r>   -1.6786    1.0000 </r>
       <r>    4.4706    1.0000 </r>
       <r>    6.0169    1.0000 </r>
       <r>    7.9550    1.0000 </r>
       <r>   10.9276    0.0000 </r>
       <r>   12.9848    0.0000 </r>
       <r>   13.7519    0.0000 </r>
       <r>   13.8307    0.0000 </r>
      </set>
      <set comment="kpoint 31">
       <r>   -1.4458    1.0000 </r>
       <r>   -1.4458    1.0000 </r>
       <r>    9.2413    0.1406 </r>
       <r>    9.2413    0.1406 </r>
       <r>   11.1716    0.0000 </r>
       <r>   11.1716    0.0000 </r>
       <r>   15.7902    0.0000 </r>
       <r>   15.7902    0.0000 </r>
      </set>
      <set comment="kpoint 32">
       <r>   -2.1914    1.0000 </r>
       <r>   -1.0279    1.0000 </r>
       <r>    8.0763    1.0000 </r>
       <r>    9.1862    0.2457 </r>
       <r>   10.9765    0.0000 </r>
       <r>   12.0878    0.0000 </r>
       <r>   18.6124    0.0000 </r>
       <r>   18.6998    0.0000 </r>
      </set>
      <set comment="kpoint 33">
       <r>   -2.3824    1.0000 </r>
       <r>   -0.0680    1.0000 </r>
       <r>    6.9377    1.0000 </r>
       <r>    9.1478    0.3384 </r>
       <r>   11.5656    0.0000 </r>
       <r>   13.5697    0.0000 </r>
       <r>   15.3775    0.0000 </r>
       <r>   16.8280    0.0000 </r>
      </set>
      <set comment="kpoint 34">
       <r>   -2.0164    1.0000 </r>
       <r>    1.4096    1.0000 </r>
       <r>    6.2303    1.0000 </r>
       <r>    9.4262    0.0085 </r>
       <r>   10.5858    0.0000 </r>
       <r>   13.3237    0.0000 </r>
       <r>   14.3775    0.0000 </r>
       <r>   16.3672    0.0000 </r>
      </set>
      <set comment="kpoint 35">
       <r>   -1.0966    1.0000 </r>
       <r>    3.3246    1.0000 </r>
       <r>    6.0744    1.0000 </r>
       <r>    7.4582    1.0000 </r>
       <r>   10.0536    0.0000 </r>
       <r>   12.4551    0.0000 </r>
       <r>   14.4145    0.0000 </r>
       <r>   15.2038    0.0000 </r>
      </set>
      <set comment="kpoint 36">
       <r>    0.3619    1.0000 </r>
       <r>    4.5683    1.0000 </r>
       <r>    5.4417    1.0000 </r>
       <r>    6.7982    1.0000 </r>
       <r>    9.2718    0.0980 </r>
       <r>   11.7872    0.0000 </r>
       <r>   12.4330    0.0000 </r>
       <r>   15.6335    0.0000 </r>
      </set>
      <set comment="kpoint 37">
       <r>   -1.3343    1.0000 </r>
       <r>   -1.3327    1.0000 </r>
       <r>    7.9249    1.0000 </r>
       <r>    7.9430    1.0000 </r>
       <r>   12.3448    0.0000 </r>
       <r>   12.7145    0.0000 </r>
       <r>   15.1997    0.0000 </r>
       <r>   16.7994    0.0000 </r>
      </set>
      <set comment="kpoint 38">
       <r>   -1.0858    1.0000 </r>
       <r>    0.0628    1.0000 </r>
       <r>    7.0898    1.0000 </r>
       <r>    8.1706    1.0000 </r>
       <r>   10.4265    0.0000 </r>
       <r>   14.0901    0.0000 </r>
       <r>   14.2248    0.0000 </r>
       <r>   15.3751    0.0000 </r>
      </set>
      <set comment="kpoint 39">
       <r>   -0.2879    1.0000 </r>
       <r>    1.9628    1.0000 </r>
       <r>    6.6778    1.0000 </r>
       <r>    7.1986    1.0000 </r>
       <r>    8.8676    0.9412 </r>
       <r>   12.1003    0.0000 </r>
       <r>   15.3922    0.0000 </r>
       <r>   16.4898    0.0000 </r>
      </set>
      <set comment="kpoint 40">
       <r>    1.0428    1.0000 </r>
       <r>    3.9912    1.0000 </r>
       <r>    4.5615    1.0000 </r>
       <r>    6.9542    1.0000 </r>
       <r>    9.1510    0.3302 </r>
       <r>   11.2083    0.0000 </r>
       <r>   12.9009    0.0000 </r>
       <r>   16.7278    0.0000 </r>
      </set>
      <set comment="kpoint 41">
       <r>    1.7373    1.0000 </r>
       <r>    2.9999    1.0000 </r>
       <r>    6.5949    1.0000 </r>
       <r>    7.7093    1.0000 </r>
       <r>    7.9031    1.0000 </r>
       <r>   10.5765    0.0000 </r>
       <r>   12.4882    0.0000 </r>
       <r>   15.5985    0.0000 </r>
      </set>
      <set comment="kpoint 42">
       <r>    0.7299    1.0000 </r>
       <r>    0.7467    1.0000 </r>
       <r>    6.9240    1.0000 </r>
       <r>    7.6195    1.0000 </r>
       <r>    7.9059    1.0000 </r>
       <r>   11.9830    0.0000 </r>
       <r>   15.9775    0.0000 </r>
       <r>   16.9738    0.0000 </r>
      </set>
      <set comment="kpoint 43">
       <r>    1.9329    1.0000 </r>
       <r>    3.0010    1.0000 </r>
       <r>    4.1036    1.0000 </r>
       <r>    7.5994    1.0000 </r>
       <r>    8.5653    0.9999 </r>
       <r>   10.5852    0.0000 </r>
       <r>   14.4740    0.0000 </r>
       <r>   16.2604    0.0000 </r>
      </set>
      <set comment="kpoint 44">
       <r>    1.4216    1.0000 </r>
       <r>    3.7463    1.0000 </r>
       <r>    5.7928    1.0000 </r>
       <r>    7.5036    1.0000 </r>
       <r>    8.6969    0.9972 </r>
       <r>   10.9879    0.0000 </r>
       <r>   11.7320    0.0000 </r>
       <r>   15.1199    0.0000 </r>
      </set>
      <set comment="kpoint 45">
       <r>   -0.5594    1.0000 </r>
       <r>    5.8930    1.0000 </r>
       <r>    6.6594    1.0000 </r>
       <r>    7.7301    1.0000 </r>
       <r>    8.6685    0.9985 </r>
       <r>   11.2191    0.0000 </r>
       <r>   12.8195    0.0000 </r>
       <r>   14.0712    0.0000 </r>
      </set>
      <set comment="kpoint 46">
       <r>    1.3124    1.0000 </r>
       <r>    4.6818    1.0000 </r>
       <r>    4.7302    1.0000 </r>
       <r>    7.5098    1.0000 </r>
       <r>    9.1583    0.3119 </r>
       <r>   10.4553    0.0000 </r>
       <r>   12.8534    0.0000 </r>
       <r>   13.6949    0.0000 </r>
      </set>
      <set comment="kpoint 47">
       <r>   -0.7921    1.0000 </r>
       <r>    6.6582    1.0000 </r>
       <r>    6.9267    1.0000 </r>
       <r>    7.6089    1.0000 </r>
       <r>    9.1330    0.3776 </r>
       <r>   11.6071    0.0000 </r>
       <r>   11.6468    0.0000 </r>
       <r>   12.7937    0.0000 </r>
      </set>
      <set comment="kpoint 48">
       <r>   -2.3827    1.0000 </r>
       <r>    6.0329    1.0000 </r>
       <r>    7.2125    1.0000 </r>
       <r>    9.0075    0.7177 </r>
       <r>   10.6810    0.0000 </r>
       <r>   11.5063    0.0000 </r>
       <r>   13.0260    0.0000 </r>
       <r>   14.3561    0.0000 </r>
      </set>
      <set comment="kpoint 49">
       <r>   -2.5005    1.0000 </r>
       <r>    6.3388    1.0000 </r>
       <r>    7.9775    1.0000 </r>
       <r>    8.8758    0.9341 </r>
       <r>   10.4865    0.0000 </r>
       <r>   11.0577    0.0000 </r>
       <r>   13.0954    0.0000 </r>
       <r>   13.7938    0.0000 </r>
      </set>
      <set comment="kpoint 50">
       <r>   -3.6644    1.0000 </r>
       <r>    5.9875    1.0000 </r>
       <r>    6.8275    1.0000 </r>
       <r>    8.1609    1.0000 </r>
       <r>   11.8233    0.0000 </r>
       <r>   13.3789    0.0000 </r>
       <r>   13.7466    0.0000 </r>
       <r>   16.1059    0.0000 </r>
      </set>
      <set comment="kpoint 51">
       <r>   -4.3905    1.0000 </r>
       <r>    6.4112    1.0000 </r>
       <r>    6.4959    1.0000 </r>
       <r>    6.4959    1.0000 </r>
       <r>   10.8245    0.0000 </r>
       <r>   16.3868    0.0000 </r>
       <r>   16.5796    0.0000 </r>
       <r>   17.3328    0.0000 </r>
      </set>
      <set comment="kpoint 52">
       <r>   -1.5601    1.0000 </r>
       <r>    3.0078    1.0000 </r>
       <r>    8.3533    1.0000 </r>
       <r>    8.8777    0.9324 </r>
       <r>   10.0947    0.0000 </r>
       <r>   11.3505    0.0000 </r>
       <r>   14.0473    0.0000 </r>
       <r>   14.7497    0.0000 </r>
      </set>
      <set comment="kpoint 53">
       <r>    0.3671    1.0000 </r>
       <r>    3.7424    1.0000 </r>
       <r>    5.7825    1.0000 </r>
       <r>    6.7822    1.0000 </r>
       <r>   10.5444    0.0000 </r>
       <r>   13.2279    0.0000 </r>
       <r>   13.6983    0.0000 </r>
       <r>   14.4987    0.0000 </r>
      </set>
      <set comment="kpoint 54">
       <r>    2.5562    1.0000 </r>
       <r>    3.0722    1.0000 </r>
       <r>    4.9044    1.0000 </r>
       <r>    5.2238    1.0000 </r>
       <r>   11.1690    0.0000 </r>
       <r>   12.9327    0.0000 </r>
       <r>   14.0779    0.0000 </r>
       <r>   14.3812    0.0000 </r>
      </set>
      <set comment="kpoint 55">
       <r>   -4.0785    1.0000 </r>
       <r>    3.3374    1.0000 </r>
       <r>    4.8370    1.0000 </r>
       <r>   10.0457    0.0000 </r>
       <r>   12.0005    0.0000 </r>
       <r>   13.0837    0.0000 </r>
       <r>   18.0436    0.0000 </r>
       <r>   19.0679    0.0000 </r>
      </set>
      <set comment="kpoint 56">
       <r>    2.6249    1.0000 </r>
       <r>    3.7732    1.0000 </r>
       <r>    3.9463    1.0000 </r>
       <r>    5.0116    1.0000 </r>
       <r>   11.9408    0.0000 </r>
       <r>   13.3386    0.0000 </r>
       <r>   14.4129    0.0000 </r>
       <r>   14.4671    0.0000 </r>
      </set>
      <set comment="kpoint 57">
       <r>    1.2841    1.0000 </r>
       <r>    2.4151    1.0000 </r>
       <r>    5.5686    1.0000 </r>
       <r>    6.5954    1.0000 </r>
       <r>   11.4127    0.0000 </r>
       <r>   12.6954    0.0000 </r>
       <r>   13.9775    0.0000 </r>
       <r>   15.0426    0.0000 </r>
      </set>
      <set comment="kpoint 58">
       <r>   -0.7436    1.0000 </r>
       <r>    1.5532    1.0000 </r>
       <r>    8.4303    1.0000 </r>
       <r>    8.6363    0.9993 </r>
       <r>   10.5098    0.0000 </r>
       <r>   11.8637    0.0000 </r>
       <r>   12.8002    0.0000 </r>
       <r>   14.0126    0.0000 </r>
      </set>
      <set comment="kpoint 59">
       <r>   -3.6049    1.0000 </r>
       <r>    2.0438    1.0000 </r>
       <r>    4.8334    1.0000 </r>
       <r>   10.2873    0.0000 </r>
       <r>   11.1808    0.0000 </r>
       <r>   14.9239    0.0000 </r>
       <r>   16.6272    0.0000 </r>
       <r>   18.5235    0.0000 </r>
      </set>
      <set comment="kpoint 60">
       <r>   -3.4424    1.0000 </r>
       <r>    2.7941    1.0000 </r>
       <r>    4.4067    1.0000 </r>
       <r>   10.4166    0.0000 </r>
       <r>   11.5443    0.0000 </r>
       <r>   14.7061    0.0000 </r>
       <r>   14.9485    0.0000 </r>
       <r>   18.1457    0.0000 </r>
      </set>
      <set comment="kpoint 61">
       <r>    0.2975    1.0000 </r>
       <r>    0.2975    1.0000 </r>
       <r>    8.4897    1.0000 </r>
       <r>    8.4897    1.0000 </r>
       <r>   11.3129    0.0000 </r>
       <r>   11.3129    0.0000 </r>
       <r>   13.0836    0.0000 </r>
       <r>   13.0836    0.0000 </r>
      </set>
      <set comment="kpoint 62">
       <r>   -2.8983    1.0000 </r>
       <r>    0.5454    1.0000 </r>
       <r>    5.4281    1.0000 </r>
       <r>    8.7522    0.9914 </r>
       <r>   12.0788    0.0000 </r>
       <r>   15.3248    0.0000 </r>
       <r>   17.2483    0.0000 </r>
       <r>   18.3463    0.0000 </r>
      </set>
      <set comment="kpoint 63">
       <r>   -2.8546    1.0000 </r>
       <r>    1.6239    1.0000 </r>
       <r>    4.4717    1.0000 </r>
       <r>    8.8013    0.9790 </r>
       <r>   12.5372    0.0000 </r>
       <r>   14.6161    0.0000 </r>
       <r>   16.6839    0.0000 </r>
       <r>   17.6478    0.0000 </r>
      </set>
      <set comment="kpoint 64">
       <r>   -2.2520    1.0000 </r>
       <r>    2.7938    1.0000 </r>
       <r>    4.4617    1.0000 </r>
       <r>    9.2649    0.1067 </r>
       <r>   10.4419    0.0000 </r>
       <r>   14.1793    0.0000 </r>
       <r>   15.6478    0.0000 </r>
       <r>   16.3146    0.0000 </r>
      </set>
      <set comment="kpoint 65">
       <r>   -1.9634    1.0000 </r>
       <r>   -0.8094    1.0000 </r>
       <r>    6.3064    1.0000 </r>
       <r>    7.4212    1.0000 </r>
       <r>   13.0328    0.0000 </r>
       <r>   14.1171    0.0000 </r>
       <r>   18.0816    0.0000 </r>
       <r>   18.1647    0.0000 </r>
      </set>
      <set comment="kpoint 66">
       <r>   -2.0377    1.0000 </r>
       <r>    0.2405    1.0000 </r>
       <r>    5.1651    1.0000 </r>
       <r>    7.3698    1.0000 </r>
       <r>   13.0457    0.0000 </r>
       <r>   14.6872    0.0000 </r>
       <r>   16.6279    0.0000 </r>
       <r>   17.9688    0.0000 </r>
      </set>
      <set comment="kpoint 67">
       <r>   -1.5549    1.0000 </r>
       <r>    1.7478    1.0000 </r>
       <r>    4.6125    1.0000 </r>
       <r>    7.7924    1.0000 </r>
       <r>   10.0642    0.0000 </r>
       <r>   15.2929    0.0000 </r>
       <r>   15.7559    0.0000 </r>
       <r>   17.6967    0.0000 </r>
      </set>
      <set comment="kpoint 68">
       <r>   -0.5215    1.0000 </r>
       <r>    3.3261    1.0000 </r>
       <r>    5.0145    1.0000 </r>
       <r>    6.9199    1.0000 </r>
       <r>    8.7132    0.9961 </r>
       <r>   13.2137    0.0000 </r>
       <r>   14.8105    0.0000 </r>
       <r>   16.5864    0.0000 </r>
      </set>
      <set comment="kpoint 69">
       <r>   -1.0016    1.0000 </r>
       <r>   -0.9985    1.0000 </r>
       <r>    6.1475    1.0000 </r>
       <r>    6.1503    1.0000 </r>
       <r>   13.1721    0.0000 </r>
       <r>   14.9960    0.0000 </r>
       <r>   15.9937    0.0000 </r>
       <r>   17.9868    0.0000 </r>
      </set>
      <set comment="kpoint 70">
       <r>   -0.6368    1.0000 </r>
       <r>    0.4845    1.0000 </r>
       <r>    5.4063    1.0000 </r>
       <r>    6.4862    1.0000 </r>
       <r>    9.8686    0.0000 </r>
       <r>   15.5163    0.0000 </r>
       <r>   16.3652    0.0000 </r>
       <r>   17.5943    0.0000 </r>
      </set>
      <set comment="kpoint 71">
       <r>    0.2740    1.0000 </r>
       <r>    2.4094    1.0000 </r>
       <r>    5.2523    1.0000 </r>
       <r>    6.5761    1.0000 </r>
       <r>    7.3935    1.0000 </r>
       <r>   13.3903    0.0000 </r>
       <r>   15.9146    0.0000 </r>
       <r>   17.6278    0.0000 </r>
      </set>
      <set comment="kpoint 72">
       <r>    1.7032    1.0000 </r>
       <r>    3.6762    1.0000 </r>
       <r>    4.5772    1.0000 </r>
       <r>    6.0456    1.0000 </r>
       <r>    8.4669    1.0000 </r>
       <r>   11.5409    0.0000 </r>
       <r>   12.9027    0.0000 </r>
       <r>   17.0983    0.0000 </r>
      </set>
      <set comment="kpoint 73">
       <r>    1.2578    1.0000 </r>
       <r>    1.2850    1.0000 </r>
       <r>    6.0229    1.0000 </r>
       <r>    6.1399    1.0000 </r>
       <r>    6.6719    1.0000 </r>
       <r>   13.3651    0.0000 </r>
       <r>   17.2836    0.0000 </r>
       <r>   17.3065    0.0000 </r>
      </set>
      <set comment="kpoint 74">
       <r>    2.5300    1.0000 </r>
       <r>    3.3435    1.0000 </r>
       <r>    3.9261    1.0000 </r>
       <r>    6.4022    1.0000 </r>
       <r>    7.3572    1.0000 </r>
       <r>   11.6791    0.0000 </r>
       <r>   14.0915    0.0000 </r>
       <r>   15.9410    0.0000 </r>
      </set>
      <set comment="kpoint 75">
       <r>    1.0862    1.0000 </r>
       <r>    4.4878    1.0000 </r>
       <r>    6.0364    1.0000 </r>
       <r>    7.4196    1.0000 </r>
       <r>    8.4198    1.0000 </r>
       <r>   10.6828    0.0000 </r>
       <r>   11.5382    0.0000 </r>
       <r>   14.2079    0.0000 </r>
      </set>
      <set comment="kpoint 76">
       <r>    0.9734    1.0000 </r>
       <r>    5.3451    1.0000 </r>
       <r>    5.3961    1.0000 </r>
       <r>    7.6869    1.0000 </r>
       <r>    7.9443    1.0000 </r>
       <r>   10.6215    0.0000 </r>
       <r>   12.4399    0.0000 </r>
       <r>   13.0683    0.0000 </r>
      </set>
      <set comment="kpoint 77">
       <r>   -1.0264    1.0000 </r>
       <r>    7.4763    1.0000 </r>
       <r>    7.7686    1.0000 </r>
       <r>    8.3715    1.0000 </r>
       <r>    8.4722    1.0000 </r>
       <r>   10.5563    0.0000 </r>
       <r>   11.4403    0.0000 </r>
       <r>   12.0163    0.0000 </r>
      </set>
      <set comment="kpoint 78">
       <r>   -2.6185    1.0000 </r>
       <r>    7.9033    1.0000 </r>
       <r>    7.9034    1.0000 </r>
       <r>    7.9131    1.0000 </r>
       <r>   10.7070    0.0000 </r>
       <r>   11.1714    0.0000 </r>
       <r>   12.5920    0.0000 </r>
       <r>   13.4078    0.0000 </r>
      </set>
      <set comment="kpoint 79">
       <r>    3.4073    1.0000 </r>
       <r>    3.4073    1.0000 </r>
       <r>    4.0658    1.0000 </r>
       <r>    4.0658    1.0000 </r>
       <r>   13.2537    0.0000 </r>
       <r>   13.2537    0.0000 </r>
       <r>   15.0474    0.0000 </r>
       <r>   15.0474    0.0000 </r>
      </set>
      <set comment="kpoint 80">
       <r>   -3.1350    1.0000 </r>
       <r>    1.9357    1.0000 </r>
       <r>    3.6329    1.0000 </r>
       <r>    8.5648    0.9999 </r>
       <r>   12.9384    0.0000 </r>
       <r>   16.1203    0.0000 </r>
       <r>   17.3666    0.0000 </r>
       <r>   18.3061    0.0000 </r>
      </set>
      <set comment="kpoint 81">
       <r>   -2.4351    1.0000 </r>
       <r>    0.8840    1.0000 </r>
       <r>    3.7828    1.0000 </r>
       <r>    7.0194    1.0000 </r>
       <r>   14.1637    0.0000 </r>
       <r>   16.7699    0.0000 </r>
       <r>   17.7837    0.0000 </r>
       <r>   18.4773    0.0000 </r>
      </set>
      <set comment="kpoint 82">
       <r>   -2.2736    1.0000 </r>
       <r>    1.6228    1.0000 </r>
       <r>    3.3649    1.0000 </r>
       <r>    7.1667    1.0000 </r>
       <r>   13.1353    0.0000 </r>
       <r>   15.5021    0.0000 </r>
       <r>   17.9347    0.0000 </r>
       <r>   18.9793    0.0000 </r>
      </set>
      <set comment="kpoint 83">
       <r>   -1.5129    1.0000 </r>
       <r>   -0.3862    1.0000 </r>
       <r>    4.5856    1.0000 </r>
       <r>    5.6836    1.0000 </r>
       <r>   15.1172    0.0000 </r>
       <r>   15.9932    0.0000 </r>
       <r>   17.8823    0.0000 </r>
       <r>   18.0913    0.0000 </r>
      </set>
      <set comment="kpoint 84">
       <r>   -1.4699    1.0000 </r>
       <r>    0.6917    1.0000 </r>
       <r>    3.6133    1.0000 </r>
       <r>    5.7271    1.0000 </r>
       <r>   13.0457    0.0000 </r>
       <r>   16.6021    0.0000 </r>
       <r>   18.7293    0.0000 </r>
       <r>   19.1657    0.0000 </r>
      </set>
      <set comment="kpoint 85">
       <r>   -0.8711    1.0000 </r>
       <r>    1.8593    1.0000 </r>
       <r>    3.6164    1.0000 </r>
       <r>    6.2793    1.0000 </r>
       <r>    9.6645    0.0000 </r>
       <r>   16.5194    0.0000 </r>
       <r>   17.4994    0.0000 </r>
       <r>   18.0696    0.0000 </r>
      </set>
      <set comment="kpoint 86">
       <r>   -0.4632    1.0000 </r>
       <r>   -0.4582    1.0000 </r>
       <r>    4.5189    1.0000 </r>
       <r>    4.5216    1.0000 </r>
       <r>   12.9856    0.0000 </r>
       <r>   17.3208    0.0000 </r>
       <r>   18.0900    0.0000 </r>
       <r>   19.1968    0.0000 </r>
      </set>
      <set comment="kpoint 87">
       <r>    0.0175    1.0000 </r>
       <r>    1.0494    1.0000 </r>
       <r>    3.9673    1.0000 </r>
       <r>    4.9762    1.0000 </r>
       <r>    9.4597    0.0044 </r>
       <r>   16.9271    0.0000 </r>
       <r>   18.4242    0.0000 </r>
       <r>   19.1092    0.0000 </r>
      </set>
      <set comment="kpoint 88">
       <r>    1.0391    1.0000 </r>
       <r>    2.6307    1.0000 </r>
       <r>    4.3832    1.0000 </r>
       <r>    5.8648    1.0000 </r>
       <r>    6.3970    1.0000 </r>
       <r>   14.5680    0.0000 </r>
       <r>   16.0932    0.0000 </r>
       <r>   18.1788    0.0000 </r>
      </set>
      <set comment="kpoint 89">
       <r>    1.9248    1.0000 </r>
       <r>    1.9674    1.0000 </r>
       <r>    4.8155    1.0000 </r>
       <r>    4.8401    1.0000 </r>
       <r>    6.2319    1.0000 </r>
       <r>   14.8900    0.0000 </r>
       <r>   16.9998    0.0000 </r>
       <r>   17.4036    0.0000 </r>
      </set>
      <set comment="kpoint 90">
       <r>    2.9855    1.0000 </r>
       <r>    3.5841    1.0000 </r>
       <r>    4.1541    1.0000 </r>
       <r>    5.6446    1.0000 </r>
       <r>    6.2083    1.0000 </r>
       <r>   12.9613    0.0000 </r>
       <r>   14.0998    0.0000 </r>
       <r>   15.1122    0.0000 </r>
      </set>
      <set comment="kpoint 91">
       <r>    0.8598    1.0000 </r>
       <r>    5.7855    1.0000 </r>
       <r>    5.8741    1.0000 </r>
       <r>    7.2794    1.0000 </r>
       <r>    7.2794    1.0000 </r>
       <r>   11.5921    0.0000 </r>
       <r>   12.3040    0.0000 </r>
       <r>   12.3040    0.0000 </r>
      </set>
      <set comment="kpoint 92">
       <r>   -1.7484    1.0000 </r>
       <r>    0.9922    1.0000 </r>
       <r>    2.7785    1.0000 </r>
       <r>    5.4714    1.0000 </r>
       <r>   15.5991    0.0000 </r>
       <r>   16.7470    0.0000 </r>
       <r>   18.1959    0.0000 </r>
       <r>   19.6516    0.0000 </r>
      </set>
      <set comment="kpoint 93">
       <r>   -0.8560    1.0000 </r>
       <r>    0.1798    1.0000 </r>
       <r>    3.1296    1.0000 </r>
       <r>    4.1485    1.0000 </r>
       <r>   16.1974    0.0000 </r>
       <r>   16.4830    0.0000 </r>
       <r>   18.7735    0.0000 </r>
       <r>   19.4984    0.0000 </r>
      </set>
      <set comment="kpoint 94">
       <r>   -0.6960    1.0000 </r>
       <r>    0.9139    1.0000 </r>
       <r>    2.7167    1.0000 </r>
       <r>    4.3022    1.0000 </r>
       <r>   12.8347    0.0000 </r>
       <r>   18.4139    0.0000 </r>
       <r>   19.8594    0.0000 </r>
       <r>   20.1993    0.0000 </r>
      </set>
      <set comment="kpoint 95">
       <r>    0.2181    1.0000 </r>
       <r>    0.2253    1.0000 </r>
       <r>    3.1737    1.0000 </r>
       <r>    3.1754    1.0000 </r>
       <r>   12.7505    0.0000 </r>
       <r>   19.3351    0.0000 </r>
       <r>   20.0894    0.0000 </r>
       <r>   20.1420    0.0000 </r>
      </set>
      <set comment="kpoint 96">
       <r>    0.8151    1.0000 </r>
       <r>    1.3881    1.0000 </r>
       <r>    3.1822    1.0000 </r>
       <r>    3.7488    1.0000 </r>
       <r>    9.2519    0.1246 </r>
       <r>   18.0193    0.0000 </r>
       <r>   19.3674    0.0000 </r>
       <r>   19.6704    0.0000 </r>
      </set>
      <set comment="kpoint 97">
       <r>    2.3671    1.0000 </r>
       <r>    2.4291    1.0000 </r>
       <r>    4.1706    1.0000 </r>
       <r>    4.1706    1.0000 </r>
       <r>    6.1084    1.0000 </r>
       <r>   15.9603    0.0000 </r>
       <r>   16.8962    0.0000 </r>
       <r>   16.8962    0.0000 </r>
      </set>
      <set comment="kpoint 98">
       <r>   -0.0561    1.0000 </r>
       <r>    0.5172    1.0000 </r>
       <r>    2.3420    1.0000 </r>
       <r>    2.9092    1.0000 </r>
       <r>   16.3411    0.0000 </r>
       <r>   16.4019    0.0000 </r>
       <r>   20.2748    0.0000 </r>
       <r>   20.8586    0.0000 </r>
      </set>
      <set comment="kpoint 99">
       <r>    0.6717    1.0000 </r>
       <r>    0.6814    1.0000 </r>
       <r>    2.4980    1.0000 </r>
       <r>    2.4980    1.0000 </r>
       <r>   12.6636    0.0000 </r>
       <r>   20.0014    0.0000 </r>
       <r>   20.9383    0.0000 </r>
       <r>   21.0244    0.0000 </r>
      </set>
     </set>
    </set>
   </array>
  </eigenvalues>
  <separator name="orbital magnetization" >
   <v name="MAGDIPOLOUT">      0.00000000      0.00000000      0.00000000</v>
  </separator>
  <dos>
   <i name="efermi">      9.08891216 </i>
   <total>
    <array>
     <dimension dim="1">gridpoints</dimension>
     <dimension dim="2">spin</dimension>
     <field>energy</field>
     <field>total</field>
     <field>integrated</field>
     <set>
      <set comment="spin 1">
       <r>    -6.5538     0.0000     0.0000 </r>
       <r>    -6.4552     0.0000     0.0000 </r>
       <r>    -6.3566     0.0000     0.0000 </r>
       <r>    -6.2581     0.0000     0.0000 </r>
       <r>    -6.1595     0.0000     0.0000 </r>
       <r>    -6.0609     0.0000     0.0000 </r>
       <r>    -5.9623     0.0000     0.0000 </r>
       <r>    -5.8637     0.0000     0.0000 </r>
       <r>    -5.7651     0.0000     0.0000 </r>
       <r>    -5.6665     0.0000     0.0000 </r>
       <r>    -5.5679     0.0000     0.0000 </r>
       <r>    -5.4693     0.0000     0.0000 </r>
       <r>    -5.3707     0.0000     0.0000 </r>
       <r>    -5.2721     0.0000     0.0000 </r>
       <r>    -5.1735     0.0000     0.0000 </r>
       <r>    -5.0749     0.0000     0.0000 </r>
       <r>    -4.9763     0.0001     0.0000 </r>
       <r>    -4.8777     0.0008     0.0001 </r>
       <r>    -4.7791     0.0038     0.0005 </r>
       <r>    -4.6805     0.0122     0.0017 </r>
       <r>    -4.5820     0.0281     0.0044 </r>
       <r>    -4.4834     0.0531     0.0097 </r>
       <r>    -4.3848     0.0891     0.0185 </r>
       <r>    -4.2862     0.1265     0.0309 </r>
       <r>    -4.1876     0.1443     0.0452 </r>
       <r>    -4.0890     0.1409     0.0591 </r>
       <r>    -3.9904     0.1447     0.0733 </r>
       <r>    -3.8918     0.1761     0.0907 </r>
       <r>    -3.7932     0.2128     0.1117 </r>
       <r>    -3.6946     0.2219     0.1335 </r>
       <r>    -3.5960     0.2128     0.1545 </r>
       <r>    -3.4974     0.2183     0.1760 </r>
       <r>    -3.3988     0.2440     0.2001 </r>
       <r>    -3.3002     0.2721     0.2269 </r>
       <r>    -3.2016     0.2895     0.2555 </r>
       <r>    -3.1030     0.2893     0.2840 </r>
       <r>    -3.0044     0.2834     0.3119 </r>
       <r>    -2.9059     0.2884     0.3404 </r>
       <r>    -2.8073     0.2846     0.3684 </r>
       <r>    -2.7087     0.2554     0.3936 </r>
       <r>    -2.6101     0.2357     0.4168 </r>
       <r>    -2.5115     0.2693     0.4434 </r>
       <r>    -2.4129     0.3484     0.4777 </r>
       <r>    -2.3143     0.4229     0.5194 </r>
       <r>    -2.2157     0.4631     0.5651 </r>
       <r>    -2.1171     0.4754     0.6120 </r>
       <r>    -2.0185     0.4523     0.6566 </r>
       <r>    -1.9199     0.3652     0.6926 </r>
       <r>    -1.8213     0.2504     0.7173 </r>
       <r>    -1.7227     0.2079     0.7378 </r>
       <r>    -1.6241     0.2823     0.7656 </r>
       <r>    -1.5255     0.4160     0.8066 </r>
       <r>    -1.4269     0.5020     0.8561 </r>
       <r>    -1.3283     0.4839     0.9038 </r>
       <r>    -1.2297     0.4186     0.9451 </r>
       <r>    -1.1312     0.4024     0.9848 </r>
       <r>    -1.0326     0.4401     1.0282 </r>
       <r>    -0.9340     0.4668     1.0742 </r>
       <r>    -0.8354     0.4737     1.1209 </r>
       <r>    -0.7368     0.4885     1.1691 </r>
       <r>    -0.6382     0.4979     1.2181 </r>
       <r>    -0.5396     0.4795     1.2654 </r>
       <r>    -0.4410     0.4480     1.3096 </r>
       <r>    -0.3424     0.4363     1.3526 </r>
       <r>    -0.2438     0.4568     1.3976 </r>
       <r>    -0.1452     0.4977     1.4467 </r>
       <r>    -0.0466     0.5276     1.4987 </r>
       <r>     0.0520     0.5296     1.5509 </r>
       <r>     0.1506     0.5451     1.6047 </r>
       <r>     0.2492     0.6081     1.6647 </r>
       <r>     0.3478     0.6631     1.7300 </r>
       <r>     0.4464     0.6425     1.7934 </r>
       <r>     0.5449     0.5668     1.8493 </r>
       <r>     0.6435     0.4958     1.8981 </r>
       <r>     0.7421     0.4516     1.9427 </r>
       <r>     0.8407     0.4348     1.9855 </r>
       <r>     0.9393     0.4571     2.0306 </r>
       <r>     1.0379     0.5064     2.0805 </r>
       <r>     1.1365     0.5538     2.1351 </r>
       <r>     1.2351     0.6139     2.1957 </r>
       <r>     1.3337     0.6910     2.2638 </r>
       <r>     1.4323     0.7250     2.3353 </r>
       <r>     1.5309     0.6907     2.4034 </r>
       <r>     1.6295     0.6421     2.4667 </r>
       <r>     1.7281     0.6234     2.5281 </r>
       <r>     1.8267     0.6425     2.5915 </r>
       <r>     1.9253     0.6689     2.6574 </r>
       <r>     2.0239     0.6100     2.7176 </r>
       <r>     2.1225     0.4372     2.7607 </r>
       <r>     2.2210     0.2770     2.7880 </r>
       <r>     2.3196     0.2563     2.8133 </r>
       <r>     2.4182     0.3608     2.8488 </r>
       <r>     2.5168     0.4901     2.8971 </r>
       <r>     2.6154     0.5731     2.9536 </r>
       <r>     2.7140     0.6037     3.0132 </r>
       <r>     2.8126     0.6217     3.0745 </r>
       <r>     2.9112     0.6739     3.1409 </r>
       <r>     3.0098     0.7468     3.2145 </r>
       <r>     3.1084     0.7731     3.2908 </r>
       <r>     3.2070     0.7289     3.3626 </r>
       <r>     3.3056     0.6430     3.4260 </r>
       <r>     3.4042     0.5391     3.4792 </r>
       <r>     3.5028     0.4691     3.5254 </r>
       <r>     3.6014     0.5016     3.5749 </r>
       <r>     3.7000     0.6039     3.6344 </r>
       <r>     3.7986     0.6770     3.7012 </r>
       <r>     3.8971     0.6952     3.7697 </r>
       <r>     3.9957     0.6853     3.8373 </r>
       <r>     4.0943     0.6490     3.9013 </r>
       <r>     4.1929     0.5916     3.9596 </r>
       <r>     4.2915     0.5719     4.0160 </r>
       <r>     4.3901     0.6704     4.0821 </r>
       <r>     4.4887     0.8601     4.1669 </r>
       <r>     4.5873     0.9873     4.2642 </r>
       <r>     4.6859     0.9545     4.3583 </r>
       <r>     4.7845     0.8166     4.4388 </r>
       <r>     4.8831     0.6865     4.5065 </r>
       <r>     4.9817     0.6207     4.5677 </r>
       <r>     5.0803     0.6107     4.6279 </r>
       <r>     5.1789     0.6360     4.6907 </r>
       <r>     5.2775     0.6688     4.7566 </r>
       <r>     5.3761     0.6804     4.8237 </r>
       <r>     5.4747     0.6886     4.8916 </r>
       <r>     5.5732     0.7440     4.9649 </r>
       <r>     5.6718     0.8242     5.0462 </r>
       <r>     5.7704     0.8271     5.1277 </r>
       <r>     5.8690     0.7505     5.2017 </r>
       <r>     5.9676     0.7305     5.2738 </r>
       <r>     6.0662     0.8331     5.3559 </r>
       <r>     6.1648     0.9571     5.4503 </r>
       <r>     6.2634     0.9879     5.5477 </r>
       <r>     6.3620     0.9371     5.6400 </r>
       <r>     6.4606     0.8961     5.7284 </r>
       <r>     6.5592     0.9101     5.8181 </r>
       <r>     6.6578     0.9293     5.9098 </r>
       <r>     6.7564     0.9065     5.9991 </r>
       <r>     6.8550     0.8771     6.0856 </r>
       <r>     6.9536     0.8635     6.1707 </r>
       <r>     7.0522     0.8435     6.2539 </r>
       <r>     7.1508     0.8375     6.3365 </r>
       <r>     7.2494     0.8734     6.4226 </r>
       <r>     7.3479     0.9517     6.5164 </r>
       <r>     7.4465     1.0722     6.6221 </r>
       <r>     7.5451     1.1982     6.7403 </r>
       <r>     7.6437     1.2470     6.8632 </r>
       <r>     7.7423     1.1637     6.9780 </r>
       <r>     7.8409     0.9949     7.0760 </r>
       <r>     7.9395     0.8245     7.1573 </r>
       <r>     8.0381     0.6819     7.2246 </r>
       <r>     8.1367     0.5888     7.2826 </r>
       <r>     8.2353     0.5673     7.3385 </r>
       <r>     8.3339     0.6037     7.3981 </r>
       <r>     8.4325     0.6761     7.4647 </r>
       <r>     8.5311     0.7582     7.5395 </r>
       <r>     8.6297     0.8290     7.6212 </r>
       <r>     8.7283     0.8795     7.7079 </r>
       <r>     8.8269     0.8778     7.7945 </r>
       <r>     8.9255     0.8068     7.8740 </r>
       <r>     9.0240     0.7547     7.9484 </r>
       <r>     9.1226     0.8120     8.0285 </r>
       <r>     9.2212     0.8753     8.1148 </r>
       <r>     9.3198     0.7840     8.1921 </r>
       <r>     9.4184     0.5763     8.2489 </r>
       <r>     9.5170     0.4056     8.2889 </r>
       <r>     9.6156     0.3674     8.3251 </r>
       <r>     9.7142     0.4816     8.3726 </r>
       <r>     9.8128     0.6739     8.4390 </r>
       <r>     9.9114     0.8028     8.5182 </r>
       <r>    10.0100     0.7929     8.5964 </r>
       <r>    10.1086     0.6899     8.6644 </r>
       <r>    10.2072     0.6057     8.7241 </r>
       <r>    10.3058     0.6642     8.7896 </r>
       <r>    10.4044     0.8888     8.8772 </r>
       <r>    10.5030     1.1258     8.9882 </r>
       <r>    10.6016     1.1733     9.1039 </r>
       <r>    10.7001     0.9969     9.2022 </r>
       <r>    10.7987     0.7617     9.2773 </r>
       <r>    10.8973     0.6491     9.3413 </r>
       <r>    10.9959     0.6930     9.4096 </r>
       <r>    11.0945     0.7869     9.4872 </r>
       <r>    11.1931     0.8120     9.5673 </r>
       <r>    11.2917     0.7427     9.6405 </r>
       <r>    11.3903     0.6725     9.7068 </r>
       <r>    11.4889     0.7127     9.7771 </r>
       <r>    11.5875     0.8482     9.8607 </r>
       <r>    11.6861     0.9575     9.9551 </r>
       <r>    11.7847     0.9629    10.0500 </r>
       <r>    11.8833     0.9161    10.1404 </r>
       <r>    11.9819     0.9252    10.2316 </r>
       <r>    12.0805     0.9851    10.3287 </r>
       <r>    12.1791     0.9721    10.4246 </r>
       <r>    12.2777     0.8690    10.5102 </r>
       <r>    12.3762     0.8051    10.5896 </r>
       <r>    12.4748     0.8392    10.6723 </r>
       <r>    12.5734     0.9127    10.7623 </r>
       <r>    12.6720     0.9996    10.8609 </r>
       <r>    12.7706     1.1182    10.9711 </r>
       <r>    12.8692     1.2278    11.0922 </r>
       <r>    12.9678     1.2621    11.2166 </r>
       <r>    13.0664     1.2156    11.3365 </r>
       <r>    13.1650     1.1230    11.4472 </r>
       <r>    13.2636     1.0481    11.5505 </r>
       <r>    13.3622     1.0563    11.6547 </r>
       <r>    13.4608     1.1212    11.7652 </r>
       <r>    13.5594     1.1613    11.8797 </r>
       <r>    13.6580     1.1526    11.9933 </r>
       <r>    13.7566     1.0855    12.1004 </r>
       <r>    13.8552     0.9514    12.1942 </r>
       <r>    13.9538     0.8631    12.2793 </r>
       <r>    14.0523     0.9227    12.3702 </r>
       <r>    14.1509     1.0148    12.4703 </r>
       <r>    14.2495     1.0183    12.5707 </r>
       <r>    14.3481     1.0305    12.6723 </r>
       <r>    14.4467     1.1293    12.7836 </r>
       <r>    14.5453     1.1709    12.8991 </r>
       <r>    14.6439     1.0412    13.0017 </r>
       <r>    14.7425     0.8424    13.0848 </r>
       <r>    14.8411     0.7190    13.1557 </r>
       <r>    14.9397     0.7071    13.2254 </r>
       <r>    15.0383     0.7737    13.3017 </r>
       <r>    15.1369     0.8825    13.3887 </r>
       <r>    15.2355     1.0194    13.4892 </r>
       <r>    15.3341     1.1547    13.6030 </r>
       <r>    15.4327     1.1864    13.7200 </r>
       <r>    15.5313     1.0531    13.8238 </r>
       <r>    15.6299     0.8656    13.9092 </r>
       <r>    15.7284     0.7816    13.9862 </r>
       <r>    15.8270     0.8130    14.0664 </r>
       <r>    15.9256     0.8408    14.1493 </r>
       <r>    16.0242     0.7920    14.2274 </r>
       <r>    16.1228     0.7185    14.2982 </r>
       <r>    16.2214     0.6958    14.3668 </r>
       <r>    16.3200     0.7193    14.4377 </r>
       <r>    16.4186     0.7412    14.5108 </r>
       <r>    16.5172     0.7528    14.5850 </r>
       <r>    16.6158     0.7624    14.6602 </r>
       <r>    16.7144     0.7484    14.7340 </r>
       <r>    16.8130     0.7039    14.8034 </r>
       <r>    16.9116     0.6499    14.8675 </r>
       <r>    17.0102     0.5725    14.9239 </r>
       <r>    17.1088     0.4551    14.9688 </r>
       <r>    17.2074     0.3579    15.0041 </r>
       <r>    17.3060     0.3351    15.0371 </r>
       <r>    17.4046     0.3579    15.0724 </r>
       <r>    17.5031     0.4025    15.1121 </r>
       <r>    17.6017     0.4691    15.1583 </r>
       <r>    17.7003     0.5036    15.2080 </r>
       <r>    17.7989     0.4741    15.2547 </r>
       <r>    17.8975     0.4603    15.3001 </r>
       <r>    17.9961     0.5177    15.3512 </r>
       <r>    18.0947     0.5700    15.4073 </r>
       <r>    18.1933     0.5315    15.4598 </r>
       <r>    18.2919     0.4368    15.5028 </r>
       <r>    18.3905     0.3722    15.5395 </r>
       <r>    18.4891     0.3469    15.5737 </r>
       <r>    18.5877     0.3258    15.6058 </r>
       <r>    18.6863     0.3062    15.6360 </r>
       <r>    18.7849     0.2876    15.6644 </r>
       <r>    18.8835     0.2672    15.6907 </r>
       <r>    18.9821     0.2750    15.7178 </r>
       <r>    19.0807     0.3215    15.7495 </r>
       <r>    19.1792     0.3546    15.7845 </r>
       <r>    19.2778     0.3327    15.8173 </r>
       <r>    19.3764     0.2766    15.8446 </r>
       <r>    19.4750     0.2173    15.8660 </r>
       <r>    19.5736     0.1672    15.8825 </r>
       <r>    19.6722     0.1335    15.8956 </r>
       <r>    19.7708     0.1130    15.9068 </r>
       <r>    19.8694     0.1022    15.9169 </r>
       <r>    19.9680     0.1079    15.9275 </r>
       <r>    20.0666     0.1327    15.9406 </r>
       <r>    20.1652     0.1542    15.9558 </r>
       <r>    20.2638     0.1396    15.9695 </r>
       <r>    20.3624     0.0904    15.9785 </r>
       <r>    20.4610     0.0409    15.9825 </r>
       <r>    20.5596     0.0139    15.9839 </r>
       <r>    20.6582     0.0085    15.9847 </r>
       <r>    20.7568     0.0172    15.9864 </r>
       <r>    20.8553     0.0315    15.9895 </r>
       <r>    20.9539     0.0396    15.9934 </r>
       <r>    21.0525     0.0343    15.9968 </r>
       <r>    21.1511     0.0207    15.9988 </r>
       <r>    21.2497     0.0087    15.9997 </r>
       <r>    21.3483     0.0025    15.9999 </r>
       <r>    21.4469     0.0005    16.0000 </r>
       <r>    21.5455     0.0001    16.0000 </r>
       <r>    21.6441     0.0000    16.0000 </r>
       <r>    21.7427     0.0000    16.0000 </r>
       <r>    21.8413     0.0000    16.0000 </r>
       <r>    21.9399     0.0000    16.0000 </r>
       <r>    22.0385     0.0000    16.0000 </r>
       <r>    22.1371     0.0000    16.0000 </r>
       <r>    22.2357     0.0000    16.0000 </r>
       <r>    22.3343     0.0000    16.0000 </r>
       <r>    22.4329     0.0000    16.0000 </r>
       <r>    22.5314     0.0000    16.0000 </r>
       <r>    22.6300     0.0000    16.0000 </r>
       <r>    22.7286     0.0000    16.0000 </r>
       <r>    22.8272     0.0000    16.0000 </r>
       <r>    22.9258     0.0000    16.0000 </r>
       <r>    23.0244     0.0000    16.0000 </r>
      </set>
     </set>
    </array>
   </total>
  </dos>
 </calculation>
 <structure name="finalpos" >
  <crystal>
   <varray name="basis" >
    <v>      -2.45000000       2.45000000       1.27400000 </v>
    <v>       2.45000000      -2.45000000       1.27400000 </v>
    <v>       2.45000000       2.45000000      -1.27400000 </v>
   </varray>
   <i name="volume">     30.58874000 </i>
   <varray name="rec_basis" >
    <v>       0.00000000       0.20408163       0.39246468 </v>
    <v>       0.20408163       0.00000000       0.39246468 </v>
    <v>       0.20408163       0.20408163      -0.00000000 </v>
   </varray>
  </crystal>
  <varray name="positions" >
   <v>       0.25000000       0.75000000       0.50000000 </v>
   <v>       0.00000000       0.00000000       0.00000000 </v>
  </varray>
 </structure>
</modeling>
