unknown system                          
   1.00000000000000     
     0.000000    2.760614    2.760614
     2.760614    0.000000    2.760614
     2.760614    2.760614    0.000000
   Si
     2
Direct
  0.500000  0.500000  0.500000
  0.750000  0.750000  0.750000
 
   36   36   36
 0.82851190577E+00 0.84404627692E+00 0.89173526860E+00 0.97468635913E+00 0.10976505971E+01
 0.12665107465E+01 0.14877346449E+01 0.17677759722E+01 0.21122372058E+01 0.25245194610E+01
 0.30037971359E+01 0.35424999364E+01 0.41239443892E+01 0.47210913658E+01 0.52973639093E+01
 0.58099606044E+01 0.62153285002E+01 0.64757474058E+01 0.65655793608E+01 0.64757392388E+01
 0.62153191843E+01 0.58099661234E+01 0.52974025894E+01 0.47211674496E+01 0.41240380589E+01
 0.35425773002E+01 0.30038329769E+01 0.25245122817E+01 0.21122051307E+01 0.17677411957E+01
 0.14877107617E+01 0.12665002032E+01 0.10976494379E+01 0.97468955572E+00 0.89173920658E+00
 0.84404878765E+00 0.84404627692E+00 0.87114037811E+00 0.92707940936E+00 0.10151640523E+01
 0.11398647360E+01 0.13063378574E+01 0.15198703259E+01 0.17852022056E+01 0.21055877191E+01
 0.24814534789E+01 0.29086648101E+01 0.33766919410E+01 0.38672596347E+01 0.43541989251E+01
 0.48050623366E+01 0.51846057902E+01 0.54596408237E+01 0.56042642147E+01 0.56042649670E+01
 0.54596445047E+01 0.51846192463E+01 0.48050966103E+01 0.43542562673E+01 0.38673225929E+01
 0.33767323840E+01 0.29086659714E+01 0.24814211194E+01 0.21055416540E+01 0.17851616252E+01
 0.15198457267E+01 0.13063299461E+01 0.11398666605E+01 0.10151665696E+01 0.92707744452E+00
 0.87113565409E+00 0.84404384302E+00 0.89173526860E+00 0.92707940936E+00 0.98832854079E+00
 0.10787331803E+01 0.12023291096E+01 0.13634718957E+01 0.15662619480E+01 0.18138059704E+01
 0.21072388225E+01 0.24444905731E+01 0.28189361620E+01 0.32182527505E+01 0.36239424161E+01
 0.40119723897E+01 0.43547913393E+01 0.46246153569E+01 0.47974498791E+01 0.48569894404E+01
 0.47974535513E+01 0.46246253204E+01 0.43548115092E+01 0.40120011962E+01 0.36239666896E+01
 0.32182541225E+01 0.28189068830E+01 0.24444406501E+01 0.21071870606E+01 0.18137673788E+01
 0.15662431792E+01 0.13634720382E+01 0.12023400852E+01 0.10787425552E+01 0.98832753999E+00
 0.92706950948E+00 0.89172603442E+00 0.88019228133E+00 0.97468635913E+00 0.10151640523E+01
 0.10787331803E+01 0.11684739060E+01 0.12879331557E+01 0.14406623932E+01 0.16296233848E+01
 0.18564280134E+01 0.21204057155E+01 0.24175762019E+01 0.27397231697E+01 0.30738587006E+01
 0.34023876977E+01 0.37042068671E+01 0.39567991982E+01 0.41391210360E+01 0.42347792657E+01
 0.42347791081E+01 0.41391221661E+01 0.39568032556E+01 0.37042100303E+01 0.34023804561E+01
 0.30738332949E+01 0.27396816152E+01 0.24175299718E+01 0.21203679354E+01 0.18564070595E+01
 0.16296220150E+01 0.14406782240E+01 0.12879575092E+01 0.11684935685E+01 0.10787380572E+01
 0.10151545150E+01 0.97467256371E+00 0.95503403174E+00 0.95504030260E+00 0.10976505971E+01
 0.11398647360E+01 0.12023291096E+01 0.12879331557E+01 0.13997494913E+01 0.15405674639E+01
 0.17123002961E+01 0.19152656711E+01 0.21473862316E+01 0.24034280023E+01 0.26744674886E+01
 0.29478085336E+01 0.32075347513E+01 0.34357944402E+01 0.36147790762E+01 0.37291600012E+01
 0.37685180050E+01 0.37291569489E+01 0.36147741859E+01 0.34357849529E+01 0.32075146455E+01
 0.29477770584E+01 0.26744335647E+01 0.24034035515E+01 0.21473776106E+01 0.19152731765E+01
 0.17123221755E+01 0.15406000049E+01 0.13997841173E+01 0.12879581660E+01 0.12023368324E+01
 0.11398567491E+01 0.10976360593E+01 0.10733311972E+01 0.10654113053E+01 0.10733417340E+01
 0.12665107465E+01 0.13063378574E+01 0.13634718957E+01 0.14406623932E+01 0.15405674639E+01
 0.16652940042E+01 0.18158503697E+01 0.19915368577E+01 0.21893380254E+01 0.24034279356E+01
 0.26249415791E+01 0.28421698808E+01 0.30412907734E+01 0.32076704576E+01 0.33276523892E+01
 0.33905754900E+01 0.33905740711E+01 0.33276479781E+01 0.32076611340E+01 0.30412735544E+01
 0.28421471942E+01 0.26249241734E+01 0.24034269291E+01 0.21893556891E+01 0.19915678482E+01
 0.18158886534E+01 0.16653340595E+01 0.15406011878E+01 0.14406812593E+01 0.13634734313E+01
 0.13063273727E+01 0.12664965975E+01 0.12415177693E+01 0.12295317748E+01 0.12295359132E+01
 0.12415288772E+01 0.14877346449E+01 0.15198703259E+01 0.15662619480E+01 0.16296233848E+01
 0.17123002961E+01 0.18158503697E+01 0.19405948320E+01 0.20851664836E+01 0.22461041710E+01
 0.24175761839E+01 0.25913475097E+01 0.27571116550E+01 0.29032735929E+01 0.30181950159E+01
 0.30917838297E+01 0.31171339560E+01 0.30917839287E+01 0.30181923639E+01 0.29032655325E+01
 0.27571007156E+01 0.25913426632E+01 0.24175863954E+01 0.22461307855E+01 0.20852033881E+01
 0.19406340916E+01 0.18158843796E+01 0.17123208167E+01 0.16296249734E+01 0.15662478442E+01
 0.15198511954E+01 0.14877198608E+01 0.14671554937E+01 0.14558587263E+01 0.14522771393E+01
 0.14558618141E+01 0.14671634685E+01 0.17677759722E+01 0.17852022056E+01 0.18138059704E+01
 0.18564280134E+01 0.19152656711E+01 0.19915368577E+01 0.20851664836E+01 0.21945006141E+01
 0.23160746472E+01 0.24444907793E+01 0.25724961949E+01 0.26913728454E+01 0.27917212666E+01
 0.28646260009E+01 0.29030365595E+01 0.29030391294E+01 0.28646308538E+01 0.27917235677E+01
 0.26913721536E+01 0.25724973523E+01 0.24444989907E+01 0.23160913489E+01 0.21945235190E+01
 0.20851906082E+01 0.19915540240E+01 0.19152662991E+01 0.18564081071E+01 0.18137729521E+01
 0.17851712127E+01 0.17677585736E+01 0.17584123962E+01 0.17541689040E+01 0.17526919533E+01
 0.17526897840E+01 0.17541654712E+01 0.17584156113E+01 0.21122372058E+01 0.21055877191E+01
 0.21072388225E+01 0.21204057155E+01 0.21473862316E+01 0.21893380254E+01 0.22461041710E+01
 0.23160746472E+01 0.23960942999E+01 0.24814537164E+01 0.25660421792E+01 0.26427714526E+01
 0.27043411665E+01 0.27442942761E+01 0.27581516732E+01 0.27443036984E+01 0.27043537204E+01
 0.26427814293E+01 0.25660477863E+01 0.24814544996E+01 0.23960903813E+01 0.23160688839E+01
 0.22460996026E+01 0.21893309856E+01 0.21473669418E+01 0.21203694718E+01 0.21071941941E+01
 0.21055511113E+01 0.21122201358E+01 0.21233709221E+01 0.21350268130E+01 0.21436611792E+01
 0.21468275510E+01 0.21436512042E+01 0.21350147581E+01 0.21233686963E+01 0.25245194610E+01
 0.24814534789E+01 0.24444905731E+01 0.24175762019E+01 0.24034280023E+01 0.24034279356E+01
 0.24175761839E+01 0.24444907793E+01 0.24814537164E+01 0.25245195580E+01 0.25687473850E+01
 0.26086498452E+01 0.26389035576E+01 0.26552324144E+01 0.26552402713E+01 0.26389228191E+01
 0.26086706526E+01 0.25687591047E+01 0.25245134260E+01 0.24814267628E+01 0.24444502445E+01
 0.24175352210E+01 0.24033928034E+01 0.24033934867E+01 0.24175368412E+01 0.24444520232E+01
 0.24814282595E+01 0.25245144384E+01 0.25687593850E+01 0.26086701925E+01 0.26389220637E+01
 0.26552396256E+01 0.26552318285E+01 0.26389029130E+01 0.26086493480E+01 0.25687472026E+01
 0.30037971359E+01 0.29086648101E+01 0.28189361620E+01 0.27397231697E+01 0.26744674886E+01
 0.26249415791E+01 0.25913475097E+01 0.25724961949E+01 0.25660421792E+01 0.25687473850E+01
 0.25767969269E+01 0.25862351478E+01 0.25935458590E+01 0.25962825615E+01 0.25935638965E+01
 0.25862618412E+01 0.25768149592E+01 0.25687376900E+01 0.25659957243E+01 0.25724231643E+01
 0.25912717050E+01 0.26248821017E+01 0.26744274766E+01 0.27396974806E+01 0.28189243678E+01
 0.29086705347E+01 0.30038186009E+01 0.30977380519E+01 0.31827319046E+01 0.32508463291E+01
 0.32950150580E+01 0.33103213004E+01 0.32950008465E+01 0.32508227674E+01 0.31827036409E+01
 0.30977093322E+01 0.35424999364E+01 0.33766919410E+01 0.32182527505E+01 0.30738587006E+01
 0.29478085336E+01 0.28421698808E+01 0.27571116550E+01 0.26913728454E+01 0.26427714526E+01
 0.26086498452E+01 0.25862351478E+01 0.25729757504E+01 0.25668937925E+01 0.25669035498E+01
 0.25729996612E+01 0.25862554285E+01 0.26086399794E+01 0.26427138646E+01 0.26912772294E+01
 0.27570113723E+01 0.28420972670E+01 0.29477754458E+01 0.30738595657E+01 0.32182786847E+01
 0.33767357345E+01 0.35425511662E+01 0.37067675256E+01 0.38586177520E+01 0.39864611603E+01
 0.40792038619E+01 0.41280287500E+01 0.41280258464E+01 0.40791948741E+01 0.39864436128E+01
 0.38585867951E+01 0.37067222624E+01 0.41239443892E+01 0.38672596347E+01 0.36239424161E+01
 0.34023876977E+01 0.32075347513E+01 0.30412907734E+01 0.29032735929E+01 0.27917212666E+01
 0.27043411665E+01 0.26389035576E+01 0.25935458590E+01 0.25668937925E+01 0.25581094029E+01
 0.25669088470E+01 0.25935623222E+01 0.26388936048E+01 0.27042798769E+01 0.27916143915E+01
 0.29031613613E+01 0.30412173934E+01 0.32075174644E+01 0.34024162404E+01 0.36239983782E+01
 0.38673275041E+01 0.41240098505E+01 0.43821923367E+01 0.46270945951E+01 0.48421514008E+01
 0.50107711560E+01 0.51185657171E+01 0.51556736509E+01 0.51185739958E+01 0.50107799657E+01
 0.48421486907E+01 0.46270699578E+01 0.43821433117E+01 0.47210913658E+01 0.43541989251E+01
 0.40119723897E+01 0.37042068671E+01 0.34357944402E+01 0.32076704576E+01 0.30181950159E+01
 0.28646260009E+01 0.27442942761E+01 0.26552324144E+01 0.25962825615E+01 0.25669035498E+01
 0.25669088470E+01 0.25962905769E+01 0.26552189572E+01 0.27442314126E+01 0.28645139693E+01
 0.30180770246E+01 0.32076011513E+01 0.34357943096E+01 0.37042551731E+01 0.40120378016E+01
 0.43542626446E+01 0.47211440414E+01 0.50977141388E+01 0.54643934689E+01 0.57984325512E+01
 0.60761322050E+01 0.62756513735E+01 0.63800617754E+01 0.63800723873E+01 0.62756773940E+01
 0.60761599372E+01 0.57984475244E+01 0.54643855043E+01 0.50976809346E+01 0.52973639093E+01
 0.48050623366E+01 0.43547913393E+01 0.39567991982E+01 0.36147790762E+01 0.33276523892E+01
 0.30917838297E+01 0.29030365595E+01 0.27581516732E+01 0.26552402713E+01 0.25935638965E+01
 0.25729996612E+01 0.25935623222E+01 0.26552189572E+01 0.27580849416E+01 0.29029211753E+01
 0.30916615884E+01 0.33275845744E+01 0.36147904314E+01 0.39568586552E+01 0.43548509744E+01
 0.48050996729E+01 0.52973815066E+01 0.58140475310E+01 0.63304523556E+01 0.68166981518E+01
 0.72404409225E+01 0.75704070126E+01 0.77802571429E+01 0.78522978989E+01 0.77802769243E+01
 0.75704397110E+01 0.72404765349E+01 0.68167265229E+01 0.63304659979E+01 0.58140450880E+01
 0.58099606044E+01 0.51846057902E+01 0.46246153569E+01 0.41391210360E+01 0.37291600012E+01
 0.33905754900E+01 0.31171339560E+01 0.29030391294E+01 0.27443036984E+01 0.26389228191E+01
 0.25862618412E+01 0.25862554285E+01 0.26388936048E+01 0.27442314126E+01 0.29029211753E+01
 0.31170097423E+01 0.33905078367E+01 0.37291773347E+01 0.41391868438E+01 0.46246671079E+01
 0.51846140515E+01 0.58099385779E+01 0.64815996057E+01 0.71705284612E+01 0.78394863148E+01
 0.84464430140E+01 0.89488763755E+01 0.93085368355E+01 0.94962823960E+01 0.94962821129E+01
 0.93085393906E+01 0.89488888408E+01 0.84464683376E+01 0.78395190219E+01 0.71705616264E+01
 0.64816308620E+01 0.62153285002E+01 0.54596408237E+01 0.47974498791E+01 0.42347792657E+01
 0.37685180050E+01 0.33905740711E+01 0.30917839287E+01 0.28646308538E+01 0.27043537204E+01
 0.26086706526E+01 0.25768149592E+01 0.26086399794E+01 0.27042798769E+01 0.28645139693E+01
 0.30916615884E+01 0.33905078367E+01 0.37685386458E+01 0.42348496200E+01 0.47974986299E+01
 0.54596307098E+01 0.62152778930E+01 0.70461317043E+01 0.79204902168E+01 0.87948331027E+01
 0.96175233693E+01 0.10333726843E+02 0.10890973907E+02 0.11245193209E+02 0.11366743726E+02
 0.11245148617E+02 0.10890913925E+02 0.10333687667E+02 0.96175215521E+01 0.87948608303E+01
 0.79205353262E+01 0.70461878938E+01 0.64757474058E+01 0.56042642147E+01 0.48569894404E+01
 0.42347791081E+01 0.37291569489E+01 0.33276479781E+01 0.30181923639E+01 0.27917235677E+01
 0.26427814293E+01 0.25687591047E+01 0.25687376900E+01 0.26427138646E+01 0.27916143915E+01
 0.30180770246E+01 0.33275845744E+01 0.37291773347E+01 0.42348496200E+01 0.48570374536E+01
 0.56042473400E+01 0.64756841685E+01 0.74564530624E+01 0.85150809967E+01 0.96043018256E+01
 0.10664637522E+02 0.11629488373E+02 0.12430959158E+02 0.13006701300E+02 0.13308021252E+02
 0.13307965212E+02 0.13006562144E+02 0.12430805456E+02 0.11629383636E+02 0.10664602222E+02
 0.96043180961E+01 0.85151280821E+01 0.74565201142E+01 0.65655793608E+01 0.56042649670E+01
 0.47974535513E+01 0.41391221661E+01 0.36147741859E+01 0.32076611340E+01 0.29032655325E+01
 0.26913721536E+01 0.25660477863E+01 0.25245134260E+01 0.25659957243E+01 0.26912772294E+01
 0.29031613613E+01 0.32076011513E+01 0.36147904314E+01 0.41391868438E+01 0.47974986299E+01
 0.56042473400E+01 0.65655162006E+01 0.76725835378E+01 0.88977069745E+01 0.10193639409E+02
 0.11496618350E+02 0.12731086570E+02 0.13814892272E+02 0.14665752129E+02 0.15210722816E+02
 0.15398431589E+02 0.15210574711E+02 0.14665516821E+02 0.13814662673E+02 0.12730934674E+02
 0.11496557230E+02 0.10193640354E+02 0.88977449290E+01 0.76726472587E+01 0.64757392388E+01
 0.54596445047E+01 0.46246253204E+01 0.39568032556E+01 0.34357849529E+01 0.30412735544E+01
 0.27571007156E+01 0.25724973523E+01 0.24814544996E+01 0.24814267628E+01 0.25724231643E+01
 0.27570113723E+01 0.30412173934E+01 0.34357943096E+01 0.39568586552E+01 0.46246671079E+01
 0.54596307098E+01 0.64756841685E+01 0.76725835378E+01 0.90298121807E+01 0.10504441999E+02
 0.12033171362E+02 0.13536370851E+02 0.14921916772E+02 0.16088698157E+02 0.16932789479E+02
 0.17375189535E+02 0.17375113910E+02 0.16932584306E+02 0.16088428345E+02 0.14921670114E+02
 0.13536208612E+02 0.12033096164E+02 0.10504423479E+02 0.90298319490E+01 0.76726347366E+01
 0.62153191843E+01 0.51846192463E+01 0.43548115092E+01 0.37042100303E+01 0.32075146455E+01
 0.28421471942E+01 0.25913426632E+01 0.24444989907E+01 0.23960903813E+01 0.24444502445E+01
 0.25912717050E+01 0.28420972670E+01 0.32075174644E+01 0.37042551731E+01 0.43548509744E+01
 0.51846140515E+01 0.62152778930E+01 0.74564530624E+01 0.88977069745E+01 0.10504441999E+02
 0.12218674412E+02 0.13962458109E+02 0.15640353078E+02 0.17133712630E+02 0.18309011408E+02
 0.19059749005E+02 0.19317831968E+02 0.19059649950E+02 0.18308823672E+02 0.17133478515E+02
 0.15640138863E+02 0.13962309134E+02 0.12218590844E+02 0.10504404276E+02 0.88977084709E+01
 0.74564891638E+01 0.58099661234E+01 0.48050966103E+01 0.40120011962E+01 0.34023804561E+01
 0.29477770584E+01 0.26249241734E+01 0.24175863954E+01 0.23160913489E+01 0.23160688839E+01
 0.24175352210E+01 0.26248821017E+01 0.29477754458E+01 0.34024162404E+01 0.40120378016E+01
 0.48050996729E+01 0.58099385779E+01 0.70461317043E+01 0.85150809967E+01 0.10193639409E+02
 0.12033171362E+02 0.13962458109E+02 0.15889587507E+02 0.17687113503E+02 0.19198644692E+02
 0.20290258282E+02 0.20862963898E+02 0.20862948627E+02 0.20290196076E+02 0.19198514848E+02
 0.17686934910E+02 0.15889411849E+02 0.13962324316E+02 0.12033084895E+02 0.10193592287E+02
 0.85150727483E+01 0.70461559677E+01 0.52974025894E+01 0.43542562673E+01 0.36239666896E+01
 0.30738332949E+01 0.26744335647E+01 0.24034269291E+01 0.22461307855E+01 0.21945235190E+01
 0.22460996026E+01 0.24033928034E+01 0.26744274766E+01 0.30738595657E+01 0.36239983782E+01
 0.43542626446E+01 0.52973815066E+01 0.64815996057E+01 0.79204902168E+01 0.96043018256E+01
 0.11496618350E+02 0.13536370851E+02 0.15640353078E+02 0.17687113503E+02 0.19506513784E+02
 0.20940801475E+02 0.21860789228E+02 0.22178109163E+02 0.21860810473E+02 0.20940789564E+02
 0.19506425492E+02 0.17686966109E+02 0.15640200744E+02 0.13536251449E+02 0.11496538479E+02
 0.96042576488E+01 0.79204830468E+01 0.64816206755E+01 0.47211674496E+01 0.38673225929E+01
 0.32182541225E+01 0.27396816152E+01 0.24034035515E+01 0.21893556891E+01 0.20852033881E+01
 0.20851906082E+01 0.21893309856E+01 0.24033934867E+01 0.27396974806E+01 0.32182786847E+01
 0.38673275041E+01 0.47211440414E+01 0.58140475310E+01 0.71705284612E+01 0.87948331027E+01
 0.10664637522E+02 0.12731086570E+02 0.14921916772E+02 0.17133712630E+02 0.19198644692E+02
 0.20940801475E+02 0.22206204974E+02 0.22873507707E+02 0.22873546595E+02 0.22206274817E+02
 0.20940814884E+02 0.19198564652E+02 0.17133577864E+02 0.14921785086E+02 0.12730985402E+02
 0.10664568456E+02 0.87947982381E+01 0.71705325018E+01 0.58140768893E+01 0.41240380589E+01
 0.33767323840E+01 0.28189068830E+01 0.24175299718E+01 0.21473776106E+01 0.19915678482E+01
 0.19406340916E+01 0.19915540240E+01 0.21473669418E+01 0.24175368412E+01 0.28189243678E+01
 0.33767357345E+01 0.41240098505E+01 0.50977141388E+01 0.63304523556E+01 0.78394863148E+01
 0.96175233693E+01 0.11629488373E+02 0.13814892272E+02 0.16088698157E+02 0.18309011408E+02
 0.20290258282E+02 0.21860789228E+02 0.22873507707E+02 0.23223951599E+02 0.22873601552E+02
 0.21860883471E+02 0.20290267477E+02 0.18308933576E+02 0.16088587292E+02 0.13814788190E+02
 0.11629401801E+02 0.96174625586E+01 0.78394688647E+01 0.63304809816E+01 0.50977609374E+01
 0.35425773002E+01 0.29086659714E+01 0.24444406501E+01 0.21203679354E+01 0.19152731765E+01
 0.18158886534E+01 0.18158843796E+01 0.19152662991E+01 0.21203694718E+01 0.24444520232E+01
 0.29086705347E+01 0.35425511662E+01 0.43821923367E+01 0.54643934689E+01 0.68166981518E+01
 0.84464430140E+01 0.10333726843E+02 0.12430959158E+02 0.14665752129E+02 0.16932789479E+02
 0.19059749005E+02 0.20862963898E+02 0.22178109163E+02 0.22873546595E+02 0.22873601552E+02
 0.22178224095E+02 0.20863045729E+02 0.19059754240E+02 0.16932740691E+02 0.14665680578E+02
 0.12430876176E+02 0.10333647850E+02 0.84464018813E+01 0.68167191542E+01 0.54644578536E+01
 0.43822534475E+01 0.30038329769E+01 0.24814211194E+01 0.21071870606E+01 0.18564070595E+01
 0.17123221755E+01 0.16653340595E+01 0.17123208167E+01 0.18564081071E+01 0.21071941941E+01
 0.24814282595E+01 0.30038186009E+01 0.37067675256E+01 0.46270945951E+01 0.57984325512E+01
 0.72404409225E+01 0.89488763755E+01 0.10890973907E+02 0.13006701300E+02 0.15210722816E+02
 0.17375189535E+02 0.19317831968E+02 0.20862948627E+02 0.21860810473E+02 0.22206274817E+02
 0.21860883471E+02 0.20863045729E+02 0.19317906310E+02 0.17375227168E+02 0.15210721997E+02
 0.13006656319E+02 0.10890899276E+02 0.89488199430E+01 0.72404513186E+01 0.57985086319E+01
 0.46271859238E+01 0.37068250838E+01 0.25245122817E+01 0.21055416540E+01 0.18137673788E+01
 0.16296220150E+01 0.15406000049E+01 0.15406011878E+01 0.16296249734E+01 0.18137729521E+01
 0.21055511113E+01 0.25245144384E+01 0.30977380519E+01 0.38586177520E+01 0.48421514008E+01
 0.60761322050E+01 0.75704070126E+01 0.93085368355E+01 0.11245193209E+02 0.13308021252E+02
 0.15398431589E+02 0.17375113910E+02 0.19059649950E+02 0.20290196076E+02 0.20940789564E+02
 0.20940814884E+02 0.20290267477E+02 0.19059754240E+02 0.17375227168E+02 0.15398515614E+02
 0.13308038975E+02 0.11245146699E+02 0.93084800508E+01 0.75704082198E+01 0.60762122878E+01
 0.48422656671E+01 0.38587038640E+01 0.30977707482E+01 0.21122051307E+01 0.17851616252E+01
 0.15662431792E+01 0.14406782240E+01 0.13997841173E+01 0.14406812593E+01 0.15662478442E+01
 0.17851712127E+01 0.21122201358E+01 0.25687593850E+01 0.31827319046E+01 0.39864611603E+01
 0.50107711560E+01 0.62756513735E+01 0.77802571429E+01 0.94962823960E+01 0.11366743726E+02
 0.13307965212E+02 0.15210574711E+02 0.16932584306E+02 0.18308823672E+02 0.19198514848E+02
 0.19506425492E+02 0.19198564652E+02 0.18308933576E+02 0.16932740691E+02 0.15210721997E+02
 0.13308038975E+02 0.11366729378E+02 0.94962327926E+01 0.77802507708E+01 0.62757260563E+01
 0.50108942892E+01 0.39865662142E+01 0.31827786316E+01 0.25687584045E+01 0.17677411957E+01
 0.15198457267E+01 0.13634720382E+01 0.12879575092E+01 0.12879581660E+01 0.13634734313E+01
 0.15198511954E+01 0.17677585736E+01 0.21233709221E+01 0.26086701925E+01 0.32508463291E+01
 0.40792038619E+01 0.51185657171E+01 0.63800617754E+01 0.78522978989E+01 0.94962821129E+01
 0.11245148617E+02 0.13006562144E+02 0.14665516821E+02 0.16088428345E+02 0.17133478515E+02
 0.17686934910E+02 0.17686966109E+02 0.17133577864E+02 0.16088587292E+02 0.14665680578E+02
 0.13006656319E+02 0.11245146699E+02 0.94962327926E+01 0.78522824826E+01 0.63801253295E+01
 0.51186849626E+01 0.40793154461E+01 0.32509014707E+01 0.26086683514E+01 0.21233464155E+01
 0.14877107617E+01 0.13063299461E+01 0.12023400852E+01 0.11684935685E+01 0.12023368324E+01
 0.13063273727E+01 0.14877198608E+01 0.17584123962E+01 0.21350268130E+01 0.26389220637E+01
 0.32950150580E+01 0.41280287500E+01 0.51556736509E+01 0.63800723873E+01 0.77802769243E+01
 0.93085393906E+01 0.10890913925E+02 0.12430805456E+02 0.13814662673E+02 0.14921670114E+02
 0.15640138863E+02 0.15889411849E+02 0.15640200744E+02 0.14921785086E+02 0.13814788190E+02
 0.12430876176E+02 0.10890899276E+02 0.93084800508E+01 0.77802507708E+01 0.63801253295E+01
 0.51557863087E+01 0.41281414831E+01 0.32950764014E+01 0.26389218755E+01 0.21349941524E+01
 0.17583840304E+01 0.12665002032E+01 0.11398666605E+01 0.10787425552E+01 0.10787380572E+01
 0.11398567491E+01 0.12664965975E+01 0.14671554937E+01 0.17541689040E+01 0.21436611792E+01
 0.26552396256E+01 0.33103213004E+01 0.41280258464E+01 0.51185739958E+01 0.62756773940E+01
 0.75704397110E+01 0.89488888408E+01 0.10333687667E+02 0.11629383636E+02 0.12730934674E+02
 0.13536208612E+02 0.13962309134E+02 0.13962324316E+02 0.13536251449E+02 0.12730985402E+02
 0.11629401801E+02 0.10333647850E+02 0.89488199430E+01 0.75704082198E+01 0.62757260563E+01
 0.51186849626E+01 0.41281414831E+01 0.33103900316E+01 0.26552459615E+01 0.21436268660E+01
 0.17541309815E+01 0.14671385148E+01 0.10976494379E+01 0.10151665696E+01 0.98832753999E+00
 0.10151545150E+01 0.10976360593E+01 0.12415177693E+01 0.14558587263E+01 0.17526919533E+01
 0.21468275510E+01 0.26552318285E+01 0.32950008465E+01 0.40791948741E+01 0.50107799657E+01
 0.60761599372E+01 0.72404765349E+01 0.84464683376E+01 0.96175215521E+01 0.10664602222E+02
 0.11496557230E+02 0.12033096164E+02 0.12218590844E+02 0.12033084895E+02 0.11496538479E+02
 0.10664568456E+02 0.96174625586E+01 0.84464018813E+01 0.72404513186E+01 0.60762122878E+01
 0.50108942892E+01 0.40793154461E+01 0.32950764014E+01 0.26552459615E+01 0.21467975192E+01
 0.17526501551E+01 0.14558326086E+01 0.12415162084E+01 0.97468955572E+00 0.92707744452E+00
 0.92706950948E+00 0.97467256371E+00 0.10733311972E+01 0.12295317748E+01 0.14522771393E+01
 0.17526897840E+01 0.21436512042E+01 0.26389029130E+01 0.32508227674E+01 0.39864436128E+01
 0.48421486907E+01 0.57984475244E+01 0.68167265229E+01 0.78395190219E+01 0.87948608303E+01
 0.96043180961E+01 0.10193640354E+02 0.10504423479E+02 0.10504404276E+02 0.10193592287E+02
 0.96042576488E+01 0.87947982381E+01 0.78394688647E+01 0.68167191542E+01 0.57985086319E+01
 0.48422656671E+01 0.39865662142E+01 0.32509014707E+01 0.26389218755E+01 0.21436268660E+01
 0.17526501551E+01 0.14522461629E+01 0.12295222207E+01 0.10733415991E+01 0.89173920658E+00
 0.87113565409E+00 0.89172603442E+00 0.95503403174E+00 0.10654113053E+01 0.12295359132E+01
 0.14558618141E+01 0.17541654712E+01 0.21350147581E+01 0.26086493480E+01 0.31827036409E+01
 0.38585867951E+01 0.46270699578E+01 0.54643855043E+01 0.63304659979E+01 0.71705616264E+01
 0.79205353262E+01 0.85151280821E+01 0.88977449290E+01 0.90298319490E+01 0.88977084709E+01
 0.85150727483E+01 0.79204830468E+01 0.71705325018E+01 0.63304809816E+01 0.54644578536E+01
 0.46271859238E+01 0.38587038640E+01 0.31827786316E+01 0.26086683514E+01 0.21349941524E+01
 0.17541309815E+01 0.14558326086E+01 0.12295222207E+01 0.10654154895E+01 0.95504937891E+00
 0.84404878765E+00 0.84404384302E+00 0.88019228133E+00 0.95504030260E+00 0.10733417340E+01
 0.12415288772E+01 0.14671634685E+01 0.17584156113E+01 0.21233686963E+01 0.25687472026E+01
 0.30977093322E+01 0.37067222624E+01 0.43821433117E+01 0.50976809346E+01 0.58140450880E+01
 0.64816308620E+01 0.70461878938E+01 0.74565201142E+01 0.76726472587E+01 0.76726347366E+01
 0.74564891638E+01 0.70461559677E+01 0.64816206755E+01 0.58140768893E+01 0.50977609374E+01
 0.43822534475E+01 0.37068250838E+01 0.30977707482E+01 0.25687584045E+01 0.21233464155E+01
 0.17583840304E+01 0.14671385148E+01 0.12415162084E+01 0.10733415991E+01 0.95504937891E+00
 0.88020340643E+00 0.84404648785E+00 0.87114046873E+00 0.92707954143E+00 0.10151642188E+01
 0.11398648066E+01 0.13063378342E+01 0.15198703349E+01 0.17852022627E+01 0.21055877377E+01
 0.24814534883E+01 0.29086649208E+01 0.33766920962E+01 0.38672596195E+01 0.43541986122E+01
 0.48050617244E+01 0.51846048665E+01 0.54596396729E+01 0.56042632436E+01 0.56042647231E+01
 0.54596451717E+01 0.51846204517E+01 0.48050976940E+01 0.43542565817E+01 0.38673216964E+01
 0.33767303192E+01 0.29086634233E+01 0.24814190493E+01 0.21055406744E+01 0.17851618008E+01
 0.15198468366E+01 0.13063316546E+01 0.11398684953E+01 0.10151680797E+01 0.92707848362E+00
 0.87113634495E+00 0.84404428473E+00 0.87114046873E+00 0.90595767970E+00 0.96621524985E+00
 0.10550334285E+01 0.11763328655E+01 0.13344056616E+01 0.15333543758E+01 0.17763412528E+01
 0.20645827319E+01 0.23960940761E+01 0.27643392434E+01 0.31571169870E+01 0.35561307926E+01
 0.39376699785E+01 0.42746298328E+01 0.45397458607E+01 0.47095168405E+01 0.47679919120E+01
 0.47095197147E+01 0.45397547884E+01 0.42746499227E+01 0.39377017029E+01 0.35561632726E+01
 0.31571324388E+01 0.27643270531E+01 0.23960589995E+01 0.20645395872E+01 0.17763047360E+01
 0.15333334426E+01 0.13344017189E+01 0.11763391882E+01 0.10550387042E+01 0.96621186612E+00
 0.90594738230E+00 0.87113170812E+00 0.85976084864E+00 0.92707954143E+00 0.96621524985E+00
 0.10274859878E+01 0.11137485335E+01 0.12283998856E+01 0.13749615884E+01 0.15564823110E+01
 0.17747306153E+01 0.20292040806E+01 0.23160745108E+01 0.26272893179E+01 0.29501106958E+01
 0.32673657692E+01 0.35585925065E+01 0.38020992800E+01 0.39777230797E+01 0.40698173141E+01
 0.40698161906E+01 0.39777220726E+01 0.38021025824E+01 0.35586003458E+01 0.32673716802E+01
 0.29501056483E+01 0.26272690473E+01 0.23160428263E+01 0.20291699321E+01 0.17747033031E+01
 0.15564684850E+01 0.13749629402E+01 0.12284109942E+01 0.11137585848E+01 0.10274859353E+01
 0.96620464216E+00 0.92706643924E+00 0.90803191113E+00 0.90803769574E+00 0.10151642188E+01
 0.10550334285E+01 0.11137485335E+01 0.11939603522E+01 0.12986482615E+01 0.14306780598E+01
 0.15921660338E+01 0.17836745231E+01 0.20033398739E+01 0.22461041548E+01 0.25032567944E+01
 0.27624729501E+01 0.30084695058E+01 0.32243103899E+01 0.33932844513E+01 0.35011313613E+01
 0.35382144983E+01 0.35011260753E+01 0.33932776970E+01 0.32243036678E+01 0.30084595843E+01
 0.27624567799E+01 0.25032359683E+01 0.22460831712E+01 0.20033226514E+01 0.17836643841E+01
 0.15921664969E+01 0.14306900734E+01 0.12986666901E+01 0.11939756536E+01 0.11137531957E+01
 0.10550269273E+01 0.10151526081E+01 0.99208704688E+00 0.98454753460E+00 0.99209559881E+00
 0.11398648066E+01 0.11763328655E+01 0.12283998856E+01 0.12986482615E+01 0.13897645342E+01
 0.15040584973E+01 0.16428295360E+01 0.18056522228E+01 0.19897103916E+01 0.21893380010E+01
 0.23959142881E+01 0.25982096244E+01 0.27832100456E+01 0.29373872441E+01 0.30483116983E+01
 0.31063921966E+01 0.31063895739E+01 0.30483052411E+01 0.29373784010E+01 0.27831976908E+01
 0.25981937981E+01 0.23958999225E+01 0.21893312778E+01 0.19897130549E+01 0.18056625119E+01
 0.16428464546E+01 0.15040810063E+01 0.13897876923E+01 0.12986645146E+01 0.12284049829E+01
 0.11763286197E+01 0.11398564387E+01 0.11168312996E+01 0.11057181630E+01 0.11057210544E+01
 0.11168386890E+01 0.13063378342E+01 0.13344056616E+01 0.13749615884E+01 0.14306780598E+01
 0.15040584973E+01 0.15969483067E+01 0.17099755263E+01 0.18420043892E+01 0.19897103681E+01
 0.21473861375E+01 0.23070642305E+01 0.24589992208E+01 0.25925069966E+01 0.26971159488E+01
 0.27639173319E+01 0.27868942836E+01 0.27639168368E+01 0.26971133366E+01 0.25925003582E+01
 0.24589897034E+01 0.23070577030E+01 0.21473892398E+01 0.19897248781E+01 0.18420270361E+01
 0.17100019286E+01 0.15969740946E+01 0.15040779343E+01 0.14306861788E+01 0.13749588796E+01
 0.13343979443E+01 0.13063307106E+01 0.12882935579E+01 0.12783191319E+01 0.12751408678E+01
 0.12783214432E+01 0.12882982106E+01 0.15198703349E+01 0.15333543758E+01 0.15564823110E+01
 0.15921660338E+01 0.16428295360E+01 0.17099755263E+01 0.17937687316E+01 0.18926921524E+01
 0.20033398356E+01 0.21204056687E+01 0.22369166360E+01 0.23447416956E+01 0.24353796529E+01
 0.25009777918E+01 0.25354477465E+01 0.25354501696E+01 0.25009821675E+01 0.24353808428E+01
 0.23447386892E+01 0.22369140595E+01 0.21204093522E+01 0.20033521756E+01 0.18927116097E+01
 0.17937912834E+01 0.17099949252E+01 0.16428383779E+01 0.15921603833E+01 0.15564662114E+01
 0.15333377029E+01 0.15198608856E+01 0.15130434479E+01 0.15102060987E+01 0.15093298594E+01
 0.15093287798E+01 0.15102043128E+01 0.15130451062E+01 0.17852022627E+01 0.17763412528E+01
 0.17747306153E+01 0.17836745231E+01 0.18056522228E+01 0.18420043892E+01 0.18926921524E+01
 0.19561426891E+01 0.20292040747E+01 0.21072388836E+01 0.21843965453E+01 0.22541065168E+01
 0.23098030606E+01 0.23458182599E+01 0.23582850035E+01 0.23458248526E+01 0.23098103263E+01
 0.22541094441E+01 0.21843951771E+01 0.21072361084E+01 0.20292027591E+01 0.19561453249E+01
 0.18926992380E+01 0.18420111409E+01 0.18056499638E+01 0.17836583608E+01 0.17747051891E+01
 0.17763175774E+01 0.17851893691E+01 0.17975697879E+01 0.18097291023E+01 0.18184736857E+01
 0.18216411342E+01 0.18184673999E+01 0.18097222214E+01 0.17975702205E+01 0.21055877377E+01
 0.20645827319E+01 0.20292040806E+01 0.20033398739E+01 0.19897103916E+01 0.19897103681E+01
 0.20033398356E+01 0.20292040747E+01 0.20645827603E+01 0.21055877703E+01 0.21474540540E+01
 0.21850138024E+01 0.22133594915E+01 0.22286114109E+01 0.22286160876E+01 0.22133697896E+01
 0.21850219668E+01 0.21474538849E+01 0.21055769335E+01 0.20645633936E+01 0.20291832150E+01
 0.20033253896E+01 0.19897031538E+01 0.19897024892E+01 0.20033237243E+01 0.20291813773E+01
 0.20645622902E+01 0.21055770730E+01 0.21474551749E+01 0.21850239043E+01 0.22133718034E+01
 0.22286177519E+01 0.22286125109E+01 0.22133600383E+01 0.21850139779E+01 0.21474540655E+01
 0.24814534883E+01 0.23960940761E+01 0.23160745108E+01 0.22461041548E+01 0.21893380010E+01
 0.21473861375E+01 0.21204056687E+01 0.21072388836E+01 0.21055877703E+01 0.21122371669E+01