   2   2   0   0
  0.2103861E+02  0.3904098E-09  0.3904098E-09  0.3904098E-09  0.5000000E-15
  1.000000000000000E-004
  CAR 
 unknown system                          
     16.52400662     -8.24087341  301      5.68294083      1.00000000
     -8.241  0.0000E+00  0.0000E+00
     -8.158  0.0000E+00  0.0000E+00
     -8.076  0.0000E+00  0.0000E+00
     -7.993  0.0000E+00  0.0000E+00
     -7.911  0.0000E+00  0.0000E+00
     -7.828  0.0000E+00  0.0000E+00
     -7.746  0.0000E+00  0.0000E+00
     -7.663  0.0000E+00  0.0000E+00
     -7.580  0.0000E+00  0.0000E+00
     -7.498  0.0000E+00  0.0000E+00
     -7.415  0.3502E-18  0.2891E-19
     -7.333  0.3607E-16  0.3007E-17
     -7.250  0.2968E-14  0.2480E-15
     -7.168  0.1746E-12  0.1466E-13
     -7.085  0.7352E-11  0.6216E-12
     -7.003  0.2219E-09  0.1894E-10
     -6.920  0.4806E-08  0.4157E-09
     -6.838  0.7496E-07  0.6604E-08
     -6.755  0.8452E-06  0.7637E-07
     -6.672  0.6933E-05  0.6487E-06
     -6.590  0.4177E-04  0.4097E-05
     -6.507  0.1874E-03  0.1957E-04
     -6.425  0.6378E-03  0.7221E-04
     -6.342  0.1683E-02  0.2111E-03
     -6.260  0.3531E-02  0.5026E-03
     -6.177  0.6051E-02  0.1002E-02
     -6.095  0.8770E-02  0.1726E-02
     -6.012  0.1127E-01  0.2656E-02
     -5.929  0.1354E-01  0.3774E-02
     -5.847  0.1575E-01  0.5074E-02
     -5.764  0.1763E-01  0.6529E-02
     -5.682  0.1881E-01  0.8082E-02
     -5.599  0.1969E-01  0.9707E-02
     -5.517  0.2132E-01  0.1147E-01
     -5.434  0.2385E-01  0.1344E-01
     -5.352  0.2589E-01  0.1557E-01
     -5.269  0.2637E-01  0.1775E-01
     -5.187  0.2625E-01  0.1992E-01
     -5.104  0.2713E-01  0.2216E-01
     -5.021  0.2917E-01  0.2457E-01
     -4.939  0.3150E-01  0.2717E-01
     -4.856  0.3376E-01  0.2995E-01
     -4.774  0.3587E-01  0.3291E-01
     -4.691  0.3722E-01  0.3599E-01
     -4.609  0.3720E-01  0.3906E-01
     -4.526  0.3640E-01  0.4206E-01
     -4.444  0.3699E-01  0.4512E-01
     -4.361  0.4118E-01  0.4852E-01
     -4.278  0.4814E-01  0.5249E-01
     -4.196  0.5406E-01  0.5695E-01
     -4.113  0.5650E-01  0.6162E-01
     -4.031  0.5674E-01  0.6630E-01
     -3.948  0.5682E-01  0.7099E-01
     -3.866  0.5653E-01  0.7566E-01
     -3.783  0.5418E-01  0.8013E-01
     -3.701  0.5008E-01  0.8426E-01
     -3.618  0.4786E-01  0.8821E-01
     -3.536  0.5056E-01  0.9239E-01
     -3.453  0.5581E-01  0.9699E-01
     -3.370  0.5750E-01  0.1017E+00
     -3.288  0.5224E-01  0.1061E+00
     -3.205  0.4242E-01  0.1096E+00
     -3.123  0.3296E-01  0.1123E+00
     -3.040  0.2710E-01  0.1145E+00
     -2.958  0.2579E-01  0.1166E+00
     -2.875  0.2884E-01  0.1190E+00
     -2.793  0.3453E-01  0.1219E+00
     -2.710  0.3886E-01  0.1251E+00
     -2.628  0.3759E-01  0.1282E+00
     -2.545  0.2978E-01  0.1306E+00
     -2.462  0.1877E-01  0.1322E+00
     -2.380  0.9213E-02  0.1329E+00
     -2.297  0.3496E-02  0.1332E+00
     -2.215  0.1307E-02  0.1333E+00
     -2.132  0.1845E-02  0.1335E+00
     -2.050  0.5805E-02  0.1340E+00
     -1.967  0.1475E-01  0.1352E+00
     -1.885  0.2759E-01  0.1375E+00
     -1.802  0.3834E-01  0.1406E+00
     -1.719  0.4083E-01  0.1440E+00
     -1.637  0.3612E-01  0.1470E+00
     -1.554  0.3193E-01  0.1496E+00
     -1.472  0.3530E-01  0.1525E+00
     -1.389  0.4742E-01  0.1565E+00
     -1.307  0.6353E-01  0.1617E+00
     -1.224  0.7665E-01  0.1680E+00
     -1.142  0.8267E-01  0.1749E+00
     -1.059  0.8111E-01  0.1815E+00
     -0.977  0.7239E-01  0.1875E+00
     -0.894  0.5928E-01  0.1924E+00
     -0.811  0.4852E-01  0.1964E+00
     -0.729  0.4467E-01  0.2001E+00
     -0.646  0.4391E-01  0.2037E+00
     -0.564  0.3935E-01  0.2070E+00
     -0.481  0.3086E-01  0.2095E+00
     -0.399  0.2478E-01  0.2116E+00
     -0.316  0.2542E-01  0.2137E+00
     -0.234  0.3125E-01  0.2163E+00
     -0.151  0.3730E-01  0.2193E+00
     -0.068  0.3842E-01  0.2225E+00
      0.014  0.3283E-01  0.2252E+00
      0.097  0.2403E-01  0.2272E+00
      0.179  0.1778E-01  0.2287E+00
      0.262  0.1740E-01  0.2301E+00
      0.344  0.2179E-01  0.2319E+00
      0.427  0.2618E-01  0.2341E+00
      0.509  0.2565E-01  0.2362E+00
      0.592  0.1990E-01  0.2378E+00
      0.674  0.1350E-01  0.2389E+00
      0.757  0.1075E-01  0.2398E+00
      0.840  0.1203E-01  0.2408E+00
      0.922  0.1566E-01  0.2421E+00
      1.005  0.2109E-01  0.2438E+00
      1.087  0.2850E-01  0.2462E+00
      1.170  0.3689E-01  0.2492E+00
      1.252  0.4449E-01  0.2529E+00
      1.335  0.5042E-01  0.2571E+00
      1.417  0.5589E-01  0.2617E+00
      1.500  0.6344E-01  0.2669E+00
      1.583  0.7328E-01  0.2730E+00
      1.665  0.8123E-01  0.2797E+00
      1.748  0.8280E-01  0.2865E+00
      1.830  0.7852E-01  0.2930E+00
      1.913  0.7313E-01  0.2990E+00
      1.995  0.7054E-01  0.3049E+00
      2.078  0.7076E-01  0.3107E+00
      2.160  0.7153E-01  0.3166E+00
      2.243  0.7229E-01  0.3226E+00
      2.325  0.7576E-01  0.3288E+00
      2.408  0.8461E-01  0.3358E+00
      2.491  0.9597E-01  0.3437E+00
      2.573  0.1020E+00  0.3522E+00
      2.656  0.9926E-01  0.3604E+00
      2.738  0.9444E-01  0.3681E+00
      2.821  0.9511E-01  0.3760E+00
      2.903  0.9958E-01  0.3842E+00
      2.986  0.1006E+00  0.3925E+00
      3.068  0.9667E-01  0.4005E+00
      3.151  0.9422E-01  0.4083E+00
      3.234  0.9878E-01  0.4164E+00
      3.316  0.1059E+00  0.4252E+00
      3.399  0.1052E+00  0.4339E+00
      3.481  0.9345E-01  0.4416E+00
      3.564  0.7880E-01  0.4481E+00
      3.646  0.7246E-01  0.4541E+00
      3.729  0.7802E-01  0.4605E+00
      3.811  0.8883E-01  0.4678E+00
      3.894  0.9484E-01  0.4757E+00
      3.976  0.9109E-01  0.4832E+00
      4.059  0.8006E-01  0.4898E+00
      4.142  0.6828E-01  0.4954E+00
      4.224  0.6139E-01  0.5005E+00
      4.307  0.5982E-01  0.5054E+00
      4.389  0.5802E-01  0.5102E+00
      4.472  0.5060E-01  0.5144E+00
      4.554  0.3927E-01  0.5176E+00
      4.637  0.3064E-01  0.5202E+00
      4.719  0.2808E-01  0.5225E+00
      4.802  0.2857E-01  0.5249E+00
      4.885  0.2709E-01  0.5271E+00
      4.967  0.2231E-01  0.5289E+00
      5.050  0.1669E-01  0.5303E+00
      5.132  0.1249E-01  0.5313E+00
      5.215  0.9602E-02  0.5321E+00
      5.297  0.6986E-02  0.5327E+00
      5.380  0.4337E-02  0.5331E+00
      5.462  0.2149E-02  0.5332E+00
      5.545  0.8185E-03  0.5333E+00
      5.627  0.2374E-03  0.5333E+00
      5.710  0.7833E-04  0.5333E+00
      5.793  0.1815E-03  0.5334E+00
      5.875  0.7585E-03  0.5334E+00
      5.958  0.2401E-02  0.5336E+00
      6.040  0.5591E-02  0.5341E+00
      6.123  0.9767E-02  0.5349E+00
      6.205  0.1340E-01  0.5360E+00
      6.288  0.1595E-01  0.5373E+00
      6.370  0.1912E-01  0.5389E+00
      6.453  0.2473E-01  0.5409E+00
      6.536  0.3166E-01  0.5435E+00
      6.618  0.3690E-01  0.5466E+00
      6.701  0.4000E-01  0.5499E+00
      6.783  0.4371E-01  0.5535E+00
      6.866  0.4928E-01  0.5576E+00
      6.948  0.5446E-01  0.5621E+00
      7.031  0.5736E-01  0.5668E+00
      7.113  0.5896E-01  0.5717E+00
      7.196  0.6196E-01  0.5768E+00
      7.278  0.6979E-01  0.5825E+00
      7.361  0.8479E-01  0.5895E+00
      7.444  0.1039E+00  0.5981E+00
      7.526  0.1177E+00  0.6078E+00
      7.609  0.1180E+00  0.6176E+00
      7.691  0.1067E+00  0.6264E+00
      7.774  0.9312E-01  0.6341E+00
      7.856  0.8550E-01  0.6411E+00
      7.939  0.8489E-01  0.6481E+00
      8.021  0.8599E-01  0.6552E+00
      8.104  0.8311E-01  0.6621E+00
      8.186  0.7650E-01  0.6684E+00
      8.269  0.7131E-01  0.6743E+00
      8.352  0.7291E-01  0.6803E+00
      8.434  0.8445E-01  0.6873E+00
      8.517  0.1046E+00  0.6959E+00
      8.599  0.1256E+00  0.7063E+00
      8.682  0.1372E+00  0.7176E+00
      8.764  0.1357E+00  0.7288E+00
      8.847  0.1268E+00  0.7393E+00
      8.929  0.1185E+00  0.7491E+00
      9.012  0.1132E+00  0.7584E+00
      9.095  0.1080E+00  0.7673E+00
      9.177  0.1013E+00  0.7757E+00
      9.260  0.9474E-01  0.7835E+00
      9.342  0.9001E-01  0.7909E+00
      9.425  0.8742E-01  0.7981E+00
      9.507  0.8666E-01  0.8053E+00
      9.590  0.8642E-01  0.8124E+00
      9.672  0.8578E-01  0.8195E+00
      9.755  0.8579E-01  0.8266E+00
      9.837  0.8713E-01  0.8338E+00
      9.920  0.8842E-01  0.8411E+00
     10.003  0.8969E-01  0.8485E+00
     10.085  0.9364E-01  0.8562E+00
     10.168  0.9976E-01  0.8645E+00
     10.250  0.1015E+00  0.8728E+00
     10.333  0.9395E-01  0.8806E+00
     10.415  0.8036E-01  0.8872E+00
     10.498  0.6855E-01  0.8929E+00
     10.580  0.6254E-01  0.8980E+00
     10.663  0.6079E-01  0.9031E+00
     10.746  0.6151E-01  0.9081E+00
     10.828  0.6693E-01  0.9137E+00
     10.911  0.7889E-01  0.9202E+00
     10.993  0.9289E-01  0.9278E+00
     11.076  0.1015E+00  0.9362E+00
     11.158  0.1011E+00  0.9446E+00
     11.241  0.9196E-01  0.9522E+00
     11.323  0.7659E-01  0.9585E+00
     11.406  0.6008E-01  0.9634E+00
     11.488  0.4880E-01  0.9675E+00
     11.571  0.4604E-01  0.9713E+00
     11.654  0.4870E-01  0.9753E+00
     11.736  0.4994E-01  0.9794E+00
     11.819  0.4666E-01  0.9833E+00
     11.901  0.4281E-01  0.9868E+00
     11.984  0.4498E-01  0.9905E+00
     12.066  0.5675E-01  0.9952E+00
     12.149  0.7444E-01  0.1001E+01
     12.231  0.8707E-01  0.1009E+01
     12.314  0.8472E-01  0.1016E+01
     12.397  0.6797E-01  0.1021E+01
     12.479  0.4650E-01  0.1025E+01
     12.562  0.3048E-01  0.1027E+01
     12.644  0.2481E-01  0.1030E+01
     12.727  0.2718E-01  0.1032E+01
     12.809  0.3056E-01  0.1034E+01
     12.892  0.3039E-01  0.1037E+01
     12.974  0.2866E-01  0.1039E+01
     13.057  0.2912E-01  0.1042E+01
     13.139  0.3184E-01  0.1044E+01
     13.222  0.3503E-01  0.1047E+01
     13.305  0.3798E-01  0.1050E+01
     13.387  0.3927E-01  0.1053E+01
     13.470  0.3556E-01  0.1056E+01
     13.552  0.2589E-01  0.1059E+01
     13.635  0.1438E-01  0.1060E+01
     13.717  0.5957E-02  0.1060E+01
     13.800  0.1994E-02  0.1060E+01
     13.882  0.1240E-02  0.1061E+01
     13.965  0.2553E-02  0.1061E+01
     14.048  0.5275E-02  0.1061E+01
     14.130  0.8090E-02  0.1062E+01
     14.213  0.9303E-02  0.1063E+01
     14.295  0.8827E-02  0.1063E+01
     14.378  0.8402E-02  0.1064E+01
     14.460  0.8903E-02  0.1065E+01
     14.543  0.8977E-02  0.1065E+01
     14.625  0.7256E-02  0.1066E+01
     14.708  0.4379E-02  0.1066E+01
     14.790  0.1931E-02  0.1067E+01
     14.873  0.6188E-03  0.1067E+01
     14.956  0.1437E-03  0.1067E+01
     15.038  0.2413E-04  0.1067E+01
     15.121  0.2929E-05  0.1067E+01
     15.203  0.2565E-06  0.1067E+01
     15.286  0.1618E-07  0.1067E+01
     15.368  0.7347E-09  0.1067E+01
     15.451  0.2397E-10  0.1067E+01
     15.533  0.5613E-12  0.1067E+01
     15.616  0.9427E-14  0.1067E+01
     15.699  0.1135E-15  0.1067E+01
     15.781  0.0000E+00  0.1067E+01
     15.864  0.0000E+00  0.1067E+01
     15.946  0.0000E+00  0.1067E+01
     16.029  0.0000E+00  0.1067E+01
     16.111  0.0000E+00  0.1067E+01
     16.194  0.0000E+00  0.1067E+01
     16.276  0.0000E+00  0.1067E+01
     16.359  0.0000E+00  0.1067E+01
     16.441  0.0000E+00  0.1067E+01
     16.524  0.0000E+00  0.1067E+01
