    2    2   15    1
  0.2103861E+02  0.3904098E-09  0.3904098E-09  0.3904098E-09  0.5000000E-15
  1.000000000000000E-004
  CAR 
 unknown system                          
      8     60      8
 
  0.6250000E-01  0.6250000E-01  0.6250000E-01  0.3906250E-02
    1       -6.240873   1.000000
    2        4.799048   1.000000
    3        5.254683   0.998770
    4        5.254683   0.998770
    5        7.870739   0.000000
    6        7.997702   0.000000
    7        7.997702   0.000000
    8        8.605576   0.000000
 
  0.1875000E+00  0.6250000E-01  0.6250000E-01  0.1171875E-01
    1       -5.981167   1.000000
    2        3.309254   1.000000
    3        4.477416   1.000000
    4        5.137942   0.999942
    5        7.888880   0.000000
    6        8.236814   0.000000
    7        8.502114   0.000000
    8       10.126095   0.000000
 
  0.3125000E+00  0.6250000E-01  0.6250000E-01  0.1171875E-01
    1       -5.355337   1.000000
    2        1.144263   1.000000
    3        3.998443   1.000000
    4        4.689493   1.000000
    5        7.436137   0.000000
    6        8.728086   0.000000
    7        9.004431   0.000000
    8       11.732146   0.000000
 
  0.4375000E+00  0.6250000E-01  0.6250000E-01  0.1171875E-01
    1       -4.486789   1.000000
    2       -0.682263   1.000000
    3        3.783614   1.000000
    4        4.294823   1.000000
    5        7.123218   0.000000
    6        8.809976   0.000000
    7        8.823623   0.000000
    8       13.029621   0.000000
 
 -0.4375000E+00  0.6250000E-01  0.6250000E-01  0.1171875E-01
    1       -4.060227   1.000000
    2       -1.354277   1.000000
    3        3.828545   1.000000
    4        4.084573   1.000000
    5        7.044835   0.000000
    6        8.626648   0.000000
    7        8.888880   0.000000
    8       13.129443   0.000000
 
 -0.3125000E+00  0.6250000E-01  0.6250000E-01  0.1171875E-01
    1       -4.783291   1.000000
    2       -0.143574   1.000000
    3        4.106059   1.000000
    4        4.107340   1.000000
    5        7.212899   0.000000
    6        8.621430   0.000000
    7        9.128968   0.000000
    8       12.168243   0.000000
 
 -0.1875000E+00  0.6250000E-01  0.6250000E-01  0.1171875E-01
    1       -5.600487   1.000000
    2        1.853530   1.000000
    3        4.377848   1.000000
    4        4.558269   1.000000
    5        7.577271   0.000000
    6        8.451313   0.000000
    7        9.160729   0.000000
    8       10.962584   0.000000
 
 -0.6250000E-01  0.6250000E-01  0.6250000E-01  0.1171875E-01
    1       -6.110315   1.000000
    2        4.047125   1.000000
    3        4.845509   1.000000
    4        4.990334   1.000000
    5        7.716269   0.000000
    6        8.212630   0.000000
    7        8.556359   0.000000
    8        9.377145   0.000000
 
  0.1875000E+00  0.1875000E+00  0.6250000E-01  0.1171875E-01
    1       -5.850425   1.000000
    2        3.152603   1.000000
    3        4.307396   1.000000
    4        4.378070   1.000000
    5        7.311031   0.000000
    6        8.936639   0.000000
    7        9.388649   0.000000
    8        9.849963   0.000000
 
  0.3125000E+00  0.1875000E+00  0.6250000E-01  0.2343750E-01
    1       -5.342640   1.000000
    2        1.685354   1.000000
    3        3.367037   1.000000
    4        4.128665   1.000000
    5        7.473562   0.000000
    6        9.040834   0.000000
    7        9.782297   0.000000
    8       10.167239   0.000000
 
  0.4375000E+00  0.1875000E+00  0.6250000E-01  0.2343750E-01
    1       -4.527157   1.000000
    2       -0.108263   1.000000
    3        2.873945   1.000000
    4        3.735677   1.000000
    5        7.651396   0.000000
    6        9.027318   0.000000
    7       10.194973   0.000000
    8       10.499109   0.000000
 
 -0.4375000E+00  0.1875000E+00  0.6250000E-01  0.2343750E-01
    1       -3.799335   1.000000
    2       -1.268783   1.000000
    3        2.589768   1.000000
    4        3.647020   1.000000
    5        7.703350   0.000000
    6        8.761556   0.000000
    7       10.059010   0.000000
    8       12.448772   0.000000
 
 -0.3125000E+00  0.1875000E+00  0.6250000E-01  0.2343750E-01
    1       -4.235799   1.000000
    2       -0.607960   1.000000
    3        2.524478   1.000000
    4        3.920090   1.000000
    5        7.952599   0.000000
    6        8.695991   0.000000
    7        9.999352   0.000000
    8       11.723985   0.000000
 
 -0.1875000E+00  0.1875000E+00  0.6250000E-01  0.2343750E-01
    1       -5.103158   1.000000
    2        1.057180   1.000000
    3        2.830029   1.000000
    4        4.408313   1.000000
    5        8.265671   0.000000
    6        8.587969   0.000000
    7        9.872233   0.000000
    8       10.367481   0.000000
 
 -0.6250000E-01  0.1875000E+00  0.6250000E-01  0.2343750E-01
    1       -5.724271   1.000000
    2        2.503122   1.000000
    3        3.919316   1.000000
    4        4.767741   1.000000
    5        7.846601   0.000000
    6        8.433040   0.000000
    7        9.207516   0.000000
    8       10.387102   0.000000
 
  0.3125000E+00  0.3125000E+00  0.6250000E-01  0.1171875E-01
    1       -4.954341   1.000000
    2        1.172782   1.000000
    3        3.230597   1.000000
    4        3.348294   1.000000
    5        6.527725   0.000000
    6        8.162842   0.000000
    7       11.186710   0.000000
    8       11.341176   0.000000
 
  0.4375000E+00  0.3125000E+00  0.6250000E-01  0.2343750E-01
    1       -4.227311   1.000000
    2       -0.030117   1.000000
    3        2.472571   1.000000
    4        3.014477   1.000000
    5        6.836135   0.000000
    6        8.005113   0.000000
    7       11.152307   0.000000
    8       12.305546   0.000000
 
 -0.4375000E+00  0.3125000E+00  0.6250000E-01  0.2343750E-01
    1       -3.364447   1.000000
    2       -1.182719   1.000000
    3        1.661429   1.000000
    4        2.983527   1.000000
    5        7.069784   0.000000
    6        9.622382   0.000000
    7       10.737564   0.000000
    8       12.218381   0.000000
 
 -0.3125000E+00  0.3125000E+00  0.6250000E-01  0.2343750E-01
    1       -3.435224   1.000000
    2       -1.090473   1.000000
    3        1.324390   1.000000
    4        3.314904   1.000000
    5        7.454731   0.000000
    6       10.317850   0.000000
    7       11.565018   0.000000
    8       11.919185   0.000000
 
 -0.1875000E+00  0.3125000E+00  0.6250000E-01  0.2343750E-01
    1       -4.297573   1.000000
    2       -0.158110   1.000000
    3        1.902081   1.000000
    4        3.878145   1.000000
    5        8.044900   0.000000
    6        9.239216   0.000000
    7       10.612952   0.000000
    8       10.918600   0.000000
 
 -0.6250000E-01  0.3125000E+00  0.6250000E-01  0.2343750E-01
    1       -4.994266   1.000000
    2        0.485664   1.000000
    3        3.468651   1.000000
    4        4.311410   1.000000
    5        7.713922   0.000000
    6        8.626766   0.000000
    7        9.467278   0.000000
    8       11.125778   0.000000
 
  0.4375000E+00  0.4375000E+00  0.6250000E-01  0.1171875E-01
    1       -3.593603   1.000000
    2       -0.870981   1.000000
    3        2.565950   1.000000
    4        2.772495   1.000000
    5        6.152856   0.000446
    6        6.858017   0.000000
    7       13.421112   0.000000
    8       13.448819   0.000000
 
 -0.4375000E+00  0.4375000E+00  0.6250000E-01  0.2343750E-01
    1       -2.714643   1.000000
    2       -1.831472   1.000000
    3        2.032862   1.000000
    4        2.540305   1.000000
    5        6.576694   0.000000
    6        7.284798   0.000000
    7       13.190516   0.000000
    8       14.150603   0.000000
 
 -0.3125000E+00  0.4375000E+00  0.6250000E-01  0.2343750E-01
    1       -2.816556   1.000000
    2       -1.665324   1.000000
    3        1.334289   1.000000
    4        2.844542   1.000000
    5        6.928616   0.000000
    6        9.466405   0.000000
    7       11.705117   0.000000
    8       12.806798   0.000000
 
 -0.1875000E+00  0.4375000E+00  0.6250000E-01  0.2343750E-01
    1       -3.550980   1.000000
    2       -1.239596   1.000000
    3        1.845585   1.000000
    4        3.424347   1.000000
    5        7.565421   0.000000
    6        9.479810   0.000000
    7       10.978364   0.000000
    8       12.206241   0.000000
 
 -0.6250000E-01  0.4375000E+00  0.6250000E-01  0.2343750E-01
    1       -4.138394   1.000000
    2       -1.073704   1.000000
    3        3.292425   1.000000
    4        3.988805   1.000000
    5        7.505036   0.000000
    6        8.561151   0.000000
    7        9.304073   0.000000
    8       12.770107   0.000000
 
 -0.4375000E+00 -0.4375000E+00  0.6250000E-01  0.1171875E-01
    1       -2.762339   1.000000
    2       -1.847046   1.000000
    3        2.432589   1.000000
    4        2.654794   1.000000
    5        6.155277   0.000419
    6        6.506689   0.000000
    7       14.471019   0.000000
    8       14.524007   0.000000
 
 -0.3125000E+00 -0.4375000E+00  0.6250000E-01  0.2343750E-01
    1       -3.512163   1.000000
    2       -0.933475   1.000000
    3        2.183403   1.000000
    4        2.695235   1.000000
    5        6.657612   0.000000
    6        7.533439   0.000000
    7       12.145535   0.000000
    8       13.430619   0.000000
 
 -0.1875000E+00 -0.4375000E+00  0.6250000E-01  0.2343750E-01
    1       -3.971840   1.000000
    2       -0.653842   1.000000
    3        2.227894   1.000000
    4        3.273444   1.000000
    5        7.333741   0.000000
    6        9.800828   0.000000
    7        9.969088   0.000000
    8       11.188886   0.000000
 
 -0.3125000E+00 -0.3125000E+00  0.6250000E-01  0.1171875E-01
    1       -4.328163   1.000000
    2        0.144676   1.000000
    3        2.832369   1.000000
    4        3.005504   1.000000
    5        6.275569   0.000014
    6        7.423056   0.000000
    7       12.287483   0.000000
    8       12.381696   0.000000
 
 -0.1875000E+00 -0.3125000E+00  0.6250000E-01  0.2343750E-01
    1       -4.841175   1.000000
    2        0.845658   1.000000
    3        2.875941   1.000000
    4        3.503918   1.000000
    5        7.114911   0.000000
    6        8.654822   0.000000
    7       10.232944   0.000000
    8       11.206739   0.000000
 
 -0.1875000E+00 -0.1875000E+00  0.6250000E-01  0.1171875E-01
    1       -5.463751   1.000000
    2        2.184876   1.000000
    3        3.754745   1.000000
    4        3.789889   1.000000
    5        6.887072   0.000000
    6        8.964205   0.000000
    7       10.180101   0.000000
    8       10.336858   0.000000
 
  0.1875000E+00  0.1875000E+00  0.1875000E+00  0.3906250E-02
    1       -5.853697   1.000000
    2        2.608343   1.000000
    3        4.827619   1.000000
    4        4.827619   1.000000
    5        7.437083   0.000000
    6        8.598600   0.000000
    7        8.598600   0.000000
    8       10.752270   0.000000
 
  0.3125000E+00  0.1875000E+00  0.1875000E+00  0.1171875E-01
    1       -5.473848   1.000000
    2        1.773210   1.000000
    3        3.365342   1.000000
    4        4.841083   1.000000
    5        8.089657   0.000000
    6        8.721253   0.000000
    7        8.996360   0.000000
    8       10.910088   0.000000
 
  0.4375000E+00  0.1875000E+00  0.1875000E+00  0.1171875E-01
    1       -4.751309   1.000000
    2        0.432115   1.000000
    3        2.319181   1.000000
    4        4.353299   1.000000
    5        7.982963   0.000000
    6        9.460969   0.000000
    7        9.646129   0.000000
    8       11.195581   0.000000
 
 -0.4375000E+00  0.1875000E+00  0.1875000E+00  0.1171875E-01
    1       -3.891614   1.000000
    2       -1.000229   1.000000
    3        2.159628   1.000000
    4        3.840544   1.000000
    5        7.520167   0.000000
    6        9.607155   0.000000
    7        9.860067   0.000000
    8       13.027323   0.000000
 
 -0.3125000E+00  0.1875000E+00  0.1875000E+00  0.1171875E-01
    1       -3.876145   1.000000
    2       -1.027974   1.000000
    3        2.445836   1.000000
    4        3.534223   1.000000
    5        7.263052   0.000000
    6        9.666541   0.000000
    7       10.198023   0.000000
    8       11.145441   0.000000
 
 -0.1875000E+00  0.1875000E+00  0.1875000E+00  0.1171875E-01
    1       -4.734275   1.000000
    2        0.428950   1.000000
    3        3.041783   1.000000
    4        3.513043   1.000000
    5        7.200547   0.000000
    6        9.326611   0.000000
    7        9.956338   0.000000
    8       10.547584   0.000000
 
  0.3125000E+00  0.3125000E+00  0.1875000E+00  0.1171875E-01
    1       -5.225221   1.000000
    2        1.128973   1.000000
    3        3.838466   1.000000
    4        3.918413   1.000000
    5        7.564001   0.000000
    6        8.859073   0.000000
    7        9.818713   0.000000
    8       10.215062   0.000000
 
  0.4375000E+00  0.3125000E+00  0.1875000E+00  0.2343750E-01
    1       -4.619094   1.000000
    2        0.359658   1.000000
    3        2.374433   1.000000
    4        3.727406   1.000000
    5        8.058883   0.000000
    6        9.040891   0.000000
    7        9.584644   0.000000
    8       11.035047   0.000000
 
 -0.4375000E+00  0.3125000E+00  0.1875000E+00  0.2343750E-01
    1       -3.759370   1.000000
    2       -0.717410   1.000000
    3        1.614182   1.000000
    4        3.182768   1.000000
    5        8.502265   0.000000
    6        8.979820   0.000000
    7       10.226957   0.000000
    8       12.105736   0.000000
 
 -0.3125000E+00  0.3125000E+00  0.1875000E+00  0.2343750E-01
    1       -3.292105   1.000000
    2       -1.305764   1.000000
    3        1.612072   1.000000
    4        2.882796   1.000000
    5        8.050661   0.000000
    6        9.299587   0.000000
    7       10.992006   0.000000
    8       12.222726   0.000000
 
 -0.1875000E+00  0.3125000E+00  0.1875000E+00  0.2343750E-01
    1       -4.032533   1.000000
    2       -0.341112   1.000000
    3        2.024830   1.000000
    4        3.054470   1.000000
    5        7.786778   0.000000
    6        8.986875   0.000000
    7        9.795164   0.000000
    8       12.223217   0.000000
 
  0.4375000E+00  0.4375000E+00  0.1875000E+00  0.1171875E-01
    1       -4.138017   1.000000
    2       -0.280501   1.000000
    3        2.343641   1.000000
    4        3.192380   1.000000
    5        6.838118   0.000000
    6        8.822320   0.000000
    7       10.980631   0.000000
    8       11.352314   0.000000
 
 -0.4375000E+00  0.4375000E+00  0.1875000E+00  0.2343750E-01
    1       -3.360966   1.000000
    2       -1.068765   1.000000
    3        1.793398   1.000000
    4        2.538404   1.000000
    5        7.592002   0.000000
    6        8.587583   0.000000
    7       10.670879   0.000000
    8       13.393427   0.000000
 
 -0.3125000E+00  0.4375000E+00  0.1875000E+00  0.2343750E-01
    1       -2.582644   1.000000
    2       -1.805116   1.000000
    3        1.491269   1.000000
    4        2.057042   1.000000
    5        8.690653   0.000000
    6        9.611827   0.000000
    7       10.224052   0.000000
    8       11.219244   0.000000
 
 -0.1875000E+00  0.4375000E+00  0.1875000E+00  0.2343750E-01
    1       -3.165719   1.000000
    2       -1.267140   1.000000
    3        1.479269   1.000000
    4        2.514893   1.000000
    5        8.786543   0.000000
    6        9.194075   0.000000
    7        9.923793   0.000000
    8       12.357436   0.000000
 
 -0.4375000E+00 -0.4375000E+00  0.1875000E+00  0.1171875E-01
    1       -2.738222   1.000000
    2       -1.780414   1.000000
    3        1.591100   1.000000
    4        2.860178   1.000000
    5        6.423535   0.000000
    6        8.274030   0.000000
    7       13.118036   0.000000
    8       13.280595   0.000000
 
 -0.3125000E+00 -0.4375000E+00  0.1875000E+00  0.2343750E-01
    1       -2.640753   1.000000
    2       -1.813541   1.000000
    3        1.681576   1.000000
    4        2.261115   1.000000
    5        7.492371   0.000000
    6        8.386561   0.000000
    7       11.653481   0.000000
    8       12.739182   0.000000
 
 -0.3125000E+00 -0.3125000E+00  0.1875000E+00  0.1171875E-01
    1       -3.454770   1.000000
    2       -1.028698   1.000000
    3        1.844621   1.000000
    4        2.972068   1.000000
    5        6.566857   0.000000
    6        8.455822   0.000000
    7       12.114617   0.000000
    8       12.234874   0.000000
 
  0.3125000E+00  0.3125000E+00  0.3125000E+00  0.3906250E-02
    1       -5.122154   1.000000
    2        0.463311   1.000000
    3        4.424663   1.000000
    4        4.424663   1.000000
    5        6.984139   0.000000
    6        8.844626   0.000000
    7        8.844626   0.000000
    8       12.789395   0.000000
 
  0.4375000E+00  0.3125000E+00  0.3125000E+00  0.1171875E-01
    1       -4.658714   1.000000
    2       -0.105816   1.000000
    3        2.998874   1.000000
    4        4.338484   1.000000
    5        7.717193   0.000000
    6        9.057901   0.000000
    7        9.110319   0.000000
    8       12.201732   0.000000
 
 -0.4375000E+00  0.3125000E+00  0.3125000E+00  0.1171875E-01
    1       -3.893576   1.000000
    2       -0.648311   1.000000
    3        1.536179   1.000000
    4        3.779016   1.000000
    5        7.458175   0.000000
    6       10.459195   0.000000
    7       10.605794   0.000000
    8       11.942735   0.000000
 
 -0.3125000E+00  0.3125000E+00  0.3125000E+00  0.1171875E-01
    1       -3.102472   1.000000
    2       -1.415196   1.000000
    3        1.216306   1.000000
    4        3.250930   1.000000
    5        6.872571   0.000000
    6       10.684824   0.000000
    7       11.698125   0.000000
    8       11.907782   0.000000
 
  0.4375000E+00  0.4375000E+00  0.3125000E+00  0.1171875E-01
    1       -4.356367   1.000000
    2       -0.644973   1.000000
    3        3.316726   1.000000
    4        3.796313   1.000000
    5        7.469106   0.000000
    6        8.814242   0.000000
    7        9.585406   0.000000
    8       11.572292   0.000000
 
 -0.4375000E+00  0.4375000E+00  0.3125000E+00  0.2343750E-01
    1       -3.758409   1.000000
    2       -1.008737   1.000000
    3        2.057671   1.000000
    4        3.341269   1.000000
    5        8.242027   0.000000
    6        8.611664   0.000000
    7       11.050385   0.000000
    8       11.333347   0.000000
 
 -0.3125000E+00  0.4375000E+00  0.3125000E+00  0.2343750E-01
    1       -2.967940   1.000000
    2       -1.483973   1.000000
    3        1.305525   1.000000
    4        2.654702   1.000000
    5        7.928322   0.000000
    6       10.129082   0.000000
    7       10.879294   0.000000
    8       11.383882   0.000000
 
 -0.4375000E+00 -0.4375000E+00  0.3125000E+00  0.1171875E-01
    1       -3.413368   1.000000
    2       -1.285842   1.000000
    3        1.685468   1.000000
    4        3.347535   1.000000
    5        7.013815   0.000000
    6       10.641796   0.000000
    7       10.939852   0.000000
    8       10.958859   0.000000
 
  0.4375000E+00  0.4375000E+00  0.4375000E+00  0.3906250E-02
    1       -4.267845   1.000000
    2       -1.127367   1.000000
    3        4.208298   1.000000
    4        4.208298   1.000000
    5        6.732229   0.000000
    6        8.723919   0.000000
    7        8.723919   0.000000
    8       13.033056   0.000000
 
 -0.4375000E+00  0.4375000E+00  0.4375000E+00  0.1171875E-01
    1       -3.930629   1.000000
    2       -1.301903   1.000000
    3        3.011787   1.000000
    4        3.950858   1.000000
    5        7.481498   0.000000
    6        8.825942   0.000000
    7        9.285660   0.000000
    8       13.362225   0.000000
