 vasp.5.4.4.18Apr17-6-g9f103f2a35 (build Dec 09 2018 21:25:21) complex          
  
 executed on IFC18.0.1.163_CrayMP date 2019.03.23  21:20:03
 running on    8 total cores
 distrk:  each k-point on    8 cores,    1 groups
 distr:  one band on NCORES_PER_BAND=   1 cores,    8 groups


--------------------------------------------------------------------------------------------------------


 INCAR:
 POTCAR:   PAW_PBE Si 05Jan2001                   

 ----------------------------------------------------------------------------- 
|                                                                             |
|           W    W    AA    RRRRR   N    N  II  N    N   GGGG   !!!           |
|           W    W   A  A   R    R  NN   N  II  NN   N  G    G  !!!           |
|           W    W  A    A  R    R  N N  N  II  N N  N  G       !!!           |
|           W WW W  AAAAAA  RRRRR   N  N N  II  N  N N  G  GGG   !            |
|           WW  WW  A    A  R   R   N   NN  II  N   NN  G    G                |
|           W    W  A    A  R    R  N    N  II  N    N   GGGG   !!!           |
|                                                                             |
|      For optimal performance we recommend to set                            |
|        NCORE= 4 - approx SQRT( number of cores)                             |
|      NCORE specifies how many cores store one orbital (NPAR=cpu/NCORE).     |
|      This setting can  greatly improve the performance of VASP for DFT.     |
|      The default,   NCORE=1            might be grossly inefficient         |
|      on modern multi-core architectures or massively parallel machines.     |
|      Do your own testing !!!!                                               |
|      Unfortunately you need to use the default for GW and RPA calculations. |
|      (for HF NCORE is supported but not extensively tested yet)             |
|                                                                             |
 ----------------------------------------------------------------------------- 

 POTCAR:   PAW_PBE Si 05Jan2001                   
   VRHFIN =Si: s2p2                                                             
   LEXCH  = PE                                                                  
   EATOM  =   103.0669 eV,    7.5752 Ry                                         
                                                                                
   TITEL  = PAW_PBE Si 05Jan2001                                                
   LULTRA =        F    use ultrasoft PP ?                                      
   IUNSCR =        1    unscreen: 0-lin 1-nonlin 2-no                           
   RPACOR =    1.500    partial core radius                                     
   POMASS =   28.085; ZVAL   =    4.000    mass and valenz                      
   RCORE  =    1.900    outmost cutoff radius                                   
   RWIGS  =    2.480; RWIGS  =    1.312    wigner-seitz radius (au A)           
   ENMAX  =  245.345; ENMIN  =  184.009 eV                                      
   ICORE  =        2    local potential                                         
   LCOR   =        T    correct aug charges                                     
   LPAW   =        T    paw PP                                                  
   EAUG   =  322.069                                                            
   DEXC   =    -.007                                                            
   RMAX   =    2.944    core radius for proj-oper                               
   RAUG   =    1.300    factor for augmentation sphere                          
   RDEP   =    1.993    radius for radial grids                                 
   QCUT   =   -4.246; QGAM   =    8.493    optimization parameters              
                                                                                
   Description                                                                  
     l     E      TYP  RCUT    TYP  RCUT                                        
     0   .000     23  1.900                                                     
     0   .000     23  1.900                                                     
     1   .000     23  1.900                                                     
     1   .000     23  1.900                                                     
     2   .000      7  1.900                                                     
  local pseudopotential read in
  partial core-charges read in
  atomic valenz-charges read in
  non local Contribution for L=           0  read in
    real space projection operators read in
  non local Contribution for L=           0  read in
    real space projection operators read in
  non local Contribution for L=           1  read in
    real space projection operators read in
  non local Contribution for L=           1  read in
    real space projection operators read in
    PAW grid and wavefunctions read in
 
   number of l-projection  operators is LMAX  =           4
   number of lm-projection operators is LMMAX =           8
 
 PAW_PBE Si 05Jan2001                   :
 energy of atom  1       EATOM= -103.0669
 kinetic energy error for atom=    0.0013 (will be added to EATOM!!)
 
 
 POSCAR: Si2                                     
  positions in direct lattice
  No initial velocities read in
 exchange correlation table for  LEXCH =        8
   RHO(1)=    0.500       N(1)  =     2000
   RHO(2)=  100.500       N(2)  =     4000
 


--------------------------------------------------------------------------------------------------------


 ion  position               nearest neighbor table
   1  0.500  0.500  0.500-   2 2.39   2 2.39   2 2.39   2 2.39
   2  0.750  0.750  0.750-   1 2.39   1 2.39   1 2.39   1 2.39
 
  LATTYP: Found a face centered cubic cell.
 ALAT       =     5.5212280000
  
  Lattice vectors:
  
 A1 = (   0.0000000000,   2.7606140000,   2.7606140000)
 A2 = (   2.7606140000,   0.0000000000,   2.7606140000)
 A3 = (   2.7606140000,   2.7606140000,   0.0000000000)


Analysis of symmetry for initial positions (statically):
=====================================================================
 Subroutine PRICEL returns:
 Original cell was already a primitive cell.
 

 Routine SETGRP: Setting up the symmetry group for a 
 face centered cubic supercell.


 Subroutine GETGRP returns: Found 48 space group operations
 (whereof 24 operations were pure point group operations)
 out of a pool of 48 trial point group operations.


The static configuration has the point symmetry T_d .
 The point group associated with its full space group is O_h .


Analysis of symmetry for dynamics (positions and initial velocities):
=====================================================================
 Subroutine PRICEL returns:
 Original cell was already a primitive cell.
 

 Routine SETGRP: Setting up the symmetry group for a 
 face centered cubic supercell.


 Subroutine GETGRP returns: Found 48 space group operations
 (whereof 24 operations were pure point group operations)
 out of a pool of 48 trial point group operations.


The dynamic configuration has the point symmetry T_d .
 The point group associated with its full space group is O_h .


 Subroutine INISYM returns: Found 48 space group operations
 (whereof 24 operations are pure point group operations),
 and found     1 'primitive' translations

 
 
 KPOINTS: Automatic kpoint scheme                 

Automatic generation of k-mesh.
Space group operators:
 irot       det(A)        alpha          n_x          n_y          n_z        tau_x        tau_y        tau_z
    1     1.000000     0.000000     1.000000     0.000000     0.000000     0.000000     0.000000     0.000000
    2     1.000000   120.000000    -0.577350    -0.577350    -0.577350     0.000000     0.000000     0.000000
    3     1.000000   120.000000     0.577350     0.577350     0.577350     0.000000     0.000000     0.000000
    4    -1.000000    90.000000    -0.000000    -0.000000    -1.000000     0.000000     0.000000     0.000000
    5    -1.000000   180.000000     0.000000     0.707107     0.707107     0.000000     0.000000     0.000000
    6    -1.000000    90.000000    -0.000000     1.000000    -0.000000     0.000000     0.000000     0.000000
    7     1.000000   180.000000    -0.000000     0.000000     1.000000     0.000000     0.000000     0.000000
    8     1.000000   120.000000    -0.577350     0.577350     0.577350     0.000000     0.000000     0.000000
    9     1.000000   120.000000    -0.577350     0.577350    -0.577350     0.000000     0.000000     0.000000
   10    -1.000000    90.000000     0.000000     0.000000     1.000000     0.000000     0.000000     0.000000
   11    -1.000000    90.000000    -1.000000     0.000000    -0.000000     0.000000     0.000000     0.000000
   12    -1.000000   180.000000     0.707107     0.000000     0.707107     0.000000     0.000000     0.000000
   13     1.000000   120.000000     0.577350    -0.577350     0.577350     0.000000     0.000000     0.000000
   14     1.000000   120.000000    -0.577350    -0.577350     0.577350     0.000000     0.000000     0.000000
   15     1.000000   180.000000     1.000000     0.000000     0.000000     0.000000     0.000000     0.000000
   16    -1.000000    90.000000     0.000000    -1.000000     0.000000     0.000000     0.000000     0.000000
   17    -1.000000   180.000000     0.707107     0.707107    -0.000000     0.000000     0.000000     0.000000
   18    -1.000000    90.000000     1.000000     0.000000     0.000000     0.000000     0.000000     0.000000
   19     1.000000   120.000000     0.577350    -0.577350    -0.577350     0.000000     0.000000     0.000000
   20     1.000000   180.000000     0.000000     1.000000     0.000000     0.000000     0.000000     0.000000
   21     1.000000   120.000000     0.577350     0.577350    -0.577350     0.000000     0.000000     0.000000
   22    -1.000000   180.000000    -0.000000    -0.707107     0.707107     0.000000     0.000000     0.000000
   23    -1.000000   180.000000     0.707107    -0.707107     0.000000     0.000000     0.000000     0.000000
   24    -1.000000   180.000000    -0.707107     0.000000     0.707107     0.000000     0.000000     0.000000
   25    -1.000000     0.000000     1.000000     0.000000     0.000000     0.250000     0.250000     0.250000
   26    -1.000000   120.000000    -0.577350    -0.577350    -0.577350     0.250000     0.250000     0.250000
   27    -1.000000   120.000000     0.577350     0.577350     0.577350     0.250000     0.250000     0.250000
   28     1.000000    90.000000    -0.000000    -0.000000    -1.000000     0.250000     0.250000     0.250000
   29     1.000000   180.000000     0.000000     0.707107     0.707107     0.250000     0.250000     0.250000
   30     1.000000    90.000000    -0.000000     1.000000    -0.000000     0.250000     0.250000     0.250000
   31    -1.000000   180.000000    -0.000000     0.000000     1.000000     0.250000     0.250000     0.250000
   32    -1.000000   120.000000    -0.577350     0.577350     0.577350     0.250000     0.250000     0.250000
   33    -1.000000   120.000000    -0.577350     0.577350    -0.577350     0.250000     0.250000     0.250000
   34     1.000000    90.000000     0.000000     0.000000     1.000000     0.250000     0.250000     0.250000
   35     1.000000    90.000000    -1.000000     0.000000    -0.000000     0.250000     0.250000     0.250000
   36     1.000000   180.000000     0.707107     0.000000     0.707107     0.250000     0.250000     0.250000
   37    -1.000000   120.000000     0.577350    -0.577350     0.577350     0.250000     0.250000     0.250000
   38    -1.000000   120.000000    -0.577350    -0.577350     0.577350     0.250000     0.250000     0.250000
   39    -1.000000   180.000000     1.000000     0.000000     0.000000     0.250000     0.250000     0.250000
   40     1.000000    90.000000     0.000000    -1.000000     0.000000     0.250000     0.250000     0.250000
   41     1.000000   180.000000     0.707107     0.707107    -0.000000     0.250000     0.250000     0.250000
   42     1.000000    90.000000     1.000000     0.000000     0.000000     0.250000     0.250000     0.250000
   43    -1.000000   120.000000     0.577350    -0.577350    -0.577350     0.250000     0.250000     0.250000
   44    -1.000000   180.000000     0.000000     1.000000     0.000000     0.250000     0.250000     0.250000
   45    -1.000000   120.000000     0.577350     0.577350    -0.577350     0.250000     0.250000     0.250000
   46     1.000000   180.000000    -0.000000    -0.707107     0.707107     0.250000     0.250000     0.250000
   47     1.000000   180.000000     0.707107    -0.707107     0.000000     0.250000     0.250000     0.250000
   48     1.000000   180.000000    -0.707107     0.000000     0.707107     0.250000     0.250000     0.250000
 
 Subroutine IBZKPT returns following result:
 ===========================================
 
 Found     60 irreducible k-points:
 
 Following reciprocal coordinates:
            Coordinates               Weight
  0.062500  0.062500  0.062500     96.000000
  0.187500  0.062500  0.062500    288.000000
  0.312500  0.062500  0.062500    288.000000
  0.437500  0.062500  0.062500    288.000000
 -0.437500  0.062500  0.062500    288.000000
 -0.312500  0.062500  0.062500    288.000000
 -0.187500  0.062500  0.062500    288.000000
 -0.062500  0.062500  0.062500    288.000000
  0.187500  0.187500  0.062500    288.000000
  0.312500  0.187500  0.062500    576.000000
  0.437500  0.187500  0.062500    576.000000
 -0.437500  0.187500  0.062500    576.000000
 -0.312500  0.187500  0.062500    576.000000
 -0.187500  0.187500  0.062500    576.000000
 -0.062500  0.187500  0.062500    576.000000
  0.312500  0.312500  0.062500    288.000000
  0.437500  0.312500  0.062500    576.000000
 -0.437500  0.312500  0.062500    576.000000
 -0.312500  0.312500  0.062500    576.000000
 -0.187500  0.312500  0.062500    576.000000
 -0.062500  0.312500  0.062500    576.000000
  0.437500  0.437500  0.062500    288.000000
 -0.437500  0.437500  0.062500    576.000000
 -0.312500  0.437500  0.062500    576.000000
 -0.187500  0.437500  0.062500    576.000000
 -0.062500  0.437500  0.062500    576.000000
 -0.437500 -0.437500  0.062500    288.000000
 -0.312500 -0.437500  0.062500    576.000000
 -0.187500 -0.437500  0.062500    576.000000
 -0.312500 -0.312500  0.062500    288.000000
 -0.187500 -0.312500  0.062500    576.000000
 -0.187500 -0.187500  0.062500    288.000000
  0.187500  0.187500  0.187500     96.000000
  0.312500  0.187500  0.187500    288.000000
  0.437500  0.187500  0.187500    288.000000
 -0.437500  0.187500  0.187500    288.000000
 -0.312500  0.187500  0.187500    288.000000
 -0.187500  0.187500  0.187500    288.000000
  0.312500  0.312500  0.187500    288.000000
  0.437500  0.312500  0.187500    576.000000
 -0.437500  0.312500  0.187500    576.000000
 -0.312500  0.312500  0.187500    576.000000
 -0.187500  0.312500  0.187500    576.000000
  0.437500  0.437500  0.187500    288.000000
 -0.437500  0.437500  0.187500    576.000000
 -0.312500  0.437500  0.187500    576.000000
 -0.187500  0.437500  0.187500    576.000000
 -0.437500 -0.437500  0.187500    288.000000
 -0.312500 -0.437500  0.187500    576.000000
 -0.312500 -0.312500  0.187500    288.000000
  0.312500  0.312500  0.312500     96.000000
  0.437500  0.312500  0.312500    288.000000
 -0.437500  0.312500  0.312500    288.000000
 -0.312500  0.312500  0.312500    288.000000
  0.437500  0.437500  0.312500    288.000000
 -0.437500  0.437500  0.312500    576.000000
 -0.312500  0.437500  0.312500    576.000000
 -0.437500 -0.437500  0.312500    288.000000
  0.437500  0.437500  0.437500     96.000000
 -0.437500  0.437500  0.437500    288.000000
 
 Following cartesian coordinates:
            Coordinates               Weight
  0.011320  0.011320  0.011320     96.000000
 -0.011320  0.033960  0.033960    288.000000
 -0.033960  0.056600  0.056600    288.000000
 -0.056600  0.079240  0.079240    288.000000
  0.101880 -0.079240 -0.079240    288.000000
  0.079240 -0.056600 -0.056600    288.000000
  0.056600 -0.033960 -0.033960    288.000000
  0.033960 -0.011320 -0.011320    288.000000
  0.011320  0.011320  0.056600    288.000000
 -0.011320  0.033960  0.079240    576.000000
 -0.033960  0.056600  0.101880    576.000000
  0.124519 -0.101880 -0.056600    576.000000
  0.101880 -0.079240 -0.033960    576.000000
  0.079240 -0.056600 -0.011320    576.000000
  0.056600 -0.033960  0.011320    576.000000
  0.011320  0.011320  0.101880    288.000000
 -0.011320  0.033960  0.124519    576.000000
  0.147159 -0.124519 -0.033960    576.000000
  0.124519 -0.101880 -0.011320    576.000000
  0.101880 -0.079240  0.011320    576.000000
  0.079240 -0.056600  0.033960    576.000000
  0.011320  0.011320  0.147159    288.000000
  0.169799 -0.147159 -0.011320    576.000000
  0.147159 -0.124519  0.011320    576.000000
  0.124519 -0.101880  0.033960    576.000000
  0.101880 -0.079240  0.056600    576.000000
  0.011320  0.011320 -0.169799    288.000000
 -0.011320  0.033960 -0.147159    576.000000
 -0.033960  0.056600 -0.124519    576.000000
  0.011320  0.011320 -0.124519    288.000000
 -0.011320  0.033960 -0.101880    576.000000
  0.011320  0.011320 -0.079240    288.000000
  0.033960  0.033960  0.033960     96.000000
  0.011320  0.056600  0.056600    288.000000
 -0.011320  0.079240  0.079240    288.000000
  0.147159 -0.079240 -0.079240    288.000000
  0.124519 -0.056600 -0.056600    288.000000
  0.101880 -0.033960 -0.033960    288.000000
  0.033960  0.033960  0.079240    288.000000
  0.011320  0.056600  0.101880    576.000000
  0.169799 -0.101880 -0.056600    576.000000
  0.147159 -0.079240 -0.033960    576.000000
  0.124519 -0.056600 -0.011320    576.000000
  0.033960  0.033960  0.124519    288.000000
  0.192439 -0.124519 -0.033960    576.000000
  0.169799 -0.101880 -0.011320    576.000000
  0.147159 -0.079240  0.011320    576.000000
  0.033960  0.033960 -0.192439    288.000000
  0.011320  0.056600 -0.169799    576.000000
  0.033960  0.033960 -0.147159    288.000000
  0.056600  0.056600  0.056600     96.000000
  0.033960  0.079240  0.079240    288.000000
  0.192439 -0.079240 -0.079240    288.000000
  0.169799 -0.056600 -0.056600    288.000000
  0.056600  0.056600  0.101880    288.000000
  0.215079 -0.101880 -0.056600    576.000000
  0.192439 -0.079240 -0.033960    576.000000
  0.056600  0.056600 -0.215079    288.000000
  0.079240  0.079240  0.079240     96.000000
  0.237719 -0.079240 -0.079240    288.000000
 


--------------------------------------------------------------------------------------------------------




 Dimension of arrays:
   k-points           NKPTS =     60   k-points in BZ     NKDIM =     60   number of bands    NBANDS=      8
   number of dos      NEDOS =    301   number of ions     NIONS =      2
   non local maximal  LDIM  =      4   non local SUM 2l+1 LMDIM =      8
   total plane-waves  NPLWV =   5832
   max r-space proj   IRMAX =      1   max aug-charges    IRDMAX=   4833
   dimension x,y,z NGX =    18 NGY =   18 NGZ =   18
   dimension x,y,z NGXF=    36 NGYF=   36 NGZF=   36
   support grid    NGXF=    36 NGYF=   36 NGZF=   36
   ions per type =               2
   NGX,Y,Z   is equivalent  to a cutoff of   7.66,  7.66,  7.66 a.u.
   NGXF,Y,Z  is equivalent  to a cutoff of  15.33, 15.33, 15.33 a.u.

 SYSTEM =  unknown system                          
 POSCAR =  Si2                                     

 Startparameter for this run:
   NWRITE =      2    write-flag & timer
   PREC   = normal    normal or accurate (medium, high low for compatibility)
   ISTART =      0    job   : 0-new  1-cont  2-samecut
   ICHARG =      2    charge: 1-file 2-atom 10-const
   ISPIN  =      1    spin polarized calculation?
   LNONCOLLINEAR =      F non collinear calculations
   LSORBIT =      F    spin-orbit coupling
   INIWAV =      1    electr: 0-lowe 1-rand  2-diag
   LASPH  =      F    aspherical Exc in radial PAW
   METAGGA=      F    non-selfconsistent MetaGGA calc.

 Electronic Relaxation 1
   ENCUT  =  350.0 eV  25.72 Ry    5.07 a.u.   5.96  5.96  5.96*2*pi/ulx,y,z
   ENINI  =  350.0     initial cutoff
   ENAUG  =  322.1 eV  augmentation charge cutoff
   NELM   =     60;   NELMIN=  2; NELMDL= -5     # of ELM steps 
   EDIFF  = 0.4E-03   stopping-criterion for ELM
   LREAL  =      F    real-space projection
   NLSPLINE    = F    spline interpolate recip. space projectors
   LCOMPAT=      F    compatible to vasp.4.4
   GGA_COMPAT  = T    GGA compatible to vasp.4.4-vasp.4.6
   LMAXPAW     = -100 max onsite density
   LMAXMIX     =    2 max onsite mixed and CHGCAR
   VOSKOWN=      0    Vosko Wilk Nusair interpolation
   ROPT   =    0.00000
 Ionic relaxation
   EDIFFG = -.1E-01   stopping-criterion for IOM
   NSW    =     15    number of steps for IOM
   NBLOCK =      1;   KBLOCK =     15    inner block; outer block 
   IBRION =      2    ionic relax: 0-MD 1-quasi-New 2-CG
   NFREE  =      1    steps in history (QN), initial steepest desc. (CG)
   ISIF   =      2    stress and relaxation
   IWAVPR =     11    prediction:  0-non 1-charg 2-wave 3-comb
   ISYM   =      2    0-nonsym 1-usesym 2-fastsym
   LCORR  =      T    Harris-Foulkes like correction to forces

   POTIM  = 0.5000    time-step for ionic-motion
   TEIN   =    0.0    initial temperature
   TEBEG  =    0.0;   TEEND  =   0.0 temperature during run
   SMASS  =  -3.00    Nose mass-parameter (am)
   estimated Nose-frequenzy (Omega)   =  0.10E-29 period in steps =****** mass=  -0.348E-27a.u.
   SCALEE = 1.0000    scale energy and forces
   NPACO  =    256;   APACO  = 16.0  distance and # of slots for P.C.
   PSTRESS=    0.0 pullay stress

  Mass of Ions in am
   POMASS =  28.09
  Ionic Valenz
   ZVAL   =   4.00
  Atomic Wigner-Seitz radii
   RWIGS  =  -1.00
  virtual crystal weights 
   VCA    =   1.00
   NELECT =       8.0000    total number of electrons
   NUPDOWN=      -1.0000    fix difference up-down

 DOS related values:
   EMIN   =  10.00;   EMAX   =-10.00  energy-range for DOS
   EFERMI =   0.00
   ISMEAR =     0;   SIGMA  =   0.20  broadening in eV -4-tet -1-fermi 0-gaus

 Electronic relaxation 2 (details)
   IALGO  =     38    algorithm
   LDIAG  =      T    sub-space diagonalisation (order eigenvalues)
   LSUBROT=      F    optimize rotation matrix (better conditioning)
   TURBO    =      0    0=normal 1=particle mesh
   IRESTART =      0    0=no restart 2=restart with 2 vectors
   NREBOOT  =      0    no. of reboots
   NMIN     =      0    reboot dimension
   EREF     =   0.00    reference energy to select bands
   IMIX   =      4    mixing-type and parameters
     AMIX     =   0.40;   BMIX     =  1.00
     AMIX_MAG =   1.60;   BMIX_MAG =  1.00
     AMIN     =   0.10
     WC   =   100.;   INIMIX=   1;  MIXPRE=   1;  MAXMIX= -45

 Intra band minimization:
   WEIMIN = 0.0010     energy-eigenvalue tresh-hold
   EBREAK =  0.13E-04  absolut break condition
   DEPER  =   0.30     relativ break condition  

   TIME   =   0.40     timestep for ELM

  volume/ion in A,a.u.               =      21.04       141.98
  Fermi-wavevector in a.u.,A,eV,Ry     =   0.941360  1.778913 12.056924  0.886159
  Thomas-Fermi vector in A             =   2.068863
 
 Write flags
   LWAVE        =      T    write WAVECAR
   LDOWNSAMPLE  =      F    k-point downsampling of WAVECAR
   LCHARG       =      T    write CHGCAR
   LVTOT        =      F    write LOCPOT, total local potential
   LVHAR        =      F    write LOCPOT, Hartree potential only
   LELF         =      F    write electronic localiz. function (ELF)
   LORBIT       =      0    0 simple, 1 ext, 2 COOP (PROOUT), +10 PAW based schemes


 Dipole corrections
   LMONO  =      F    monopole corrections only (constant potential shift)
   LDIPOL =      F    correct potential (dipole corrections)
   IDIPOL =      0    1-x, 2-y, 3-z, 4-all directions 
   EPSILON=  1.0000000 bulk dielectric constant

 Exchange correlation treatment:
   GGA     =    --    GGA type
   LEXCH   =     8    internal setting for exchange type
   VOSKOWN=      0    Vosko Wilk Nusair interpolation
   LHFCALC =     F    Hartree Fock is set to
   LHFONE  =     F    Hartree Fock one center treatment
   AEXX    =    0.0000 exact exchange contribution

 Linear response parameters
   LEPSILON=     F    determine dielectric tensor
   LRPA    =     F    only Hartree local field effects (RPA)
   LNABLA  =     F    use nabla operator in PAW spheres
   LVEL    =     F    velocity operator in full k-point grid
   LINTERFAST=   F  fast interpolation
   KINTER  =     0    interpolate to denser k-point grid
   CSHIFT  =0.1000    complex shift for real part using Kramers Kronig
   OMEGAMAX=  -1.0    maximum frequency
   DEG_THRESHOLD= 0.2000000E-02 threshold for treating states as degnerate
   RTIME   =   -0.100 relaxation time in fs
  (WPLASMAI=    0.000 imaginary part of plasma frequency in eV, 0.658/RTIME)
   DFIELD  = 0.0000000 0.0000000 0.0000000 field for delta impulse in time
 
 Orbital magnetization related:
   ORBITALMAG=     F  switch on orbital magnetization
   LCHIMAG   =     F  perturbation theory with respect to B field
   DQ        =  0.001000  dq finite difference perturbation B field
   LLRAUG    =     F  two centre corrections for induced B field



--------------------------------------------------------------------------------------------------------


 conjugate gradient relaxation of ions
 charge density and potential will be updated during run
 non-spin polarized calculation
 Variant of blocked Davidson
 Davidson routine will perform the subspace rotation
 perform sub-space diagonalisation
    after iterative eigenvector-optimisation
 modified Broyden-mixing scheme, WC =      100.0
 initial mixing is a Kerker type mixing with AMIX =  0.4000 and BMIX =      1.0000
 Hartree-type preconditioning will be used
 using additional bands            4
 reciprocal scheme for non local part
 use partial core corrections
 calculate Harris-corrections to forces 
   (improved forces if not selfconsistent)
 use gradient corrections 
 use of overlap-Matrix (Vanderbilt PP)
 Gauss-broadening in eV      SIGMA  =   0.20


--------------------------------------------------------------------------------------------------------


  energy-cutoff  :      350.00
  volume of cell :       42.08
      direct lattice vectors                 reciprocal lattice vectors
     0.000000000  2.760614000  2.760614000    -0.181119128  0.181119128  0.181119128
     2.760614000  0.000000000  2.760614000     0.181119128 -0.181119128  0.181119128
     2.760614000  2.760614000  0.000000000     0.181119128  0.181119128 -0.181119128

  length of vectors
     3.904097759  3.904097759  3.904097759     0.313707532  0.313707532  0.313707532


 
 k-points in units of 2pi/SCALE and weight: Automatic kpoint scheme                 
   0.01131995  0.01131995  0.01131995       0.004
  -0.01131995  0.03395984  0.03395984       0.012
  -0.03395984  0.05659973  0.05659973       0.012
  -0.05659973  0.07923962  0.07923962       0.012
   0.10187951 -0.07923962 -0.07923962       0.012
   0.07923962 -0.05659973 -0.05659973       0.012
   0.05659973 -0.03395984 -0.03395984       0.012
   0.03395984 -0.01131995 -0.01131995       0.012
   0.01131995  0.01131995  0.05659973       0.012
  -0.01131995  0.03395984  0.07923962       0.023
  -0.03395984  0.05659973  0.10187951       0.023
   0.12451940 -0.10187951 -0.05659973       0.023
   0.10187951 -0.07923962 -0.03395984       0.023
   0.07923962 -0.05659973 -0.01131995       0.023
   0.05659973 -0.03395984  0.01131995       0.023
   0.01131995  0.01131995  0.10187951       0.012
  -0.01131995  0.03395984  0.12451940       0.023
   0.14715929 -0.12451940 -0.03395984       0.023
   0.12451940 -0.10187951 -0.01131995       0.023
   0.10187951 -0.07923962  0.01131995       0.023
   0.07923962 -0.05659973  0.03395984       0.023
   0.01131995  0.01131995  0.14715929       0.012
   0.16979918 -0.14715929 -0.01131995       0.023
   0.14715929 -0.12451940  0.01131995       0.023
   0.12451940 -0.10187951  0.03395984       0.023
   0.10187951 -0.07923962  0.05659973       0.023
   0.01131995  0.01131995 -0.16979918       0.012
  -0.01131995  0.03395984 -0.14715929       0.023
  -0.03395984  0.05659973 -0.12451940       0.023
   0.01131995  0.01131995 -0.12451940       0.012
  -0.01131995  0.03395984 -0.10187951       0.023
   0.01131995  0.01131995 -0.07923962       0.012
   0.03395984  0.03395984  0.03395984       0.004
   0.01131995  0.05659973  0.05659973       0.012
  -0.01131995  0.07923962  0.07923962       0.012
   0.14715929 -0.07923962 -0.07923962       0.012
   0.12451940 -0.05659973 -0.05659973       0.012
   0.10187951 -0.03395984 -0.03395984       0.012
   0.03395984  0.03395984  0.07923962       0.012
   0.01131995  0.05659973  0.10187951       0.023
   0.16979918 -0.10187951 -0.05659973       0.023
   0.14715929 -0.07923962 -0.03395984       0.023
   0.12451940 -0.05659973 -0.01131995       0.023
   0.03395984  0.03395984  0.12451940       0.012
   0.19243907 -0.12451940 -0.03395984       0.023
   0.16979918 -0.10187951 -0.01131995       0.023
   0.14715929 -0.07923962  0.01131995       0.023
   0.03395984  0.03395984 -0.19243907       0.012
   0.01131995  0.05659973 -0.16979918       0.023
   0.03395984  0.03395984 -0.14715929       0.012
   0.05659973  0.05659973  0.05659973       0.004
   0.03395984  0.07923962  0.07923962       0.012
   0.19243907 -0.07923962 -0.07923962       0.012
   0.16979918 -0.05659973 -0.05659973       0.012
   0.05659973  0.05659973  0.10187951       0.012
   0.21507896 -0.10187951 -0.05659973       0.023
   0.19243907 -0.07923962 -0.03395984       0.023
   0.05659973  0.05659973 -0.21507896       0.012
   0.07923962  0.07923962  0.07923962       0.004
   0.23771886 -0.07923962 -0.07923962       0.012
 
 k-points in reciprocal lattice and weights: Automatic kpoint scheme                 
   0.06250000  0.06250000  0.06250000       0.004
   0.18750000  0.06250000  0.06250000       0.012
   0.31250000  0.06250000  0.06250000       0.012
   0.43750000  0.06250000  0.06250000       0.012
  -0.43750000  0.06250000  0.06250000       0.012
  -0.31250000  0.06250000  0.06250000       0.012
  -0.18750000  0.06250000  0.06250000       0.012
  -0.06250000  0.06250000  0.06250000       0.012
   0.18750000  0.18750000  0.06250000       0.012
   0.31250000  0.18750000  0.06250000       0.023
   0.43750000  0.18750000  0.06250000       0.023
  -0.43750000  0.18750000  0.06250000       0.023
  -0.31250000  0.18750000  0.06250000       0.023
  -0.18750000  0.18750000  0.06250000       0.023
  -0.06250000  0.18750000  0.06250000       0.023
   0.31250000  0.31250000  0.06250000       0.012
   0.43750000  0.31250000  0.06250000       0.023
  -0.43750000  0.31250000  0.06250000       0.023
  -0.31250000  0.31250000  0.06250000       0.023
  -0.18750000  0.31250000  0.06250000       0.023
  -0.06250000  0.31250000  0.06250000       0.023
   0.43750000  0.43750000  0.06250000       0.012
  -0.43750000  0.43750000  0.06250000       0.023
  -0.31250000  0.43750000  0.06250000       0.023
  -0.18750000  0.43750000  0.06250000       0.023
  -0.06250000  0.43750000  0.06250000       0.023
  -0.43750000 -0.43750000  0.06250000       0.012
  -0.31250000 -0.43750000  0.06250000       0.023
  -0.18750000 -0.43750000  0.06250000       0.023
  -0.31250000 -0.31250000  0.06250000       0.012
  -0.18750000 -0.31250000  0.06250000       0.023
  -0.18750000 -0.18750000  0.06250000       0.012
   0.18750000  0.18750000  0.18750000       0.004
   0.31250000  0.18750000  0.18750000       0.012
   0.43750000  0.18750000  0.18750000       0.012
  -0.43750000  0.18750000  0.18750000       0.012
  -0.31250000  0.18750000  0.18750000       0.012
  -0.18750000  0.18750000  0.18750000       0.012
   0.31250000  0.31250000  0.18750000       0.012
   0.43750000  0.31250000  0.18750000       0.023
  -0.43750000  0.31250000  0.18750000       0.023
  -0.31250000  0.31250000  0.18750000       0.023
  -0.18750000  0.31250000  0.18750000       0.023
   0.43750000  0.43750000  0.18750000       0.012
  -0.43750000  0.43750000  0.18750000       0.023
  -0.31250000  0.43750000  0.18750000       0.023
  -0.18750000  0.43750000  0.18750000       0.023
  -0.43750000 -0.43750000  0.18750000       0.012
  -0.31250000 -0.43750000  0.18750000       0.023
  -0.31250000 -0.31250000  0.18750000       0.012
   0.31250000  0.31250000  0.31250000       0.004
   0.43750000  0.31250000  0.31250000       0.012
  -0.43750000  0.31250000  0.31250000       0.012
  -0.31250000  0.31250000  0.31250000       0.012
   0.43750000  0.43750000  0.31250000       0.012
  -0.43750000  0.43750000  0.31250000       0.023
  -0.31250000  0.43750000  0.31250000       0.023
  -0.43750000 -0.43750000  0.31250000       0.012
   0.43750000  0.43750000  0.43750000       0.004
  -0.43750000  0.43750000  0.43750000       0.012
 
 position of ions in fractional coordinates (direct lattice) 
   0.50000000  0.50000000  0.50000000
   0.75000000  0.75000000  0.75000000
 
 position of ions in cartesian coordinates  (Angst):
   2.76061400  2.76061400  2.76061400
   4.14092100  4.14092100  4.14092100
 


--------------------------------------------------------------------------------------------------------


 k-point  1 :   0.0625 0.0625 0.0625  plane waves:     615
 k-point  2 :   0.1875 0.0625 0.0625  plane waves:     617
 k-point  3 :   0.3125 0.0625 0.0625  plane waves:     620
 k-point  4 :   0.4375 0.0625 0.0625  plane waves:     612
 k-point  5 :  -0.4375 0.0625 0.0625  plane waves:     619
 k-point  6 :  -0.3125 0.0625 0.0625  plane waves:     616
 k-point  7 :  -0.1875 0.0625 0.0625  plane waves:     620
 k-point  8 :  -0.0625 0.0625 0.0625  plane waves:     619
 k-point  9 :   0.1875 0.1875 0.0625  plane waves:     615
 k-point 10 :   0.3125 0.1875 0.0625  plane waves:     616
 k-point 11 :   0.4375 0.1875 0.0625  plane waves:     622
 k-point 12 :  -0.4375 0.1875 0.0625  plane waves:     623
 k-point 13 :  -0.3125 0.1875 0.0625  plane waves:     625
 k-point 14 :  -0.1875 0.1875 0.0625  plane waves:     623
 k-point 15 :  -0.0625 0.1875 0.0625  plane waves:     620
 k-point 16 :   0.3125 0.3125 0.0625  plane waves:     626
 k-point 17 :   0.4375 0.3125 0.0625  plane waves:     625
 k-point 18 :  -0.4375 0.3125 0.0625  plane waves:     631
 k-point 19 :  -0.3125 0.3125 0.0625  plane waves:     631
 k-point 20 :  -0.1875 0.3125 0.0625  plane waves:     624
 k-point 21 :  -0.0625 0.3125 0.0625  plane waves:     622
 k-point 22 :   0.4375 0.4375 0.0625  plane waves:     628
 k-point 23 :  -0.4375 0.4375 0.0625  plane waves:     629
 k-point 24 :  -0.3125 0.4375 0.0625  plane waves:     630
 k-point 25 :  -0.1875 0.4375 0.0625  plane waves:     627
 k-point 26 :  -0.0625 0.4375 0.0625  plane waves:     616
 k-point 27 :  -0.4375-0.4375 0.0625  plane waves:     632
 k-point 28 :  -0.3125-0.4375 0.0625  plane waves:     631
 k-point 29 :  -0.1875-0.4375 0.0625  plane waves:     625
 k-point 30 :  -0.3125-0.3125 0.0625  plane waves:     627
 k-point 31 :  -0.1875-0.3125 0.0625  plane waves:     619
 k-point 32 :  -0.1875-0.1875 0.0625  plane waves:     618
 k-point 33 :   0.1875 0.1875 0.1875  plane waves:     622
 k-point 34 :   0.3125 0.1875 0.1875  plane waves:     623
 k-point 35 :   0.4375 0.1875 0.1875  plane waves:     622
 k-point 36 :  -0.4375 0.1875 0.1875  plane waves:     628
 k-point 37 :  -0.3125 0.1875 0.1875  plane waves:     628
 k-point 38 :  -0.1875 0.1875 0.1875  plane waves:     621
 k-point 39 :   0.3125 0.3125 0.1875  plane waves:     618
 k-point 40 :   0.4375 0.3125 0.1875  plane waves:     626
 k-point 41 :  -0.4375 0.3125 0.1875  plane waves:     635
 k-point 42 :  -0.3125 0.3125 0.1875  plane waves:     631
 k-point 43 :  -0.1875 0.3125 0.1875  plane waves:     633
 k-point 44 :   0.4375 0.4375 0.1875  plane waves:     626
 k-point 45 :  -0.4375 0.4375 0.1875  plane waves:     633
 k-point 46 :  -0.3125 0.4375 0.1875  plane waves:     630
 k-point 47 :  -0.1875 0.4375 0.1875  plane waves:     633
 k-point 48 :  -0.4375-0.4375 0.1875  plane waves:     632
 k-point 49 :  -0.3125-0.4375 0.1875  plane waves:     632
 k-point 50 :  -0.3125-0.3125 0.1875  plane waves:     627
 k-point 51 :   0.3125 0.3125 0.3125  plane waves:     613
 k-point 52 :   0.4375 0.3125 0.3125  plane waves:     622
 k-point 53 :  -0.4375 0.3125 0.3125  plane waves:     625
 k-point 54 :  -0.3125 0.3125 0.3125  plane waves:     632
 k-point 55 :   0.4375 0.4375 0.3125  plane waves:     620
 k-point 56 :  -0.4375 0.4375 0.3125  plane waves:     628
 k-point 57 :  -0.3125 0.4375 0.3125  plane waves:     633
 k-point 58 :  -0.4375-0.4375 0.3125  plane waves:     632
 k-point 59 :   0.4375 0.4375 0.4375  plane waves:     619
 k-point 60 :  -0.4375 0.4375 0.4375  plane waves:     621

 maximum and minimum number of plane-waves per node :       635      612

 maximum number of plane-waves:       635
 maximum index in each direction: 
   IXMAX=    6   IYMAX=    6   IZMAX=    5
   IXMIN=   -6   IYMIN=   -6   IZMIN=   -6


 serial   3D FFT for wavefunctions
 parallel 3D FFT for charge:
    minimum data exchange during FFTs selected (reduces bandwidth)


 total amount of memory used by VASP MPI-rank0    33921. kBytes
=======================================================================

   base      :      30000. kBytes
   nonl-proj :       2478. kBytes
   fftplans  :        247. kBytes
   grid      :        561. kBytes
   one-center:          6. kBytes
   wavefun   :        629. kBytes
 
     INWAV:  cpu time    0.0000: real time    0.0006
 Broyden mixing: mesh for mixing (old mesh)
   NGX = 11   NGY = 11   NGZ = 11
  (NGX  = 36   NGY  = 36   NGZ  = 36)
  gives a total of   1331 points

 initial charge density was supplied:
 charge density of overlapping atoms calculated
 number of electron       8.0000000 magnetization 
 keeping initial charge density in first step


--------------------------------------------------------------------------------------------------------


 Maximum index for augmentation-charges          650 (set IRDMAX)


--------------------------------------------------------------------------------------------------------


 First call to EWALD:  gamma=   0.510
 Maximum number of real-space cells 3x 3x 3
 Maximum number of reciprocal cells 3x 3x 3

    FEWALD:  cpu time    0.0040: real time    0.0065


--------------------------------------- Iteration      1(   1)  ---------------------------------------


    POTLOK:  cpu time    0.0320: real time    0.0380
    SETDIJ:  cpu time    0.0080: real time    0.0080
     EDDAV:  cpu time    0.6400: real time    0.6454
       DOS:  cpu time    0.0040: real time    0.0034
    --------------------------------------------
      LOOP:  cpu time    0.6840: real time    0.6956

 eigenvalue-minimisations  :   960
 total energy-change (2. order) : 0.5121383E+01  (-0.2824340E+03)
 number of electron       8.0000000 magnetization 
 augmentation part        8.0000000 magnetization 

 Free energy of the ion-electron system (eV)
  ---------------------------------------------------
  alpha Z        PSCENC =         3.20012370
  Ewald energy   TEWEN  =      -224.78693877
  -Hartree energ DENC   =       -11.76401544
  -exchange      EXHF   =         0.00000000
  -V(xc)+E(xc)   XCENC  =       -18.79542529
  PAW double counting   =        65.95520812      -30.76852678
  entropy T*S    EENTRO =        -0.00778660
  eigenvalues    EBANDS =        15.95748978
  atomic energy  EATOM  =       206.13125414
  Solvation  Ediel_sol  =         0.00000000
  ---------------------------------------------------
  free energy    TOTEN  =         5.12138285 eV

  energy without entropy =        5.12916945  energy(sigma->0) =        5.12527615


--------------------------------------------------------------------------------------------------------




--------------------------------------- Iteration      1(   2)  ---------------------------------------


     EDDAV:  cpu time    1.0160: real time    1.0250
       DOS:  cpu time    0.0000: real time    0.0033
    --------------------------------------------
      LOOP:  cpu time    1.0160: real time    1.0286

 eigenvalue-minimisations  :  1544
 total energy-change (2. order) :-0.1591955E+02  (-0.1530662E+02)
 number of electron       8.0000000 magnetization 
 augmentation part        8.0000000 magnetization 

 Free energy of the ion-electron system (eV)
  ---------------------------------------------------
  alpha Z        PSCENC =         3.20012370
  Ewald energy   TEWEN  =      -224.78693877
  -Hartree energ DENC   =       -11.76401544
  -exchange      EXHF   =         0.00000000
  -V(xc)+E(xc)   XCENC  =       -18.79542529
  PAW double counting   =        65.95520812      -30.76852678
  entropy T*S    EENTRO =        -0.00000097
  eigenvalues    EBANDS =         0.03015180
  atomic energy  EATOM  =       206.13125414
  Solvation  Ediel_sol  =         0.00000000
  ---------------------------------------------------
  free energy    TOTEN  =       -10.79816950 eV

  energy without entropy =      -10.79816853  energy(sigma->0) =      -10.79816901


--------------------------------------------------------------------------------------------------------




--------------------------------------- Iteration      1(   3)  ---------------------------------------


     EDDAV:  cpu time    0.7840: real time    0.7926
       DOS:  cpu time    0.0040: real time    0.0033
    --------------------------------------------
      LOOP:  cpu time    0.7880: real time    0.7957

 eigenvalue-minimisations  :  1176
 total energy-change (2. order) :-0.1921776E+00  (-0.1921776E+00)
 number of electron       8.0000000 magnetization 
 augmentation part        8.0000000 magnetization 

 Free energy of the ion-electron system (eV)
  ---------------------------------------------------
  alpha Z        PSCENC =         3.20012370
  Ewald energy   TEWEN  =      -224.78693877
  -Hartree energ DENC   =       -11.76401544
  -exchange      EXHF   =         0.00000000
  -V(xc)+E(xc)   XCENC  =       -18.79542529
  PAW double counting   =        65.95520812      -30.76852678
  entropy T*S    EENTRO =        -0.00000062
  eigenvalues    EBANDS =        -0.16202612
  atomic energy  EATOM  =       206.13125414
  Solvation  Ediel_sol  =         0.00000000
  ---------------------------------------------------
  free energy    TOTEN  =       -10.99034707 eV

  energy without entropy =      -10.99034644  energy(sigma->0) =      -10.99034676


--------------------------------------------------------------------------------------------------------




--------------------------------------- Iteration      1(   4)  ---------------------------------------


     EDDAV:  cpu time    1.0560: real time    1.0632
       DOS:  cpu time    0.0000: real time    0.0029
    --------------------------------------------
      LOOP:  cpu time    1.0600: real time    1.0661

 eigenvalue-minimisations  :  1592
 total energy-change (2. order) :-0.8701942E-03  (-0.8701947E-03)
 number of electron       8.0000000 magnetization 
 augmentation part        8.0000000 magnetization 

 Free energy of the ion-electron system (eV)
  ---------------------------------------------------
  alpha Z        PSCENC =         3.20012370
  Ewald energy   TEWEN  =      -224.78693877
  -Hartree energ DENC   =       -11.76401544
  -exchange      EXHF   =         0.00000000
  -V(xc)+E(xc)   XCENC  =       -18.79542529
  PAW double counting   =        65.95520812      -30.76852678
  entropy T*S    EENTRO =        -0.00000062
  eigenvalues    EBANDS =        -0.16289631
  atomic energy  EATOM  =       206.13125414
  Solvation  Ediel_sol  =         0.00000000
  ---------------------------------------------------
  free energy    TOTEN  =       -10.99121726 eV

  energy without entropy =      -10.99121664  energy(sigma->0) =      -10.99121695


--------------------------------------------------------------------------------------------------------




--------------------------------------- Iteration      1(   5)  ---------------------------------------


     EDDAV:  cpu time    0.8120: real time    0.8175
       DOS:  cpu time    0.0040: real time    0.0030
    CHARGE:  cpu time    0.0480: real time    0.0514
    MIXING:  cpu time    0.0040: real time    0.0019
    --------------------------------------------
      LOOP:  cpu time    0.8640: real time    0.8741

 eigenvalue-minimisations  :  1216
 total energy-change (2. order) :-0.7716214E-06  (-0.7711127E-06)
 number of electron       7.9999992 magnetization 
 augmentation part       -0.4683782 magnetization 

 Broyden mixing:
  rms(total) = 0.28862E+00    rms(broyden)= 0.28861E+00
  rms(prec ) = 0.82572E+00
  weight for this iteration     100.00

 Free energy of the ion-electron system (eV)
  ---------------------------------------------------
  alpha Z        PSCENC =         3.20012370
  Ewald energy   TEWEN  =      -224.78693877
  -Hartree energ DENC   =       -11.76401544
  -exchange      EXHF   =         0.00000000
  -V(xc)+E(xc)   XCENC  =       -18.79542529
  PAW double counting   =        65.95520812      -30.76852678
  entropy T*S    EENTRO =        -0.00000062
  eigenvalues    EBANDS =        -0.16289709
  atomic energy  EATOM  =       206.13125414
  Solvation  Ediel_sol  =         0.00000000
  ---------------------------------------------------
  free energy    TOTEN  =       -10.99121803 eV

  energy without entropy =      -10.99121741  energy(sigma->0) =      -10.99121772


--------------------------------------------------------------------------------------------------------




--------------------------------------- Iteration      1(   6)  ---------------------------------------


    POTLOK:  cpu time    0.0240: real time    0.0304
    SETDIJ:  cpu time    0.0080: real time    0.0076
     EDDAV:  cpu time    0.7600: real time    0.7608
       DOS:  cpu time    0.0000: real time    0.0032
    CHARGE:  cpu time    0.0520: real time    0.0499
    MIXING:  cpu time    0.0000: real time    0.0019
    --------------------------------------------
      LOOP:  cpu time    0.8440: real time    0.8539

 eigenvalue-minimisations  :  1152
 total energy-change (2. order) : 0.1044461E+00  (-0.6660655E-02)
 number of electron       7.9999993 magnetization 
 augmentation part       -0.4632180 magnetization 

 Broyden mixing:
  rms(total) = 0.17225E+00    rms(broyden)= 0.17225E+00
  rms(prec ) = 0.49034E+00
  weight for this iteration     100.00

 eigenvalues of (default mixing * dielectric matrix)
  average eigenvalue GAMMA=   2.4603
  2.4603

 Free energy of the ion-electron system (eV)
  ---------------------------------------------------
  alpha Z        PSCENC =         3.20012370
  Ewald energy   TEWEN  =      -224.78693877
  -Hartree energ DENC   =       -13.17919932
  -exchange      EXHF   =         0.00000000
  -V(xc)+E(xc)   XCENC  =       -18.57274662
  PAW double counting   =        69.30804495      -34.21345368
  entropy T*S    EENTRO =        -0.00000358
  eigenvalues    EBANDS =         1.22614721
  atomic energy  EATOM  =       206.13125414
  Solvation  Ediel_sol  =         0.00000000
  ---------------------------------------------------
  free energy    TOTEN  =       -10.88677197 eV

  energy without entropy =      -10.88676839  energy(sigma->0) =      -10.88677018


--------------------------------------------------------------------------------------------------------




--------------------------------------- Iteration      1(   7)  ---------------------------------------


    POTLOK:  cpu time    0.0240: real time    0.0338
    SETDIJ:  cpu time    0.0080: real time    0.0076
     EDDAV:  cpu time    0.8000: real time    0.7987
       DOS:  cpu time    0.0000: real time    0.0030
    CHARGE:  cpu time    0.0520: real time    0.0495
    MIXING:  cpu time    0.0000: real time    0.0016
    --------------------------------------------
      LOOP:  cpu time    0.8840: real time    0.8940

 eigenvalue-minimisations  :  1216
 total energy-change (2. order) : 0.4946688E-01  (-0.1287957E-01)
 number of electron       7.9999993 magnetization 
 augmentation part       -0.4570062 magnetization 

 Broyden mixing:
  rms(total) = 0.14326E-01    rms(broyden)= 0.14326E-01
  rms(prec ) = 0.37077E-01
  weight for this iteration     100.00

 eigenvalues of (default mixing * dielectric matrix)
  average eigenvalue GAMMA=   2.4726
  2.4726  2.4726

 Free energy of the ion-electron system (eV)
  ---------------------------------------------------
  alpha Z        PSCENC =         3.20012370
  Ewald energy   TEWEN  =      -224.78693877
  -Hartree energ DENC   =       -15.50139285
  -exchange      EXHF   =         0.00000000
  -V(xc)+E(xc)   XCENC  =       -18.19999964
  PAW double counting   =        73.69891685      -38.72132298
  entropy T*S    EENTRO =        -0.00002652
  eigenvalues    EBANDS =         3.34208099
  atomic energy  EATOM  =       206.13125414
  Solvation  Ediel_sol  =         0.00000000
  ---------------------------------------------------
  free energy    TOTEN  =       -10.83730509 eV

  energy without entropy =      -10.83727856  energy(sigma->0) =      -10.83729183


--------------------------------------------------------------------------------------------------------




--------------------------------------- Iteration      1(   8)  ---------------------------------------


    POTLOK:  cpu time    0.0240: real time    0.0326
    SETDIJ:  cpu time    0.0080: real time    0.0076
     EDDAV:  cpu time    0.7480: real time    0.7497
       DOS:  cpu time    0.0040: real time    0.0031
    CHARGE:  cpu time    0.0480: real time    0.0494
    MIXING:  cpu time    0.0040: real time    0.0017
    --------------------------------------------
      LOOP:  cpu time    0.8360: real time    0.8440

 eigenvalue-minimisations  :  1136
 total energy-change (2. order) :-0.1328679E-02  (-0.3791920E-03)
 number of electron       7.9999993 magnetization 
 augmentation part       -0.4579434 magnetization 

 Broyden mixing:
  rms(total) = 0.25197E-02    rms(broyden)= 0.25188E-02
  rms(prec ) = 0.83329E-02
  weight for this iteration     100.00

 eigenvalues of (default mixing * dielectric matrix)
  average eigenvalue GAMMA=   2.1274
  1.3307  2.8132  2.2383

 Free energy of the ion-electron system (eV)
  ---------------------------------------------------
  alpha Z        PSCENC =         3.20012370
  Ewald energy   TEWEN  =      -224.78693877
  -Hartree energ DENC   =       -15.46542525
  -exchange      EXHF   =         0.00000000
  -V(xc)+E(xc)   XCENC  =       -18.19472068
  PAW double counting   =        72.83119320      -37.82656534
  entropy T*S    EENTRO =        -0.00002054
  eigenvalues    EBANDS =         3.27246578
  atomic energy  EATOM  =       206.13125414
  Solvation  Ediel_sol  =         0.00000000
  ---------------------------------------------------
  free energy    TOTEN  =       -10.83863377 eV

  energy without entropy =      -10.83861322  energy(sigma->0) =      -10.83862349


--------------------------------------------------------------------------------------------------------




--------------------------------------- Iteration      1(   9)  ---------------------------------------


    POTLOK:  cpu time    0.0240: real time    0.0326
    SETDIJ:  cpu time    0.0080: real time    0.0076
     EDDAV:  cpu time    0.5280: real time    0.5309
       DOS:  cpu time    0.0040: real time    0.0030
    --------------------------------------------
      LOOP:  cpu time    0.5640: real time    0.5750

 eigenvalue-minimisations  :   728
 total energy-change (2. order) :-0.1049417E-03  (-0.1066008E-04)
 number of electron       7.9999993 magnetization 
 augmentation part       -0.4579434 magnetization 

 Free energy of the ion-electron system (eV)
  ---------------------------------------------------
  alpha Z        PSCENC =         3.20012370
  Ewald energy   TEWEN  =      -224.78693877
  -Hartree energ DENC   =       -15.50518895
  -exchange      EXHF   =         0.00000000
  -V(xc)+E(xc)   XCENC  =       -18.18823629
  PAW double counting   =        72.80859161      -37.80363773
  entropy T*S    EENTRO =        -0.00002029
  eigenvalues    EBANDS =         3.30531387
  atomic energy  EATOM  =       206.13125414
  Solvation  Ediel_sol  =         0.00000000
  ---------------------------------------------------
  free energy    TOTEN  =       -10.83873871 eV

  energy without entropy =      -10.83871842  energy(sigma->0) =      -10.83872856


--------------------------------------------------------------------------------------------------------




 average (electrostatic) potential at core
  the test charge radii are     0.9892
  (the norm of the test charge is              1.0000)
       1 -83.8018       2 -83.8018
 
 
 
 E-fermi :   5.6829     XC(G=0):  -9.2191     alpha+bet :-11.4002


 k-point     1 :       0.0625    0.0625    0.0625
  band No.  band energies     occupation 
      1      -6.2409      2.00000
      2       4.7990      2.00000
      3       5.2547      1.99754
      4       5.2547      1.99754
      5       7.8707      0.00000
      6       7.9977      0.00000
      7       7.9977      0.00000
      8       8.6056      0.00000

 k-point     2 :       0.1875    0.0625    0.0625
  band No.  band energies     occupation 
      1      -5.9812      2.00000
      2       3.3093      2.00000
      3       4.4774      2.00000
      4       5.1379      1.99988
      5       7.8889      0.00000
      6       8.2368      0.00000
      7       8.5021      0.00000
      8      10.1261      0.00000

 k-point     3 :       0.3125    0.0625    0.0625
  band No.  band energies     occupation 
      1      -5.3553      2.00000
      2       1.1443      2.00000
      3       3.9984      2.00000
      4       4.6895      2.00000
      5       7.4361      0.00000
      6       8.7281      0.00000
      7       9.0044      0.00000
      8      11.7321      0.00000

 k-point     4 :       0.4375    0.0625    0.0625
  band No.  band energies     occupation 
      1      -4.4868      2.00000
      2      -0.6823      2.00000
      3       3.7836      2.00000
      4       4.2948      2.00000
      5       7.1232      0.00000
      6       8.8100      0.00000
      7       8.8236      0.00000
      8      13.0296      0.00000

 k-point     5 :      -0.4375    0.0625    0.0625
  band No.  band energies     occupation 
      1      -4.0602      2.00000
      2      -1.3543      2.00000
      3       3.8285      2.00000
      4       4.0846      2.00000
      5       7.0448      0.00000
      6       8.6266      0.00000
      7       8.8889      0.00000
      8      13.1294      0.00000

 k-point     6 :      -0.3125    0.0625    0.0625
  band No.  band energies     occupation 
      1      -4.7833      2.00000
      2      -0.1436      2.00000
      3       4.1061      2.00000
      4       4.1073      2.00000
      5       7.2129      0.00000
      6       8.6214      0.00000
      7       9.1290      0.00000
      8      12.1682      0.00000

 k-point     7 :      -0.1875    0.0625    0.0625
  band No.  band energies     occupation 
      1      -5.6005      2.00000
      2       1.8535      2.00000
      3       4.3778      2.00000
      4       4.5583      2.00000
      5       7.5773      0.00000
      6       8.4513      0.00000
      7       9.1607      0.00000
      8      10.9626      0.00000

 k-point     8 :      -0.0625    0.0625    0.0625
  band No.  band energies     occupation 
      1      -6.1103      2.00000
      2       4.0471      2.00000
      3       4.8455      2.00000
      4       4.9903      2.00000
      5       7.7163      0.00000
      6       8.2126      0.00000
      7       8.5564      0.00000
      8       9.3771      0.00000

 k-point     9 :       0.1875    0.1875    0.0625
  band No.  band energies     occupation 
      1      -5.8504      2.00000
      2       3.1526      2.00000
      3       4.3074      2.00000
      4       4.3781      2.00000
      5       7.3110      0.00000
      6       8.9366      0.00000
      7       9.3886      0.00000
      8       9.8500      0.00000

 k-point    10 :       0.3125    0.1875    0.0625
  band No.  band energies     occupation 
      1      -5.3426      2.00000
      2       1.6854      2.00000
      3       3.3670      2.00000
      4       4.1287      2.00000
      5       7.4736      0.00000
      6       9.0408      0.00000
      7       9.7823      0.00000
      8      10.1672      0.00000

 k-point    11 :       0.4375    0.1875    0.0625
  band No.  band energies     occupation 
      1      -4.5272      2.00000
      2      -0.1083      2.00000
      3       2.8739      2.00000
      4       3.7357      2.00000
      5       7.6514      0.00000
      6       9.0273      0.00000
      7      10.1950      0.00000
      8      10.4991      0.00000

 k-point    12 :      -0.4375    0.1875    0.0625
  band No.  band energies     occupation 
      1      -3.7993      2.00000
      2      -1.2688      2.00000
      3       2.5898      2.00000
      4       3.6470      2.00000
      5       7.7034      0.00000
      6       8.7616      0.00000
      7      10.0590      0.00000
      8      12.4488      0.00000

 k-point    13 :      -0.3125    0.1875    0.0625
  band No.  band energies     occupation 
      1      -4.2358      2.00000
      2      -0.6080      2.00000
      3       2.5245      2.00000
      4       3.9201      2.00000
      5       7.9526      0.00000
      6       8.6960      0.00000
      7       9.9994      0.00000
      8      11.7240      0.00000

 k-point    14 :      -0.1875    0.1875    0.0625
  band No.  band energies     occupation 
      1      -5.1032      2.00000
      2       1.0572      2.00000
      3       2.8300      2.00000
      4       4.4083      2.00000
      5       8.2657      0.00000
      6       8.5880      0.00000
      7       9.8722      0.00000
      8      10.3675      0.00000

 k-point    15 :      -0.0625    0.1875    0.0625
  band No.  band energies     occupation 
      1      -5.7243      2.00000
      2       2.5031      2.00000
      3       3.9193      2.00000
      4       4.7677      2.00000
      5       7.8466      0.00000
      6       8.4330      0.00000
      7       9.2075      0.00000
      8      10.3871      0.00000

 k-point    16 :       0.3125    0.3125    0.0625
  band No.  band energies     occupation 
      1      -4.9543      2.00000
      2       1.1728      2.00000
      3       3.2306      2.00000
      4       3.3483      2.00000
      5       6.5277      0.00000
      6       8.1628      0.00000
      7      11.1867      0.00000
      8      11.3412      0.00000

 k-point    17 :       0.4375    0.3125    0.0625
  band No.  band energies     occupation 
      1      -4.2273      2.00000
      2      -0.0301      2.00000
      3       2.4726      2.00000
      4       3.0145      2.00000
      5       6.8361      0.00000
      6       8.0051      0.00000
      7      11.1523      0.00000
      8      12.3055      0.00000

 k-point    18 :      -0.4375    0.3125    0.0625
  band No.  band energies     occupation 
      1      -3.3644      2.00000
      2      -1.1827      2.00000
      3       1.6614      2.00000
      4       2.9835      2.00000
      5       7.0698      0.00000
      6       9.6224      0.00000
      7      10.7376      0.00000
      8      12.2184      0.00000

 k-point    19 :      -0.3125    0.3125    0.0625
  band No.  band energies     occupation 
      1      -3.4352      2.00000
      2      -1.0905      2.00000
      3       1.3244      2.00000
      4       3.3149      2.00000
      5       7.4547      0.00000
      6      10.3179      0.00000
      7      11.5650      0.00000
      8      11.9192      0.00000

 k-point    20 :      -0.1875    0.3125    0.0625
  band No.  band energies     occupation 
      1      -4.2976      2.00000
      2      -0.1581      2.00000
      3       1.9021      2.00000
      4       3.8781      2.00000
      5       8.0449      0.00000
      6       9.2392      0.00000
      7      10.6130      0.00000
      8      10.9186      0.00000

 k-point    21 :      -0.0625    0.3125    0.0625
  band No.  band energies     occupation 
      1      -4.9943      2.00000
      2       0.4857      2.00000
      3       3.4687      2.00000
      4       4.3114      2.00000
      5       7.7139      0.00000
      6       8.6268      0.00000
      7       9.4673      0.00000
      8      11.1258      0.00000

 k-point    22 :       0.4375    0.4375    0.0625
  band No.  band energies     occupation 
      1      -3.5936      2.00000
      2      -0.8710      2.00000
      3       2.5659      2.00000
      4       2.7725      2.00000
      5       6.1529      0.00089
      6       6.8580      0.00000
      7      13.4211      0.00000
      8      13.4488      0.00000

 k-point    23 :      -0.4375    0.4375    0.0625
  band No.  band energies     occupation 
      1      -2.7146      2.00000
      2      -1.8315      2.00000
      3       2.0329      2.00000
      4       2.5403      2.00000
      5       6.5767      0.00000
      6       7.2848      0.00000
      7      13.1905      0.00000
      8      14.1506      0.00000

 k-point    24 :      -0.3125    0.4375    0.0625
  band No.  band energies     occupation 
      1      -2.8166      2.00000
      2      -1.6653      2.00000
      3       1.3343      2.00000
      4       2.8445      2.00000
      5       6.9286      0.00000
      6       9.4664      0.00000
      7      11.7051      0.00000
      8      12.8068      0.00000

 k-point    25 :      -0.1875    0.4375    0.0625
  band No.  band energies     occupation 
      1      -3.5510      2.00000
      2      -1.2396      2.00000
      3       1.8456      2.00000
      4       3.4243      2.00000
      5       7.5654      0.00000
      6       9.4798      0.00000
      7      10.9784      0.00000
      8      12.2062      0.00000

 k-point    26 :      -0.0625    0.4375    0.0625
  band No.  band energies     occupation 
      1      -4.1384      2.00000
      2      -1.0737      2.00000
      3       3.2924      2.00000
      4       3.9888      2.00000
      5       7.5050      0.00000
      6       8.5612      0.00000
      7       9.3041      0.00000
      8      12.7701      0.00000

 k-point    27 :      -0.4375   -0.4375    0.0625
  band No.  band energies     occupation 
      1      -2.7623      2.00000
      2      -1.8470      2.00000
      3       2.4326      2.00000
      4       2.6548      2.00000
      5       6.1553      0.00084
      6       6.5067      0.00000
      7      14.4710      0.00000
      8      14.5240      0.00000

 k-point    28 :      -0.3125   -0.4375    0.0625
  band No.  band energies     occupation 
      1      -3.5122      2.00000
      2      -0.9335      2.00000
      3       2.1834      2.00000
      4       2.6952      2.00000
      5       6.6576      0.00000
      6       7.5334      0.00000
      7      12.1455      0.00000
      8      13.4306      0.00000

 k-point    29 :      -0.1875   -0.4375    0.0625
  band No.  band energies     occupation 
      1      -3.9718      2.00000
      2      -0.6538      2.00000
      3       2.2279      2.00000
      4       3.2734      2.00000
      5       7.3337      0.00000
      6       9.8008      0.00000
      7       9.9691      0.00000
      8      11.1889      0.00000

 k-point    30 :      -0.3125   -0.3125    0.0625
  band No.  band energies     occupation 
      1      -4.3282      2.00000
      2       0.1447      2.00000
      3       2.8324      2.00000
      4       3.0055      2.00000
      5       6.2756      0.00003
      6       7.4231      0.00000
      7      12.2875      0.00000
      8      12.3817      0.00000

 k-point    31 :      -0.1875   -0.3125    0.0625
  band No.  band energies     occupation 
      1      -4.8412      2.00000
      2       0.8457      2.00000
      3       2.8759      2.00000
      4       3.5039      2.00000
      5       7.1149      0.00000
      6       8.6548      0.00000
      7      10.2329      0.00000
      8      11.2067      0.00000

 k-point    32 :      -0.1875   -0.1875    0.0625
  band No.  band energies     occupation 
      1      -5.4638      2.00000
      2       2.1849      2.00000
      3       3.7547      2.00000
      4       3.7899      2.00000
      5       6.8871      0.00000
      6       8.9642      0.00000
      7      10.1801      0.00000
      8      10.3369      0.00000

 k-point    33 :       0.1875    0.1875    0.1875
  band No.  band energies     occupation 
      1      -5.8537      2.00000
      2       2.6083      2.00000
      3       4.8276      2.00000
      4       4.8276      2.00000
      5       7.4371      0.00000
      6       8.5986      0.00000
      7       8.5986      0.00000
      8      10.7523      0.00000

 k-point    34 :       0.3125    0.1875    0.1875
  band No.  band energies     occupation 
      1      -5.4738      2.00000
      2       1.7732      2.00000
      3       3.3653      2.00000
      4       4.8411      2.00000
      5       8.0897      0.00000
      6       8.7213      0.00000
      7       8.9964      0.00000
      8      10.9101      0.00000

 k-point    35 :       0.4375    0.1875    0.1875
  band No.  band energies     occupation 
      1      -4.7513      2.00000
      2       0.4321      2.00000
      3       2.3192      2.00000
      4       4.3533      2.00000
      5       7.9830      0.00000
      6       9.4610      0.00000
      7       9.6461      0.00000
      8      11.1956      0.00000

 k-point    36 :      -0.4375    0.1875    0.1875
  band No.  band energies     occupation 
      1      -3.8916      2.00000
      2      -1.0002      2.00000
      3       2.1596      2.00000
      4       3.8405      2.00000
      5       7.5202      0.00000
      6       9.6072      0.00000
      7       9.8601      0.00000
      8      13.0273      0.00000

 k-point    37 :      -0.3125    0.1875    0.1875
  band No.  band energies     occupation 
      1      -3.8761      2.00000
      2      -1.0280      2.00000
      3       2.4458      2.00000
      4       3.5342      2.00000
      5       7.2631      0.00000
      6       9.6665      0.00000
      7      10.1980      0.00000
      8      11.1454      0.00000

 k-point    38 :      -0.1875    0.1875    0.1875
  band No.  band energies     occupation 
      1      -4.7343      2.00000
      2       0.4289      2.00000
      3       3.0418      2.00000
      4       3.5130      2.00000
      5       7.2005      0.00000
      6       9.3266      0.00000
      7       9.9563      0.00000
      8      10.5476      0.00000

 k-point    39 :       0.3125    0.3125    0.1875
  band No.  band energies     occupation 
      1      -5.2252      2.00000
      2       1.1290      2.00000
      3       3.8385      2.00000
      4       3.9184      2.00000
      5       7.5640      0.00000
      6       8.8591      0.00000
      7       9.8187      0.00000
      8      10.2151      0.00000

 k-point    40 :       0.4375    0.3125    0.1875
  band No.  band energies     occupation 
      1      -4.6191      2.00000
      2       0.3597      2.00000
      3       2.3744      2.00000
      4       3.7274      2.00000
      5       8.0589      0.00000
      6       9.0409      0.00000
      7       9.5846      0.00000
      8      11.0350      0.00000

 k-point    41 :      -0.4375    0.3125    0.1875
  band No.  band energies     occupation 
      1      -3.7594      2.00000
      2      -0.7174      2.00000
      3       1.6142      2.00000
      4       3.1828      2.00000
      5       8.5023      0.00000
      6       8.9798      0.00000
      7      10.2270      0.00000
      8      12.1057      0.00000

 k-point    42 :      -0.3125    0.3125    0.1875
  band No.  band energies     occupation 
      1      -3.2921      2.00000
      2      -1.3058      2.00000
      3       1.6121      2.00000
      4       2.8828      2.00000
      5       8.0507      0.00000
      6       9.2996      0.00000
      7      10.9920      0.00000
      8      12.2227      0.00000

 k-point    43 :      -0.1875    0.3125    0.1875
  band No.  band energies     occupation 
      1      -4.0325      2.00000
      2      -0.3411      2.00000
      3       2.0248      2.00000
      4       3.0545      2.00000
      5       7.7868      0.00000
      6       8.9869      0.00000
      7       9.7952      0.00000
      8      12.2232      0.00000

 k-point    44 :       0.4375    0.4375    0.1875
  band No.  band energies     occupation 
      1      -4.1380      2.00000
      2      -0.2805      2.00000
      3       2.3436      2.00000
      4       3.1924      2.00000
      5       6.8381      0.00000
      6       8.8223      0.00000
      7      10.9806      0.00000
      8      11.3523      0.00000

 k-point    45 :      -0.4375    0.4375    0.1875
  band No.  band energies     occupation 
      1      -3.3610      2.00000
      2      -1.0688      2.00000
      3       1.7934      2.00000
      4       2.5384      2.00000
      5       7.5920      0.00000
      6       8.5876      0.00000
      7      10.6709      0.00000
      8      13.3934      0.00000

 k-point    46 :      -0.3125    0.4375    0.1875
  band No.  band energies     occupation 
      1      -2.5826      2.00000
      2      -1.8051      2.00000
      3       1.4913      2.00000
      4       2.0570      2.00000
      5       8.6907      0.00000
      6       9.6118      0.00000
      7      10.2241      0.00000
      8      11.2192      0.00000

 k-point    47 :      -0.1875    0.4375    0.1875
  band No.  band energies     occupation 
      1      -3.1657      2.00000
      2      -1.2671      2.00000
      3       1.4793      2.00000
      4       2.5149      2.00000
      5       8.7865      0.00000
      6       9.1941      0.00000
      7       9.9238      0.00000
      8      12.3574      0.00000

 k-point    48 :      -0.4375   -0.4375    0.1875
  band No.  band energies     occupation 
      1      -2.7382      2.00000
      2      -1.7804      2.00000
      3       1.5911      2.00000
      4       2.8602      2.00000
      5       6.4235      0.00000
      6       8.2740      0.00000
      7      13.1180      0.00000
      8      13.2806      0.00000

 k-point    49 :      -0.3125   -0.4375    0.1875
  band No.  band energies     occupation 
      1      -2.6408      2.00000
      2      -1.8135      2.00000
      3       1.6816      2.00000
      4       2.2611      2.00000
      5       7.4924      0.00000
      6       8.3866      0.00000
      7      11.6535      0.00000
      8      12.7392      0.00000

 k-point    50 :      -0.3125   -0.3125    0.1875
  band No.  band energies     occupation 
      1      -3.4548      2.00000
      2      -1.0287      2.00000
      3       1.8446      2.00000
      4       2.9721      2.00000
      5       6.5669      0.00000
      6       8.4558      0.00000
      7      12.1146      0.00000
      8      12.2349      0.00000

 k-point    51 :       0.3125    0.3125    0.3125
  band No.  band energies     occupation 
      1      -5.1222      2.00000
      2       0.4633      2.00000
      3       4.4247      2.00000
      4       4.4247      2.00000
      5       6.9841      0.00000
      6       8.8446      0.00000
      7       8.8446      0.00000
      8      12.7894      0.00000

 k-point    52 :       0.4375    0.3125    0.3125
  band No.  band energies     occupation 
      1      -4.6587      2.00000
      2      -0.1058      2.00000
      3       2.9989      2.00000
      4       4.3385      2.00000
      5       7.7172      0.00000
      6       9.0579      0.00000
      7       9.1103      0.00000
      8      12.2017      0.00000

 k-point    53 :      -0.4375    0.3125    0.3125
  band No.  band energies     occupation 
      1      -3.8936      2.00000
      2      -0.6483      2.00000
      3       1.5362      2.00000
      4       3.7790      2.00000
      5       7.4582      0.00000
      6      10.4592      0.00000
      7      10.6058      0.00000
      8      11.9427      0.00000

 k-point    54 :      -0.3125    0.3125    0.3125
  band No.  band energies     occupation 
      1      -3.1025      2.00000
      2      -1.4152      2.00000
      3       1.2163      2.00000
      4       3.2509      2.00000
      5       6.8726      0.00000
      6      10.6848      0.00000
      7      11.6981      0.00000
      8      11.9078      0.00000

 k-point    55 :       0.4375    0.4375    0.3125
  band No.  band energies     occupation 
      1      -4.3564      2.00000
      2      -0.6450      2.00000
      3       3.3167      2.00000
      4       3.7963      2.00000
      5       7.4691      0.00000
      6       8.8142      0.00000
      7       9.5854      0.00000
      8      11.5723      0.00000

 k-point    56 :      -0.4375    0.4375    0.3125
  band No.  band energies     occupation 
      1      -3.7584      2.00000
      2      -1.0087      2.00000
      3       2.0577      2.00000
      4       3.3413      2.00000
      5       8.2420      0.00000
      6       8.6117      0.00000
      7      11.0504      0.00000
      8      11.3333      0.00000

 k-point    57 :      -0.3125    0.4375    0.3125
  band No.  band energies     occupation 
      1      -2.9679      2.00000
      2      -1.4840      2.00000
      3       1.3055      2.00000
      4       2.6547      2.00000
      5       7.9283      0.00000
      6      10.1291      0.00000
      7      10.8793      0.00000
      8      11.3839      0.00000

 k-point    58 :      -0.4375   -0.4375    0.3125
  band No.  band energies     occupation 
      1      -3.4134      2.00000
      2      -1.2858      2.00000
      3       1.6855      2.00000
      4       3.3475      2.00000
      5       7.0138      0.00000
      6      10.6418      0.00000
      7      10.9399      0.00000
      8      10.9589      0.00000

 k-point    59 :       0.4375    0.4375    0.4375
  band No.  band energies     occupation 
      1      -4.2678      2.00000
      2      -1.1274      2.00000
      3       4.2083      2.00000
      4       4.2083      2.00000
      5       6.7322      0.00000
      6       8.7239      0.00000
      7       8.7239      0.00000
      8      13.0331      0.00000

 k-point    60 :      -0.4375    0.4375    0.4375
  band No.  band energies     occupation 
      1      -3.9306      2.00000
      2      -1.3019      2.00000
      3       3.0118      2.00000
      4       3.9509      2.00000
      5       7.4815      0.00000
      6       8.8259      0.00000
      7       9.2857      0.00000
      8      13.3622      0.00000


--------------------------------------------------------------------------------------------------------


 soft charge-density along one line, spin component           1
         0         1         2         3         4         5         6         7         8         9
 total charge-density along one line
 
 pseudopotential strength for first ion, spin component:           1
 18.470  -0.000  -0.000  -0.000  -0.000   0.000   0.000   0.000
 -0.000   0.006   0.000   0.000   0.000  -0.000  -0.000  -0.000
 -0.000   0.000   4.184  -0.000  -0.000  -0.004   0.000   0.000
 -0.000   0.000  -0.000   4.184  -0.000   0.000  -0.004   0.000
 -0.000   0.000  -0.000  -0.000   4.184   0.000   0.000  -0.004
  0.000  -0.000  -0.004   0.000   0.000   0.005  -0.000  -0.000
  0.000  -0.000   0.000  -0.004   0.000  -0.000   0.005  -0.000
  0.000  -0.000   0.000   0.000  -0.004  -0.000  -0.000   0.005
 total augmentation occupancy for first ion, spin component:           1
  1.502  -0.721  -0.000   0.000   0.000   0.000  -0.000   0.000
 -0.721   0.697   0.000   0.000   0.000   0.000   0.000   0.000
  0.000  -0.000   0.997   0.000   0.000  -0.533   0.000  -0.000
  0.000   0.000   0.000   0.997  -0.000   0.000  -0.533  -0.000
  0.000   0.000   0.000  -0.000   0.997   0.000  -0.000  -0.533
  0.000   0.000  -0.533   0.000   0.000   0.336   0.000   0.000
  0.000   0.000   0.000  -0.533  -0.000   0.000   0.336  -0.000
  0.000   0.000   0.000  -0.000  -0.533  -0.000  -0.000   0.336


------------------------ aborting loop because EDIFF is reached ----------------------------------------


    CHARGE:  cpu time    0.0480: real time    0.0495
    FORLOC:  cpu time    0.0040: real time    0.0008
    FORNL :  cpu time    0.0200: real time    0.0202
    STRESS:  cpu time    0.2360: real time    0.2361
    FORCOR:  cpu time    0.0200: real time    0.0184
    FORHAR:  cpu time    0.0040: real time    0.0045
    MIXING:  cpu time    0.0040: real time    0.0014
    OFIELD:  cpu time    0.0000: real time    0.0004

  FORCE on cell =-STRESS in cart. coord.  units (eV):
  Direction    XX          YY          ZZ          XY          YZ          ZX
  --------------------------------------------------------------------------------------
  Alpha Z     3.20012     3.20012     3.20012
  Ewald     -74.92901   -74.92901   -74.92901    -0.00000    -0.00000    -0.00000
  Hartree     5.17192     5.17192     5.17192     0.00000     0.00000     0.00000
  E(xc)     -25.08347   -25.08347   -25.08347    -0.00000    -0.00000    -0.00000
  Local     -29.94309   -29.94309   -29.94309     0.00004     0.00004     0.00004
  n-local    76.87905    79.42457    74.68261     1.01511    -1.10489     0.04616
  augment   -11.64855   -11.64855   -11.64855    -0.00003    -0.00003    -0.00003
  Kinetic    57.01840    55.33748    54.45116     0.83733    -0.93285     0.04739
  Fock        0.00000     0.00000     0.00000     0.00000     0.00000     0.00000
  -------------------------------------------------------------------------------------
  Total      -0.63431    -0.63431    -0.63431     0.00000    -0.00000    -0.00000
  in kB     -24.15283   -24.15283   -24.15283     0.00000    -0.00000    -0.00000
  external pressure =      -24.15 kB  Pullay stress =        0.00 kB


 VOLUME and BASIS-vectors are now :
 -----------------------------------------------------------------------------
  energy-cutoff  :      350.00
  volume of cell :       42.08
      direct lattice vectors                 reciprocal lattice vectors
     0.000000000  2.760614000  2.760614000    -0.181119128  0.181119128  0.181119128
     2.760614000  0.000000000  2.760614000     0.181119128 -0.181119128  0.181119128
     2.760614000  2.760614000  0.000000000     0.181119128  0.181119128 -0.181119128

  length of vectors
     3.904097759  3.904097759  3.904097759     0.313707532  0.313707532  0.313707532


 FORCES acting on ions
    electron-ion (+dipol)            ewald-force                    non-local-force                 convergence-correction
 -----------------------------------------------------------------------------------------------
   0.168E-05 0.168E-05 0.173E-05   -.580E-15 -.374E-14 0.179E-13   -.830E-17 -.483E-17 -.747E-17   -.478E-06 -.478E-06 -.478E-06
   -.168E-05 -.168E-05 -.173E-05   0.574E-15 0.426E-14 -.180E-13   0.764E-17 0.417E-17 0.535E-17   0.478E-06 0.478E-06 0.478E-06
 -----------------------------------------------------------------------------------------------
   -.559E-13 -.816E-13 -.625E-13   -.607E-17 0.521E-15 -.956E-16   -.654E-18 -.654E-18 -.212E-17   -.311E-15 -.198E-14 -.130E-14
 
 
 POSITION                                       TOTAL-FORCE (eV/Angst)
 -----------------------------------------------------------------------------------
      2.76061      2.76061      2.76061         0.000000      0.000000      0.000000
      4.14092      4.14092      4.14092        -0.000000     -0.000000     -0.000000
 -----------------------------------------------------------------------------------
    total drift:                               -0.000000     -0.000000     -0.000000


--------------------------------------------------------------------------------------------------------



  FREE ENERGIE OF THE ION-ELECTRON SYSTEM (eV)
  ---------------------------------------------------
  free  energy   TOTEN  =       -10.83873871 eV

  energy  without entropy=      -10.83871842  energy(sigma->0) =      -10.83872856
 


--------------------------------------------------------------------------------------------------------


    POTLOK:  cpu time    0.0320: real time    0.0500


--------------------------------------------------------------------------------------------------------




--------------------------------------------------------------------------------------------------------


  
 reached required accuracy - stopping structural energy minimisation
 writing wavefunctions
     LOOP+:  cpu time    8.9520: real time   10.0473
    4ORBIT:  cpu time    0.0000: real time    0.0000

 total amount of memory used by VASP MPI-rank0    33921. kBytes
=======================================================================

   base      :      30000. kBytes
   nonl-proj :       2478. kBytes
   fftplans  :        247. kBytes
   grid      :        561. kBytes
   one-center:          6. kBytes
   wavefun   :        629. kBytes
 
  
  
 General timing and accounting informations for this job:
 ========================================================
  
                  Total CPU time used (sec):       13.532
                            User time (sec):       11.616
                          System time (sec):        1.916
                         Elapsed time (sec):       16.917
  
                   Maximum memory used (kb):        9432.
                   Average memory used (kb):           0.
  
                          Minor page faults:        38150
                          Major page faults:           16
                 Voluntary context switches:        40823
