 running on    8 total cores
 distrk:  each k-point on    8 cores,    1 groups
 distr:  one band on    1 cores,    8 groups
 using from now: INCAR     
 vasp.5.4.4.18Apr17-6-g9f103f2a35 (build Dec 09 2018 21:25:21) complex          
  
 POSCAR found type information on POSCAR  Si
 POSCAR found :  1 types and       2 ions
 scaLAPACK will be used

 ----------------------------------------------------------------------------- 
|                                                                             |
|           W    W    AA    RRRRR   N    N  II  N    N   GGGG   !!!           |
|           W    W   A  A   R    R  NN   N  II  NN   N  G    G  !!!           |
|           W    W  A    A  R    R  N N  N  II  N N  N  G       !!!           |
|           W WW W  AAAAAA  RRRRR   N  N N  II  N  N N  G  GGG   !            |
|           WW  WW  A    A  R   R   N   NN  II  N   NN  G    G                |
|           W    W  A    A  R    R  N    N  II  N    N   GGGG   !!!           |
|                                                                             |
|      For optimal performance we recommend to set                            |
|        NCORE= 4 - approx SQRT( number of cores)                             |
|      NCORE specifies how many cores store one orbital (NPAR=cpu/NCORE).     |
|      This setting can  greatly improve the performance of VASP for DFT.     |
|      The default,   NCORE=1            might be grossly inefficient         |
|      on modern multi-core architectures or massively parallel machines.     |
|      Do your own testing !!!!                                               |
|      Unfortunately you need to use the default for GW and RPA calculations. |
|      (for HF NCORE is supported but not extensively tested yet)             |
|                                                                             |
 ----------------------------------------------------------------------------- 

 LDA part: xc-table for Pade appr. of Perdew
 POSCAR, INCAR and KPOINTS ok, starting setup
 FFT: planning ...
 WAVECAR not read
 entering main loop
       N       E                     dE             d eps       ncg     rms          rms(c)
DAV:   1     0.512138285049E+01    0.51214E+01   -0.28243E+03   960   0.594E+02
DAV:   2    -0.107981694982E+02   -0.15920E+02   -0.15307E+02  1544   0.744E+01
DAV:   3    -0.109903470676E+02   -0.19218E+00   -0.19218E+00  1176   0.106E+01
DAV:   4    -0.109912172618E+02   -0.87019E-03   -0.87019E-03  1592   0.755E-01
DAV:   5    -0.109912180334E+02   -0.77162E-06   -0.77111E-06  1216   0.180E-02    0.289E+00
DAV:   6    -0.108867719680E+02    0.10445E+00   -0.66607E-02  1152   0.134E+00    0.172E+00
DAV:   7    -0.108373050872E+02    0.49467E-01   -0.12880E-01  1216   0.199E+00    0.143E-01
DAV:   8    -0.108386337662E+02   -0.13287E-02   -0.37919E-03  1136   0.452E-01    0.252E-02
DAV:   9    -0.108387387079E+02   -0.10494E-03   -0.10660E-04   728   0.831E-02
   1 F= -.10838739E+02 E0= -.10838729E+02  d E =-.108387E+02
 curvature:   0.00 expect dE= 0.000E+00 dE for cont linesearch  0.000E+00
 trial: gam= 0.00000 g(F)=  0.152E-44 g(S)=  0.000E+00 ort = 0.000E+00 (trialstep = 0.100E+01)
 search vector abs. value=  0.100E-09
 reached required accuracy - stopping structural energy minimisation
 writing wavefunctions
