    2    2   15    1
  0.2001288E+02  0.3839590E-09  0.3839590E-09  0.3839590E-09  0.5000000E-15
  1.000000000000000E-004
  CAR 
 unknown system                          
      8     28      8
 
  0.8333333E-01  0.8333333E-01  0.8333333E-01  0.9259259E-02
    1       -6.040868   1.000000
    2        4.972294   1.000000
    3        5.686740   0.999272
    4        5.686740   0.999272
    5        8.444137   0.000000
    6        8.610890   0.000000
    7        8.610890   0.000000
    8        9.867390   0.000000
 
  0.2500000E+00  0.8333333E-01  0.8333333E-01  0.2777778E-01
    1       -5.562250   1.000000
    2        2.889121   1.000000
    3        4.445241   1.000000
    4        5.477571   0.999998
    5        8.554272   0.000000
    6        9.007790   0.000000
    7        9.368174   0.000000
    8       11.579678   0.000000
 
  0.4166667E+00  0.8333333E-01  0.8333333E-01  0.2777778E-01
    1       -4.464954   1.000000
    2        0.114903   1.000000
    3        3.982125   1.000000
    4        4.838283   1.000000
    5        8.045170   0.000000
    6        9.388949   0.000000
    7        9.429178   0.000000
    8       13.324902   0.000000
 
 -0.4166667E+00  0.8333333E-01  0.8333333E-01  0.2777778E-01
    1       -3.761690   1.000000
    2       -1.035706   1.000000
    3        4.050401   1.000000
    4        4.455455   1.000000
    5        7.884574   0.000000
    6        9.102800   0.000000
    7        9.532208   0.000000
    8       13.755635   0.000000
 
 -0.2500000E+00  0.8333333E-01  0.8333333E-01  0.2777778E-01
    1       -4.878820   1.000000
    2        0.965381   1.000000
    3        4.514380   1.000000
    4        4.551951   1.000000
    5        8.129995   0.000000
    6        9.135126   0.000000
    7        9.927631   0.000000
    8       11.809498   0.000000
 
 -0.8333333E-01  0.8333333E-01  0.8333333E-01  0.2777778E-01
    1       -5.799248   1.000000
    2        3.904285   1.000000
    3        5.037073   1.000000
    4        5.228084   1.000000
    5        8.146663   0.000000
    6        9.063201   0.000000
    7        9.518151   0.000000
    8       10.740126   0.000000
 
  0.2500000E+00  0.2500000E+00  0.8333333E-01  0.2777778E-01
    1       -5.320145   1.000000
    2        2.706873   1.000000
    3        4.291346   1.000000
    4        4.304058   1.000000
    5        7.558572   0.000000
    6        9.735272   0.000000
    7       10.519852   0.000000
    8       10.747346   0.000000
 
  0.4166667E+00  0.2500000E+00  0.8333333E-01  0.5555556E-01
    1       -4.405885   1.000000
    2        0.861210   1.000000
    3        2.964399   1.000000
    4        3.916083   1.000000
    5        7.957621   0.000000
    6        9.583960   0.000000
    7       10.400965   0.000000
    8       11.863601   0.000000
 
 -0.4166667E+00  0.2500000E+00  0.8333333E-01  0.5555556E-01
    1       -3.282767   1.000000
    2       -0.901281   1.000000
    3        2.362109   1.000000
    4        3.686886   1.000000
    5        8.207171   0.000000
    6        9.773154   0.000000
    7       11.737449   0.000000
    8       12.120744   0.000000
 
 -0.2500000E+00  0.2500000E+00  0.8333333E-01  0.5555556E-01
    1       -4.009299   1.000000
    2        0.163990   1.000000
    3        2.317435   1.000000
    4        4.177096   1.000000
    5        8.817638   0.000000
    6        9.441770   0.000000
    7       11.131140   0.000000
    8       11.607450   0.000000
 
 -0.8333333E-01  0.2500000E+00  0.8333333E-01  0.5555556E-01
    1       -5.093711   1.000000
    2        1.863487   1.000000
    3        3.665116   1.000000
    4        4.850273   1.000000
    5        8.454253   0.000000
    6        9.353577   0.000000
    7       10.401448   0.000000
    8       10.732846   0.000000
 
  0.4166667E+00  0.4166667E+00  0.8333333E-01  0.2777778E-01
    1       -3.691667   1.000000
    2        0.034985   1.000000
    3        2.927643   1.000000
    4        3.271132   1.000000
    5        6.721901   0.000018
    6        7.694893   0.000000
    7       13.432634   0.000000
    8       13.478025   0.000000
 
 -0.4166667E+00  0.4166667E+00  0.8333333E-01  0.5555556E-01
    1       -2.489906   1.000000
    2       -1.310179   1.000000
    3        2.078720   1.000000
    4        2.860556   1.000000
    5        7.346656   0.000000
    6        8.474286   0.000000
    7       12.962153   0.000000
    8       14.450919   0.000000
 
 -0.2500000E+00  0.4166667E+00  0.8333333E-01  0.5555556E-01
    1       -2.861012   1.000000
    2       -0.976411   1.000000
    3        1.593307   1.000000
    4        3.409373   1.000000
    5        7.971698   0.000000
    6       10.895737   0.000000
    7       11.893676   0.000000
    8       12.577177   0.000000
 
 -0.8333333E-01  0.4166667E+00  0.8333333E-01  0.5555556E-01
    1       -3.896029   1.000000
    2       -0.529492   1.000000
    3        3.268959   1.000000
    4        4.275874   1.000000
    5        8.441257   0.000000
    6        9.037602   0.000000
    7       10.378219   0.000000
    8       12.602867   0.000000
 
 -0.4166667E+00 -0.4166667E+00  0.8333333E-01  0.2777778E-01
    1       -2.582875   1.000000
    2       -1.318589   1.000000
    3        2.656688   1.000000
    4        3.055056   1.000000
    5        6.604837   0.000469
    6        7.175127   0.000000
    7       14.921668   0.000000
    8       15.022380   0.000000
 
 -0.2500000E+00 -0.4166667E+00  0.8333333E-01  0.5555556E-01
    1       -3.521932   1.000000
    2       -0.190088   1.000000
    3        2.403655   1.000000
    4        3.202508   1.000000
    5        7.560154   0.000000
    6        8.842967   0.000000
    7       11.603363   0.000000
    8       13.426012   0.000000
 
 -0.2500000E+00 -0.2500000E+00  0.8333333E-01  0.2777778E-01
    1       -4.612491   1.000000
    2        1.405126   1.000000
    3        3.476137   1.000000
    4        3.695100   1.000000
    5        7.047445   0.000000
    6        8.614533   0.000000
    7       11.886468   0.000000
    8       12.080621   0.000000
 
  0.2500000E+00  0.2500000E+00  0.2500000E+00  0.9259259E-02
    1       -5.331750   1.000000
    2        1.904421   1.000000
    3        5.071415   1.000000
    4        5.071415   1.000000
    5        7.864973   0.000000
    6        9.343081   0.000000
    7        9.343081   0.000000
    8       12.756205   0.000000
 
  0.4166667E+00  0.2500000E+00  0.2500000E+00  0.2777778E-01
    1       -4.649663   1.000000
    2        0.972469   1.000000
    3        2.928186   1.000000
    4        4.902828   1.000000
    5        8.621336   0.000000
    6        9.839947   0.000000
    7       10.013643   0.000000
    8       11.971908   0.000000
 
 -0.4166667E+00  0.2500000E+00  0.2500000E+00  0.2777778E-01
    1       -3.464625   1.000000
    2       -0.471849   1.000000
    3        1.814131   1.000000
    4        4.111619   1.000000
    5        7.858956   0.000000
    6       11.163313   0.000000
    7       11.276798   0.000000
    8       13.022323   0.000000
 
 -0.2500000E+00  0.2500000E+00  0.2500000E+00  0.2777778E-01
    1       -3.412513   1.000000
    2       -0.551303   1.000000
    3        2.296869   1.000000
    4        3.626518   1.000000
    5        7.353470   0.000000
    6       10.283639   0.000000
    7       11.584961   0.000000
    8       11.761491   0.000000
 
  0.4166667E+00  0.4166667E+00  0.2500000E+00  0.2777778E-01
    1       -4.223601   1.000000
    2        0.160180   1.000000
    3        3.399671   1.000000
    4        4.001653   1.000000
    5        7.845131   0.000000
    6       10.096710   0.000000
    7       10.735494   0.000000
    8       10.889585   0.000000
 
 -0.4166667E+00  0.4166667E+00  0.2500000E+00  0.5555556E-01
    1       -3.216790   1.000000
    2       -0.582443   1.000000
    3        1.914270   1.000000
    4        3.199152   1.000000
    5        9.062239   0.000000
    6        9.602190   0.000000
    7       10.593787   0.000000
    8       13.338223   0.000000
 
 -0.2500000E+00  0.4166667E+00  0.2500000E+00  0.5555556E-01
    1       -2.381625   1.000000
    2       -1.317919   1.000000
    3        1.746797   1.000000
    4        2.527102   1.000000
    5        8.858267   0.000000
    6       10.121533   0.000000
    7       10.950509   0.000000
    8       12.338068   0.000000
 
 -0.4166667E+00 -0.4166667E+00  0.2500000E+00  0.2777778E-01
    1       -2.592970   1.000000
    2       -1.225353   1.000000
    3        1.619892   1.000000
    4        3.431161   1.000000
    5        7.073211   0.000000
    6        9.998460   0.000000
    7       12.942958   0.000000
    8       13.155197   0.000000
 
  0.4166667E+00  0.4166667E+00  0.4166667E+00  0.9259259E-02
    1       -4.133497   1.000000
    2       -0.633299   1.000000
    3        4.682562   1.000000
    4        4.682562   1.000000
    5        7.430395   0.000000
    6        9.232234   0.000000
    7        9.232234   0.000000
    8       13.640114   0.000000
 
 -0.4166667E+00  0.4166667E+00  0.4166667E+00  0.2777778E-01
    1       -3.525184   1.000000
    2       -0.934537   1.000000
    3        2.840557   1.000000
    4        4.239279   1.000000
    5        8.022044   0.000000
    6        9.904436   0.000000
    7       10.234901   0.000000
    8       13.819598   0.000000
