 vasp.5.4.4.18Apr17-6-g9f103f2a35 (build Dec 09 2018 21:25:21) complex          
  
 executed on IFC18.0.1.163_CrayMP date 2019.03.19  13:39:27
 running on    8 total cores
 distrk:  each k-point on    8 cores,    1 groups
 distr:  one band on NCORES_PER_BAND=   1 cores,    8 groups


--------------------------------------------------------------------------------------------------------


 INCAR:
 POTCAR:   PAW_PBE Si 05Jan2001                   

 ----------------------------------------------------------------------------- 
|                                                                             |
|           W    W    AA    RRRRR   N    N  II  N    N   GGGG   !!!           |
|           W    W   A  A   R    R  NN   N  II  NN   N  G    G  !!!           |
|           W    W  A    A  R    R  N N  N  II  N N  N  G       !!!           |
|           W WW W  AAAAAA  RRRRR   N  N N  II  N  N N  G  GGG   !            |
|           WW  WW  A    A  R   R   N   NN  II  N   NN  G    G                |
|           W    W  A    A  R    R  N    N  II  N    N   GGGG   !!!           |
|                                                                             |
|      For optimal performance we recommend to set                            |
|        NCORE= 4 - approx SQRT( number of cores)                             |
|      NCORE specifies how many cores store one orbital (NPAR=cpu/NCORE).     |
|      This setting can  greatly improve the performance of VASP for DFT.     |
|      The default,   NCORE=1            might be grossly inefficient         |
|      on modern multi-core architectures or massively parallel machines.     |
|      Do your own testing !!!!                                               |
|      Unfortunately you need to use the default for GW and RPA calculations. |
|      (for HF NCORE is supported but not extensively tested yet)             |
|                                                                             |
 ----------------------------------------------------------------------------- 

 POTCAR:   PAW_PBE Si 05Jan2001                   
   VRHFIN =Si: s2p2                                                             
   LEXCH  = PE                                                                  
   EATOM  =   103.0669 eV,    7.5752 Ry                                         
                                                                                
   TITEL  = PAW_PBE Si 05Jan2001                                                
   LULTRA =        F    use ultrasoft PP ?                                      
   IUNSCR =        1    unscreen: 0-lin 1-nonlin 2-no                           
   RPACOR =    1.500    partial core radius                                     
   POMASS =   28.085; ZVAL   =    4.000    mass and valenz                      
   RCORE  =    1.900    outmost cutoff radius                                   
   RWIGS  =    2.480; RWIGS  =    1.312    wigner-seitz radius (au A)           
   ENMAX  =  245.345; ENMIN  =  184.009 eV                                      
   ICORE  =        2    local potential                                         
   LCOR   =        T    correct aug charges                                     
   LPAW   =        T    paw PP                                                  
   EAUG   =  322.069                                                            
   DEXC   =    -.007                                                            
   RMAX   =    2.944    core radius for proj-oper                               
   RAUG   =    1.300    factor for augmentation sphere                          
   RDEP   =    1.993    radius for radial grids                                 
   QCUT   =   -4.246; QGAM   =    8.493    optimization parameters              
                                                                                
   Description                                                                  
     l     E      TYP  RCUT    TYP  RCUT                                        
     0   .000     23  1.900                                                     
     0   .000     23  1.900                                                     
     1   .000     23  1.900                                                     
     1   .000     23  1.900                                                     
     2   .000      7  1.900                                                     
  local pseudopotential read in
  partial core-charges read in
  atomic valenz-charges read in
  non local Contribution for L=           0  read in
    real space projection operators read in
  non local Contribution for L=           0  read in
    real space projection operators read in
  non local Contribution for L=           1  read in
    real space projection operators read in
  non local Contribution for L=           1  read in
    real space projection operators read in
    PAW grid and wavefunctions read in
 
   number of l-projection  operators is LMAX  =           4
   number of lm-projection operators is LMMAX =           8
 
 PAW_PBE Si 05Jan2001                   :
 energy of atom  1       EATOM= -103.0669
 kinetic energy error for atom=    0.0021 (will be added to EATOM!!)
 
 
 POSCAR: Si2                                     
  positions in direct lattice
  No initial velocities read in
 exchange correlation table for  LEXCH =        8
   RHO(1)=    0.500       N(1)  =     2000
   RHO(2)=  100.500       N(2)  =     4000
 


--------------------------------------------------------------------------------------------------------


 ion  position               nearest neighbor table
   1  0.500  0.500  0.500-   2 2.35   2 2.35   2 2.35   2 2.35
   2  0.750  0.750  0.750-   1 2.35   1 2.35   1 2.35   1 2.35
 
  LATTYP: Found a face centered cubic cell.
 ALAT       =     5.4300000000
  
  Lattice vectors:
  
 A1 = (   0.0000000000,   2.7150000000,   2.7150000000)
 A2 = (   2.7150000000,   0.0000000000,   2.7150000000)
 A3 = (   2.7150000000,   2.7150000000,   0.0000000000)


Analysis of symmetry for initial positions (statically):
=====================================================================
 Subroutine PRICEL returns:
 Original cell was already a primitive cell.
 

 Routine SETGRP: Setting up the symmetry group for a 
 face centered cubic supercell.


 Subroutine GETGRP returns: Found 48 space group operations
 (whereof 24 operations were pure point group operations)
 out of a pool of 48 trial point group operations.


The static configuration has the point symmetry T_d .
 The point group associated with its full space group is O_h .


Analysis of symmetry for dynamics (positions and initial velocities):
=====================================================================
 Subroutine PRICEL returns:
 Original cell was already a primitive cell.
 

 Routine SETGRP: Setting up the symmetry group for a 
 face centered cubic supercell.


 Subroutine GETGRP returns: Found 48 space group operations
 (whereof 24 operations were pure point group operations)
 out of a pool of 48 trial point group operations.


The dynamic configuration has the point symmetry T_d .
 The point group associated with its full space group is O_h .


 Subroutine INISYM returns: Found 48 space group operations
 (whereof 24 operations are pure point group operations),
 and found     1 'primitive' translations

 
 
 KPOINTS: Automatic kpoint scheme                 

Automatic generation of k-mesh.
Space group operators:
 irot       det(A)        alpha          n_x          n_y          n_z        tau_x        tau_y        tau_z
    1     1.000000     0.000001     1.000000     0.000000     0.000000     0.000000     0.000000     0.000000
    2     1.000000   120.000000    -0.577350    -0.577350    -0.577350     0.000000     0.000000     0.000000
    3     1.000000   120.000000     0.577350     0.577350     0.577350     0.000000     0.000000     0.000000
    4    -1.000000    90.000000    -0.000000    -0.000000    -1.000000     0.000000     0.000000     0.000000
    5    -1.000000   180.000000    -0.000000     0.707107     0.707107     0.000000     0.000000     0.000000
    6    -1.000000    90.000000    -0.000000     1.000000    -0.000000     0.000000     0.000000     0.000000
    7     1.000000   180.000000     0.000000     0.000000    -1.000000     0.000000     0.000000     0.000000
    8     1.000000   120.000000    -0.577350     0.577350     0.577350     0.000000     0.000000     0.000000
    9     1.000000   120.000000    -0.577350     0.577350    -0.577350     0.000000     0.000000     0.000000
   10    -1.000000    90.000000     0.000000     0.000000     1.000000     0.000000     0.000000     0.000000
   11    -1.000000    90.000000    -1.000000     0.000000    -0.000000     0.000000     0.000000     0.000000
   12    -1.000000   180.000000     0.707107     0.000000     0.707107     0.000000     0.000000     0.000000
   13     1.000000   120.000000     0.577350    -0.577350     0.577350     0.000000     0.000000     0.000000
   14     1.000000   120.000000    -0.577350    -0.577350     0.577350     0.000000     0.000000     0.000000
   15     1.000000   180.000000     1.000000     0.000000     0.000000     0.000000     0.000000     0.000000
   16    -1.000000    90.000000     0.000000    -1.000000     0.000000     0.000000     0.000000     0.000000
   17    -1.000000   180.000000     0.707107     0.707107    -0.000000     0.000000     0.000000     0.000000
   18    -1.000000    90.000000     1.000000     0.000000     0.000000     0.000000     0.000000     0.000000
   19     1.000000   120.000000     0.577350    -0.577350    -0.577350     0.000000     0.000000     0.000000
   20     1.000000   180.000000     0.000000    -1.000000     0.000000     0.000000     0.000000     0.000000
   21     1.000000   120.000000     0.577350     0.577350    -0.577350     0.000000     0.000000     0.000000
   22    -1.000000   180.000000    -0.000000    -0.707107     0.707107     0.000000     0.000000     0.000000
   23    -1.000000   180.000000     0.707107    -0.707107    -0.000000     0.000000     0.000000     0.000000
   24    -1.000000   180.000000    -0.707107     0.000000     0.707107     0.000000     0.000000     0.000000
   25    -1.000000     0.000001     1.000000     0.000000     0.000000     0.250000     0.250000     0.250000
   26    -1.000000   120.000000    -0.577350    -0.577350    -0.577350     0.250000     0.250000     0.250000
   27    -1.000000   120.000000     0.577350     0.577350     0.577350     0.250000     0.250000     0.250000
   28     1.000000    90.000000    -0.000000    -0.000000    -1.000000     0.250000     0.250000     0.250000
   29     1.000000   180.000000    -0.000000     0.707107     0.707107     0.250000     0.250000     0.250000
   30     1.000000    90.000000    -0.000000     1.000000    -0.000000     0.250000     0.250000     0.250000
   31    -1.000000   180.000000     0.000000     0.000000    -1.000000     0.250000     0.250000     0.250000
   32    -1.000000   120.000000    -0.577350     0.577350     0.577350     0.250000     0.250000     0.250000
   33    -1.000000   120.000000    -0.577350     0.577350    -0.577350     0.250000     0.250000     0.250000
   34     1.000000    90.000000     0.000000     0.000000     1.000000     0.250000     0.250000     0.250000
   35     1.000000    90.000000    -1.000000     0.000000    -0.000000     0.250000     0.250000     0.250000
   36     1.000000   180.000000     0.707107     0.000000     0.707107     0.250000     0.250000     0.250000
   37    -1.000000   120.000000     0.577350    -0.577350     0.577350     0.250000     0.250000     0.250000
   38    -1.000000   120.000000    -0.577350    -0.577350     0.577350     0.250000     0.250000     0.250000
   39    -1.000000   180.000000     1.000000     0.000000     0.000000     0.250000     0.250000     0.250000
   40     1.000000    90.000000     0.000000    -1.000000     0.000000     0.250000     0.250000     0.250000
   41     1.000000   180.000000     0.707107     0.707107    -0.000000     0.250000     0.250000     0.250000
   42     1.000000    90.000000     1.000000     0.000000     0.000000     0.250000     0.250000     0.250000
   43    -1.000000   120.000000     0.577350    -0.577350    -0.577350     0.250000     0.250000     0.250000
   44    -1.000000   180.000000     0.000000    -1.000000     0.000000     0.250000     0.250000     0.250000
   45    -1.000000   120.000000     0.577350     0.577350    -0.577350     0.250000     0.250000     0.250000
   46     1.000000   180.000000    -0.000000    -0.707107     0.707107     0.250000     0.250000     0.250000
   47     1.000000   180.000000     0.707107    -0.707107    -0.000000     0.250000     0.250000     0.250000
   48     1.000000   180.000000    -0.707107     0.000000     0.707107     0.250000     0.250000     0.250000
 
 Subroutine IBZKPT returns following result:
 ===========================================
 
 Found     28 irreducible k-points:
 
 Following reciprocal coordinates:
            Coordinates               Weight
  0.083333  0.083333  0.083333     96.000000
  0.250000  0.083333  0.083333    288.000000
  0.416667  0.083333  0.083333    288.000000
 -0.416667  0.083333  0.083333    288.000000
 -0.250000  0.083333  0.083333    288.000000
 -0.083333  0.083333  0.083333    288.000000
  0.250000  0.250000  0.083333    288.000000
  0.416667  0.250000  0.083333    576.000000
 -0.416667  0.250000  0.083333    576.000000
 -0.250000  0.250000  0.083333    576.000000
 -0.083333  0.250000  0.083333    576.000000
  0.416667  0.416667  0.083333    288.000000
 -0.416667  0.416667  0.083333    576.000000
 -0.250000  0.416667  0.083333    576.000000
 -0.083333  0.416667  0.083333    576.000000
 -0.416667 -0.416667  0.083333    288.000000
 -0.250000 -0.416667  0.083333    576.000000
 -0.250000 -0.250000  0.083333    288.000000
  0.250000  0.250000  0.250000     96.000000
  0.416667  0.250000  0.250000    288.000000
 -0.416667  0.250000  0.250000    288.000000
 -0.250000  0.250000  0.250000    288.000000
  0.416667  0.416667  0.250000    288.000000
 -0.416667  0.416667  0.250000    576.000000
 -0.250000  0.416667  0.250000    576.000000
 -0.416667 -0.416667  0.250000    288.000000
  0.416667  0.416667  0.416667     96.000000
 -0.416667  0.416667  0.416667    288.000000
 
 Following cartesian coordinates:
            Coordinates               Weight
  0.015347  0.015347  0.015347     96.000000
 -0.015347  0.046041  0.046041    288.000000
 -0.046041  0.076734  0.076734    288.000000
  0.107428 -0.076734 -0.076734    288.000000
  0.076734 -0.046041 -0.046041    288.000000
  0.046041 -0.015347 -0.015347    288.000000
  0.015347  0.015347  0.076734    288.000000
 -0.015347  0.046041  0.107428    576.000000
  0.138122 -0.107428 -0.046041    576.000000
  0.107428 -0.076734 -0.015347    576.000000
  0.076734 -0.046041  0.015347    576.000000
  0.015347  0.015347  0.138122    288.000000
  0.168815 -0.138122 -0.015347    576.000000
  0.138122 -0.107428  0.015347    576.000000
  0.107428 -0.076734  0.046041    576.000000
  0.015347  0.015347 -0.168815    288.000000
 -0.015347  0.046041 -0.138122    576.000000
  0.015347  0.015347 -0.107428    288.000000
  0.046041  0.046041  0.046041     96.000000
  0.015347  0.076734  0.076734    288.000000
  0.168815 -0.076734 -0.076734    288.000000
  0.138122 -0.046041 -0.046041    288.000000
  0.046041  0.046041  0.107428    288.000000
  0.199509 -0.107428 -0.046041    576.000000
  0.168815 -0.076734 -0.015347    576.000000
  0.046041  0.046041 -0.199509    288.000000
  0.076734  0.076734  0.076734     96.000000
  0.230203 -0.076734 -0.076734    288.000000
 


--------------------------------------------------------------------------------------------------------




 Dimension of arrays:
   k-points           NKPTS =     28   k-points in BZ     NKDIM =     28   number of bands    NBANDS=      8
   number of dos      NEDOS =    301   number of ions     NIONS =      2
   non local maximal  LDIM  =      4   non local SUM 2l+1 LMDIM =      8
   total plane-waves  NPLWV =   4096
   max r-space proj   IRMAX =      1   max aug-charges    IRDMAX=   3621
   dimension x,y,z NGX =    16 NGY =   16 NGZ =   16
   dimension x,y,z NGXF=    32 NGYF=   32 NGZF=   32
   support grid    NGXF=    32 NGYF=   32 NGZF=   32
   ions per type =               2
   NGX,Y,Z   is equivalent  to a cutoff of   6.93,  6.93,  6.93 a.u.
   NGXF,Y,Z  is equivalent  to a cutoff of  13.86, 13.86, 13.86 a.u.

 SYSTEM =  unknown system                          
 POSCAR =  Si2                                     

 Startparameter for this run:
   NWRITE =      2    write-flag & timer
   PREC   = normal    normal or accurate (medium, high low for compatibility)
   ISTART =      0    job   : 0-new  1-cont  2-samecut
   ICHARG =      2    charge: 1-file 2-atom 10-const
   ISPIN  =      1    spin polarized calculation?
   LNONCOLLINEAR =      F non collinear calculations
   LSORBIT =      F    spin-orbit coupling
   INIWAV =      1    electr: 0-lowe 1-rand  2-diag
   LASPH  =      F    aspherical Exc in radial PAW
   METAGGA=      F    non-selfconsistent MetaGGA calc.

 Electronic Relaxation 1
   ENCUT  =  300.0 eV  22.05 Ry    4.70 a.u.   5.42  5.42  5.42*2*pi/ulx,y,z
   ENINI  =  300.0     initial cutoff
   ENAUG  =  322.1 eV  augmentation charge cutoff
   NELM   =     60;   NELMIN=  2; NELMDL= -5     # of ELM steps 
   EDIFF  = 0.4E-03   stopping-criterion for ELM
   LREAL  =      F    real-space projection
   NLSPLINE    = F    spline interpolate recip. space projectors
   LCOMPAT=      F    compatible to vasp.4.4
   GGA_COMPAT  = T    GGA compatible to vasp.4.4-vasp.4.6
   LMAXPAW     = -100 max onsite density
   LMAXMIX     =    2 max onsite mixed and CHGCAR
   VOSKOWN=      0    Vosko Wilk Nusair interpolation
   ROPT   =    0.00000
 Ionic relaxation
   EDIFFG = -.1E-01   stopping-criterion for IOM
   NSW    =     15    number of steps for IOM
   NBLOCK =      1;   KBLOCK =     15    inner block; outer block 
   IBRION =      2    ionic relax: 0-MD 1-quasi-New 2-CG
   NFREE  =      1    steps in history (QN), initial steepest desc. (CG)
   ISIF   =      2    stress and relaxation
   IWAVPR =     11    prediction:  0-non 1-charg 2-wave 3-comb
   ISYM   =      2    0-nonsym 1-usesym 2-fastsym
   LCORR  =      T    Harris-Foulkes like correction to forces

   POTIM  = 0.5000    time-step for ionic-motion
   TEIN   =    0.0    initial temperature
   TEBEG  =    0.0;   TEEND  =   0.0 temperature during run
   SMASS  =  -3.00    Nose mass-parameter (am)
   estimated Nose-frequenzy (Omega)   =  0.10E-29 period in steps =****** mass=  -0.337E-27a.u.
   SCALEE = 1.0000    scale energy and forces
   NPACO  =    256;   APACO  = 16.0  distance and # of slots for P.C.
   PSTRESS=    0.0 pullay stress

  Mass of Ions in am
   POMASS =  28.09
  Ionic Valenz
   ZVAL   =   4.00
  Atomic Wigner-Seitz radii
   RWIGS  =  -1.00
  virtual crystal weights 
   VCA    =   1.00
   NELECT =       8.0000    total number of electrons
   NUPDOWN=      -1.0000    fix difference up-down

 DOS related values:
   EMIN   =  10.00;   EMAX   =-10.00  energy-range for DOS
   EFERMI =   0.00
   ISMEAR =     0;   SIGMA  =   0.20  broadening in eV -4-tet -1-fermi 0-gaus

 Electronic relaxation 2 (details)
   IALGO  =     38    algorithm
   LDIAG  =      T    sub-space diagonalisation (order eigenvalues)
   LSUBROT=      F    optimize rotation matrix (better conditioning)
   TURBO    =      0    0=normal 1=particle mesh
   IRESTART =      0    0=no restart 2=restart with 2 vectors
   NREBOOT  =      0    no. of reboots
   NMIN     =      0    reboot dimension
   EREF     =   0.00    reference energy to select bands
   IMIX   =      4    mixing-type and parameters
     AMIX     =   0.40;   BMIX     =  1.00
     AMIX_MAG =   1.60;   BMIX_MAG =  1.00
     AMIN     =   0.10
     WC   =   100.;   INIMIX=   1;  MIXPRE=   1;  MAXMIX= -45

 Intra band minimization:
   WEIMIN = 0.0010     energy-eigenvalue tresh-hold
   EBREAK =  0.13E-04  absolut break condition
   DEPER  =   0.30     relativ break condition  

   TIME   =   0.40     timestep for ELM

  volume/ion in A,a.u.               =      20.01       135.05
  Fermi-wavevector in a.u.,A,eV,Ry     =   0.957176  1.808800 12.465458  0.916185
  Thomas-Fermi vector in A             =   2.086170
 
 Write flags
   LWAVE        =      T    write WAVECAR
   LDOWNSAMPLE  =      F    k-point downsampling of WAVECAR
   LCHARG       =      T    write CHGCAR
   LVTOT        =      F    write LOCPOT, total local potential
   LVHAR        =      F    write LOCPOT, Hartree potential only
   LELF         =      F    write electronic localiz. function (ELF)
   LORBIT       =      0    0 simple, 1 ext, 2 COOP (PROOUT), +10 PAW based schemes


 Dipole corrections
   LMONO  =      F    monopole corrections only (constant potential shift)
   LDIPOL =      F    correct potential (dipole corrections)
   IDIPOL =      0    1-x, 2-y, 3-z, 4-all directions 
   EPSILON=  1.0000000 bulk dielectric constant

 Exchange correlation treatment:
   GGA     =    --    GGA type
   LEXCH   =     8    internal setting for exchange type
   VOSKOWN=      0    Vosko Wilk Nusair interpolation
   LHFCALC =     F    Hartree Fock is set to
   LHFONE  =     F    Hartree Fock one center treatment
   AEXX    =    0.0000 exact exchange contribution

 Linear response parameters
   LEPSILON=     F    determine dielectric tensor
   LRPA    =     F    only Hartree local field effects (RPA)
   LNABLA  =     F    use nabla operator in PAW spheres
   LVEL    =     F    velocity operator in full k-point grid
   LINTERFAST=   F  fast interpolation
   KINTER  =     0    interpolate to denser k-point grid
   CSHIFT  =0.1000    complex shift for real part using Kramers Kronig
   OMEGAMAX=  -1.0    maximum frequency
   DEG_THRESHOLD= 0.2000000E-02 threshold for treating states as degnerate
   RTIME   =   -0.100 relaxation time in fs
  (WPLASMAI=    0.000 imaginary part of plasma frequency in eV, 0.658/RTIME)
   DFIELD  = 0.0000000 0.0000000 0.0000000 field for delta impulse in time
 
 Orbital magnetization related:
   ORBITALMAG=     F  switch on orbital magnetization
   LCHIMAG   =     F  perturbation theory with respect to B field
   DQ        =  0.001000  dq finite difference perturbation B field
   LLRAUG    =     F  two centre corrections for induced B field



--------------------------------------------------------------------------------------------------------


 conjugate gradient relaxation of ions
 charge density and potential will be updated during run
 non-spin polarized calculation
 Variant of blocked Davidson
 Davidson routine will perform the subspace rotation
 perform sub-space diagonalisation
    after iterative eigenvector-optimisation
 modified Broyden-mixing scheme, WC =      100.0
 initial mixing is a Kerker type mixing with AMIX =  0.4000 and BMIX =      1.0000
 Hartree-type preconditioning will be used
 using additional bands            4
 reciprocal scheme for non local part
 use partial core corrections
 calculate Harris-corrections to forces 
   (improved forces if not selfconsistent)
 use gradient corrections 
 use of overlap-Matrix (Vanderbilt PP)
 Gauss-broadening in eV      SIGMA  =   0.20


--------------------------------------------------------------------------------------------------------


  energy-cutoff  :      300.00
  volume of cell :       40.03
      direct lattice vectors                 reciprocal lattice vectors
     0.000000000  2.715000000  2.715000000    -0.184162063  0.184162063  0.184162063
     2.715000000  0.000000000  2.715000000     0.184162063 -0.184162063  0.184162063
     2.715000000  2.715000000  0.000000000     0.184162063  0.184162063 -0.184162063

  length of vectors
     3.839589822  3.839589822  3.839589822     0.318978049  0.318978049  0.318978049


 
 k-points in units of 2pi/SCALE and weight: Automatic kpoint scheme                 
   0.01534684  0.01534684  0.01534684       0.009
  -0.01534684  0.04604052  0.04604052       0.028
  -0.04604052  0.07673419  0.07673419       0.028
   0.10742787 -0.07673419 -0.07673419       0.028
   0.07673419 -0.04604052 -0.04604052       0.028
   0.04604052 -0.01534684 -0.01534684       0.028
   0.01534684  0.01534684  0.07673419       0.028
  -0.01534684  0.04604052  0.10742787       0.056
   0.13812155 -0.10742787 -0.04604052       0.056
   0.10742787 -0.07673419 -0.01534684       0.056
   0.07673419 -0.04604052  0.01534684       0.056
   0.01534684  0.01534684  0.13812155       0.028
   0.16881522 -0.13812155 -0.01534684       0.056
   0.13812155 -0.10742787  0.01534684       0.056
   0.10742787 -0.07673419  0.04604052       0.056
   0.01534684  0.01534684 -0.16881522       0.028
  -0.01534684  0.04604052 -0.13812155       0.056
   0.01534684  0.01534684 -0.10742787       0.028
   0.04604052  0.04604052  0.04604052       0.009
   0.01534684  0.07673419  0.07673419       0.028
   0.16881522 -0.07673419 -0.07673419       0.028
   0.13812155 -0.04604052 -0.04604052       0.028
   0.04604052  0.04604052  0.10742787       0.028
   0.19950890 -0.10742787 -0.04604052       0.056
   0.16881522 -0.07673419 -0.01534684       0.056
   0.04604052  0.04604052 -0.19950890       0.028
   0.07673419  0.07673419  0.07673419       0.009
   0.23020258 -0.07673419 -0.07673419       0.028
 
 k-points in reciprocal lattice and weights: Automatic kpoint scheme                 
   0.08333333  0.08333333  0.08333333       0.009
   0.25000000  0.08333333  0.08333333       0.028
   0.41666667  0.08333333  0.08333333       0.028
  -0.41666667  0.08333333  0.08333333       0.028
  -0.25000000  0.08333333  0.08333333       0.028
  -0.08333333  0.08333333  0.08333333       0.028
   0.25000000  0.25000000  0.08333333       0.028
   0.41666667  0.25000000  0.08333333       0.056
  -0.41666667  0.25000000  0.08333333       0.056
  -0.25000000  0.25000000  0.08333333       0.056
  -0.08333333  0.25000000  0.08333333       0.056
   0.41666667  0.41666667  0.08333333       0.028
  -0.41666667  0.41666667  0.08333333       0.056
  -0.25000000  0.41666667  0.08333333       0.056
  -0.08333333  0.41666667  0.08333333       0.056
  -0.41666667 -0.41666667  0.08333333       0.028
  -0.25000000 -0.41666667  0.08333333       0.056
  -0.25000000 -0.25000000  0.08333333       0.028
   0.25000000  0.25000000  0.25000000       0.009
   0.41666667  0.25000000  0.25000000       0.028
  -0.41666667  0.25000000  0.25000000       0.028
  -0.25000000  0.25000000  0.25000000       0.028
   0.41666667  0.41666667  0.25000000       0.028
  -0.41666667  0.41666667  0.25000000       0.056
  -0.25000000  0.41666667  0.25000000       0.056
  -0.41666667 -0.41666667  0.25000000       0.028
   0.41666667  0.41666667  0.41666667       0.009
  -0.41666667  0.41666667  0.41666667       0.028
 
 position of ions in fractional coordinates (direct lattice) 
   0.50000000  0.50000000  0.50000000
   0.75000000  0.75000000  0.75000000
 
 position of ions in cartesian coordinates  (Angst):
   2.71500000  2.71500000  2.71500000
   4.07250000  4.07250000  4.07250000
 


--------------------------------------------------------------------------------------------------------


 k-point  1 :   0.0833 0.0833 0.0833  plane waves:     495
 k-point  2 :   0.2500 0.0833 0.0833  plane waves:     481
 k-point  3 :   0.4167 0.0833 0.0833  plane waves:     476
 k-point  4 :  -0.4167 0.0833 0.0833  plane waves:     470
 k-point  5 :  -0.2500 0.0833 0.0833  plane waves:     477
 k-point  6 :  -0.0833 0.0833 0.0833  plane waves:     484
 k-point  7 :   0.2500 0.2500 0.0833  plane waves:     478
 k-point  8 :   0.4167 0.2500 0.0833  plane waves:     471
 k-point  9 :  -0.4167 0.2500 0.0833  plane waves:     471
 k-point 10 :  -0.2500 0.2500 0.0833  plane waves:     474
 k-point 11 :  -0.0833 0.2500 0.0833  plane waves:     478
 k-point 12 :   0.4167 0.4167 0.0833  plane waves:     467
 k-point 13 :  -0.4167 0.4167 0.0833  plane waves:     471
 k-point 14 :  -0.2500 0.4167 0.0833  plane waves:     469
 k-point 15 :  -0.0833 0.4167 0.0833  plane waves:     470
 k-point 16 :  -0.4167-0.4167 0.0833  plane waves:     464
 k-point 17 :  -0.2500-0.4167 0.0833  plane waves:     471
 k-point 18 :  -0.2500-0.2500 0.0833  plane waves:     469
 k-point 19 :   0.2500 0.2500 0.2500  plane waves:     483
 k-point 20 :   0.4167 0.2500 0.2500  plane waves:     473
 k-point 21 :  -0.4167 0.2500 0.2500  plane waves:     471
 k-point 22 :  -0.2500 0.2500 0.2500  plane waves:     472
 k-point 23 :   0.4167 0.4167 0.2500  plane waves:     467
 k-point 24 :  -0.4167 0.4167 0.2500  plane waves:     475
 k-point 25 :  -0.2500 0.4167 0.2500  plane waves:     469
 k-point 26 :  -0.4167-0.4167 0.2500  plane waves:     472
 k-point 27 :   0.4167 0.4167 0.4167  plane waves:     471
 k-point 28 :  -0.4167 0.4167 0.4167  plane waves:     469

 maximum and minimum number of plane-waves per node :       495      464

 maximum number of plane-waves:       495
 maximum index in each direction: 
   IXMAX=    5   IYMAX=    5   IZMAX=    5
   IXMIN=   -5   IYMIN=   -5   IZMIN=   -5


 serial   3D FFT for wavefunctions
 parallel 3D FFT for charge:
    minimum data exchange during FFTs selected (reduces bandwidth)


 total amount of memory used by VASP MPI-rank0    31671. kBytes
=======================================================================

   base      :      30000. kBytes
   nonl-proj :        904. kBytes
   fftplans  :        160. kBytes
   grid      :        372. kBytes
   one-center:          6. kBytes
   wavefun   :        229. kBytes
 
     INWAV:  cpu time    0.0000: real time    0.0004
 Broyden mixing: mesh for mixing (old mesh)
   NGX = 11   NGY = 11   NGZ = 11
  (NGX  = 32   NGY  = 32   NGZ  = 32)
  gives a total of   1331 points

 initial charge density was supplied:
 charge density of overlapping atoms calculated
 number of electron       8.0000000 magnetization 
 keeping initial charge density in first step


--------------------------------------------------------------------------------------------------------


 Maximum index for augmentation-charges          433 (set IRDMAX)


--------------------------------------------------------------------------------------------------------


 First call to EWALD:  gamma=   0.518
 Maximum number of real-space cells 3x 3x 3
 Maximum number of reciprocal cells 3x 3x 3

    FEWALD:  cpu time    0.0040: real time    0.0074


--------------------------------------- Iteration      1(   1)  ---------------------------------------


    POTLOK:  cpu time    0.0280: real time    0.0339
    SETDIJ:  cpu time    0.0080: real time    0.0089
     EDDAV:  cpu time    0.2480: real time    0.2513
       DOS:  cpu time    0.0040: real time    0.0025
    --------------------------------------------
      LOOP:  cpu time    0.2880: real time    0.2973

 eigenvalue-minimisations  :   456
 total energy-change (2. order) : 0.2287325E+01  (-0.2524145E+03)
 number of electron       8.0000000 magnetization 
 augmentation part        8.0000000 magnetization 

 Free energy of the ion-electron system (eV)
  ---------------------------------------------------
  alpha Z        PSCENC =         3.36414203
  Ewald energy   TEWEN  =      -228.56352493
  -Hartree energ DENC   =       -11.00108243
  -exchange      EXHF   =         0.00000000
  -V(xc)+E(xc)   XCENC  =       -18.60181216
  PAW double counting   =        65.95520812      -30.76852678
  entropy T*S    EENTRO =        -0.01308371
  eigenvalues    EBANDS =        15.78631928
  atomic energy  EATOM  =       206.12968587
  Solvation  Ediel_sol  =         0.00000000
  ---------------------------------------------------
  free energy    TOTEN  =         2.28732528 eV

  energy without entropy =        2.30040899  energy(sigma->0) =        2.29386714


--------------------------------------------------------------------------------------------------------




--------------------------------------- Iteration      1(   2)  ---------------------------------------


     EDDAV:  cpu time    0.3920: real time    0.4011
       DOS:  cpu time    0.0000: real time    0.0021
    --------------------------------------------
      LOOP:  cpu time    0.3960: real time    0.4032

 eigenvalue-minimisations  :   696
 total energy-change (2. order) :-0.1313081E+02  (-0.1276615E+02)
 number of electron       8.0000000 magnetization 
 augmentation part        8.0000000 magnetization 

 Free energy of the ion-electron system (eV)
  ---------------------------------------------------
  alpha Z        PSCENC =         3.36414203
  Ewald energy   TEWEN  =      -228.56352493
  -Hartree energ DENC   =       -11.00108243
  -exchange      EXHF   =         0.00000000
  -V(xc)+E(xc)   XCENC  =       -18.60181216
  PAW double counting   =        65.95520812      -30.76852678
  entropy T*S    EENTRO =        -0.00000062
  eigenvalues    EBANDS =         2.64242288
  atomic energy  EATOM  =       206.12968587
  Solvation  Ediel_sol  =         0.00000000
  ---------------------------------------------------
  free energy    TOTEN  =       -10.84348803 eV

  energy without entropy =      -10.84348741  energy(sigma->0) =      -10.84348772


--------------------------------------------------------------------------------------------------------




--------------------------------------- Iteration      1(   3)  ---------------------------------------


     EDDAV:  cpu time    0.3120: real time    0.3135
       DOS:  cpu time    0.0000: real time    0.0022
    --------------------------------------------
      LOOP:  cpu time    0.3080: real time    0.3157

 eigenvalue-minimisations  :   560
 total energy-change (2. order) :-0.1741066E+00  (-0.1741066E+00)
 number of electron       8.0000000 magnetization 
 augmentation part        8.0000000 magnetization 

 Free energy of the ion-electron system (eV)
  ---------------------------------------------------
  alpha Z        PSCENC =         3.36414203
  Ewald energy   TEWEN  =      -228.56352493
  -Hartree energ DENC   =       -11.00108243
  -exchange      EXHF   =         0.00000000
  -V(xc)+E(xc)   XCENC  =       -18.60181216
  PAW double counting   =        65.95520812      -30.76852678
  entropy T*S    EENTRO =        -0.00000046
  eigenvalues    EBANDS =         2.46831614
  atomic energy  EATOM  =       206.12968587
  Solvation  Ediel_sol  =         0.00000000
  ---------------------------------------------------
  free energy    TOTEN  =       -11.01759461 eV

  energy without entropy =      -11.01759414  energy(sigma->0) =      -11.01759438


--------------------------------------------------------------------------------------------------------




--------------------------------------- Iteration      1(   4)  ---------------------------------------


     EDDAV:  cpu time    0.4200: real time    0.4207
       DOS:  cpu time    0.0000: real time    0.0022
    --------------------------------------------
      LOOP:  cpu time    0.4200: real time    0.4229

 eigenvalue-minimisations  :   736
 total energy-change (2. order) :-0.5313347E-03  (-0.5313342E-03)
 number of electron       8.0000000 magnetization 
 augmentation part        8.0000000 magnetization 

 Free energy of the ion-electron system (eV)
  ---------------------------------------------------
  alpha Z        PSCENC =         3.36414203
  Ewald energy   TEWEN  =      -228.56352493
  -Hartree energ DENC   =       -11.00108243
  -exchange      EXHF   =         0.00000000
  -V(xc)+E(xc)   XCENC  =       -18.60181216
  PAW double counting   =        65.95520812      -30.76852678
  entropy T*S    EENTRO =        -0.00000046
  eigenvalues    EBANDS =         2.46778481
  atomic energy  EATOM  =       206.12968587
  Solvation  Ediel_sol  =         0.00000000
  ---------------------------------------------------
  free energy    TOTEN  =       -11.01812594 eV

  energy without entropy =      -11.01812548  energy(sigma->0) =      -11.01812571


--------------------------------------------------------------------------------------------------------




--------------------------------------- Iteration      1(   5)  ---------------------------------------


     EDDAV:  cpu time    0.3200: real time    0.3257
       DOS:  cpu time    0.0040: real time    0.0022
    CHARGE:  cpu time    0.0160: real time    0.0156
    MIXING:  cpu time    0.0000: real time    0.0021
    --------------------------------------------
      LOOP:  cpu time    0.3400: real time    0.3456

 eigenvalue-minimisations  :   568
 total energy-change (2. order) :-0.6505653E-06  (-0.6505642E-06)
 number of electron       7.9999994 magnetization 
 augmentation part       -0.4705203 magnetization 

 Broyden mixing:
  rms(total) = 0.30058E+00    rms(broyden)= 0.30057E+00
  rms(prec ) = 0.87212E+00
  weight for this iteration     100.00

 Free energy of the ion-electron system (eV)
  ---------------------------------------------------
  alpha Z        PSCENC =         3.36414203
  Ewald energy   TEWEN  =      -228.56352493
  -Hartree energ DENC   =       -11.00108243
  -exchange      EXHF   =         0.00000000
  -V(xc)+E(xc)   XCENC  =       -18.60181216
  PAW double counting   =        65.95520812      -30.76852678
  entropy T*S    EENTRO =        -0.00000046
  eigenvalues    EBANDS =         2.46778416
  atomic energy  EATOM  =       206.12968587
  Solvation  Ediel_sol  =         0.00000000
  ---------------------------------------------------
  free energy    TOTEN  =       -11.01812659 eV

  energy without entropy =      -11.01812613  energy(sigma->0) =      -11.01812636


--------------------------------------------------------------------------------------------------------




--------------------------------------- Iteration      1(   6)  ---------------------------------------


    POTLOK:  cpu time    0.0200: real time    0.0241
    SETDIJ:  cpu time    0.0080: real time    0.0086
     EDDAV:  cpu time    0.2840: real time    0.2848
       DOS:  cpu time    0.0040: real time    0.0023
    CHARGE:  cpu time    0.0120: real time    0.0141
    MIXING:  cpu time    0.0040: real time    0.0018
    --------------------------------------------
      LOOP:  cpu time    0.3320: real time    0.3358

 eigenvalue-minimisations  :   528
 total energy-change (2. order) : 0.1244646E+00  (-0.8230507E-02)
 number of electron       7.9999994 magnetization 
 augmentation part       -0.4646603 magnetization 

 Broyden mixing:
  rms(total) = 0.17804E+00    rms(broyden)= 0.17804E+00
  rms(prec ) = 0.51311E+00
  weight for this iteration     100.00

 eigenvalues of (default mixing * dielectric matrix)
  average eigenvalue GAMMA=   2.4322
  2.4322

 Free energy of the ion-electron system (eV)
  ---------------------------------------------------
  alpha Z        PSCENC =         3.36414203
  Ewald energy   TEWEN  =      -228.56352493
  -Hartree energ DENC   =       -12.49715688
  -exchange      EXHF   =         0.00000000
  -V(xc)+E(xc)   XCENC  =       -18.36390461
  PAW double counting   =        70.01600312      -34.94086647
  entropy T*S    EENTRO =        -0.00000369
  eigenvalues    EBANDS =         3.96196358
  atomic energy  EATOM  =       206.12968587
  Solvation  Ediel_sol  =         0.00000000
  ---------------------------------------------------
  free energy    TOTEN  =       -10.89366196 eV

  energy without entropy =      -10.89365828  energy(sigma->0) =      -10.89366012


--------------------------------------------------------------------------------------------------------




--------------------------------------- Iteration      1(   7)  ---------------------------------------


    POTLOK:  cpu time    0.0200: real time    0.0270
    SETDIJ:  cpu time    0.0080: real time    0.0085
     EDDAV:  cpu time    0.3160: real time    0.3169
       DOS:  cpu time    0.0000: real time    0.0023
    CHARGE:  cpu time    0.0160: real time    0.0136
    MIXING:  cpu time    0.0000: real time    0.0016
    --------------------------------------------
      LOOP:  cpu time    0.3600: real time    0.3696

 eigenvalue-minimisations  :   584
 total energy-change (2. order) : 0.5684180E-01  (-0.1512746E-01)
 number of electron       7.9999994 magnetization 
 augmentation part       -0.4576373 magnetization 

 Broyden mixing:
  rms(total) = 0.15366E-01    rms(broyden)= 0.15366E-01
  rms(prec ) = 0.40020E-01
  weight for this iteration     100.00

 eigenvalues of (default mixing * dielectric matrix)
  average eigenvalue GAMMA=   2.4585
  2.4585  2.4585

 Free energy of the ion-electron system (eV)
  ---------------------------------------------------
  alpha Z        PSCENC =         3.36414203
  Ewald energy   TEWEN  =      -228.56352493
  -Hartree energ DENC   =       -14.89935834
  -exchange      EXHF   =         0.00000000
  -V(xc)+E(xc)   XCENC  =       -17.97477533
  PAW double counting   =        75.39859589      -40.46604555
  entropy T*S    EENTRO =        -0.00003584
  eigenvalues    EBANDS =         6.17449602
  atomic energy  EATOM  =       206.12968587
  Solvation  Ediel_sol  =         0.00000000
  ---------------------------------------------------
  free energy    TOTEN  =       -10.83682017 eV

  energy without entropy =      -10.83678433  energy(sigma->0) =      -10.83680225


--------------------------------------------------------------------------------------------------------




--------------------------------------- Iteration      1(   8)  ---------------------------------------


    POTLOK:  cpu time    0.0200: real time    0.0245
    SETDIJ:  cpu time    0.0080: real time    0.0086
     EDDAV:  cpu time    0.2760: real time    0.2744
       DOS:  cpu time    0.0000: real time    0.0023
    CHARGE:  cpu time    0.0160: real time    0.0137
    MIXING:  cpu time    0.0000: real time    0.0017
    --------------------------------------------
      LOOP:  cpu time    0.3200: real time    0.3251

 eigenvalue-minimisations  :   512
 total energy-change (2. order) :-0.1309538E-02  (-0.4097051E-03)
 number of electron       7.9999994 magnetization 
 augmentation part       -0.4586214 magnetization 

 Broyden mixing:
  rms(total) = 0.25199E-02    rms(broyden)= 0.25195E-02
  rms(prec ) = 0.83682E-02
  weight for this iteration     100.00

 eigenvalues of (default mixing * dielectric matrix)
  average eigenvalue GAMMA=   2.1201
  1.3635  2.8004  2.1964

 Free energy of the ion-electron system (eV)
  ---------------------------------------------------
  alpha Z        PSCENC =         3.36414203
  Ewald energy   TEWEN  =      -228.56352493
  -Hartree energ DENC   =       -14.86504098
  -exchange      EXHF   =         0.00000000
  -V(xc)+E(xc)   XCENC  =       -17.96656657
  PAW double counting   =        74.51377519      -39.55291008
  entropy T*S    EENTRO =        -0.00002723
  eigenvalues    EBANDS =         6.10233699
  atomic energy  EATOM  =       206.12968587
  Solvation  Ediel_sol  =         0.00000000
  ---------------------------------------------------
  free energy    TOTEN  =       -10.83812970 eV

  energy without entropy =      -10.83810248  energy(sigma->0) =      -10.83811609


--------------------------------------------------------------------------------------------------------




--------------------------------------- Iteration      1(   9)  ---------------------------------------


    POTLOK:  cpu time    0.0200: real time    0.0243
    SETDIJ:  cpu time    0.0080: real time    0.0085
     EDDAV:  cpu time    0.2360: real time    0.2355
       DOS:  cpu time    0.0000: real time    0.0022
    --------------------------------------------
      LOOP:  cpu time    0.2640: real time    0.2704

 eigenvalue-minimisations  :   408
 total energy-change (2. order) :-0.9297866E-04  (-0.9681039E-05)
 number of electron       7.9999994 magnetization 
 augmentation part       -0.4586214 magnetization 

 Free energy of the ion-electron system (eV)
  ---------------------------------------------------
  alpha Z        PSCENC =         3.36414203
  Ewald energy   TEWEN  =      -228.56352493
  -Hartree energ DENC   =       -14.90451562
  -exchange      EXHF   =         0.00000000
  -V(xc)+E(xc)   XCENC  =       -17.95993243
  PAW double counting   =        74.50841281      -39.54764401
  entropy T*S    EENTRO =        -0.00002699
  eigenvalues    EBANDS =         6.13518059
  atomic energy  EATOM  =       206.12968587
  Solvation  Ediel_sol  =         0.00000000
  ---------------------------------------------------
  free energy    TOTEN  =       -10.83822268 eV

  energy without entropy =      -10.83819569  energy(sigma->0) =      -10.83820919


--------------------------------------------------------------------------------------------------------




 average (electrostatic) potential at core
  the test charge radii are     0.9892
  (the norm of the test charge is              1.0000)
       1 -83.2500       2 -83.2500
 
 
 
 E-fermi :   6.1369     XC(G=0):  -9.4137     alpha+bet :-11.9845


 k-point     1 :       0.0833    0.0833    0.0833
  band No.  band energies     occupation 
      1      -6.0409      2.00000
      2       4.9723      2.00000
      3       5.6867      1.99854
      4       5.6867      1.99854
      5       8.4441      0.00000
      6       8.6109      0.00000
      7       8.6109      0.00000
      8       9.8674      0.00000

 k-point     2 :       0.2500    0.0833    0.0833
  band No.  band energies     occupation 
      1      -5.5623      2.00000
      2       2.8891      2.00000
      3       4.4452      2.00000
      4       5.4776      2.00000
      5       8.5543      0.00000
      6       9.0078      0.00000
      7       9.3682      0.00000
      8      11.5797      0.00000

 k-point     3 :       0.4167    0.0833    0.0833
  band No.  band energies     occupation 
      1      -4.4650      2.00000
      2       0.1149      2.00000
      3       3.9821      2.00000
      4       4.8383      2.00000
      5       8.0452      0.00000
      6       9.3889      0.00000
      7       9.4292      0.00000
      8      13.3249      0.00000

 k-point     4 :      -0.4167    0.0833    0.0833
  band No.  band energies     occupation 
      1      -3.7617      2.00000
      2      -1.0357      2.00000
      3       4.0504      2.00000
      4       4.4555      2.00000
      5       7.8846      0.00000
      6       9.1028      0.00000
      7       9.5322      0.00000
      8      13.7556      0.00000

 k-point     5 :      -0.2500    0.0833    0.0833
  band No.  band energies     occupation 
      1      -4.8788      2.00000
      2       0.9654      2.00000
      3       4.5144      2.00000
      4       4.5520      2.00000
      5       8.1300      0.00000
      6       9.1351      0.00000
      7       9.9276      0.00000
      8      11.8095      0.00000

 k-point     6 :      -0.0833    0.0833    0.0833
  band No.  band energies     occupation 
      1      -5.7992      2.00000
      2       3.9043      2.00000
      3       5.0371      2.00000
      4       5.2281      2.00000
      5       8.1467      0.00000
      6       9.0632      0.00000
      7       9.5182      0.00000
      8      10.7401      0.00000

 k-point     7 :       0.2500    0.2500    0.0833
  band No.  band energies     occupation 
      1      -5.3201      2.00000
      2       2.7069      2.00000
      3       4.2913      2.00000
      4       4.3041      2.00000
      5       7.5586      0.00000
      6       9.7353      0.00000
      7      10.5199      0.00000
      8      10.7473      0.00000

 k-point     8 :       0.4167    0.2500    0.0833
  band No.  band energies     occupation 
      1      -4.4059      2.00000
      2       0.8612      2.00000
      3       2.9644      2.00000
      4       3.9161      2.00000
      5       7.9576      0.00000
      6       9.5840      0.00000
      7      10.4010      0.00000
      8      11.8636      0.00000

 k-point     9 :      -0.4167    0.2500    0.0833
  band No.  band energies     occupation 
      1      -3.2828      2.00000
      2      -0.9013      2.00000
      3       2.3621      2.00000
      4       3.6869      2.00000
      5       8.2072      0.00000
      6       9.7732      0.00000
      7      11.7374      0.00000
      8      12.1207      0.00000

 k-point    10 :      -0.2500    0.2500    0.0833
  band No.  band energies     occupation 
      1      -4.0093      2.00000
      2       0.1640      2.00000
      3       2.3174      2.00000
      4       4.1771      2.00000
      5       8.8176      0.00000
      6       9.4418      0.00000
      7      11.1311      0.00000
      8      11.6074      0.00000

 k-point    11 :      -0.0833    0.2500    0.0833
  band No.  band energies     occupation 
      1      -5.0937      2.00000
      2       1.8635      2.00000
      3       3.6651      2.00000
      4       4.8503      2.00000
      5       8.4543      0.00000
      6       9.3536      0.00000
      7      10.4014      0.00000
      8      10.7328      0.00000

 k-point    12 :       0.4167    0.4167    0.0833
  band No.  band energies     occupation 
      1      -3.6917      2.00000
      2       0.0350      2.00000
      3       2.9276      2.00000
      4       3.2711      2.00000
      5       6.7219      0.00004
      6       7.6949      0.00000
      7      13.4326      0.00000
      8      13.4780      0.00000

 k-point    13 :      -0.4167    0.4167    0.0833
  band No.  band energies     occupation 
      1      -2.4899      2.00000
      2      -1.3102      2.00000
      3       2.0787      2.00000
      4       2.8606      2.00000
      5       7.3467      0.00000
      6       8.4743      0.00000
      7      12.9622      0.00000
      8      14.4509      0.00000

 k-point    14 :      -0.2500    0.4167    0.0833
  band No.  band energies     occupation 
      1      -2.8610      2.00000
      2      -0.9764      2.00000
      3       1.5933      2.00000
      4       3.4094      2.00000
      5       7.9717      0.00000
      6      10.8957      0.00000
      7      11.8937      0.00000
      8      12.5772      0.00000

 k-point    15 :      -0.0833    0.4167    0.0833
  band No.  band energies     occupation 
      1      -3.8960      2.00000
      2      -0.5295      2.00000
      3       3.2690      2.00000
      4       4.2759      2.00000
      5       8.4413      0.00000
      6       9.0376      0.00000
      7      10.3782      0.00000
      8      12.6029      0.00000

 k-point    16 :      -0.4167   -0.4167    0.0833
  band No.  band energies     occupation 
      1      -2.5829      2.00000
      2      -1.3186      2.00000
      3       2.6567      2.00000
      4       3.0551      2.00000
      5       6.6048      0.00094
      6       7.1751      0.00000
      7      14.9217      0.00000
      8      15.0224      0.00000

 k-point    17 :      -0.2500   -0.4167    0.0833
  band No.  band energies     occupation 
      1      -3.5219      2.00000
      2      -0.1901      2.00000
      3       2.4037      2.00000
      4       3.2025      2.00000
      5       7.5602      0.00000
      6       8.8430      0.00000
      7      11.6034      0.00000
      8      13.4260      0.00000

 k-point    18 :      -0.2500   -0.2500    0.0833
  band No.  band energies     occupation 
      1      -4.6125      2.00000
      2       1.4051      2.00000
      3       3.4761      2.00000
      4       3.6951      2.00000
      5       7.0474      0.00000
      6       8.6145      0.00000
      7      11.8865      0.00000
      8      12.0806      0.00000

 k-point    19 :       0.2500    0.2500    0.2500
  band No.  band energies     occupation 
      1      -5.3317      2.00000
      2       1.9044      2.00000
      3       5.0714      2.00000
      4       5.0714      2.00000
      5       7.8650      0.00000
      6       9.3431      0.00000
      7       9.3431      0.00000
      8      12.7562      0.00000

 k-point    20 :       0.4167    0.2500    0.2500
  band No.  band energies     occupation 
      1      -4.6497      2.00000
      2       0.9725      2.00000
      3       2.9282      2.00000
      4       4.9028      2.00000
      5       8.6213      0.00000
      6       9.8399      0.00000
      7      10.0136      0.00000
      8      11.9719      0.00000

 k-point    21 :      -0.4167    0.2500    0.2500
  band No.  band energies     occupation 
      1      -3.4646      2.00000
      2      -0.4718      2.00000
      3       1.8141      2.00000
      4       4.1116      2.00000
      5       7.8590      0.00000
      6      11.1633      0.00000
      7      11.2768      0.00000
      8      13.0223      0.00000

 k-point    22 :      -0.2500    0.2500    0.2500
  band No.  band energies     occupation 
      1      -3.4125      2.00000
      2      -0.5513      2.00000
      3       2.2969      2.00000
      4       3.6265      2.00000
      5       7.3535      0.00000
      6      10.2836      0.00000
      7      11.5850      0.00000
      8      11.7615      0.00000

 k-point    23 :       0.4167    0.4167    0.2500
  band No.  band energies     occupation 
      1      -4.2236      2.00000
      2       0.1602      2.00000
      3       3.3997      2.00000
      4       4.0017      2.00000
      5       7.8451      0.00000
      6      10.0967      0.00000
      7      10.7355      0.00000
      8      10.8896      0.00000

 k-point    24 :      -0.4167    0.4167    0.2500
  band No.  band energies     occupation 
      1      -3.2168      2.00000
      2      -0.5824      2.00000
      3       1.9143      2.00000
      4       3.1992      2.00000
      5       9.0622      0.00000
      6       9.6022      0.00000
      7      10.5938      0.00000
      8      13.3382      0.00000

 k-point    25 :      -0.2500    0.4167    0.2500
  band No.  band energies     occupation 
      1      -2.3816      2.00000
      2      -1.3179      2.00000
      3       1.7468      2.00000
      4       2.5271      2.00000
      5       8.8583      0.00000
      6      10.1215      0.00000
      7      10.9505      0.00000
      8      12.3381      0.00000

 k-point    26 :      -0.4167   -0.4167    0.2500
  band No.  band energies     occupation 
      1      -2.5930      2.00000
      2      -1.2254      2.00000
      3       1.6199      2.00000
      4       3.4312      2.00000
      5       7.0732      0.00000
      6       9.9985      0.00000
      7      12.9430      0.00000
      8      13.1552      0.00000

 k-point    27 :       0.4167    0.4167    0.4167
  band No.  band energies     occupation 
      1      -4.1335      2.00000
      2      -0.6333      2.00000
      3       4.6826      2.00000
      4       4.6826      2.00000
      5       7.4304      0.00000
      6       9.2322      0.00000
      7       9.2322      0.00000
      8      13.6401      0.00000

 k-point    28 :      -0.4167    0.4167    0.4167
  band No.  band energies     occupation 
      1      -3.5252      2.00000
      2      -0.9345      2.00000
      3       2.8406      2.00000
      4       4.2393      2.00000
      5       8.0220      0.00000
      6       9.9044      0.00000
      7      10.2349      0.00000
      8      13.8196      0.00000


--------------------------------------------------------------------------------------------------------


 soft charge-density along one line, spin component           1
         0         1         2         3         4         5         6         7         8         9
 total charge-density along one line
 
 pseudopotential strength for first ion, spin component:           1
 18.414  -0.001  -0.000  -0.000  -0.000   0.000   0.000   0.000
 -0.001   0.006   0.000   0.000   0.000  -0.000  -0.000  -0.000
 -0.000   0.000   4.179  -0.000  -0.000  -0.005   0.000   0.000
 -0.000   0.000  -0.000   4.179  -0.000   0.000  -0.005   0.000
 -0.000   0.000  -0.000  -0.000   4.179   0.000   0.000  -0.005
  0.000  -0.000  -0.005   0.000   0.000   0.005  -0.000  -0.000
  0.000  -0.000   0.000  -0.005   0.000  -0.000   0.005  -0.000
  0.000  -0.000   0.000   0.000  -0.005  -0.000  -0.000   0.005
 total augmentation occupancy for first ion, spin component:           1
  1.492  -0.805  -0.000  -0.000  -0.000   0.000   0.000   0.000
 -0.805   0.807   0.000   0.000  -0.000   0.000   0.000   0.000
 -0.000   0.000   1.030  -0.000   0.000  -0.589   0.000  -0.000
 -0.000  -0.000  -0.000   1.030   0.000   0.000  -0.589  -0.000
 -0.000  -0.000   0.000   0.000   1.030  -0.000  -0.000  -0.589
  0.000   0.000  -0.589   0.000  -0.000   0.396  -0.000   0.000
  0.000   0.000   0.000  -0.589  -0.000  -0.000   0.396   0.000
  0.000   0.000  -0.000  -0.000  -0.589   0.000   0.000   0.396


------------------------ aborting loop because EDIFF is reached ----------------------------------------


    CHARGE:  cpu time    0.0120: real time    0.0132
    FORLOC:  cpu time    0.0000: real time    0.0007
    FORNL :  cpu time    0.0120: real time    0.0115
    STRESS:  cpu time    0.1080: real time    0.1101
    FORCOR:  cpu time    0.0160: real time    0.0140
    FORHAR:  cpu time    0.0040: real time    0.0036
    MIXING:  cpu time    0.0000: real time    0.0013
    OFIELD:  cpu time    0.0000: real time    0.0005

  FORCE on cell =-STRESS in cart. coord.  units (eV):
  Direction    XX          YY          ZZ          XY          YZ          ZX
  --------------------------------------------------------------------------------------
  Alpha Z     3.36414     3.36414     3.36414
  Ewald     -76.18788   -76.18788   -76.18788    -0.00000    -0.00000     0.00000
  Hartree     4.97117     4.97117     4.97117    -0.00000    -0.00000    -0.00000
  E(xc)     -25.37469   -25.37469   -25.37469     0.00001     0.00001     0.00001
  Local     -29.26309   -29.26309   -29.26309     0.00005     0.00005     0.00005
  n-local    77.57162    80.29530    75.82435     0.97957    -1.24518     0.08048
  augment   -11.64838   -11.64838   -11.64838    -0.00004    -0.00004    -0.00004
  Kinetic    58.09763    56.10000    55.94338     0.62169    -0.93908     0.07888
  Fock        0.00000     0.00000     0.00000     0.00000     0.00000     0.00000
  -------------------------------------------------------------------------------------
  Total       0.47204     0.47204     0.47204     0.00000     0.00000    -0.00000
  in kB      18.89508    18.89508    18.89508     0.00000     0.00000    -0.00000
  external pressure =       18.90 kB  Pullay stress =        0.00 kB


 VOLUME and BASIS-vectors are now :
 -----------------------------------------------------------------------------
  energy-cutoff  :      300.00
  volume of cell :       40.03
      direct lattice vectors                 reciprocal lattice vectors
     0.000000000  2.715000000  2.715000000    -0.184162063  0.184162063  0.184162063
     2.715000000  0.000000000  2.715000000     0.184162063 -0.184162063  0.184162063
     2.715000000  2.715000000  0.000000000     0.184162063  0.184162063 -0.184162063

  length of vectors
     3.839589822  3.839589822  3.839589822     0.318978049  0.318978049  0.318978049


 FORCES acting on ions
    electron-ion (+dipol)            ewald-force                    non-local-force                 convergence-correction
 -----------------------------------------------------------------------------------------------
   0.105E-05 0.105E-05 0.214E-05   -.476E-15 -.149E-14 0.391E-14   -.204E-16 -.239E-16 -.204E-16   -.299E-06 -.299E-06 -.299E-06
   -.105E-05 -.105E-05 -.214E-05   0.623E-15 0.106E-14 -.375E-14   0.222E-16 0.239E-16 0.215E-16   0.299E-06 0.299E-06 0.299E-06
 -----------------------------------------------------------------------------------------------
   0.996E-13 0.393E-13 -.509E-14   0.147E-15 -.426E-15 0.164E-15   0.180E-17 0.607E-19 0.106E-17   -.744E-15 0.478E-16 -.675E-15
 
 
 POSITION                                       TOTAL-FORCE (eV/Angst)
 -----------------------------------------------------------------------------------
      2.71500      2.71500      2.71500         0.000000      0.000000      0.000000
      4.07250      4.07250      4.07250        -0.000000     -0.000000     -0.000000
 -----------------------------------------------------------------------------------
    total drift:                                0.000000      0.000000     -0.000000


--------------------------------------------------------------------------------------------------------



  FREE ENERGIE OF THE ION-ELECTRON SYSTEM (eV)
  ---------------------------------------------------
  free  energy   TOTEN  =       -10.83822268 eV

  energy  without entropy=      -10.83819569  energy(sigma->0) =      -10.83820919
 


--------------------------------------------------------------------------------------------------------


    POTLOK:  cpu time    0.0320: real time    0.0407


--------------------------------------------------------------------------------------------------------




--------------------------------------------------------------------------------------------------------


  
 reached required accuracy - stopping structural energy minimisation
 writing wavefunctions
     LOOP+:  cpu time    4.0240: real time    4.4510
    4ORBIT:  cpu time    0.0000: real time    0.0000

 total amount of memory used by VASP MPI-rank0    31671. kBytes
=======================================================================

   base      :      30000. kBytes
   nonl-proj :        904. kBytes
   fftplans  :        160. kBytes
   grid      :        372. kBytes
   one-center:          6. kBytes
   wavefun   :        229. kBytes
 
  
  
 General timing and accounting informations for this job:
 ========================================================
  
                  Total CPU time used (sec):        8.244
                            User time (sec):        6.964
                          System time (sec):        1.280
                         Elapsed time (sec):        9.895
  
                   Maximum memory used (kb):        9496.
                   Average memory used (kb):           0.
  
                          Minor page faults:        38058
                          Major page faults:           36
                 Voluntary context switches:        28293
