    2    2   15    1
  0.1529437E+02  0.3691622E-09  0.3691622E-09  0.3691622E-09  0.5000000E-15
  1.000000000000000E-004
  CAR 
 unknown system                          
      8     28      8
 
  0.8333333E-01  0.8333333E-01  0.8333333E-01  0.3703704E-01
    1       -3.667420   1.000000
    2        3.909974   1.000000
    3        7.124667   1.000000
    4        8.628907   0.999899
    5       12.816994   0.000000
    6       13.707569   0.000000
    7       13.945577   0.000000
    8       15.779880   0.000000
 
  0.2500000E+00  0.8333333E-01  0.8333333E-01  0.7407407E-01
    1       -1.342312   1.000000
    2        4.282449   1.000000
    3        7.493161   1.000000
    4        7.972085   1.000000
    5        9.726271   0.000026
    6       12.299268   0.000000
    7       13.548376   0.000000
    8       14.361349   0.000000
 
  0.4166667E+00  0.8333333E-01  0.8333333E-01  0.3703704E-01
    1        2.191404   1.000000
    2        2.737502   1.000000
    3        6.028236   1.000000
    4        6.120917   1.000000
    5        9.572484   0.001557
    6       11.339251   0.000000
    7       13.662369   0.000000
    8       14.490587   0.000000
 
 -0.8333333E-01  0.8333333E-01  0.8333333E-01  0.1851852E-01
    1       -4.450110   1.000000
    2        4.507354   1.000000
    3        5.694064   1.000000
    4        8.246433   1.000000
    5       11.445109   0.000000
    6       14.312590   0.000000
    7       17.501801   0.000000
    8       18.096327   0.000000
 
  0.2500000E+00  0.2500000E+00  0.8333333E-01  0.3703704E-01
    1        2.096425   1.000000
    2        3.994409   1.000000
    3        4.097432   1.000000
    4        5.848831   1.000000
    5       10.978401   0.000000
    6       12.188828   0.000000
    7       13.793687   0.000000
    8       14.300350   0.000000
 
  0.4166667E+00  0.2500000E+00  0.8333333E-01  0.7407407E-01
    1       -0.052056   1.000000
    2        1.849303   1.000000
    3        6.996012   1.000000
    4        8.303921   1.000000
    5        9.955953   0.000000
    6       11.769029   0.000000
    7       13.551804   0.000000
    8       15.198530   0.000000
 
 -0.4166667E+00  0.2500000E+00  0.8333333E-01  0.3703704E-01
    1       -2.682980   1.000000
    2        1.168799   1.000000
    3        8.017740   1.000000
    4        9.829635   0.000001
    5       11.434469   0.000000
    6       12.903281   0.000000
    7       14.075790   0.000000
    8       14.320141   0.000000
 
 -0.2500000E+00  0.2500000E+00  0.8333333E-01  0.3703704E-01
    1       -3.790523   1.000000
    2        1.945924   1.000000
    3        5.958990   1.000000
    4        9.831197   0.000001
    5       11.439982   0.000000
    6       14.476473   0.000000
    7       15.325700   0.000000
    8       18.893029   0.000000
 
 -0.8333333E-01  0.2500000E+00  0.8333333E-01  0.3703704E-01
    1       -3.339153   1.000000
    2        3.654657   1.000000
    3        5.176315   1.000000
    4       10.676093   0.000000
    5       11.797503   0.000000
    6       13.234701   0.000000
    7       13.993874   0.000000
    8       15.936344   0.000000
 
  0.4166667E+00  0.4166667E+00  0.8333333E-01  0.1851852E-01
    1       -1.059215   1.000000
    2       -1.059215   1.000000
    3        9.471028   0.012582
    4        9.471029   0.012582
    5       11.353298   0.000000
    6       11.353306   0.000000
    7       13.712266   0.000000
    8       13.712269   0.000000
 
 -0.4166667E+00  0.4166667E+00  0.8333333E-01  0.3703704E-01
    1       -2.481428   1.000000
    2       -0.547228   1.000000
    3        7.176130   1.000000
    4        9.018828   0.831135
    5       11.239895   0.000000
    6       13.071432   0.000000
    7       18.207479   0.000000
    8       18.523619   0.000000
 
 -0.2500000E+00  0.4166667E+00  0.8333333E-01  0.7407407E-01
    1       -2.359787   1.000000
    2        1.431115   1.000000
    3        5.570299   1.000000
    4        9.171162   0.452833
    5       11.361897   0.000000
    6       13.464176   0.000000
    7       15.524506   0.000000
    8       16.728393   0.000000
 
 -0.8333333E-01  0.4166667E+00  0.8333333E-01  0.3703704E-01
    1       -0.698724   1.000000
    2        4.264574   1.000000
    3        5.879220   1.000000
    4        6.473660   1.000000
    5       10.070143   0.000000
    6       12.296237   0.000000
    7       13.326886   0.000000
    8       15.386154   0.000000
 
 -0.4166667E+00 -0.4166667E+00  0.8333333E-01  0.3703704E-01
    1       -0.751833   1.000000
    2       -0.746934   1.000000
    3        7.056026   1.000000
    4        7.075060   1.000000
    5       11.269245   0.000000
    6       14.478599   0.000000
    7       15.277490   0.000000
    8       15.369872   0.000000
 
 -0.2500000E+00 -0.4166667E+00  0.8333333E-01  0.7407407E-01
    1        0.572015   1.000000
    2        2.408554   1.000000
    3        5.807303   1.000000
    4        6.557427   1.000000
    5        8.235581   1.000000
    6       11.833621   0.000000
    7       15.383204   0.000000
    8       16.971066   0.000000
 
 -0.8333333E-01 -0.4166667E+00  0.8333333E-01  0.3703704E-01
    1        1.474299   1.000000
    2        3.440602   1.000000
    3        6.376984   1.000000
    4        7.606250   1.000000
    5        8.192130   1.000000
    6       10.783949   0.000000
    7       11.632384   0.000000
    8       15.683270   0.000000
 
 -0.2500000E+00 -0.2500000E+00  0.8333333E-01  0.3703704E-01
    1        1.168940   1.000000
    2        4.884297   1.000000
    3        4.932630   1.000000
    4        7.731827   1.000000
    5        8.712439   0.999111
    6       10.268973   0.000000
    7       12.634526   0.000000
    8       13.478109   0.000000
 
 -0.8333333E-01 -0.2500000E+00  0.8333333E-01  0.3703704E-01
    1       -1.993059   1.000000
    2        6.712890   1.000000
    3        7.718799   1.000000
    4        8.487746   0.999999
    5        9.877771   0.000000
    6       11.130669   0.000000
    7       12.366783   0.000000
    8       13.542766   0.000000
 
 -0.8333333E-01 -0.8333333E-01  0.8333333E-01  0.9259259E-02
    1       -3.997123   1.000000
    2        6.755377   1.000000
    3        6.824715   1.000000
    4        6.824721   1.000000
    5       11.144344   0.000000
    6       14.501454   0.000000
    7       14.777650   0.000000
    8       16.716086   0.000000
 
  0.2500000E+00  0.2500000E+00  0.2500000E+00  0.9259259E-02
    1        3.399501   1.000000
    2        3.399503   1.000000
    3        4.060332   1.000000
    4        4.060333   1.000000
    5       13.211918   0.000000
    6       13.211923   0.000000
    7       15.026200   0.000000
    8       15.026210   0.000000
 
 -0.2500000E+00  0.2500000E+00  0.2500000E+00  0.1851852E-01
    1       -3.137695   1.000000
    2        1.930820   1.000000
    3        3.628312   1.000000
    4        8.539128   0.999993
    5       12.891798   0.000000
    6       16.031377   0.000000
    7       17.253412   0.000000
    8       18.276524   0.000000
 
 -0.4166667E+00  0.4166667E+00  0.2500000E+00  0.3703704E-01
    1       -1.847095   1.000000
    2        0.023782   1.000000
    3        4.270230   1.000000
    4        6.087792   1.000000
    5       14.734037   0.000000
    6       16.169613   0.000000
    7       17.821870   0.000000
    8       18.186138   0.000000
 
 -0.2500000E+00  0.4166667E+00  0.2500000E+00  0.3703704E-01
    1       -1.400518   1.000000
    2        1.714477   1.000000
    3        3.468447   1.000000
    4        6.500144   1.000000
    5       10.821234   0.000000
    6       16.475245   0.000000
    7       17.511934   0.000000
    8       18.372281   0.000000
 
 -0.4166667E+00 -0.4166667E+00  0.2500000E+00  0.3703704E-01
    1        0.135612   1.000000
    2        0.145945   1.000000
    3        4.392769   1.000000
    4        4.395441   1.000000
    5       10.560656   0.000000
    6       17.629648   0.000000
    7       18.229603   0.000000
    8       19.011654   0.000000
 
 -0.2500000E+00 -0.4166667E+00  0.2500000E+00  0.3703704E-01
    1        1.768476   1.000000
    2        2.987747   1.000000
    3        4.740715   1.000000
    4        5.252045   1.000000
    5        6.001300   1.000000
    6       13.952295   0.000000
    7       15.335936   0.000000
    8       17.242874   0.000000
 
 -0.2500000E+00 -0.2500000E+00  0.2500000E+00  0.9259259E-02
    1        0.854250   1.000000
    2        5.774876   1.000000
    3        5.867998   1.000000
    4        7.265708   1.000000
    5        7.265710   1.000000
    6       11.587926   0.000000
    7       12.255695   0.000000
    8       12.255699   0.000000
 
 -0.4166667E+00  0.4166667E+00  0.4166667E+00  0.1851852E-01
    1       -0.628392   1.000000
    2        0.618047   1.000000
    3        2.436175   1.000000
    4        3.664502   1.000000
    5       16.180405   0.000000
    6       16.389098   0.000000
    7       19.385453   0.000000
    8       20.487366   0.000000
 
 -0.4166667E+00 -0.4166667E+00  0.4166667E+00  0.9259259E-02
    1        1.050099   1.000000
    2        1.067822   1.000000
    3        2.866838   1.000000
    4        2.866838   1.000000
    5       10.286790   0.000000
    6       19.175555   0.000000
    7       20.313124   0.000000
    8       20.313126   0.000000
