       N       E                     dE             d eps       ncg     rms          rms(c)
DAV:   1    -0.102892574000E+02   -0.10289E+02   -0.28798E-06   288   0.166E-02    0.457E-04
DAV:   2    -0.102892574189E+02   -0.18928E-07   -0.21144E-07   256   0.414E-03
   1 F= -.10289257E+02 E0= -.10283572E+02  d E =-.102893E+02
