   2   2   0   0
  0.1529437E+02  0.3691622E-09  0.3691622E-09  0.3691622E-09  0.5000000E-15
  1.000000000000000E-004
  CAR 
 unknown system                          
     22.28334841     -6.61747279  301      9.14665005      1.00000000
     -6.617  0.0000E+00  0.0000E+00
     -6.521  0.0000E+00  0.0000E+00
     -6.425  0.0000E+00  0.0000E+00
     -6.328  0.0000E+00  0.0000E+00
     -6.232  0.0000E+00  0.0000E+00
     -6.136  0.0000E+00  0.0000E+00
     -6.039  0.0000E+00  0.0000E+00
     -5.943  0.0000E+00  0.0000E+00
     -5.847  0.0000E+00  0.0000E+00
     -5.750  0.6146E-17  0.5921E-18
     -5.654  0.1267E-14  0.1226E-15
     -5.558  0.1622E-12  0.1574E-13
     -5.461  0.1315E-10  0.1283E-11
     -5.365  0.6767E-09  0.6648E-10
     -5.269  0.2211E-07  0.2196E-08
     -5.172  0.4590E-06  0.4642E-07
     -5.076  0.6067E-05  0.6309E-06
     -4.980  0.5111E-04  0.5554E-05
     -4.883  0.2747E-03  0.3202E-04
     -4.787  0.9432E-03  0.1229E-03
     -4.691  0.2072E-02  0.3225E-03
     -4.594  0.2935E-02  0.6053E-03
     -4.498  0.2841E-02  0.8790E-03
     -4.402  0.2699E-02  0.1139E-02
     -4.305  0.4554E-02  0.1578E-02
     -4.209  0.8688E-02  0.2415E-02
     -4.113  0.1176E-01  0.3547E-02
     -4.016  0.1052E-01  0.4561E-02
     -3.920  0.7196E-02  0.5254E-02
     -3.824  0.7142E-02  0.5942E-02
     -3.727  0.1279E-01  0.7174E-02
     -3.631  0.2188E-01  0.9283E-02
     -3.535  0.2914E-01  0.1209E-01
     -3.438  0.2892E-01  0.1488E-01
     -3.342  0.2035E-01  0.1684E-01
     -3.246  0.9710E-02  0.1777E-01
     -3.149  0.3098E-02  0.1807E-01
     -3.053  0.1026E-02  0.1817E-01
     -2.957  0.2137E-02  0.1838E-01
     -2.860  0.7215E-02  0.1907E-01
     -2.764  0.1848E-01  0.2085E-01
     -2.668  0.3576E-01  0.2430E-01
     -2.571  0.5185E-01  0.2929E-01
     -2.475  0.5573E-01  0.3466E-01
     -2.379  0.4718E-01  0.3920E-01
     -2.282  0.3674E-01  0.4274E-01
     -2.186  0.2766E-01  0.4541E-01
     -2.090  0.1707E-01  0.4705E-01
     -1.993  0.7671E-02  0.4779E-01
     -1.897  0.3910E-02  0.4817E-01
     -1.801  0.7013E-02  0.4885E-01
     -1.704  0.1544E-01  0.5033E-01
     -1.608  0.2285E-01  0.5253E-01
     -1.512  0.2173E-01  0.5463E-01
     -1.415  0.1340E-01  0.5592E-01
     -1.319  0.6143E-02  0.5651E-01
     -1.223  0.4572E-02  0.5695E-01
     -1.126  0.7829E-02  0.5770E-01
     -1.030  0.1369E-01  0.5902E-01
     -0.934  0.2185E-01  0.6113E-01
     -0.837  0.3575E-01  0.6457E-01
     -0.741  0.5687E-01  0.7005E-01
     -0.645  0.7309E-01  0.7709E-01
     -0.548  0.6846E-01  0.8369E-01
     -0.452  0.4846E-01  0.8836E-01
     -0.356  0.3257E-01  0.9149E-01
     -0.259  0.2956E-01  0.9434E-01
     -0.163  0.3582E-01  0.9779E-01
     -0.067  0.4521E-01  0.1021E+00
      0.030  0.5510E-01  0.1075E+00
      0.126  0.6325E-01  0.1135E+00
      0.222  0.6162E-01  0.1195E+00
      0.319  0.4526E-01  0.1238E+00
      0.415  0.2433E-01  0.1262E+00
      0.511  0.1394E-01  0.1275E+00
      0.608  0.1843E-01  0.1293E+00
      0.704  0.2973E-01  0.1322E+00
      0.800  0.3451E-01  0.1355E+00
      0.897  0.2820E-01  0.1382E+00
      0.993  0.2229E-01  0.1404E+00
      1.089  0.3017E-01  0.1433E+00
      1.186  0.4808E-01  0.1479E+00
      1.282  0.5652E-01  0.1533E+00
      1.378  0.4483E-01  0.1577E+00
      1.475  0.2400E-01  0.1600E+00
      1.571  0.8843E-02  0.1608E+00
      1.667  0.2988E-02  0.1611E+00
      1.764  0.4729E-02  0.1616E+00
      1.860  0.1519E-01  0.1630E+00
      1.956  0.3420E-01  0.1663E+00
      2.053  0.5160E-01  0.1713E+00
      2.149  0.5610E-01  0.1767E+00
      2.245  0.5157E-01  0.1817E+00
      2.342  0.4956E-01  0.1864E+00
      2.438  0.5307E-01  0.1916E+00
      2.534  0.5480E-01  0.1968E+00
      2.631  0.4763E-01  0.2014E+00
      2.727  0.3503E-01  0.2048E+00
      2.823  0.2615E-01  0.2073E+00
      2.920  0.2627E-01  0.2098E+00
      3.016  0.3317E-01  0.2130E+00
      3.112  0.3933E-01  0.2168E+00
      3.209  0.4451E-01  0.2211E+00
      3.305  0.5719E-01  0.2266E+00
      3.401  0.7178E-01  0.2335E+00
      3.498  0.6766E-01  0.2401E+00
      3.594  0.4298E-01  0.2442E+00
      3.690  0.1914E-01  0.2460E+00
      3.787  0.1110E-01  0.2471E+00
      3.883  0.1820E-01  0.2489E+00
      3.979  0.3238E-01  0.2520E+00
      4.076  0.4440E-01  0.2563E+00
      4.172  0.5134E-01  0.2612E+00
      4.269  0.5732E-01  0.2667E+00
      4.365  0.6411E-01  0.2729E+00
      4.461  0.6567E-01  0.2792E+00
      4.558  0.5408E-01  0.2844E+00
      4.654  0.3360E-01  0.2877E+00
      4.750  0.2103E-01  0.2897E+00
      4.847  0.2882E-01  0.2925E+00
      4.943  0.5563E-01  0.2978E+00
      5.039  0.8700E-01  0.3062E+00
      5.136  0.1013E+00  0.3160E+00
      5.232  0.8565E-01  0.3242E+00
      5.328  0.5081E-01  0.3291E+00
      5.425  0.2090E-01  0.3311E+00
      5.521  0.7876E-02  0.3319E+00
      5.617  0.9411E-02  0.3328E+00
      5.714  0.2060E-01  0.3348E+00
      5.810  0.3757E-01  0.3384E+00
      5.906  0.5884E-01  0.3441E+00
      6.003  0.8285E-01  0.3521E+00
      6.099  0.9989E-01  0.3617E+00
      6.195  0.9802E-01  0.3711E+00
      6.292  0.7708E-01  0.3786E+00
      6.388  0.4869E-01  0.3833E+00
      6.484  0.2869E-01  0.3860E+00
      6.581  0.2998E-01  0.3889E+00
      6.677  0.5307E-01  0.3940E+00
      6.773  0.8078E-01  0.4018E+00
      6.870  0.9196E-01  0.4107E+00
      6.966  0.8324E-01  0.4187E+00
      7.062  0.7028E-01  0.4254E+00
      7.159  0.6772E-01  0.4320E+00
      7.255  0.7008E-01  0.4387E+00
      7.351  0.6160E-01  0.4447E+00
      7.448  0.4469E-01  0.4490E+00
      7.544  0.4064E-01  0.4529E+00
      7.640  0.5847E-01  0.4585E+00
      7.737  0.7658E-01  0.4659E+00
      7.833  0.7005E-01  0.4726E+00
      7.929  0.4647E-01  0.4771E+00
      8.026  0.2952E-01  0.4800E+00
      8.122  0.2542E-01  0.4824E+00
      8.218  0.3035E-01  0.4853E+00
      8.315  0.4541E-01  0.4897E+00
      8.411  0.6391E-01  0.4959E+00
      8.507  0.6681E-01  0.5023E+00
      8.604  0.4828E-01  0.5070E+00
      8.700  0.2686E-01  0.5095E+00
      8.796  0.2295E-01  0.5117E+00
      8.893  0.4037E-01  0.5156E+00
      8.989  0.6482E-01  0.5219E+00
      9.085  0.7510E-01  0.5291E+00
      9.182  0.6588E-01  0.5355E+00
      9.278  0.5023E-01  0.5403E+00
      9.374  0.3846E-01  0.5440E+00
      9.471  0.3368E-01  0.5473E+00
      9.567  0.3730E-01  0.5508E+00
      9.663  0.4435E-01  0.5551E+00
      9.760  0.4765E-01  0.5597E+00
      9.856  0.4818E-01  0.5644E+00
      9.952  0.4999E-01  0.5692E+00
     10.049  0.5081E-01  0.5741E+00
     10.145  0.4923E-01  0.5788E+00
     10.241  0.5071E-01  0.5837E+00
     10.338  0.5820E-01  0.5893E+00
     10.434  0.6529E-01  0.5956E+00
     10.530  0.6299E-01  0.6017E+00
     10.627  0.5184E-01  0.6066E+00
     10.723  0.4016E-01  0.6105E+00
     10.819  0.3763E-01  0.6141E+00
     10.916  0.5397E-01  0.6193E+00
     11.012  0.8313E-01  0.6273E+00
     11.108  0.9872E-01  0.6369E+00
     11.205  0.9039E-01  0.6456E+00
     11.301  0.7834E-01  0.6531E+00
     11.397  0.7307E-01  0.6602E+00
     11.494  0.6252E-01  0.6662E+00
     11.590  0.4339E-01  0.6704E+00
     11.686  0.2800E-01  0.6731E+00
     11.783  0.2475E-01  0.6754E+00
     11.879  0.2962E-01  0.6783E+00
     11.975  0.3683E-01  0.6818E+00
     12.072  0.4957E-01  0.6866E+00
     12.168  0.7001E-01  0.6934E+00
     12.264  0.8742E-01  0.7018E+00
     12.361  0.8840E-01  0.7103E+00
     12.457  0.7560E-01  0.7176E+00
     12.553  0.6578E-01  0.7239E+00
     12.650  0.6533E-01  0.7302E+00
     12.746  0.6360E-01  0.7363E+00
     12.842  0.5473E-01  0.7416E+00
     12.939  0.4766E-01  0.7462E+00
     13.035  0.5241E-01  0.7513E+00
     13.131  0.6524E-01  0.7575E+00
     13.228  0.7424E-01  0.7647E+00
     13.324  0.7854E-01  0.7723E+00
     13.420  0.8736E-01  0.7807E+00
     13.517  0.1008E+00  0.7904E+00
     13.613  0.1078E+00  0.8008E+00
     13.709  0.1062E+00  0.8110E+00
     13.806  0.1104E+00  0.8216E+00
     13.902  0.1261E+00  0.8338E+00
     13.998  0.1325E+00  0.8465E+00
     14.095  0.1114E+00  0.8573E+00
     14.191  0.7791E-01  0.8648E+00
     14.287  0.5824E-01  0.8704E+00
     14.384  0.5447E-01  0.8756E+00
     14.480  0.5017E-01  0.8805E+00
     14.576  0.3598E-01  0.8839E+00
     14.673  0.1842E-01  0.8857E+00
     14.769  0.7768E-02  0.8865E+00
     14.865  0.6389E-02  0.8871E+00
     14.962  0.9871E-02  0.8880E+00
     15.058  0.1213E-01  0.8892E+00
     15.154  0.1132E-01  0.8903E+00
     15.251  0.1357E-01  0.8916E+00
     15.347  0.2699E-01  0.8942E+00
     15.443  0.4931E-01  0.8989E+00
     15.540  0.6517E-01  0.9052E+00
     15.636  0.6399E-01  0.9114E+00
     15.732  0.5590E-01  0.9168E+00
     15.829  0.5671E-01  0.9222E+00
     15.925  0.6658E-01  0.9286E+00
     16.022  0.8124E-01  0.9365E+00
     16.118  0.1034E+00  0.9464E+00
     16.214  0.1227E+00  0.9583E+00
     16.311  0.1167E+00  0.9695E+00
     16.407  0.8382E-01  0.9776E+00
     16.503  0.4582E-01  0.9820E+00
     16.600  0.2015E-01  0.9839E+00
     16.696  0.8411E-02  0.9847E+00
     16.792  0.4590E-02  0.9852E+00
     16.889  0.3870E-02  0.9855E+00
     16.985  0.6201E-02  0.9861E+00
     17.081  0.1353E-01  0.9874E+00
     17.178  0.2324E-01  0.9897E+00
     17.274  0.2833E-01  0.9924E+00
     17.370  0.2824E-01  0.9951E+00
     17.467  0.3115E-01  0.9981E+00
     17.563  0.4004E-01  0.1002E+01
     17.659  0.4700E-01  0.1007E+01
     17.756  0.4665E-01  0.1011E+01
     17.852  0.4356E-01  0.1015E+01
     17.948  0.4464E-01  0.1020E+01
     18.045  0.5003E-01  0.1024E+01
     18.141  0.5061E-01  0.1029E+01
     18.237  0.4231E-01  0.1033E+01
     18.334  0.3465E-01  0.1037E+01
     18.430  0.3284E-01  0.1040E+01
     18.526  0.2943E-01  0.1043E+01
     18.623  0.2125E-01  0.1045E+01
     18.719  0.1570E-01  0.1046E+01
     18.815  0.1704E-01  0.1048E+01
     18.912  0.2050E-01  0.1050E+01
     19.008  0.2057E-01  0.1052E+01
     19.104  0.1764E-01  0.1053E+01
     19.201  0.1559E-01  0.1055E+01
     19.297  0.1542E-01  0.1056E+01
     19.393  0.1529E-01  0.1058E+01
     19.490  0.1496E-01  0.1059E+01
     19.586  0.1384E-01  0.1061E+01
     19.682  0.1017E-01  0.1062E+01
     19.779  0.5183E-02  0.1062E+01
     19.875  0.1804E-02  0.1062E+01
     19.971  0.8897E-03  0.1062E+01
     20.068  0.2261E-02  0.1063E+01
     20.164  0.6014E-02  0.1063E+01
     20.260  0.1045E-01  0.1064E+01
     20.357  0.1163E-01  0.1065E+01
     20.453  0.8281E-02  0.1066E+01
     20.549  0.3773E-02  0.1067E+01
     20.646  0.1099E-02  0.1067E+01
     20.742  0.2044E-03  0.1067E+01
     20.838  0.2427E-04  0.1067E+01
     20.935  0.1836E-05  0.1067E+01
     21.031  0.8843E-07  0.1067E+01
     21.127  0.2707E-08  0.1067E+01
     21.224  0.5262E-10  0.1067E+01
     21.320  0.6486E-12  0.1067E+01
     21.416  0.5070E-14  0.1067E+01
     21.513  0.2459E-16  0.1067E+01
     21.609  0.0000E+00  0.1067E+01
     21.705  0.0000E+00  0.1067E+01
     21.802  0.0000E+00  0.1067E+01
     21.898  0.0000E+00  0.1067E+01
     21.994  0.0000E+00  0.1067E+01
     22.091  0.0000E+00  0.1067E+01
     22.187  0.0000E+00  0.1067E+01
     22.283  0.0000E+00  0.1067E+01
