unknown system                          
   1.00000000000000     
    -2.416095    2.416095    1.313811
     2.416095   -2.416095    1.313811
     2.416095    2.416095   -1.313811
   Si
     2
Direct
  0.250000  0.750000  0.500000
  0.000000  0.000000  0.000000
 
   36   36   36
 -5.2528     -4.3242     -1.7734      1.7760      5.5169      8.7001      10.821      11.702      11.478      10.502    
  9.2088      7.9083      6.7166      5.7009      4.8913      4.2889      3.8790      3.6430      3.5662      3.6430    
  3.8790      4.2889      4.8913      5.7009      6.7166      7.9083      9.2088      10.502      11.478      11.702    
  10.821      8.7001      5.5169      1.7759     -1.7734     -4.3242     -4.3242     -4.8081     -3.4820     -.68337    
  2.9089      6.4942      9.3811      11.148      11.703      11.240      10.142      8.8332      7.5570      6.4104    
  5.4507      4.6991      4.1517      3.7917      3.6007      3.5661      3.6848      3.9648      4.4221      5.0752    
  5.9361      6.9978      8.2225      9.5345      10.794      11.644      11.659      10.529      8.1837      4.8766    
  1.1740     -2.1511     -1.7734     -3.4820     -3.5232     -1.8914     0.99586      4.4408      7.6872      10.130    
  11.446      11.627      10.921      9.7240      8.4199      7.1808      6.0903      5.1941      4.5053      4.0151    
  3.7056      3.5593      3.5658      3.7247      4.0461      4.5467      5.2442      6.1473      7.2437      8.4885    
  9.7997      11.013      11.750      11.608      10.328      7.9056      4.6538      1.1740      1.7759     -.68338    
 -1.8914     -1.5400     0.27256      3.0779      6.1971      8.9511      10.842      11.652      11.449      10.523    
  9.2654      7.9820      6.7925      5.7670      4.9399      4.3162      3.8836      3.6235      3.5201      3.5655    
  3.7616      4.1201      4.6582      5.3920      6.3268      7.4452      8.6968      9.9955      11.158      11.807    
  11.575      10.257      7.9056      4.8766      5.5169      2.9089     0.99586     0.27256     0.92715      2.7779    
  5.3393      7.9854      10.139      11.421      11.715      11.157      10.058      8.7814      7.5334      6.4046    
  5.4512      4.6961      4.1377      3.7610      3.5479      3.4845      3.5653      3.7944      4.1845      4.7526    
  5.5131      6.4677      7.5948      8.8400      10.115      11.230      11.825      11.575      10.328      8.1837    
  8.7001      6.4942      4.4408      3.0779      2.7779      3.6206      5.3683      7.5510      9.6231      11.124    
  11.793      11.608      10.756      9.5513      8.2867      7.0881      6.0293      5.1522      4.4697      3.9747    
  3.6508      3.4810      3.4536      3.5653      3.8220      4.2370      4.8266      5.6029      6.5647      7.6868    
  8.9129      10.156      11.230      11.807      11.608      10.529      10.821      9.3811      7.6872      6.1971    
  5.3393      5.3683      6.2763      7.7991      9.5107      10.963      11.817      11.921      11.333      10.271    
  9.0291      7.7967      6.6601      5.6776      4.8783      4.2664      3.8312      3.5557      3.4245      3.4281    
  3.5655      3.8436      4.2759      4.8774      5.6582      6.6141      7.7179      8.9129      10.115      11.158    
  11.750      11.659      11.702      11.148      10.130      8.9511      7.9854      7.5510      7.7991      8.6598    
  9.8701      11.068      11.912      12.175      11.806      10.917      9.7429      8.5107      7.3273      6.2623    
  5.3594      4.6363      4.0911      3.7102      3.4776      3.3795      3.4088      3.5658      3.8585      4.2997    
  4.9032      5.6768      6.6141      7.6868      8.8400      9.9955      11.013      11.644      11.478      11.703    
  11.446      10.842      10.139      9.6231      9.5107      9.8701      10.596      11.449      12.142      12.437    
  12.210      11.485      10.415      9.2135      8.0146      6.8939      5.9063      5.0827      4.4319      3.9471    
  3.6142      3.4180      3.3470      3.3958      3.5661      3.8660      4.3078      4.9032      5.6582      6.5647    
  7.5948      8.6968      9.7997      10.794      10.502      11.240      11.627      11.652      11.421      11.124    
  10.963      11.068      11.449      11.986      12.481      12.724      12.569      11.977      11.029      9.8901    
  8.7071      7.5597      6.5108      5.6022      4.8542      4.2690      3.8372      3.5447      3.3779      3.3273    
  3.3893      3.5662      3.8660      4.2997      4.8774      5.6029      6.4677      7.4452      8.4885      9.5345    
  9.2088      10.142      10.921      11.449      11.715      11.793      11.817      11.912      12.142      12.481    
  12.814      12.989      12.869      12.387      11.567      10.523      9.3884      8.2462      7.1632      6.1900    
  5.3578      4.6788      4.1507      3.7630      3.5026      3.3577      3.3207      3.3893      3.5661      3.8585    
  4.2759      4.8266      5.5131      6.3268      7.2437      8.2225      7.9083      8.8332      9.7240      10.523    
  11.157      11.608      11.921      12.175      12.437      12.724      12.989      13.135      13.058      12.683    
  12.003      11.086      10.038      8.9369      7.8518      6.8397      5.9414      5.1793      4.5600      4.0790    
  3.7257      3.4885      3.3577      3.3273      3.3958      3.5658      3.8436      4.2370      4.7526      5.3920    
  6.1473      6.9978      6.7166      7.5570      8.4199      9.2654      10.058      10.756      11.333      11.806    
  12.210      12.569      12.869      13.058      13.062      12.818      12.301      11.546      10.626      9.6089    
  8.5600      7.5410      6.6008      5.7719      5.0706      4.5001      4.0550      3.7257      3.5026      3.3779    
  3.3470      3.4088      3.5655      3.8220      4.1845      4.6582      5.2442      5.9361      5.7009      6.4104    
  7.1809      7.9820      8.7814      9.5513      10.271      10.917      11.485      11.977      12.387      12.683    
  12.818      12.739      12.418      11.863      11.117      10.231      9.2631      8.2769      7.3268      6.4543    
  5.6860      5.0341      4.5001      4.0790      3.7630      3.5447      3.4180      3.3795      3.4281      3.5653    
  3.7944      4.1201      4.5467      5.0752      4.8913      5.4507      6.0903      6.7925      7.5334      8.2867    
  9.0291      9.7429      10.415      11.029      11.567      12.003      12.301      12.418      12.321      12.001    
  11.470      10.763      9.9271      9.0211      8.1016      7.2176      6.4050      5.6860      5.0706      4.5600    
  4.1507      3.8372      3.6142      3.4776      3.4245      3.4536      3.5653      3.7616      4.0461      4.4221    
  4.2889      4.6991      5.1941      5.7670      6.4046      7.0881      7.7967      8.5107      9.2135      9.8901    
  10.523      11.086      11.546      11.863      12.001      11.932      11.648      11.163      10.510      9.7369    
  8.8967      8.0423      7.2176      6.4543      5.7719      5.1793      4.6788      4.2690      3.9471      3.7102    
  3.5557      3.4810      3.4845      3.5655      3.7247      3.9648      3.8790      4.1517      4.5053      4.9399    
  5.4512      6.0293      6.6601      7.3273      8.0146      8.7071      9.3884      10.038      10.626      11.117    
  11.470      11.648      11.625      11.394      10.969      10.379      9.6721      8.8967      8.1016      7.3268    
  6.6008      5.9414      5.3578      4.8542      4.4319      4.0911      3.8312      3.6508      3.5479      3.5201    
  3.5658      3.6848      3.6430      3.7917      4.0151      4.3162      4.6961      5.1522      5.6776      6.2623    
  6.8939      7.5597      8.2462      8.9369      9.6089      10.231      10.763      11.163      11.394      11.430    
  11.262      10.902      10.379      9.7369      9.0211      8.2769      7.5410      6.8397      6.1900      5.6022    
  5.0827      4.6363      4.2664      3.9747      3.7610      3.6235      3.5593      3.5661      3.5662      3.6007    
  3.7056      3.8836      4.1377      4.4697      4.8783      5.3594      5.9063      6.5108      7.1632      7.8518    
  8.5600      9.2631      9.9271      10.510      10.969      11.262      11.363      11.262      10.969      10.510    
  9.9271      9.2631      8.5600      7.8518      7.1632      6.5108      5.9063      5.3594      4.8783      4.4697    
  4.1377      3.8836      3.7056      3.6007      3.6430      3.5661      3.5593      3.6235      3.7610      3.9747    
  4.2664      4.6363      5.0827      5.6022      6.1900      6.8397      7.5410      8.2769      9.0211      9.7369    
  10.379      10.902      11.262      11.430      11.394      11.163      10.763      10.231      9.6089      8.9369    
  8.2462      7.5597      6.8939      6.2623      5.6776      5.1522      4.6961      4.3162      4.0151      3.7917    
  3.8790      3.6848      3.5658      3.5201      3.5479      3.6508      3.8312      4.0911      4.4319      4.8542    
  5.3579      5.9414      6.6008      7.3268      8.1016      8.8967      9.6721      10.379      10.969      11.394    
  11.625      11.648      11.470      11.117      10.626      10.038      9.3884      8.7071      8.0146      7.3273    
  6.6601      6.0293      5.4512      4.9399      4.5053      4.1517      4.2889      3.9648      3.7247      3.5655    
  3.4845      3.4810      3.5557      3.7102      3.9471      4.2690      4.6788      5.1793      5.7719      6.4543    
  7.2176      8.0423      8.8967      9.7369      10.510      11.163      11.648      11.932      12.001      11.863    
  11.546      11.086      10.523      9.8901      9.2135      8.5107      7.7967      7.0881      6.4046      5.7670    
  5.1941      4.6991      4.8913      4.4221      4.0460      3.7616      3.5653      3.4536      3.4245      3.4776    
  3.6142      3.8372      4.1507      4.5600      5.0706      5.6860      6.4050      7.2176      8.1016      9.0211    
  9.9271      10.763      11.470      12.001      12.321      12.418      12.301      12.003      11.567      11.029    
  10.415      9.7429      9.0291      8.2867      7.5334      6.7925      6.0903      5.4507      5.7009      5.0752    
  4.5467      4.1201      3.7944      3.5653      3.4281      3.3795      3.4180      3.5447      3.7631      4.0790    
  4.5001      5.0341      5.6860      6.4543      7.3268      8.2769      9.2631      10.231      11.117      11.863    
  12.418      12.739      12.818      12.683      12.387      11.977      11.485      10.917      10.271      9.5513    
  8.7814      7.9820      7.1808      6.4104      6.7166      5.9361      5.2442      4.6582      4.1845      3.8220    
  3.5655      3.4088      3.3470      3.3779      3.5026      3.7257      4.0550      4.5001      5.0706      5.7719    
  6.6008      7.5410      8.5600      9.6089      10.626      11.546      12.301      12.818      13.062      13.058    
  12.869      12.569      12.210      11.806      11.333      10.756      10.058      9.2654      8.4199      7.5570    
  7.9083      6.9978      6.1473      5.3920      4.7526      4.2370      3.8436      3.5658      3.3958      3.3273    
  3.3577      3.4885      3.7257      4.0790      4.5600      5.1793      5.9414      6.8397      7.8518      8.9369    
  10.038      11.086      12.003      12.683      13.058      13.135      12.989      12.724      12.437      12.175    
  11.921      11.608      11.157      10.523      9.7240      8.8332      9.2088      8.2225      7.2437      6.3268    
  5.5131      4.8266      4.2759      3.8585      3.5661      3.3893      3.3207      3.3577      3.5026      3.7631    
  4.1507      4.6788      5.3579      6.1900      7.1632      8.2462      9.3884      10.523      11.567      12.387    
  12.869      12.989      12.814      12.481      12.142      11.912      11.817      11.793      11.715      11.449    
  10.921      10.142      10.502      9.5345      8.4885      7.4452      6.4678      5.6029      4.8774      4.2997    
  3.8661      3.5662      3.3893      3.3273      3.3779      3.5447      3.8372      4.2690      4.8542      5.6022    
  6.5108      7.5597      8.7071      9.8901      11.029      11.977      12.569      12.724      12.481      11.986    
  11.449      11.068      10.963      11.124      11.421      11.652      11.627      11.240      11.478      10.794    
  9.7997      8.6968      7.5948      6.5647      5.6582      4.9033      4.3078      3.8661      3.5661      3.3958    
  3.3470      3.4180      3.6142      3.9471      4.4319      5.0827      5.9063      6.8939      8.0146      9.2135    
  10.415      11.485      12.210      12.437      12.142      11.449      10.596      9.8701      9.5107      9.6231    
  10.139      10.842      11.446      11.703      11.702      11.644      11.013      9.9955      8.8400      7.6868    
  6.6142      5.6768      4.9033      4.2997      3.8585      3.5658      3.4088      3.3795      3.4776      3.7102    
  4.0911      4.6363      5.3594      6.2623      7.3273      8.5107      9.7429      10.917      11.806      12.175    
  11.912      11.068      9.8701      8.6598      7.7991      7.5510      7.9854      8.9511      10.130      11.148    
  10.821      11.659      11.750      11.158      10.115      8.9129      7.7179      6.6142      5.6582      4.8774    
  4.2759      3.8436      3.5655      3.4281      3.4245      3.5557      3.8312      4.2664      4.8783      5.6776    
  6.6601      7.7967      9.0291      10.271      11.333      11.921      11.817      10.963      9.5107      7.7991    
  6.2763      5.3683      5.3393      6.1971      7.6872      9.3811      8.7001      10.529      11.608      11.807    
  11.230      10.156      8.9129      7.6868      6.5647      5.6029      4.8266      4.2370      3.8220      3.5653    
  3.4536      3.4810      3.6508      3.9747      4.4697      5.1522      6.0293      7.0881      8.2867      9.5513    
  10.756      11.608      11.793      11.124      9.6231      7.5510      5.3683      3.6206      2.7779      3.0779    
  4.4408      6.4942      5.5169      8.1837      10.328      11.575      11.825      11.230      10.115      8.8400    
  7.5948      6.4678      5.5131      4.7526      4.1845      3.7944      3.5653      3.4845      3.5479      3.7610    
  4.1377      4.6961      5.4512      6.4046      7.5334      8.7814      10.058      11.157      11.715      11.421    
  10.139      7.9854      5.3393      2.7779     0.92715     0.27256     0.99586      2.9089      1.7760      4.8766    
  7.9056      10.257      11.575      11.807      11.158      9.9955      8.6968      7.4452      6.3268      5.3920    
  4.6582      4.1201      3.7616      3.5655      3.5201      3.6235      3.8836      4.3162      4.9399      5.7670    
  6.7925      7.9820      9.2654      10.523      11.449      11.652      10.842      8.9511      6.1971      3.0779    
 0.27256     -1.5400     -1.8914     -.68337     -1.7734      1.1740      4.6538      7.9056      10.328      11.608    
  11.750      11.013      9.7997      8.4885      7.2437      6.1473      5.2442      4.5467      4.0460      3.7247    
  3.5658      3.5593      3.7056      4.0151      4.5053      5.1941      6.0903      7.1809      8.4199      9.7240    
  10.921      11.627      11.446      10.130      7.6872      4.4408     0.99586     -1.8914     -3.5232     -3.4820    
 -4.3242     -2.1510      1.1740      4.8766      8.1837      10.529      11.659      11.644      10.794      9.5345    
  8.2225      6.9978      5.9361      5.0752      4.4221      3.9648      3.6848      3.5661      3.6007      3.7917    
  4.1517      4.6991      5.4507      6.4104      7.5570      8.8332      10.142      11.240      11.703      11.148    
  9.3811      6.4942      2.9089     -.68338     -3.4820     -4.8081     -4.3242     -3.6355     -1.3697      1.9157    
  5.4624      8.5401      10.634      11.540      11.359      10.416      9.1356      7.8351      6.6363      5.6089    
  4.7849      4.1669      3.7405      3.4865      3.3892      3.4420      3.6489      4.0236      4.5852      5.3501    
  6.3212      7.4746      8.7499      10.045      11.098      11.488      10.853      9.0330      6.1575      2.6742    
 -.72292     -3.2631     -3.6355     -4.3242     -3.2631     -.72292      2.6742      6.1575      9.0330      10.853    
  11.488      11.098      10.045      8.7499      7.4746      6.3212      5.3501      4.5852      4.0236      3.6489    
  3.4420      3.3892      3.4865      3.7405      4.1669      4.7849      5.6089      6.6363      7.8350      9.1356    
  10.416      11.359      11.540      10.634      8.5401      5.4624      1.9157     -1.3697     -1.2995     -3.1880    
 -3.4820     -2.1127     0.56613      3.8989      7.1378      9.6558      11.091      11.392      10.776      9.6244    
  8.3326      7.0942      5.9967      5.0897      4.3887      3.8862      3.5641      3.4044      3.3957      3.5366    
  3.8363      4.3116      4.9815      5.8573      6.9312      8.1637      9.4778      10.730      11.566      11.580    
  10.490      8.2555      5.1447      1.7152      2.0981     -.51982     -1.9707     -1.8914     -.31328      2.3502    
  5.4436      8.2761      10.312      11.285      11.223      10.389      9.1686      7.8960      6.7060      5.6732    
  4.8360      4.2017      3.7587      3.4887      3.3750      3.4088      3.5912      3.9334      4.4532      5.1683    
  6.0869      7.1958      8.4493      9.7654      10.980      11.729      11.632      10.459      8.2267      5.2483    
  5.7631      3.0205     0.88115     -.11876     0.27254      1.9371      4.4300      7.1294      9.4292      10.901    
  11.379      10.963      9.9438      8.6932      7.4530      6.3219      5.3609      4.5966      4.0294      3.6449    
  3.4249      3.3548      3.4281      3.6487      4.0290      4.5870      5.3388      6.2894      7.4205      8.6817    
  9.9884      11.164      11.852      11.711      10.560      8.4638      8.9381      6.6268      4.3755      2.7469    
  2.1660      2.7779      4.3988      6.5826      8.7703      10.460      11.338      11.334      10.606      9.4578    
  8.2108      7.0163      5.9533      5.0685      4.3781      3.8766      3.5479      3.3746      3.3444      3.4536    
  3.7077      4.1202      4.7086      5.4872      6.4573      7.5968      8.8522      10.138      11.278      11.937    
  11.817      10.784      11.098      9.5864      7.7343      6.0085      4.8743      4.6435      5.3683      6.8247    
  8.5939      10.201      11.259      11.565      11.135      10.165      8.9562      7.7349      6.5985      5.6104    
  4.8040      4.1861      3.7469      3.4698      3.3390      3.3444      3.4845      3.7664      4.2040      4.8138    
  5.6078      6.5843      7.7179      8.9540      10.209      11.318      11.978      11.936      12.041      11.451    
  10.321      8.9525      7.7390      7.0422      7.0690      7.7991      8.9951      10.288      11.300      11.758    
  11.562      10.793      9.6730      8.4582      7.2795      6.2115      5.3024      4.5736      4.0246      3.6431    
  3.4125      3.3190      3.3548      3.5202      3.8232      4.2778      4.8990      5.6964      6.6653      7.7788    
  8.9825      10.197      11.278      11.963      11.879      12.101      11.782      11.042      10.140      9.3856    
  9.0421      9.2265      9.8701      10.746      11.549      12.003      11.940      11.344      10.348      9.1701    
  7.9797      6.8585      5.8660      5.0369      4.3824      3.8971      3.5670      3.3769      3.3148      3.3750    
  3.5593      3.8763      4.3390      4.9609      5.7491      6.6969      7.7765      8.9357      10.101      11.155    
  10.946      11.712      12.081      12.027      11.654      11.165      10.791      10.705      10.956      11.449    
  11.984      12.332      12.307      11.835      10.966      9.8571      8.6839      7.5379      6.4852      5.5715    
  4.8199      4.2341      3.8055      3.5198      3.3634      3.3262      3.4045      3.6008      3.9237      4.3854    
  4.9971      5.7639      6.6775      7.7105      8.8145      9.9230      9.6687      10.652      11.451      11.953    
  12.136      12.078      11.929      11.844      11.924      12.170      12.481      12.697      12.660      12.267    
  11.517      10.503      9.3761      8.2353      7.1492      6.1714      5.3357      4.6561      4.1314      3.7512    
  3.5021      3.3719      3.3527      3.4420      3.6430      3.9639      4.4151      5.0061      5.7397      6.6072    
  7.5828      8.6228      8.3675      9.3466      10.281      11.095      11.700      12.074      12.266      12.373    
  12.489      12.660      12.856      12.989      12.939      12.614      11.979      11.082      10.036      8.9339    
  7.8451      6.8284      5.9268      5.1644      4.5490      4.0761      3.7350      3.5137      3.4018      3.3933    
  3.4865      3.6848      3.9953      4.4270      4.9871      5.6772      6.4886      7.3981      7.1634      8.0581    
  8.9680      9.8479      10.653      11.324      11.833      12.204      12.488      12.731      12.939      13.073    
  13.058      12.819      12.315      11.561      10.634      9.6103      8.5554      7.5311      6.5877      5.7589    
  5.0621      4.5007      4.0690      3.7570      3.5542      3.4525      3.4469      3.5366      3.7247      4.0170    
  4.4205      4.9408      5.5787      6.3262      6.1264      6.8880      7.7061      8.5461      9.3705      10.146    
  10.844      11.434      11.918      12.313      12.628      12.848      12.929      12.818      12.475      11.900    
  11.134      10.233      9.2553      8.2620      7.3081      6.4361      5.6731      5.0315      4.5125      4.1105    
  3.8168      3.6230      3.5227      3.5123      3.5912      3.7616      4.0280      4.3956      4.8688      5.4479    
  5.2902      5.8972      6.5824      7.3245      8.0954      8.8646      9.6047      10.296      10.921      11.466    
  11.923      12.279      12.506      12.564      12.418      12.056      11.493      10.762      9.9106      8.9943    
  8.0698      7.1862      6.3797      5.6723      5.0738      4.5846      4.2000      3.9134      3.7187      3.6111    
  3.5880      3.6487      3.7944      4.0280      4.3534      4.7740      4.6599      5.1117      5.6476      6.2582    
  6.9270      7.6316      8.3473      9.0515      9.7259      10.356      10.928      11.420      11.806      12.052    
  12.124      12.001      11.673      11.156      10.480      9.6916      8.8444      7.9899      7.1717      6.4214    
  5.7577      5.1889      4.7161      4.3363      4.0454      3.8397      3.7160      3.6724      3.7076      3.8220    
  4.0170      4.2953      4.2236      4.5311      4.9194      5.3869      5.9270      6.5272      7.1701      7.8360    
  8.5067      9.1658      9.7983      10.386      10.906      11.325      11.609      11.724      11.648      11.375    
  10.919      10.310      9.5925      8.8160      8.0276      7.2667      6.5612      5.9280      5.3751      4.9049    
  4.5171      4.2106      3.9838      3.8353      3.7633      3.7664      3.8436      3.9953      3.9639      4.1410    
  4.3924      4.7203      5.1243      5.6000      6.1382      6.7259      7.3483      7.9907      8.6391      9.2783    
  9.8881      10.441      10.903      11.237      11.408      11.394      11.188      10.803      10.267      9.6217    
  8.9126      8.1832      7.4693      6.7963      6.1798      5.6287      5.1475      4.7392      4.4057      4.1480    
  3.9661      3.8585      3.8232      3.8585      3.8660      3.9237      4.0505      4.2489      4.5213      4.8684    
  5.2873      5.7720      6.3132      6.9004      7.5229      8.1685      8.8221      9.4619      10.058      10.573    
  10.967      11.205      11.262      11.130      10.819      10.356      9.7794      9.1311      8.4516      7.7735    
  7.1202      6.5070      5.9440      5.4388      4.9979      4.6267      4.3288      4.1053      3.9553      3.8763    
  3.9237      3.8660      3.8763      3.9553      4.1053      4.3288      4.6267      4.9979      5.4388      5.9440    
  6.5070      7.1202      7.7735      8.4516      9.1311      9.7794      10.356      10.819      11.130      11.262    
  11.205      10.967      10.573      10.058      9.4619      8.8221      8.1685      7.5229      6.9005      6.3132    
  5.7720      5.2874      4.8684      4.5213      4.2489      4.0505      4.1410      3.9639      3.8585      3.8232    
  3.8585      3.9661      4.1480      4.4057      4.7392      5.1475      5.6287      6.1798      6.7963      7.4693    
  8.1832      8.9126      9.6217      10.267      10.803      11.188      11.394      11.408      11.237      10.903    
  10.441      9.8881      9.2783      8.6391      7.9907      7.3483      6.7259      6.1382      5.6000      5.1243    
  4.7203      4.3924      4.5311      4.2236      3.9954      3.8436      3.7664      3.7633      3.8353      3.9838    
  4.2106      4.5171      4.9049      5.3751      5.9280      6.5612      7.2667      8.0276      8.8160      9.5925    
  10.310      10.919      11.375      11.648      11.724      11.609      11.325      10.906      10.386      9.7983    
  9.1658      8.5067      7.8361      7.1701      6.5272      5.9270      5.3869      4.9194      5.1117      4.6599    
  4.2953      4.0170      3.8220      3.7076      3.6724      3.7160      3.8397      4.0454      4.3363      4.7161    
  5.1889      5.7577      6.4214      7.1717      7.9899      8.8444      9.6916      10.480      11.156      11.673    
  12.001      12.124      12.052      11.806      11.420      10.928      10.356      9.7259      9.0515      8.3473    
  7.6316      6.9270      6.2582      5.6476      5.8972      5.2902      4.7740      4.3534      4.0280      3.7944    
  3.6487      3.5880      3.6111      3.7187      3.9134      4.2000      4.5846      5.0738      5.6723      6.3797    
  7.1862      8.0698      8.9943      9.9106      10.762      11.493      12.056      12.418      12.564      12.506    
  12.279      11.923      11.466      10.921      10.296      9.6047      8.8646      8.0954      7.3245      6.5824    
  6.8880      6.1264      5.4479      4.8688      4.3956      4.0280      3.7616      3.5912      3.5123      3.5227    
  3.6230      3.8168      4.1105      4.5125      5.0315      5.6731      6.4361      7.3081      8.2620      9.2553    
  10.233      11.134      11.900      12.475      12.818      12.929      12.848      12.628      12.313      11.918    
  11.434      10.844      10.146      9.3705      8.5460      7.7061      8.0581      7.1634      6.3262      5.5787    
  4.9408      4.4205      4.0170      3.7247      3.5367      3.4469      3.4525      3.5542      3.7570      4.0690    
  4.5007      5.0621      5.7589      6.5877      7.5311      8.5554      9.6103      10.634      11.561      12.315    
  12.819      13.058      13.073      12.939      12.731      12.488      12.204      11.833      11.324      10.653    
  9.8479      8.9680      9.3466      8.3675      7.3981      6.4886      5.6772      4.9871      4.4270      3.9954    
  3.6848      3.4865      3.3933      3.4018      3.5137      3.7350      4.0761      4.5490      5.1645      5.9268    
  6.8284      7.8451      8.9339      10.036      11.082      11.979      12.614      12.939      12.989      12.856    
  12.660      12.489      12.373      12.266      12.074      11.700      11.095      10.281      10.652      9.6687    
  8.6228      7.5828      6.6072      5.7397      5.0061      4.4151      3.9639      3.6430      3.4420      3.3527    
  3.3719      3.5021      3.7512      4.1314      4.6561      5.3357      6.1714      7.1492      8.2353      9.3761    
  10.503      11.517      12.267      12.660      12.697      12.481      12.170      11.924      11.844      11.929    
  12.078      12.136      11.953      11.451      11.712      10.946      9.9230      8.8144      7.7105      6.6775    
  5.7639      4.9971      4.3854      3.9237      3.6007      3.4044      3.3262      3.3634      3.5198      3.8055    
  4.2341      4.8199      5.5715      6.4852      7.5379      8.6839      9.8571      10.966      11.835      12.307    
  12.332      11.984      11.449      10.956      10.705      10.791      11.165      11.654      12.027      12.081    
  12.101      11.879      11.155      10.101      8.9357      7.7765      6.6969      5.7492      4.9609      4.3390    
  3.8763      3.5593      3.3750      3.3148      3.3769      3.5670      3.8971      4.3824      5.0369      5.8660    
  6.8585      7.9797      9.1701      10.348      11.344      11.940      12.003      11.549      10.746      9.8701    
  9.2265      9.0421      9.3856      10.140      11.042      11.782      11.451      12.041      11.963      11.278    
  10.197      8.9825      7.7788      6.6653      5.6964      4.8990      4.2778      3.8232      3.5201      3.3548    
  3.3190      3.4125      3.6431      4.0247      4.5736      5.3025      6.2115      7.2795      8.4582      9.6730    
  10.793      11.562      11.758      11.300      10.288      8.9951      7.7991      7.0690      7.0422      7.7390    
  8.9525      10.321      9.5864      11.098      11.935      11.978      11.318      10.209      8.9540      7.7179    
  6.5843      5.6079      4.8138      4.2040      3.7664      3.4845      3.3444      3.3390      3.4698      3.7469    
  4.1861      4.8040      5.6104      6.5985      7.7349      8.9562      10.165      11.135      11.565      11.259    
  10.201      8.5939      6.8248      5.3683      4.6436      4.8743      6.0085      7.7343      6.6268      8.9381    