unknown system                          
   1.00000000000000     
    -2.450000    2.450000    1.274000
     2.450000   -2.450000    1.274000
     2.450000    2.450000   -1.274000
   Si
     2
Direct
  0.250000  0.750000  0.500000
  0.000000  0.000000  0.000000
 
   36   36   36
 -.52528029950E+01 -.43242057065E+01 -.17733771671E+01 0.17759506091E+01 0.55168712885E+01
 0.87001123702E+01 0.10820685027E+02 0.11702162977E+02 0.11478493376E+02 0.10501616565E+02
 0.92087797176E+01 0.79083075136E+01 0.67165725336E+01 0.57009468619E+01 0.48913084773E+01
 0.42888741970E+01 0.38790456001E+01 0.36430287749E+01 0.35661721878E+01 0.36430251699E+01
 0.38790490103E+01 0.42888841624E+01 0.48913133106E+01 0.57009450102E+01 0.67165732928E+01
 0.79083104918E+01 0.92087750590E+01 0.10501605894E+02 0.11478488889E+02 0.11702166029E+02
 0.10820685540E+02 0.87001083758E+01 0.55168684566E+01 0.17759448682E+01 -.17733939509E+01
 -.43242239527E+01 -.43242239527E+01 -.48080546963E+01 -.34819897609E+01 -.68337137509E+00
 0.29088889532E+01 0.64942141015E+01 0.93810676179E+01 0.11148355015E+02 0.11702637742E+02
 0.11239784659E+02 0.10141591279E+02 0.88332258545E+01 0.75570285849E+01 0.64104340676E+01
 0.54506604852E+01 0.46990969111E+01 0.41516676480E+01 0.37916963051E+01 0.36007428858E+01
 0.35660593659E+01 0.36847853743E+01 0.39647846669E+01 0.44221067990E+01 0.50752364457E+01
 0.59360604287E+01 0.69977666306E+01 0.82224974497E+01 0.95344500101E+01 0.10793602613E+02
 0.11644432327E+02 0.11659398509E+02 0.10528501273E+02 0.81837058450E+01 0.48765659523E+01
 0.11740375480E+01 -.21510551053E+01 -.17733939509E+01 -.34820036625E+01 -.35232300808E+01
 -.18913985826E+01 0.99585813004E+00 0.44408332532E+01 0.76872104294E+01 0.10129919291E+02
 0.11446364595E+02 0.11627145384E+02 0.10920910459E+02 0.97240192675E+01 0.84198917031E+01
 0.71808498550E+01 0.60902725455E+01 0.51941036608E+01 0.45052846447E+01 0.40151057110E+01
 0.37055971236E+01 0.35593152557E+01 0.35657786573E+01 0.37247150404E+01 0.40460509816E+01
 0.45466923283E+01 0.52442185331E+01 0.61473380247E+01 0.72436996915E+01 0.84884997093E+01
 0.97996560227E+01 0.11012752811E+02 0.11749660192E+02 0.11608039080E+02 0.10327901885E+02
 0.79056100764E+01 0.46537574550E+01 0.11740375480E+01 0.17759448682E+01 -.68338180601E+00
 -.18914054239E+01 -.15399745126E+01 0.27255800239E+00 0.30779128091E+01 0.61971041335E+01
 0.89511331393E+01 0.10841949902E+02 0.11651695253E+02 0.11449407769E+02 0.10523025960E+02
 0.92654001369E+01 0.79819750983E+01 0.67924836095E+01 0.57670364850E+01 0.49399267257E+01
 0.43162430671E+01 0.38835766255E+01 0.36235054120E+01 0.35201413931E+01 0.35654638259E+01
 0.37616104634E+01 0.41201230983E+01 0.46582021039E+01 0.53920049123E+01 0.63268299270E+01
 0.74452158430E+01 0.86968258693E+01 0.99954935034E+01 0.11158049970E+02 0.11806634223E+02
 0.11574948942E+02 0.10256610450E+02 0.79056100764E+01 0.48765659523E+01 0.55168684566E+01
 0.29088864790E+01 0.99585541706E+00 0.27255848732E+00 0.92715321919E+00 0.27778842198E+01
 0.53392767934E+01 0.79853555174E+01 0.10139255985E+02 0.11420773972E+02 0.11714671783E+02
 0.11157041735E+02 0.10058472023E+02 0.87814492691E+01 0.75333567588E+01 0.64045987428E+01
 0.54511663179E+01 0.46961106842E+01 0.41377330248E+01 0.37610286749E+01 0.35479313305E+01
 0.34845258475E+01 0.35652623187E+01 0.37943707152E+01 0.41845044751E+01 0.47526268704E+01
 0.55130742626E+01 0.64677343720E+01 0.75947767955E+01 0.88400080289E+01 0.10115398686E+02
 0.11230267496E+02 0.11824510444E+02 0.11574948942E+02 0.10327901885E+02 0.81837058450E+01
 0.87001083758E+01 0.64942130601E+01 0.44408335553E+01 0.30779165483E+01 0.27778901814E+01
 0.36206388414E+01 0.53682859436E+01 0.75510357776E+01 0.96231359541E+01 0.11124394114E+02
 0.11793421170E+02 0.11608120600E+02 0.10755815838E+02 0.95513477012E+01 0.82867190672E+01
 0.70881367265E+01 0.60292925706E+01 0.51521569992E+01 0.44696565883E+01 0.39746977220E+01
 0.36508236322E+01 0.34810183725E+01 0.34535783624E+01 0.35652685121E+01 0.38219979381E+01
 0.42370152439E+01 0.48265695710E+01 0.56029060590E+01 0.65647199802E+01 0.76867970352E+01
 0.89129071001E+01 0.10155746244E+02 0.11230267496E+02 0.11806634223E+02 0.11608039080E+02
 0.10528501273E+02 0.10820685540E+02 0.93810684659E+01 0.76872104950E+01 0.61971058618E+01
 0.53392841864E+01 0.53682945338E+01 0.62763272025E+01 0.77991326363E+01 0.95107092353E+01
 0.10963134598E+02 0.11816797445E+02 0.11921379997E+02 0.11332703762E+02 0.10270654595E+02
 0.90291198158E+01 0.77967063652E+01 0.66601235008E+01 0.56776458960E+01 0.48782606149E+01
 0.42664148633E+01 0.38311640887E+01 0.35556621316E+01 0.34244676575E+01 0.34281422363E+01
 0.35654816765E+01 0.38436097129E+01 0.42758681960E+01 0.48773799538E+01 0.56581654620E+01
 0.66141377327E+01 0.77178542735E+01 0.89129071001E+01 0.10115398686E+02 0.11158049970E+02
 0.11749660192E+02 0.11659398509E+02 0.11702166029E+02 0.11148360982E+02 0.10129923764E+02
 0.89511336916E+01 0.79853574827E+01 0.75510439462E+01 0.77991411459E+01 0.86597570895E+01
 0.98701208213E+01 0.11068343032E+02 0.11911592703E+02 0.12175291436E+02 0.11805662197E+02
 0.10917357718E+02 0.97428768705E+01 0.85106684745E+01 0.73272850523E+01 0.62623022206E+01
 0.53593930508E+01 0.46363414854E+01 0.40910524316E+01 0.37102467809E+01 0.34775814903E+01
 0.33795165621E+01 0.34087721346E+01 0.35658057756E+01 0.38584714759E+01 0.42997310710E+01
 0.49032449229E+01 0.56768136907E+01 0.66141377327E+01 0.76867970352E+01 0.88400080289E+01
 0.99954935034E+01 0.11012752811E+02 0.11644432327E+02 0.11478488889E+02 0.11702641402E+02
 0.11446373716E+02 0.10841956419E+02 0.10139256944E+02 0.96231376765E+01 0.95107161724E+01
 0.98701274340E+01 0.10595731393E+02 0.11448691372E+02 0.12142434535E+02 0.12437049846E+02
 0.12210077998E+02 0.11485151558E+02 0.10414690222E+02 0.92134757762E+01 0.80146472553E+01
 0.68939121347E+01 0.59063386196E+01 0.50827211005E+01 0.44318666035E+01 0.39471246105E+01
 0.36142278170E+01 0.34180125878E+01 0.33469747511E+01 0.33957680238E+01 0.35660911360E+01
 0.38660458647E+01 0.43077787877E+01 0.49032449229E+01 0.56581654620E+01 0.65647199802E+01
 0.75947767955E+01 0.86968258693E+01 0.97996560227E+01 0.10793602613E+02 0.10501605894E+02
 0.11239778218E+02 0.11627148520E+02 0.11651704981E+02 0.11420781122E+02 0.11124395699E+02
 0.10963136133E+02 0.11068347822E+02 0.11448695387E+02 0.11986100351E+02 0.12480771253E+02
 0.12723896369E+02 0.12568829027E+02 0.11977304351E+02 0.11028749319E+02 0.98900933815E+01
 0.87070569218E+01 0.75597250513E+01 0.65107698578E+01 0.56021845183E+01 0.48541944004E+01
 0.42689932185E+01 0.38372064766E+01 0.35446782282E+01 0.33778749358E+01 0.33273055035E+01
 0.33892507652E+01 0.35662038531E+01 0.38660458647E+01 0.42997310710E+01 0.48773799538E+01
 0.56029060590E+01 0.64677343720E+01 0.74452158430E+01 0.84884997093E+01 0.95344500101E+01
 0.92087750590E+01 0.10141582578E+02 0.10920903583E+02 0.11449409563E+02 0.11714679952E+02
 0.11793427733E+02 0.11816799724E+02 0.11911594284E+02 0.12142437193E+02 0.12480772893E+02
 0.12813934774E+02 0.12988603249E+02 0.12868902171E+02 0.12386587481E+02 0.11566880273E+02
 0.10522644606E+02 0.93883785365E+01 0.82462491628E+01 0.71631768178E+01 0.61900285759E+01
 0.53578376143E+01 0.46787914774E+01 0.41507099485E+01 0.37630468209E+01 0.35025920661E+01
 0.33576909574E+01 0.33207286382E+01 0.33892507652E+01 0.35660911360E+01 0.38584714759E+01
 0.42758681960E+01 0.48265695710E+01 0.55130742626E+01 0.63268299270E+01 0.72436996915E+01
 0.82224974497E+01 0.79083104918E+01 0.88332263400E+01 0.97240138463E+01 0.10523019894E+02
 0.11157041683E+02 0.11608125690E+02 0.11921384960E+02 0.12175294209E+02 0.12437051694E+02
 0.12723897505E+02 0.12988603242E+02 0.13135359751E+02 0.13057920621E+02 0.12683207178E+02
 0.12003472720E+02 0.11085927501E+02 0.10037727755E+02 0.89369413019E+01 0.78517987427E+01
 0.68397103736E+01 0.59413769464E+01 0.51792830496E+01 0.45600273647E+01 0.40789961919E+01
 0.37257153611E+01 0.34885069168E+01 0.33576909574E+01 0.33273055035E+01 0.33957680238E+01
 0.35658057756E+01 0.38436097129E+01 0.42370152439E+01 0.47526268704E+01 0.53920049123E+01
 0.61473380247E+01 0.69977666306E+01 0.67165732928E+01 0.75570340214E+01 0.84198953869E+01
 0.92653979349E+01 0.10058467302E+02 0.10755813826E+02 0.11332705260E+02 0.11805665127E+02
 0.12210081003E+02 0.12568831211E+02 0.12868902492E+02 0.13057919753E+02 0.13062230061E+02
 0.12817936710E+02 0.12301262994E+02 0.11545956438E+02 0.10626312347E+02 0.96088680575E+01
 0.85599693334E+01 0.75409812206E+01 0.66007682506E+01 0.57718673154E+01 0.50705953780E+01
 0.45001143654E+01 0.40549714413E+01 0.37257153611E+01 0.35025920661E+01 0.33778749358E+01
 0.33469747511E+01 0.34087721346E+01 0.35654816765E+01 0.38219979381E+01 0.41845044751E+01
 0.46582021039E+01 0.52442185331E+01 0.59360604287E+01 0.57009450102E+01 0.64104343659E+01
 0.71808545108E+01 0.79819793614E+01 0.87814491712E+01 0.95513443189E+01 0.10270651155E+02
 0.10917356287E+02 0.11485152749E+02 0.11977307282E+02 0.12386589722E+02 0.12683207080E+02
 0.12817935591E+02 0.12739452617E+02 0.12417838771E+02 0.11863307738E+02 0.11117372488E+02
 0.10230513846E+02 0.92630817936E+01 0.82769143018E+01 0.73267562712E+01 0.64543209867E+01
 0.56860193089E+01 0.50341129661E+01 0.45001143654E+01 0.40789961919E+01 0.37630468209E+01
 0.35446782282E+01 0.34180125878E+01 0.33795165621E+01 0.34281422363E+01 0.35652685121E+01
 0.37943707152E+01 0.41201230983E+01 0.45466923283E+01 0.50752364457E+01 0.48913133106E+01
 0.54506591668E+01 0.60902712867E+01 0.67924853430E+01 0.75333594419E+01 0.82867199176E+01
 0.90291178847E+01 0.97428731778E+01 0.10414687249E+02 0.11028749323E+02 0.11566882599E+02
 0.12003474402E+02 0.12301262605E+02 0.12417837881E+02 0.12320619335E+02 0.12000620307E+02
 0.11470303637E+02 0.10762706731E+02 0.99271302673E+01 0.90211144582E+01 0.81016410679E+01
 0.72175789868E+01 0.64050014325E+01 0.56860193089E+01 0.50705953780E+01 0.45600273647E+01
 0.41507099485E+01 0.38372064766E+01 0.36142278170E+01 0.34775814903E+01 0.34244676575E+01
 0.34535783624E+01 0.35652623187E+01 0.37616104634E+01 0.40460509816E+01 0.44221067990E+01
 0.42888841624E+01 0.46991024338E+01 0.51941035120E+01 0.57670339495E+01 0.64045970091E+01
 0.70881371258E+01 0.77967077549E+01 0.85106683724E+01 0.92134729973E+01 0.98900901185E+01
 0.10522643695E+02 0.11085928575E+02 0.11545957040E+02 0.11863307321E+02 0.12000620121E+02
 0.11931563050E+02 0.11648026073E+02 0.11163269882E+02 0.10510392869E+02 0.97368710933E+01
 0.88967339916E+01 0.80423218116E+01 0.72175789868E+01 0.64543209867E+01 0.57718673154E+01
 0.51792830496E+01 0.46787914774E+01 0.42689932185E+01 0.39471246105E+01 0.37102467809E+01
 0.35556621316E+01 0.34810183725E+01 0.34845258475E+01 0.35654638259E+01 0.37247150404E+01
 0.39647846669E+01 0.38790490103E+01 0.41516749602E+01 0.45052908196E+01 0.49399283832E+01
 0.54511634409E+01 0.60292886633E+01 0.66601226484E+01 0.73272874461E+01 0.80146491495E+01
 0.87070555525E+01 0.93883755738E+01 0.10037726016E+02 0.10626311881E+02 0.11117372109E+02
 0.11470303774E+02 0.11648027033E+02 0.11625163475E+02 0.11394309162E+02 0.10968522804E+02
 0.10379496419E+02 0.96720899965E+01 0.88967339916E+01 0.81016410679E+01 0.73267562712E+01
 0.66007682506E+01 0.59413769464E+01 0.53578376143E+01 0.48541944004E+01 0.44318666035E+01
 0.40910524316E+01 0.38311640887E+01 0.36508236322E+01 0.35479313305E+01 0.35201413931E+01
 0.35657786573E+01 0.36847853743E+01 0.36430251699E+01 0.37916962990E+01 0.40151100497E+01
 0.43162489787E+01 0.46961136809E+01 0.51521549744E+01 0.56776422887E+01 0.62623023060E+01
 0.68939162857E+01 0.75597286356E+01 0.82462489677E+01 0.89369388175E+01 0.96088657913E+01
 0.10230512254E+02 0.10762706051E+02 0.11163271147E+02 0.11394311385E+02 0.11429908123E+02
 0.11261865020E+02 0.10901859451E+02 0.10379496419E+02 0.97368710933E+01 0.90211144582E+01
 0.82769143018E+01 0.75409812206E+01 0.68397103736E+01 0.61900285759E+01 0.56021845183E+01
 0.50827211005E+01 0.46363414854E+01 0.42664148633E+01 0.39746977220E+01 0.37610286749E+01
 0.36235054120E+01 0.35593152557E+01 0.35660593659E+01 0.35661721878E+01 0.36007403087E+01
 0.37055944738E+01 0.38835772027E+01 0.41377370748E+01 0.44696602852E+01 0.48782609916E+01
 0.53593926602E+01 0.59063419323E+01 0.65107762182E+01 0.71631814352E+01 0.78517992326E+01
 0.85599674846E+01 0.92630795830E+01 0.99271283559E+01 0.10510392561E+02 0.10968525245E+02
 0.11261868080E+02 0.11362925779E+02 0.11261865020E+02 0.10968522804E+02 0.10510392869E+02
 0.99271302673E+01 0.92630817936E+01 0.85599693334E+01 0.78517987427E+01 0.71631768178E+01
 0.65107698578E+01 0.59063386196E+01 0.53593930508E+01 0.48782606149E+01 0.44696565883E+01
 0.41377330248E+01 0.38835766255E+01 0.37055971236E+01 0.36007428858E+01 0.36430287749E+01
 0.35660621136E+01 0.35593129741E+01 0.36234992341E+01 0.37610244130E+01 0.39746990472E+01
 0.42664195337E+01 0.46363461494E+01 0.50827264550E+01 0.56021924930E+01 0.61900369868E+01
 0.68397152642E+01 0.75409820157E+01 0.82769132285E+01 0.90211127631E+01 0.97368693912E+01
 0.10379496579E+02 0.10901862398E+02 0.11261868080E+02 0.11429908123E+02 0.11394309162E+02
 0.11163269882E+02 0.10762706731E+02 0.10230513846E+02 0.96088680575E+01 0.89369413019E+01
 0.82462491628E+01 0.75597250513E+01 0.68939121347E+01 0.62623022206E+01 0.56776458960E+01
 0.51521569992E+01 0.46961106842E+01 0.43162430671E+01 0.40151057110E+01 0.37916963051E+01
 0.38790456001E+01 0.36847870555E+01 0.35657802270E+01 0.35201365425E+01 0.35479208654E+01
 0.36508154650E+01 0.38311640256E+01 0.40910595139E+01 0.44318770842E+01 0.48542065879E+01
 0.53578502383E+01 0.59413866295E+01 0.66007727762E+01 0.73267571388E+01 0.81016406751E+01
 0.88967327754E+01 0.96720884559E+01 0.10379496579E+02 0.10968525245E+02 0.11394311385E+02
 0.11625163475E+02 0.11648026073E+02 0.11470303637E+02 0.11117372488E+02 0.10626312347E+02
 0.10037727755E+02 0.93883785365E+01 0.87070569218E+01 0.80146472553E+01 0.73272850523E+01
 0.66601235008E+01 0.60292925706E+01 0.54511663179E+01 0.49399267257E+01 0.45052846447E+01
 0.41516676480E+01 0.42888741970E+01 0.39647758639E+01 0.37247106701E+01 0.35654601085E+01
 0.34845171010E+01 0.34810059701E+01 0.35556539631E+01 0.37102486838E+01 0.39471357770E+01
 0.42690096839E+01 0.46788095847E+01 0.51792989821E+01 0.57718773159E+01 0.64543249063E+01
 0.72175798243E+01 0.80423216941E+01 0.88967327754E+01 0.97368693912E+01 0.10510392561E+02
 0.11163271147E+02 0.11648027033E+02 0.11931563050E+02 0.12000620307E+02 0.11863307738E+02
 0.11545956438E+02 0.11085927501E+02 0.10522644606E+02 0.98900933815E+01 0.92134757762E+01
 0.85106684745E+01 0.77967063652E+01 0.70881367265E+01 0.64045987428E+01 0.57670364850E+01
 0.51941036608E+01 0.46990969111E+01 0.48913084773E+01 0.44220942113E+01 0.40460360715E+01
 0.37615989276E+01 0.35652532311E+01 0.34535681404E+01 0.34244578587E+01 0.34775781946E+01
 0.36142346033E+01 0.38372221848E+01 0.41507309116E+01 0.45600491608E+01 0.50706128853E+01
 0.56860291645E+01 0.64050050567E+01 0.72175798243E+01 0.81016406751E+01 0.90211127631E+01
 0.99271283559E+01 0.10762706051E+02 0.11470303774E+02 0.12000620121E+02 0.12320619335E+02
 0.12417838771E+02 0.12301262994E+02 0.12003472720E+02 0.11566880273E+02 0.11028749319E+02
 0.10414690222E+02 0.97428768705E+01 0.90291198158E+01 0.82867190672E+01 0.75333567588E+01
 0.67924836095E+01 0.60902725455E+01 0.54506604852E+01 0.57009468619E+01 0.50752325576E+01
 0.45466791040E+01 0.41201057362E+01 0.37943559714E+01 0.35652578537E+01 0.34281346546E+01
 0.33795133861E+01 0.34180166521E+01 0.35446903743E+01 0.37630658621E+01 0.40790195009E+01
 0.45001376675E+01 0.50341308619E+01 0.56860291645E+01 0.64543249063E+01 0.73267571388E+01
 0.82769132285E+01 0.92630795830E+01 0.10230512254E+02 0.11117372109E+02 0.11863307321E+02
 0.12417837881E+02 0.12739452617E+02 0.12817936710E+02 0.12683207178E+02 0.12386587481E+02
 0.11977304351E+02 0.11485151558E+02 0.10917357718E+02 0.10270654595E+02 0.95513477012E+01
 0.87814492691E+01 0.79819750983E+01 0.71808498550E+01 0.64104340676E+01 0.67165725336E+01
 0.59360633553E+01 0.52442173758E+01 0.46581929972E+01 0.41844912529E+01 0.38219862181E+01
 0.35654742188E+01 0.34087700771E+01 0.33469790703E+01 0.33778854645E+01 0.35026078299E+01
 0.37257359271E+01 0.40549953961E+01 0.45001376675E+01 0.50706128853E+01 0.57718773159E+01
 0.66007727762E+01 0.75409820157E+01 0.85599674846E+01 0.96088657913E+01 0.10626311881E+02
 0.11545957040E+02 0.12301262605E+02 0.12817935591E+02 0.13062230061E+02 0.13057920621E+02
 0.12868902171E+02 0.12568829027E+02 0.12210077998E+02 0.11805662197E+02 0.11332703762E+02
 0.10755815838E+02 0.10058472023E+02 0.92654001369E+01 0.84198917031E+01 0.75570285849E+01
 0.79083075136E+01 0.69977680436E+01 0.61473439571E+01 0.53920096593E+01 0.47526271944E+01
 0.42370120523E+01 0.38436056047E+01 0.35658037893E+01 0.33957713699E+01 0.33273151757E+01
 0.33577049799E+01 0.34885238739E+01 0.37257359271E+01 0.40790195009E+01 0.45600491608E+01
 0.51792989821E+01 0.59413866295E+01 0.68397152642E+01 0.78517992326E+01 0.89369388175E+01
 0.10037726016E+02 0.11085928575E+02 0.12003474402E+02 0.12683207080E+02 0.13057919753E+02
 0.13135359751E+02 0.12988603249E+02 0.12723896369E+02 0.12437049846E+02 0.12175291436E+02
 0.11921379997E+02 0.11608120600E+02 0.11157041735E+02 0.10523025960E+02 0.97240192675E+01
 0.88332258545E+01 0.92087797176E+01 0.82225003724E+01 0.72437063983E+01 0.63268410756E+01
 0.55130871934E+01 0.48265816352E+01 0.42758766895E+01 0.38584753810E+01 0.35660936801E+01
 0.33892571787E+01 0.33207401681E+01 0.33577049799E+01 0.35026078299E+01 0.37630658621E+01
 0.41507309116E+01 0.46788095847E+01 0.53578502383E+01 0.61900369868E+01 0.71631814352E+01
 0.82462489677E+01 0.93883755738E+01 0.10522643695E+02 0.11566882599E+02 0.12386589722E+02
 0.12868902492E+02 0.12988603242E+02 0.12813934774E+02 0.12480771253E+02 0.12142434535E+02
 0.11911592703E+02 0.11816797445E+02 0.11793421170E+02 0.11714671783E+02 0.11449407769E+02
 0.10920910459E+02 0.10141591279E+02 0.10501616565E+02 0.95344603993E+01 0.84885107585E+01
 0.74452297064E+01 0.64677515260E+01 0.56029267650E+01 0.48774019634E+01 0.42997483377E+01
 0.38660545942E+01 0.35662080755E+01 0.33892571787E+01 0.33273151757E+01 0.33778854645E+01
 0.35446903743E+01 0.38372221848E+01 0.42690096839E+01 0.48542065879E+01 0.56021924930E+01
 0.65107762182E+01 0.75597286356E+01 0.87070555525E+01 0.98900901185E+01 0.11028749323E+02
 0.11977307282E+02 0.12568831211E+02 0.12723897505E+02 0.12480772893E+02 0.11986100351E+02
 0.11448691372E+02 0.11068343032E+02 0.10963134598E+02 0.11124394114E+02 0.11420773972E+02
 0.11651695253E+02 0.11627145384E+02 0.11239784659E+02 0.11478493376E+02 0.10793613077E+02
 0.97996712185E+01 0.86968449612E+01 0.75947973302E+01 0.65647418496E+01 0.56581912335E+01
 0.49032723595E+01 0.43077992267E+01 0.38660545942E+01 0.35660936801E+01 0.33957713699E+01
 0.33469790703E+01 0.34180166521E+01 0.36142346033E+01 0.39471357770E+01 0.44318770842E+01
 0.50827264550E+01 0.59063419323E+01 0.68939162857E+01 0.80146491495E+01 0.92134729973E+01
 0.10414687249E+02 0.11485152749E+02 0.12210081003E+02 0.12437051694E+02 0.12142437193E+02
 0.11448695387E+02 0.10595731393E+02 0.98701208213E+01 0.95107092353E+01 0.96231359541E+01
 0.10139255985E+02 0.10841949902E+02 0.11446364595E+02 0.11702637742E+02 0.11702162977E+02
 0.11644433685E+02 0.11012760964E+02 0.99955115724E+01 0.88400330054E+01 0.76868219352E+01
 0.66141619685E+01 0.56768411352E+01 0.49032723595E+01 0.42997483377E+01 0.38584753810E+01
 0.35658037893E+01 0.34087700771E+01 0.33795133861E+01 0.34775781946E+01 0.37102486838E+01
 0.40910595139E+01 0.46363461494E+01 0.53593926602E+01 0.62623023060E+01 0.73272874461E+01
 0.85106683724E+01 0.97428731778E+01 0.10917356287E+02 0.11805665127E+02 0.12175294209E+02
 0.11911594284E+02 0.11068347822E+02 0.98701274340E+01 0.86597570895E+01 0.77991326363E+01
 0.75510357776E+01 0.79853555174E+01 0.89511331393E+01 0.10129919291E+02 0.11148355015E+02
 0.10820685027E+02 0.11659397116E+02 0.11749658046E+02 0.11158054848E+02 0.10115417790E+02
 0.89129349726E+01 0.77178806330E+01 0.66141619685E+01 0.56581912335E+01 0.48774019634E+01
 0.42758766895E+01 0.38436056047E+01 0.35654742188E+01 0.34281346546E+01 0.34244578587E+01
 0.35556539631E+01 0.38311640256E+01 0.42664195337E+01 0.48782609916E+01 0.56776422887E+01
 0.66601226484E+01 0.77967077549E+01 0.90291178847E+01 0.10270651155E+02 0.11332705260E+02
 0.11921384960E+02 0.11816799724E+02 0.10963136133E+02 0.95107161724E+01 0.77991411459E+01
 0.62763272025E+01 0.53682859436E+01 0.53392767934E+01 0.61971041335E+01 0.76872104294E+01
 0.93810676179E+01 0.87001123702E+01 0.10528507178E+02 0.11608039668E+02 0.11806629267E+02
 0.11230270003E+02 0.10155765504E+02 0.89129349726E+01 0.76868219352E+01 0.65647418496E+01
 0.56029267650E+01 0.48265816352E+01 0.42370120523E+01 0.38219862181E+01 0.35652578537E+01
 0.34535681404E+01 0.34810059701E+01 0.36508154650E+01 0.39746990472E+01 0.44696602852E+01
 0.51521549744E+01 0.60292886633E+01 0.70881371258E+01 0.82867199176E+01 0.95513443189E+01
 0.10755813826E+02 0.11608125690E+02 0.11793427733E+02 0.11124395699E+02 0.96231376765E+01
 0.75510439462E+01 0.53682945338E+01 0.36206388414E+01 0.27778842198E+01 0.30779128091E+01
 0.44408332532E+01 0.64942141015E+01 0.55168712885E+01 0.81837146372E+01 0.10327913011E+02
 0.11574950840E+02 0.11824504401E+02 0.11230270003E+02 0.10115417790E+02 0.88400330054E+01
 0.75947973302E+01 0.64677515260E+01 0.55130871934E+01 0.47526271944E+01 0.41844912529E+01
 0.37943559714E+01 0.35652532311E+01 0.34845171010E+01 0.35479208654E+01 0.37610244130E+01
 0.41377370748E+01 0.46961136809E+01 0.54511634409E+01 0.64045970091E+01 0.75333594419E+01
 0.87814491712E+01 0.10058467302E+02 0.11157041683E+02 0.11714679952E+02 0.11420781122E+02
 0.10139256944E+02 0.79853574827E+01 0.53392841864E+01 0.27778901814E+01 0.92715321919E+00
 0.27255800239E+00 0.99585813004E+00 0.29088889532E+01 0.17759506091E+01 0.48765705332E+01
 0.79056218904E+01 0.10256623589E+02 0.11574950840E+02 0.11806629267E+02 0.11158054848E+02
 0.99955115724E+01 0.86968449612E+01 0.74452297064E+01 0.63268410756E+01 0.53920096593E+01
 0.46581929972E+01 0.41201057362E+01 0.37615989276E+01 0.35654601085E+01 0.35201365425E+01
 0.36234992341E+01 0.38835772027E+01 0.43162489787E+01 0.49399283832E+01 0.57670339495E+01
 0.67924853430E+01 0.79819793614E+01 0.92653979349E+01 0.10523019894E+02 0.11449409563E+02
 0.11651704981E+02 0.10841956419E+02 0.89511336916E+01 0.61971058618E+01 0.30779165483E+01
 0.27255848732E+00 -.15399745126E+01 -.18913985826E+01 -.68337137509E+00 -.17733771671E+01
 0.11740455173E+01 0.46537627649E+01 0.79056218904E+01 0.10327913011E+02 0.11608039668E+02
 0.11749658046E+02 0.11012760964E+02 0.97996712185E+01 0.84885107585E+01 0.72437063983E+01
 0.61473439571E+01 0.52442173758E+01 0.45466791040E+01 0.40460360715E+01 0.37247106701E+01
 0.35657802270E+01 0.35593129741E+01 0.37055944738E+01 0.40151100497E+01 0.45052908196E+01
 0.51941035120E+01 0.60902712867E+01 0.71808545108E+01 0.84198953869E+01 0.97240138463E+01
 0.10920903583E+02 0.11627148520E+02 0.11446373716E+02 0.10129923764E+02 0.76872104950E+01
 0.44408335553E+01 0.99585541706E+00 -.18914054239E+01 -.35232300808E+01 -.34819897609E+01
 -.43242057065E+01 -.21510358560E+01 0.11740455173E+01 0.48765705332E+01 0.81837146372E+01
 0.10528507178E+02 0.11659397116E+02 0.11644433685E+02 0.10793613077E+02 0.95344603993E+01
 0.82225003724E+01 0.69977680436E+01 0.59360633553E+01 0.50752325576E+01 0.44220942113E+01
 0.39647758639E+01 0.36847870555E+01 0.35660621136E+01 0.36007403087E+01 0.37916962990E+01
 0.41516749602E+01 0.46991024338E+01 0.54506591668E+01 0.64104343659E+01 0.75570340214E+01
 0.88332263400E+01 0.10141582578E+02 0.11239778218E+02 0.11702641402E+02 0.11148360982E+02
 0.93810684659E+01 0.64942130601E+01 0.29088864790E+01 -.68338180601E+00 -.34820036625E+01
 -.48080546963E+01 -.43242163083E+01 -.36354850810E+01 -.13697059117E+01 0.19156676029E+01
 0.54623747969E+01 0.85401335317E+01 0.10634245773E+02 0.11540279989E+02 0.11359263036E+02
 0.10416400885E+02 0.91356158023E+01 0.78350621542E+01 0.66362681342E+01 0.56088768055E+01
 0.47849296519E+01 0.41669074567E+01 0.37404980022E+01 0.34864723967E+01 0.33892237657E+01
 0.34419832035E+01 0.36488536253E+01 0.40235928814E+01 0.45851753978E+01 0.53500910641E+01
 0.63211689998E+01 0.74745670425E+01 0.87499062073E+01 0.10044912091E+02 0.11098259141E+02
 0.11487640605E+02 0.10853194589E+02 0.90330139218E+01 0.61574827868E+01 0.26742338488E+01
 -.72291906750E+00 -.32630623637E+01 -.36354995272E+01 -.43242248280E+01 -.32630624561E+01
 -.72291806732E+00 0.26742288523E+01 0.61574757008E+01 0.90330161427E+01 0.10853211232E+02
 0.11487665726E+02 0.11098284001E+02 0.10044935173E+02 0.87499287265E+01 0.74745856068E+01
 0.63211797653E+01 0.53500979101E+01 0.45851849502E+01 0.40236034940E+01 0.36488580069E+01
 0.34419803742E+01 0.33892194612E+01 0.34864681094E+01 0.37404892394E+01 0.41668937025E+01
 0.47849163802E+01 0.56088650114E+01 0.66362511580E+01 0.78350366792E+01 0.91355876453E+01
 0.10416375762E+02 0.11359239442E+02 0.11540256710E+02 0.10634228955E+02 0.85401296078E+01
 0.54623797162E+01 0.19156684417E+01 -.13697157808E+01 -.12995097063E+01 -.31879969665E+01
 -.34820129552E+01 -.21127221585E+01 0.56613482024E+00 0.38988881185E+01 0.71377843760E+01
 0.96557528616E+01 0.11090669480E+02 0.11391572661E+02 0.10775656968E+02 0.96243812729E+01
 0.83325922140E+01 0.70941753941E+01 0.59966593138E+01 0.50896977067E+01 0.43887356729E+01
 0.38861704869E+01 0.35640859465E+01 0.34044347628E+01 0.33957408012E+01 0.35366407282E+01
 0.38362918931E+01 0.43116275961E+01 0.49814775329E+01 0.58573494316E+01 0.69312450764E+01
 0.81636823275E+01 0.94777671334E+01 0.10729962460E+02 0.11566395187E+02 0.11579998866E+02
 0.10489598689E+02 0.82554614095E+01 0.51446849602E+01 0.17151514797E+01 0.20980886404E+01
 -.51981868671E+00 -.19706731177E+01 -.18914217540E+01 -.31328133565E+00 0.23502082350E+01
 0.54436382726E+01 0.82760636954E+01 0.10311551173E+02 0.11284794734E+02 0.11223180118E+02
 0.10388774737E+02 0.91686481097E+01 0.78960239971E+01 0.67059638299E+01 0.56732353872E+01
 0.48359954997E+01 0.42016654028E+01 0.37587334945E+01 0.34886970830E+01 0.33750191493E+01
 0.34087558724E+01 0.35911808722E+01 0.39334369416E+01 0.44531942832E+01 0.51682603685E+01
 0.60869170332E+01 0.71958326343E+01 0.84492805857E+01 0.97653862276E+01 0.10980474035E+02
 0.11728558824E+02 0.11632114962E+02 0.10459161193E+02 0.82266888696E+01 0.52483028129E+01
 0.57630788158E+01 0.30204744934E+01 0.88115016885E+00 -.11876141207E+00 0.27253711312E+00
 0.19371094255E+01 0.44299663427E+01 0.71293746790E+01 0.94292213068E+01 0.10900937952E+02
 0.11379323870E+02 0.10962769553E+02 0.99438299240E+01 0.86931876442E+01 0.74529784785E+01
 0.63218887421E+01 0.53608584156E+01 0.45966008956E+01 0.40294159287E+01 0.36449437748E+01
 0.34249148900E+01 0.33547605347E+01 0.34281394218E+01 0.36486886413E+01 0.40290354980E+01
 0.45869972521E+01 0.53388261458E+01 0.62893694178E+01 0.74204735344E+01 0.86816807366E+01
 0.99883617362E+01 0.11164394702E+02 0.11851769847E+02 0.11710924401E+02 0.10559996300E+02
 0.84638120740E+01 0.89380503767E+01 0.66267926663E+01 0.43754847238E+01 0.27468783854E+01
 0.21660071334E+01 0.27778657984E+01 0.43987851198E+01 0.65825844992E+01 0.87703112609E+01
 0.10460293968E+02 0.11338218628E+02 0.11334437335E+02 0.10605653051E+02 0.94578168086E+01
 0.82108153386E+01 0.70162808572E+01 0.59532708148E+01 0.50685159814E+01 0.43781335368E+01
 0.38766011952E+01 0.35478500537E+01 0.33745644761E+01 0.33444272039E+01 0.34535873727E+01
 0.37076511152E+01 0.41201860856E+01 0.47085943840E+01 0.54871501675E+01 0.64572782629E+01
 0.75967916313E+01 0.88521952029E+01 0.10138374737E+02 0.11278283374E+02 0.11936673185E+02
 0.11816721284E+02 0.10783690800E+02 0.11097806498E+02 0.95863969219E+01 0.77342909009E+01
 0.60085397760E+01 0.48743046832E+01 0.46435352246E+01 0.53682693584E+01 0.68247354932E+01
 0.85938791157E+01 0.10201183668E+02 0.11259165746E+02 0.11565498792E+02 0.11134767150E+02
 0.10165326949E+02 0.89562315510E+01 0.77349251888E+01 0.65984852367E+01 0.56104374094E+01
 0.48039587576E+01 0.41860573496E+01 0.37469073164E+01 0.34698171886E+01 0.33389830856E+01
 0.33444319576E+01 0.34845434627E+01 0.37664234330E+01 0.42040299077E+01 0.48138364645E+01
 0.56078442235E+01 0.65842787230E+01 0.77179170062E+01 0.89539895706E+01 0.10209313743E+02
 0.11317914219E+02 0.11977580223E+02 0.11935503631E+02 0.12041402638E+02 0.11451109683E+02
 0.10321051357E+02 0.89525435608E+01 0.77390152555E+01 0.70422386604E+01 0.70690277401E+01
 0.77991185991E+01 0.89951058988E+01 0.10287985207E+02 0.11300087431E+02 0.11758114991E+02
 0.11561594974E+02 0.10792888850E+02 0.96730182855E+01 0.84581572414E+01 0.72794973540E+01
 0.62114709886E+01 0.53024375027E+01 0.45735669503E+01 0.40246446637E+01 0.36430855736E+01
 0.34125049197E+01 0.33189712787E+01 0.33547746249E+01 0.35201640205E+01 0.38232404983E+01
 0.42778192762E+01 0.48989974394E+01 0.56963531337E+01 0.66653273244E+01 0.77788011908E+01
 0.89824735450E+01 0.10197306224E+02 0.11278380298E+02 0.11963285124E+02 0.11879425150E+02
 0.12101355985E+02 0.11781780130E+02 0.11042495242E+02 0.10139700188E+02 0.93856278567E+01
 0.90420761418E+01 0.92264789809E+01 0.98701122604E+01 0.10745533640E+02 0.11549069329E+02
 0.12002897651E+02 0.11939543435E+02 0.11344297453E+02 0.10347582164E+02 0.91701272924E+01
 0.79797159899E+01 0.68585141200E+01 0.58660319362E+01 0.50368763109E+01 0.43823549363E+01
 0.38970505244E+01 0.35670204436E+01 0.33769005285E+01 0.33147935774E+01 0.33750407714E+01
 0.35593386140E+01 0.38762717281E+01 0.43390091965E+01 0.49609132182E+01 0.57491457578E+01
 0.66969465404E+01 0.77765151218E+01 0.89356644674E+01 0.10101149482E+02 0.11155129293E+02
 0.10945692709E+02 0.11711950482E+02 0.12081315808E+02 0.12027481966E+02 0.11654446172E+02
 0.11165392084E+02 0.10791458927E+02 0.10705496340E+02 0.10955885032E+02 0.11448691197E+02