   2   2   0   0
  0.1529437E+02  0.3691622E-09  0.3691622E-09  0.3691622E-09  0.5000000E-15
  1.000000000000000E-004
  CAR 
 unknown system                          
     23.64889822     -6.51894629  301      9.01753185      1.00000000
     -6.519  0.0000E+00  0.0000E+00
     -6.418  0.0000E+00  0.0000E+00
     -6.318  0.0000E+00  0.0000E+00
     -6.217  0.0000E+00  0.0000E+00
     -6.117  0.0000E+00  0.0000E+00
     -6.016  0.0000E+00  0.0000E+00
     -5.916  0.0000E+00  0.0000E+00
     -5.815  0.0000E+00  0.0000E+00
     -5.714  0.0000E+00  0.0000E+00
     -5.614  0.5060E-16  0.5089E-17
     -5.513  0.1053E-13  0.1064E-14
     -5.413  0.1340E-11  0.1358E-12
     -5.312  0.1038E-09  0.1058E-10
     -5.212  0.4902E-08  0.5035E-09
     -5.111  0.1413E-06  0.1471E-07
     -5.011  0.2490E-05  0.2651E-06
     -4.910  0.2689E-04  0.2969E-05
     -4.809  0.1786E-03  0.2093E-04
     -4.709  0.7333E-03  0.9467E-04
     -4.608  0.1891E-02  0.2848E-03
     -4.508  0.3215E-02  0.6081E-03
     -4.407  0.4223E-02  0.1033E-02
     -4.307  0.5915E-02  0.1628E-02
     -4.206  0.9576E-02  0.2591E-02
     -4.106  0.1356E-01  0.3955E-02
     -4.005  0.1463E-01  0.5425E-02
     -3.904  0.1261E-01  0.6694E-02
     -3.804  0.9879E-02  0.7687E-02
     -3.703  0.8276E-02  0.8520E-02
     -3.603  0.9204E-02  0.9445E-02
     -3.502  0.1375E-01  0.1083E-01
     -3.402  0.2095E-01  0.1293E-01
     -3.301  0.2552E-01  0.1550E-01
     -3.200  0.2251E-01  0.1776E-01
     -3.100  0.1651E-01  0.1942E-01
     -2.999  0.1597E-01  0.2103E-01
     -2.899  0.1979E-01  0.2302E-01
     -2.798  0.2086E-01  0.2512E-01
     -2.698  0.1844E-01  0.2697E-01
     -2.597  0.1743E-01  0.2873E-01
     -2.497  0.1947E-01  0.3068E-01
     -2.396  0.2228E-01  0.3292E-01
     -2.295  0.2455E-01  0.3539E-01
     -2.195  0.2622E-01  0.3803E-01
     -2.094  0.2542E-01  0.4059E-01
     -1.994  0.2238E-01  0.4284E-01
     -1.893  0.2380E-01  0.4523E-01
     -1.793  0.3177E-01  0.4842E-01
     -1.692  0.3596E-01  0.5204E-01
     -1.592  0.2928E-01  0.5498E-01
     -1.491  0.1835E-01  0.5683E-01
     -1.390  0.1138E-01  0.5797E-01
     -1.290  0.1123E-01  0.5910E-01
     -1.189  0.1957E-01  0.6107E-01
     -1.089  0.3558E-01  0.6465E-01
     -0.988  0.5084E-01  0.6976E-01
     -0.888  0.5307E-01  0.7510E-01
     -0.787  0.4182E-01  0.7930E-01
     -0.686  0.3078E-01  0.8240E-01
     -0.586  0.2837E-01  0.8525E-01
     -0.485  0.2980E-01  0.8825E-01
     -0.385  0.2906E-01  0.9117E-01
     -0.284  0.2568E-01  0.9375E-01
     -0.184  0.2210E-01  0.9597E-01
     -0.083  0.2135E-01  0.9812E-01
      0.017  0.2459E-01  0.1006E+00
      0.118  0.2850E-01  0.1035E+00
      0.219  0.2954E-01  0.1064E+00
      0.319  0.3103E-01  0.1096E+00
      0.420  0.3914E-01  0.1135E+00
      0.520  0.5206E-01  0.1187E+00
      0.621  0.5906E-01  0.1247E+00
      0.721  0.5289E-01  0.1300E+00
      0.822  0.3995E-01  0.1340E+00
      0.922  0.3177E-01  0.1372E+00
      1.023  0.3167E-01  0.1404E+00
      1.124  0.3858E-01  0.1443E+00
      1.224  0.5065E-01  0.1493E+00
      1.325  0.5934E-01  0.1553E+00
      1.425  0.5730E-01  0.1611E+00
      1.526  0.4895E-01  0.1660E+00
      1.626  0.4109E-01  0.1701E+00
      1.727  0.3310E-01  0.1735E+00
      1.827  0.2413E-01  0.1759E+00
      1.928  0.1764E-01  0.1777E+00
      2.029  0.1613E-01  0.1793E+00
      2.129  0.1899E-01  0.1812E+00
      2.230  0.2400E-01  0.1836E+00
      2.330  0.2888E-01  0.1865E+00
      2.431  0.3208E-01  0.1897E+00
      2.531  0.3434E-01  0.1932E+00
      2.632  0.4060E-01  0.1973E+00
      2.733  0.5289E-01  0.2026E+00
      2.833  0.6330E-01  0.2090E+00
      2.934  0.6476E-01  0.2155E+00
      3.034  0.5959E-01  0.2215E+00
      3.135  0.5175E-01  0.2267E+00
      3.235  0.4247E-01  0.2309E+00
      3.336  0.3305E-01  0.2343E+00
      3.436  0.2567E-01  0.2368E+00
      3.537  0.2255E-01  0.2391E+00
      3.638  0.2608E-01  0.2417E+00
      3.738  0.3595E-01  0.2453E+00
      3.839  0.4424E-01  0.2498E+00
      3.939  0.4280E-01  0.2541E+00
      4.040  0.3470E-01  0.2576E+00
      4.140  0.2883E-01  0.2605E+00
      4.241  0.3060E-01  0.2636E+00
      4.341  0.4118E-01  0.2677E+00
      4.442  0.5767E-01  0.2735E+00
      4.543  0.7241E-01  0.2808E+00
      4.643  0.7794E-01  0.2886E+00
      4.744  0.7603E-01  0.2963E+00
      4.844  0.7156E-01  0.3035E+00
      4.945  0.6257E-01  0.3098E+00
      5.045  0.4866E-01  0.3147E+00
      5.146  0.3752E-01  0.3184E+00
      5.247  0.3285E-01  0.3217E+00
      5.347  0.2921E-01  0.3247E+00
      5.448  0.2538E-01  0.3272E+00
      5.548  0.2773E-01  0.3300E+00
      5.649  0.3901E-01  0.3339E+00
      5.749  0.5452E-01  0.3394E+00
      5.850  0.6883E-01  0.3463E+00
      5.950  0.7964E-01  0.3543E+00
      6.051  0.8391E-01  0.3628E+00
      6.152  0.7757E-01  0.3706E+00
      6.252  0.6082E-01  0.3767E+00
      6.353  0.4222E-01  0.3809E+00
      6.453  0.3438E-01  0.3844E+00
      6.554  0.4249E-01  0.3887E+00
      6.654  0.5969E-01  0.3947E+00
      6.755  0.7113E-01  0.4018E+00
      6.855  0.6586E-01  0.4085E+00
      6.956  0.5240E-01  0.4137E+00
      7.057  0.4894E-01  0.4186E+00
      7.157  0.5797E-01  0.4245E+00
      7.258  0.7108E-01  0.4316E+00
      7.358  0.8529E-01  0.4402E+00
      7.459  0.9633E-01  0.4499E+00
      7.559  0.9577E-01  0.4595E+00
      7.660  0.8253E-01  0.4678E+00
      7.761  0.6589E-01  0.4744E+00
      7.861  0.5594E-01  0.4801E+00
      7.962  0.5272E-01  0.4854E+00
      8.062  0.4969E-01  0.4904E+00
      8.163  0.4437E-01  0.4948E+00
      8.263  0.3792E-01  0.4986E+00
      8.364  0.3245E-01  0.5019E+00
      8.464  0.3251E-01  0.5052E+00
      8.565  0.3881E-01  0.5091E+00
      8.666  0.4443E-01  0.5135E+00
      8.766  0.4750E-01  0.5183E+00
      8.867  0.5455E-01  0.5238E+00
      8.967  0.6307E-01  0.5301E+00
      9.068  0.6109E-01  0.5363E+00
      9.168  0.4903E-01  0.5412E+00
      9.269  0.4044E-01  0.5453E+00
      9.369  0.4248E-01  0.5496E+00
      9.470  0.4951E-01  0.5545E+00
      9.571  0.5122E-01  0.5597E+00
      9.671  0.4375E-01  0.5641E+00
      9.772  0.3258E-01  0.5674E+00
      9.872  0.2427E-01  0.5698E+00
      9.973  0.2181E-01  0.5720E+00
     10.073  0.2690E-01  0.5747E+00
     10.174  0.3819E-01  0.5785E+00
     10.274  0.5093E-01  0.5837E+00
     10.375  0.6133E-01  0.5898E+00
     10.476  0.6530E-01  0.5964E+00
     10.576  0.5931E-01  0.6024E+00
     10.677  0.4822E-01  0.6072E+00
     10.777  0.4307E-01  0.6115E+00
     10.878  0.5173E-01  0.6167E+00
     10.978  0.7222E-01  0.6240E+00
     11.079  0.8840E-01  0.6329E+00
     11.180  0.8350E-01  0.6413E+00
     11.280  0.6410E-01  0.6477E+00
     11.381  0.5079E-01  0.6528E+00
     11.481  0.5025E-01  0.6579E+00
     11.582  0.5657E-01  0.6636E+00
     11.682  0.6407E-01  0.6700E+00
     11.783  0.7048E-01  0.6771E+00
     11.883  0.7881E-01  0.6850E+00
     11.984  0.9051E-01  0.6941E+00
     12.085  0.9892E-01  0.7041E+00
     12.185  0.9764E-01  0.7139E+00
     12.286  0.8766E-01  0.7227E+00
     12.386  0.7187E-01  0.7300E+00
     12.487  0.5089E-01  0.7351E+00
     12.587  0.2964E-01  0.7381E+00
     12.688  0.1749E-01  0.7398E+00
     12.788  0.1688E-01  0.7415E+00
     12.889  0.2416E-01  0.7439E+00
     12.990  0.3964E-01  0.7479E+00
     13.090  0.6346E-01  0.7543E+00
     13.191  0.8644E-01  0.7630E+00
     13.291  0.9633E-01  0.7727E+00
     13.392  0.8945E-01  0.7817E+00
     13.492  0.7177E-01  0.7889E+00
     13.593  0.5504E-01  0.7944E+00
     13.694  0.5058E-01  0.7995E+00
     13.794  0.5878E-01  0.8054E+00
     13.895  0.7160E-01  0.8126E+00
     13.995  0.8476E-01  0.8212E+00
     14.096  0.9563E-01  0.8308E+00
     14.196  0.9656E-01  0.8405E+00
     14.297  0.8489E-01  0.8490E+00
     14.397  0.7224E-01  0.8563E+00
     14.498  0.7258E-01  0.8636E+00
     14.599  0.8287E-01  0.8719E+00
     14.699  0.8726E-01  0.8807E+00
     14.800  0.8060E-01  0.8888E+00
     14.900  0.7333E-01  0.8962E+00
     15.001  0.7190E-01  0.9034E+00
     15.101  0.7070E-01  0.9105E+00
     15.202  0.6475E-01  0.9170E+00
     15.302  0.5518E-01  0.9226E+00
     15.403  0.4475E-01  0.9271E+00
     15.504  0.3824E-01  0.9309E+00
     15.604  0.3986E-01  0.9349E+00
     15.705  0.4637E-01  0.9396E+00
     15.805  0.5113E-01  0.9447E+00
     15.906  0.5500E-01  0.9503E+00
     16.006  0.6380E-01  0.9567E+00
     16.107  0.7200E-01  0.9639E+00
     16.207  0.6800E-01  0.9707E+00
     16.308  0.5523E-01  0.9763E+00
     16.409  0.4498E-01  0.9808E+00
     16.509  0.4180E-01  0.9850E+00
     16.610  0.4394E-01  0.9894E+00
     16.710  0.4476E-01  0.9939E+00
     16.811  0.3978E-01  0.9980E+00
     16.911  0.3616E-01  0.1002E+01
     17.012  0.4315E-01  0.1006E+01
     17.113  0.5543E-01  0.1012E+01
     17.213  0.6025E-01  0.1018E+01
     17.314  0.5417E-01  0.1023E+01
     17.414  0.4072E-01  0.1027E+01
     17.515  0.2501E-01  0.1030E+01
     17.615  0.1457E-01  0.1031E+01
     17.716  0.1336E-01  0.1032E+01
     17.816  0.1716E-01  0.1034E+01
     17.917  0.1865E-01  0.1036E+01
     18.018  0.1502E-01  0.1038E+01
     18.118  0.9794E-02  0.1039E+01
     18.219  0.7391E-02  0.1039E+01
     18.319  0.1072E-01  0.1040E+01
     18.420  0.2137E-01  0.1042E+01
     18.520  0.3400E-01  0.1046E+01
     18.621  0.3741E-01  0.1050E+01
     18.721  0.2888E-01  0.1053E+01
     18.822  0.1645E-01  0.1054E+01
     18.923  0.7202E-02  0.1055E+01
     19.023  0.3024E-02  0.1055E+01
     19.124  0.3058E-02  0.1056E+01
     19.224  0.5004E-02  0.1056E+01
     19.325  0.5997E-02  0.1057E+01
     19.425  0.5496E-02  0.1057E+01
     19.526  0.6200E-02  0.1058E+01
     19.627  0.9286E-02  0.1059E+01
     19.727  0.1165E-01  0.1060E+01
     19.828  0.1088E-01  0.1061E+01
     19.928  0.8865E-02  0.1062E+01
     20.029  0.7272E-02  0.1063E+01
     20.129  0.5138E-02  0.1063E+01
     20.230  0.2536E-02  0.1063E+01
     20.330  0.8155E-03  0.1064E+01
     20.431  0.2742E-03  0.1064E+01
     20.532  0.5067E-03  0.1064E+01
     20.632  0.1345E-02  0.1064E+01
     20.733  0.2657E-02  0.1064E+01
     20.833  0.4025E-02  0.1064E+01
     20.934  0.4694E-02  0.1065E+01
     21.034  0.3978E-02  0.1065E+01
     21.135  0.2295E-02  0.1066E+01
     21.235  0.8771E-03  0.1066E+01
     21.336  0.3266E-03  0.1066E+01
     21.437  0.5814E-03  0.1066E+01
     21.537  0.1537E-02  0.1066E+01
     21.638  0.2629E-02  0.1066E+01
     21.738  0.2774E-02  0.1066E+01
     21.839  0.1803E-02  0.1067E+01
     21.939  0.7215E-03  0.1067E+01
     22.040  0.1775E-03  0.1067E+01
     22.141  0.2684E-04  0.1067E+01
     22.241  0.2488E-05  0.1067E+01
     22.342  0.1412E-06  0.1067E+01
     22.442  0.4901E-08  0.1067E+01
     22.543  0.1038E-09  0.1067E+01
     22.643  0.1340E-11  0.1067E+01
     22.744  0.1053E-13  0.1067E+01
     22.844  0.5060E-16  0.1067E+01
     22.945  0.0000E+00  0.1067E+01
     23.046  0.0000E+00  0.1067E+01
     23.146  0.0000E+00  0.1067E+01
     23.247  0.0000E+00  0.1067E+01
     23.347  0.0000E+00  0.1067E+01
     23.448  0.0000E+00  0.1067E+01
     23.548  0.0000E+00  0.1067E+01
     23.649  0.0000E+00  0.1067E+01
