   2   2   0   0
  0.1529437E+02  0.3691622E-09  0.3691622E-09  0.3691622E-09  0.5000000E-15
  1.000000000000000E-004
  CAR 
 unknown system                          
     22.87332920     -6.52445284  301      9.06094063      1.00000000
     -6.524  0.0000E+00  0.0000E+00
     -6.426  0.0000E+00  0.0000E+00
     -6.328  0.0000E+00  0.0000E+00
     -6.230  0.0000E+00  0.0000E+00
     -6.132  0.0000E+00  0.0000E+00
     -6.034  0.0000E+00  0.0000E+00
     -5.936  0.0000E+00  0.0000E+00
     -5.839  0.0000E+00  0.0000E+00
     -5.741  0.0000E+00  0.0000E+00
     -5.643  0.1416E-16  0.1388E-17
     -5.545  0.2894E-14  0.2850E-15
     -5.447  0.3705E-12  0.3659E-13
     -5.349  0.2959E-10  0.2936E-11
     -5.251  0.1475E-08  0.1475E-09
     -5.153  0.4601E-07  0.4656E-08
     -5.055  0.8983E-06  0.9268E-07
     -4.957  0.1100E-04  0.1170E-05
     -4.859  0.8459E-04  0.9460E-05
     -4.761  0.4098E-03  0.4962E-04
     -4.663  0.1259E-02  0.1730E-03
     -4.565  0.2505E-02  0.4185E-03
     -4.467  0.3520E-02  0.7634E-03
     -4.369  0.4511E-02  0.1205E-02
     -4.271  0.6954E-02  0.1887E-02
     -4.173  0.1096E-01  0.2961E-02
     -4.075  0.1399E-01  0.4332E-02
     -3.977  0.1419E-01  0.5723E-02
     -3.879  0.1253E-01  0.6951E-02
     -3.781  0.1036E-01  0.7966E-02
     -3.683  0.8965E-02  0.8844E-02
     -3.585  0.1053E-01  0.9876E-02
     -3.487  0.1556E-01  0.1140E-01
     -3.389  0.2074E-01  0.1343E-01
     -3.291  0.2198E-01  0.1559E-01
     -3.193  0.1950E-01  0.1750E-01
     -3.095  0.1665E-01  0.1913E-01
     -2.997  0.1521E-01  0.2062E-01
     -2.899  0.1622E-01  0.2221E-01
     -2.801  0.1984E-01  0.2415E-01
     -2.703  0.2257E-01  0.2637E-01
     -2.605  0.2269E-01  0.2859E-01
     -2.507  0.2385E-01  0.3093E-01
     -2.409  0.2691E-01  0.3356E-01
     -2.311  0.2680E-01  0.3619E-01
     -2.213  0.2240E-01  0.3839E-01
     -2.115  0.2029E-01  0.4037E-01
     -2.017  0.2394E-01  0.4272E-01
     -1.919  0.2796E-01  0.4546E-01
     -1.821  0.2699E-01  0.4810E-01
     -1.723  0.2267E-01  0.5033E-01
     -1.625  0.1835E-01  0.5212E-01
     -1.527  0.1535E-01  0.5363E-01
     -1.429  0.1619E-01  0.5522E-01
     -1.331  0.2251E-01  0.5742E-01
     -1.233  0.3082E-01  0.6044E-01
     -1.135  0.3659E-01  0.6403E-01
     -1.037  0.3930E-01  0.6788E-01
     -0.939  0.4019E-01  0.7182E-01
     -0.841  0.3957E-01  0.7569E-01
     -0.743  0.4016E-01  0.7963E-01
     -0.645  0.4399E-01  0.8394E-01
     -0.547  0.4404E-01  0.8825E-01
     -0.449  0.3356E-01  0.9154E-01
     -0.351  0.1899E-01  0.9340E-01
     -0.253  0.1034E-01  0.9442E-01
     -0.155  0.1007E-01  0.9540E-01
     -0.057  0.1715E-01  0.9708E-01
      0.041  0.3013E-01  0.1000E+00
      0.139  0.4320E-01  0.1043E+00
      0.237  0.4875E-01  0.1090E+00
      0.335  0.4670E-01  0.1136E+00
      0.433  0.4224E-01  0.1178E+00
      0.531  0.3667E-01  0.1214E+00
      0.629  0.3115E-01  0.1244E+00
      0.727  0.3289E-01  0.1276E+00
      0.825  0.4351E-01  0.1319E+00
      0.923  0.5083E-01  0.1369E+00
      1.021  0.4665E-01  0.1414E+00
      1.119  0.3903E-01  0.1453E+00
      1.217  0.3702E-01  0.1489E+00
      1.315  0.3919E-01  0.1527E+00
      1.413  0.4078E-01  0.1567E+00
      1.511  0.3969E-01  0.1606E+00
      1.609  0.3519E-01  0.1641E+00
      1.707  0.2820E-01  0.1668E+00
      1.805  0.2343E-01  0.1691E+00
      1.903  0.2580E-01  0.1717E+00
      2.001  0.3360E-01  0.1750E+00
      2.099  0.4094E-01  0.1790E+00
      2.197  0.4571E-01  0.1834E+00
      2.295  0.4738E-01  0.1881E+00
      2.393  0.4399E-01  0.1924E+00
      2.491  0.3846E-01  0.1962E+00
      2.589  0.3639E-01  0.1997E+00
      2.687  0.3752E-01  0.2034E+00
      2.785  0.3906E-01  0.2072E+00
      2.883  0.4093E-01  0.2112E+00
      2.981  0.4287E-01  0.2154E+00
      3.079  0.4252E-01  0.2196E+00
      3.177  0.3819E-01  0.2234E+00
      3.275  0.3252E-01  0.2265E+00
      3.373  0.3277E-01  0.2298E+00
      3.471  0.4175E-01  0.2338E+00
      3.569  0.4974E-01  0.2387E+00
      3.667  0.4547E-01  0.2432E+00
      3.765  0.3167E-01  0.2463E+00
      3.863  0.2083E-01  0.2483E+00
      3.961  0.2113E-01  0.2504E+00
      4.059  0.3202E-01  0.2535E+00
      4.157  0.4799E-01  0.2582E+00
      4.255  0.6151E-01  0.2643E+00
      4.353  0.6533E-01  0.2707E+00
      4.451  0.5813E-01  0.2764E+00
      4.549  0.4789E-01  0.2811E+00
      4.647  0.4676E-01  0.2856E+00
      4.745  0.5918E-01  0.2914E+00
      4.843  0.7259E-01  0.2985E+00
      4.941  0.6959E-01  0.3054E+00
      5.039  0.5123E-01  0.3104E+00
      5.137  0.3319E-01  0.3136E+00
      5.235  0.2656E-01  0.3162E+00
      5.333  0.3544E-01  0.3197E+00
      5.431  0.5561E-01  0.3252E+00
      5.529  0.7087E-01  0.3321E+00
      5.627  0.6850E-01  0.3388E+00
      5.725  0.5416E-01  0.3441E+00
      5.823  0.4124E-01  0.3482E+00
      5.921  0.3751E-01  0.3518E+00
      6.019  0.4488E-01  0.3562E+00
      6.117  0.5808E-01  0.3619E+00
      6.215  0.6541E-01  0.3683E+00
      6.313  0.6310E-01  0.3745E+00
      6.411  0.5880E-01  0.3803E+00
      6.509  0.5721E-01  0.3859E+00
      6.607  0.5924E-01  0.3917E+00
      6.705  0.6570E-01  0.3981E+00
      6.803  0.7007E-01  0.4050E+00
      6.901  0.6449E-01  0.4113E+00
      6.999  0.5319E-01  0.4165E+00
      7.097  0.4626E-01  0.4211E+00
      7.195  0.4532E-01  0.4255E+00
      7.293  0.4363E-01  0.4298E+00
      7.390  0.4021E-01  0.4337E+00
      7.488  0.4574E-01  0.4382E+00
      7.586  0.6573E-01  0.4446E+00
      7.684  0.8856E-01  0.4533E+00
      7.782  0.1003E+00  0.4632E+00
      7.880  0.9964E-01  0.4729E+00
      7.978  0.9038E-01  0.4818E+00
      8.076  0.7217E-01  0.4888E+00
      8.174  0.4722E-01  0.4935E+00
      8.272  0.2588E-01  0.4960E+00
      8.370  0.1619E-01  0.4976E+00
      8.468  0.1710E-01  0.4993E+00
      8.566  0.2638E-01  0.5019E+00
      8.664  0.4324E-01  0.5061E+00
      8.762  0.6069E-01  0.5120E+00
      8.860  0.6959E-01  0.5189E+00
      8.958  0.7146E-01  0.5259E+00
      9.056  0.7279E-01  0.5330E+00
      9.154  0.7163E-01  0.5400E+00
      9.252  0.6474E-01  0.5464E+00
      9.350  0.5743E-01  0.5520E+00
      9.448  0.5509E-01  0.5574E+00
      9.546  0.5554E-01  0.5628E+00
      9.644  0.5332E-01  0.5681E+00
      9.742  0.4685E-01  0.5726E+00
      9.840  0.4023E-01  0.5766E+00
      9.938  0.3575E-01  0.5801E+00
     10.036  0.3103E-01  0.5831E+00
     10.134  0.2614E-01  0.5857E+00
     10.232  0.2448E-01  0.5881E+00
     10.330  0.2563E-01  0.5906E+00
     10.428  0.2645E-01  0.5932E+00
     10.526  0.2857E-01  0.5960E+00
     10.624  0.3576E-01  0.5995E+00
     10.722  0.4792E-01  0.6042E+00
     10.820  0.6197E-01  0.6103E+00
     10.918  0.7358E-01  0.6175E+00
     11.016  0.7833E-01  0.6252E+00
     11.114  0.7253E-01  0.6323E+00
     11.212  0.5739E-01  0.6379E+00
     11.310  0.4166E-01  0.6420E+00
     11.408  0.3269E-01  0.6452E+00
     11.506  0.3099E-01  0.6482E+00
     11.604  0.3626E-01  0.6518E+00
     11.702  0.4978E-01  0.6566E+00
     11.800  0.7092E-01  0.6636E+00
     11.898  0.9395E-01  0.6728E+00
     11.996  0.1082E+00  0.6834E+00
     12.094  0.1078E+00  0.6940E+00
     12.192  0.1019E+00  0.7039E+00
     12.290  0.1014E+00  0.7139E+00
     12.388  0.9936E-01  0.7236E+00
     12.486  0.8724E-01  0.7322E+00
     12.584  0.7269E-01  0.7393E+00
     12.682  0.6186E-01  0.7454E+00
     12.780  0.5193E-01  0.7504E+00
     12.878  0.4590E-01  0.7549E+00
     12.976  0.4675E-01  0.7595E+00
     13.074  0.4706E-01  0.7641E+00
     13.172  0.4245E-01  0.7683E+00
     13.270  0.3836E-01  0.7721E+00
     13.368  0.3893E-01  0.7759E+00
     13.466  0.4570E-01  0.7803E+00
     13.564  0.5939E-01  0.7862E+00
     13.662  0.7276E-01  0.7933E+00
     13.760  0.7809E-01  0.8009E+00
     13.858  0.8023E-01  0.8088E+00
     13.956  0.8735E-01  0.8174E+00
     14.054  0.9562E-01  0.8267E+00
     14.152  0.9226E-01  0.8358E+00
     14.250  0.7635E-01  0.8433E+00
     14.348  0.6294E-01  0.8494E+00
     14.446  0.5873E-01  0.8552E+00
     14.544  0.5616E-01  0.8607E+00
     14.642  0.5315E-01  0.8659E+00
     14.740  0.5719E-01  0.8715E+00
     14.838  0.7186E-01  0.8785E+00
     14.936  0.9050E-01  0.8874E+00
     15.034  0.1001E+00  0.8972E+00
     15.132  0.9246E-01  0.9063E+00
     15.230  0.7434E-01  0.9136E+00
     15.328  0.5849E-01  0.9193E+00
     15.426  0.4756E-01  0.9240E+00
     15.524  0.3971E-01  0.9279E+00
     15.622  0.3643E-01  0.9314E+00
     15.720  0.3738E-01  0.9351E+00
     15.818  0.3868E-01  0.9389E+00
     15.916  0.3805E-01  0.9426E+00
     16.014  0.3900E-01  0.9464E+00
     16.112  0.4741E-01  0.9511E+00
     16.210  0.6118E-01  0.9571E+00
     16.308  0.6876E-01  0.9638E+00
     16.406  0.6521E-01  0.9702E+00
     16.504  0.5804E-01  0.9759E+00
     16.602  0.5198E-01  0.9810E+00
     16.700  0.4561E-01  0.9854E+00
     16.798  0.3968E-01  0.9893E+00
     16.896  0.3502E-01  0.9928E+00
     16.994  0.2976E-01  0.9957E+00
     17.092  0.2317E-01  0.9980E+00
     17.190  0.1739E-01  0.9997E+00
     17.288  0.1534E-01  0.1001E+01
     17.386  0.1711E-01  0.1003E+01
     17.484  0.2013E-01  0.1005E+01
     17.582  0.2520E-01  0.1007E+01
     17.680  0.3501E-01  0.1011E+01
     17.778  0.4558E-01  0.1015E+01
     17.876  0.5107E-01  0.1020E+01
     17.974  0.5210E-01  0.1025E+01
     18.072  0.5003E-01  0.1030E+01
     18.170  0.4314E-01  0.1034E+01
     18.268  0.3236E-01  0.1038E+01
     18.366  0.2230E-01  0.1040E+01
     18.464  0.1624E-01  0.1041E+01
     18.562  0.1438E-01  0.1043E+01
     18.660  0.1574E-01  0.1044E+01
     18.758  0.1938E-01  0.1046E+01
     18.856  0.2354E-01  0.1049E+01
     18.954  0.2543E-01  0.1051E+01
     19.052  0.2362E-01  0.1053E+01
     19.150  0.1918E-01  0.1055E+01
     19.248  0.1416E-01  0.1057E+01
     19.346  0.1061E-01  0.1058E+01
     19.444  0.9251E-02  0.1059E+01
     19.542  0.9904E-02  0.1060E+01
     19.640  0.1174E-01  0.1061E+01
     19.738  0.1221E-01  0.1062E+01
     19.836  0.1000E-01  0.1063E+01
     19.934  0.6979E-02  0.1064E+01
     20.032  0.4729E-02  0.1064E+01
     20.130  0.3132E-02  0.1064E+01
     20.228  0.1815E-02  0.1064E+01
     20.326  0.8402E-03  0.1065E+01
     20.424  0.4433E-03  0.1065E+01
     20.522  0.8263E-03  0.1065E+01
     20.619  0.2096E-02  0.1065E+01
     20.717  0.3827E-02  0.1065E+01
     20.815  0.4925E-02  0.1066E+01
     20.913  0.4552E-02  0.1066E+01
     21.011  0.3000E-02  0.1066E+01
     21.109  0.1366E-02  0.1067E+01
     21.207  0.4152E-03  0.1067E+01
     21.305  0.8198E-04  0.1067E+01
     21.403  0.1035E-04  0.1067E+01
     21.501  0.8267E-06  0.1067E+01
     21.599  0.4159E-07  0.1067E+01
     21.697  0.1313E-08  0.1067E+01
     21.795  0.2594E-10  0.1067E+01
     21.893  0.3203E-12  0.1067E+01
     21.991  0.2468E-14  0.1067E+01
     22.089  0.1180E-16  0.1067E+01
     22.187  0.0000E+00  0.1067E+01
     22.285  0.0000E+00  0.1067E+01
     22.383  0.0000E+00  0.1067E+01
     22.481  0.0000E+00  0.1067E+01
     22.579  0.0000E+00  0.1067E+01
     22.677  0.0000E+00  0.1067E+01
     22.775  0.0000E+00  0.1067E+01
     22.873  0.0000E+00  0.1067E+01
