       N       E                     dE             d eps       ncg     rms          rms(c)
DAV:   1     0.749558613448E+00    0.74956E+00   -0.28293E+03   896   0.577E+02
DAV:   2    -0.100914052697E+02   -0.10841E+02   -0.10457E+02  1328   0.645E+01
DAV:   3    -0.102174687783E+02   -0.12606E+00   -0.12461E+00  1232   0.802E+00
DAV:   4    -0.102178093946E+02   -0.34062E-03   -0.34051E-03  1360   0.405E-01
DAV:   5    -0.102178097572E+02   -0.36262E-06   -0.36235E-06  1224   0.885E-03    0.149E+00
DAV:   6    -0.102131194631E+02    0.46903E-02   -0.18469E-03  1136   0.330E-01    0.930E-01
DAV:   7    -0.102092534030E+02    0.38661E-02   -0.53863E-03   960   0.576E-01    0.333E-02
DAV:   8    -0.102092390520E+02    0.14351E-04   -0.82493E-05   640   0.796E-02
   1 F= -.10209239E+02 E0= -.10198274E+02  d E =-.102092E+02
