unknown system                          
   1.00000000000000     
     0.000000    2.715000    2.715000
     2.715000    0.000000    2.715000
     2.715000    2.715000    0.000000
   Si
     2
Direct
  0.500000  0.500000  0.500000
  0.750000  0.750000  0.750000
 
   36   36   36
 0.88194400819E+00 0.89827767587E+00 0.94834327176E+00 0.10351898055E+01 0.11634909298E+01
 0.13390556966E+01 0.15682929503E+01 0.18575926454E+01 0.22124317466E+01 0.26359455409E+01
 0.31268407868E+01 0.36768798533E+01 0.42686073241E+01 0.48742835922E+01 0.54569000375E+01
 0.59736244940E+01 0.63812661049E+01 0.66426889139E+01 0.67327836674E+01 0.66426784649E+01
 0.63812550025E+01 0.59736308995E+01 0.54569417981E+01 0.48743633475E+01 0.42687046255E+01
 0.36769606666E+01 0.31268789694E+01 0.26359381791E+01 0.22123965838E+01 0.18575530214E+01
 0.15682642517E+01 0.13390416475E+01 0.11634879579E+01 0.10351925411E+01 0.94834741074E+00
 0.89828044152E+00 0.89827767587E+00 0.92676306360E+00 0.98549308118E+00 0.10777737685E+01
 0.12080618565E+01 0.13814636999E+01 0.16031666779E+01 0.18777540491E+01 0.22082607191E+01
 0.25948232197E+01 0.30329325365E+01 0.35115923280E+01 0.40119915539E+01 0.45074322358E+01
 0.49650633540E+01 0.53494684765E+01 0.56275362079E+01 0.57735842126E+01 0.57735841769E+01
 0.56275389622E+01 0.53494830949E+01 0.49651009320E+01 0.45074935522E+01 0.40120583446E+01
 0.35116360732E+01 0.30329350686E+01 0.25947886788E+01 0.22082093387E+01 0.18777074612E+01
 0.16031375835E+01 0.13814534461E+01 0.12080633659E+01 0.10777773778E+01 0.98549295561E+00
 0.92675992823E+00 0.89827584724E+00 0.94834327176E+00 0.98549308118E+00 0.10498248910E+01
 0.11446510657E+01 0.12740168244E+01 0.14421946857E+01 0.16530995562E+01 0.19095771683E+01
 0.22124751352E+01 0.25594485450E+01 0.29436078001E+01 0.33523357556E+01 0.37667731253E+01
 0.41624748834E+01 0.45115072611E+01 0.47858295747E+01 0.49613523077E+01 0.50217815597E+01
 0.49613571370E+01 0.47858423788E+01 0.45115317133E+01 0.41625083298E+01 0.37668016092E+01
 0.33523404086E+01 0.29435796507E+01 0.25593962264E+01 0.22124180410E+01 0.19095330028E+01
 0.16530773125E+01 0.14421937556E+01 0.12740284213E+01 0.11446623500E+01 0.10498267407E+01
 0.98548605850E+00 0.94833580760E+00 0.93620777628E+00 0.10351898055E+01 0.10777737685E+01
 0.11446510657E+01 0.12389792670E+01 0.13642817526E+01 0.15239494669E+01 0.17206640151E+01
 0.19557046065E+01 0.22280990343E+01 0.25336469366E+01 0.28639771951E+01 0.32059406427E+01
 0.35417038656E+01 0.38498388720E+01 0.41074815662E+01 0.42933067779E+01 0.43907522808E+01
 0.43907538088E+01 0.42933122036E+01 0.41074909550E+01 0.38498472957E+01 0.35417013321E+01
 0.32059186486E+01 0.28639364567E+01 0.25335982249E+01 0.22280566073E+01 0.19556791446E+01
 0.17206598960E+01 0.15239644480E+01 0.13643066970E+01 0.12390007213E+01 0.11446586550E+01
 0.10777670841E+01 0.10351780568E+01 0.10145232987E+01 0.10145288479E+01 0.11634909298E+01
 0.12080618565E+01 0.12740168244E+01 0.13642817526E+01 0.14818281784E+01 0.16291981506E+01
 0.18079630311E+01 0.20180954084E+01 0.22572564158E+01 0.25200697271E+01 0.27975513025E+01
 0.30769390706E+01 0.33421675241E+01 0.35751379735E+01 0.37577509081E+01 0.38744212150E+01
 0.39145626900E+01 0.38744215757E+01 0.37577507996E+01 0.35751329949E+01 0.33421513097E+01
 0.30769103018E+01 0.27975175137E+01 0.25200424001E+01 0.22572435223E+01 0.20180992664E+01
 0.18079825538E+01 0.16292293806E+01 0.14818626441E+01 0.13643080227E+01 0.12740267688E+01
 0.12080559678E+01 0.11634776421E+01 0.11378345911E+01 0.11294837639E+01 0.11378446667E+01
 0.13390556966E+01 0.13814636999E+01 0.14421946857E+01 0.15239494669E+01 0.16291981506E+01
 0.17597453750E+01 0.19162547360E+01 0.20977277324E+01 0.23009622206E+01 0.25200696645E+01
 0.27461967761E+01 0.29676359816E+01 0.31704880523E+01 0.33399512139E+01 0.34621547306E+01
 0.35262454513E+01 0.35262454223E+01 0.34621534144E+01 0.33399449562E+01 0.31704732554E+01
 0.29676148390E+01 0.27461790414E+01 0.25200659539E+01 0.23009762040E+01 0.20977559563E+01
 0.19162915236E+01 0.17597845291E+01 0.16292315844E+01 0.15239691310E+01 0.14421976742E+01
 0.13814541994E+01 0.13390416552E+01 0.13124364419E+01 0.12996751043E+01 0.12996793778E+01
 0.13124478131E+01 0.15682929503E+01 0.16031666779E+01 0.16530995562E+01 0.17206640151E+01
 0.18079630311E+01 0.19162547360E+01 0.20455705760E+01 0.21943278315E+01 0.23589623318E+01
 0.25336469130E+01 0.27102101414E+01 0.28783992320E+01 0.30266109214E+01 0.31431280785E+01
 0.32177427600E+01 0.32434486631E+01 0.32177445732E+01 0.31431278379E+01 0.30266051007E+01
 0.28783899159E+01 0.27102055999E+01 0.25336555942E+01 0.23589863837E+01 0.21943627568E+01
 0.20456091278E+01 0.19162887049E+01 0.18079836956E+01 0.17206660353E+01 0.16530858913E+01
 0.16031471835E+01 0.15682768599E+01 0.15458122555E+01 0.15334152876E+01 0.15294758632E+01
 0.15334191534E+01 0.15458216468E+01 0.18575926454E+01 0.18777540491E+01 0.19095771683E+01
 0.19557046065E+01 0.20180954084E+01 0.20977277324E+01 0.21943278315E+01 0.23061192014E+01
 0.24296075475E+01 0.25594487165E+01 0.26884920020E+01 0.28081241593E+01 0.29090182127E+01
 0.29822888710E+01 0.30208863811E+01 0.30208897686E+01 0.29822960348E+01 0.29090237571E+01
 0.28081265717E+01 0.26884949200E+01 0.25594568278E+01 0.24296228250E+01 0.23061404151E+01
 0.21943506833E+01 0.20977440400E+01 0.20180953733E+01 0.19556840831E+01 0.19095433567E+01
 0.18777217772E+01 0.18575734629E+01 0.18461108384E+01 0.18404401714E+01 0.18382485927E+01
 0.18382468843E+01 0.18404380558E+01 0.18461158945E+01 0.22124317466E+01 0.22082607191E+01
 0.22124751352E+01 0.22280990343E+01 0.22572564158E+01 0.23009622206E+01 0.23589623318E+01
 0.24296075475E+01 0.25097682781E+01 0.25948234045E+01 0.26788016578E+01 0.27547861040E+01
 0.28156554765E+01 0.28551128003E+01 0.28687918070E+01 0.28551240220E+01 0.28156715711E+01
 0.27548002347E+01 0.26788101710E+01 0.25948250024E+01 0.25097636376E+01 0.24296001151E+01
 0.23589551105E+01 0.23009517901E+01 0.22572339612E+01 0.22280604810E+01 0.22124288449E+01
 0.22082228277E+01 0.22124139772E+01 0.22213671645E+01 0.22312901939E+01 0.22388128700E+01
 0.22415958368E+01 0.22388027163E+01 0.22312778640E+01 0.22213649626E+01 0.26359455409E+01
 0.25948232197E+01 0.25594485450E+01 0.25336469366E+01 0.25200697271E+01 0.25200696645E+01
 0.25336469130E+01 0.25594487165E+01 0.25948234045E+01 0.26359455741E+01 0.26780667988E+01
 0.27159680269E+01 0.27446385760E+01 0.27600891929E+01 0.27600978928E+01 0.27446603300E+01
 0.27159923370E+01 0.26780816307E+01 0.26359412298E+01 0.25947969850E+01 0.25594073389E+01
 0.25336028692E+01 0.25200292548E+01 0.25200296889E+01 0.25336038711E+01 0.25594084080E+01
 0.25947979079E+01 0.26359418931E+01 0.26780817675E+01 0.27159918600E+01 0.27446595992E+01
 0.27600972832E+01 0.27600886839E+01 0.27446380623E+01 0.27159676687E+01 0.26780667151E+01
 0.31268407868E+01 0.30329325365E+01 0.29436078001E+01 0.28639771951E+01 0.27975513025E+01
 0.27461967761E+01 0.27102101414E+01 0.26884920020E+01 0.26788016578E+01 0.26780667988E+01
 0.26827493041E+01 0.26892897218E+01 0.26946179795E+01 0.26966479753E+01 0.26946372607E+01
 0.26893184242E+01 0.26827697039E+01 0.26780598931E+01 0.26787582659E+01 0.26884208721E+01
 0.27101328988E+01 0.27461320989E+01 0.27975048887E+01 0.28639471255E+01 0.29435948098E+01
 0.30329395037E+01 0.31268652708E+01 0.32188719406E+01 0.33015641922E+01 0.33674506667E+01
 0.34099929161E+01 0.34247014645E+01 0.34099767848E+01 0.33674231203E+01 0.33015307677E+01
 0.32188386165E+01 0.36768798533E+01 0.35115923280E+01 0.33523357556E+01 0.32059406427E+01
 0.30769390706E+01 0.29676359816E+01 0.28783992320E+01 0.28081241593E+01 0.27547861040E+01
 0.27159680269E+01 0.26892897218E+01 0.26727262991E+01 0.26648263052E+01 0.26648366670E+01
 0.26727514663E+01 0.26893115286E+01 0.27159610670E+01 0.27547336216E+01 0.28080338273E+01
 0.28783005463E+01 0.29675597165E+01 0.30768996753E+01 0.32059366669E+01 0.33523603249E+01
 0.35116375576E+01 0.36769340366E+01 0.38393177395E+01 0.39883193548E+01 0.41128977971E+01
 0.42027687612E+01 0.42499093313E+01 0.42499057738E+01 0.42027577419E+01 0.41128769471E+01
 0.39882844677E+01 0.38392687467E+01 0.42686073241E+01 0.40119915539E+01 0.37667731253E+01
 0.35417038656E+01 0.33421675241E+01 0.31704880523E+01 0.30266109214E+01 0.29090182127E+01
 0.28156554765E+01 0.27446385760E+01 0.26946179795E+01 0.26648263052E+01 0.26549303018E+01
 0.26648424003E+01 0.26946355205E+01 0.27446307523E+01 0.28155995666E+01 0.29089186778E+01
 0.30265027145E+01 0.31704120936E+01 0.33421437404E+01 0.35417272674E+01 0.37668277480E+01
 0.40120606407E+01 0.42686745629E+01 0.45247005399E+01 0.47656311187E+01 0.49756394445E+01
 0.51392648811E+01 0.52433827647E+01 0.52791368083E+01 0.52433907702E+01 0.51392734177E+01
 0.49756364285E+01 0.47656057611E+01 0.45246501467E+01 0.48742835922E+01 0.45074322358E+01
 0.41624748834E+01 0.38498388720E+01 0.35751379735E+01 0.33399512139E+01 0.31431280785E+01
 0.29822888710E+01 0.28551128003E+01 0.27600891929E+01 0.26966479753E+01 0.26648366670E+01
 0.26648424003E+01 0.26966565331E+01 0.27600766708E+01 0.28550540983E+01 0.29821845514E+01
 0.31430155947E+01 0.33398795696E+01 0.35751299089E+01 0.38498813010E+01 0.41625402791E+01
 0.45074989232E+01 0.48743380731E+01 0.52477774570E+01 0.56084643728E+01 0.59345413499E+01
 0.62038113486E+01 0.63962594151E+01 0.64966312465E+01 0.64966424117E+01 0.63962870547E+01
 0.62038413783E+01 0.59345586253E+01 0.56084581553E+01 0.52477446990E+01 0.54569000375E+01
 0.49650633540E+01 0.45115072611E+01 0.41074815662E+01 0.37577509081E+01 0.34621547306E+01
 0.32177427600E+01 0.30208863811E+01 0.28687918070E+01 0.27600978928E+01 0.26946372607E+01
 0.26727514663E+01 0.26946355205E+01 0.27600766708E+01 0.28687278868E+01 0.30207777225E+01
 0.32176262583E+01 0.34620846988E+01 0.37577528313E+01 0.41075335188E+01 0.45115678378E+01
 0.49651068511E+01 0.54569219337E+01 0.59687636184E+01 0.64761135377E+01 0.69501212862E+01
 0.73603664753E+01 0.76780491830E+01 0.78792984923E+01 0.79482478595E+01 0.78793192909E+01
 0.76780836672E+01 0.73604042530E+01 0.69501521023E+01 0.64761295573E+01 0.59687613401E+01
 0.59736244940E+01 0.53494684765E+01 0.47858295747E+01 0.42933067779E+01 0.38744212150E+01
 0.35262454513E+01 0.32434486631E+01 0.30208897686E+01 0.28551240220E+01 0.27446603300E+01
 0.26893184242E+01 0.26893115286E+01 0.27446307523E+01 0.28550540983E+01 0.30207777225E+01
 0.32433292567E+01 0.35261746385E+01 0.38744275383E+01 0.42933631868E+01 0.47858818734E+01
 0.53494848182E+01 0.59736093455E+01 0.66382072385E+01 0.73141333466E+01 0.79653015342E+01
 0.85520434179E+01 0.90350230349E+01 0.93793431667E+01 0.95586353260E+01 0.95586341513E+01
 0.93793436399E+01 0.90350333022E+01 0.85520673542E+01 0.79653345352E+01 0.73141677942E+01
 0.66382370684E+01 0.63812661049E+01 0.56275362079E+01 0.49613523077E+01 0.43907522808E+01
 0.39145626900E+01 0.35262454223E+01 0.32177445732E+01 0.29822960348E+01 0.28156715711E+01
 0.27159923370E+01 0.26827697039E+01 0.27159610670E+01 0.28155995666E+01 0.29821845514E+01
 0.32176262583E+01 0.35261746385E+01 0.39145701518E+01 0.43908108173E+01 0.49614002561E+01
 0.56275345963E+01 0.63812235134E+01 0.72026215200E+01 0.80596046909E+01 0.89097919436E+01
 0.97042878500E+01 0.10392166146E+02 0.10925245117E+02 0.11263242057E+02 0.11379082306E+02
 0.11263192959E+02 0.10925177887E+02 0.10392119002E+02 0.97042795756E+01 0.89098170096E+01
 0.80596500290E+01 0.72026755624E+01 0.66426889139E+01 0.57735842126E+01 0.50217815597E+01
 0.43907538088E+01 0.38744215757E+01 0.34621534144E+01 0.31431278379E+01 0.29090237571E+01
 0.27548002347E+01 0.26780816307E+01 0.26780598931E+01 0.27547336216E+01 0.29089186778E+01
 0.31430155947E+01 0.34620846988E+01 0.38744275383E+01 0.43908108173E+01 0.50218275952E+01
 0.57735758258E+01 0.66426341523E+01 0.76119262380E+01 0.86490484505E+01 0.97076833980E+01
 0.10731327278E+02 0.11657926852E+02 0.12424797518E+02 0.12974425619E+02 0.13261734141E+02
 0.13261675239E+02 0.12974279185E+02 0.12424634208E+02 0.11657811402E+02 0.10731282667E+02
 0.97076954780E+01 0.86490956672E+01 0.76119911450E+01 0.67327836674E+01 0.57735841769E+01
 0.49613571370E+01 0.42933122036E+01 0.37577507996E+01 0.33399449562E+01 0.30266051007E+01
 0.28081265717E+01 0.26788101710E+01 0.26359412298E+01 0.26787582659E+01 0.28080338273E+01
 0.30265027145E+01 0.33398795696E+01 0.37577528313E+01 0.42933631868E+01 0.49614002561E+01
 0.57735758258E+01 0.67327299229E+01 0.78272188364E+01 0.90276869214E+01 0.10287423882E+02
 0.11545648909E+02 0.12731804295E+02 0.13769760887E+02 0.14583083073E+02 0.15102919011E+02
 0.15281579922E+02 0.15102766354E+02 0.14582841811E+02 0.13769524835E+02 0.12731643971E+02
 0.11545579241E+02 0.10287421051E+02 0.90277255961E+01 0.78272803518E+01 0.66426784649E+01
 0.56275389622E+01 0.47858423788E+01 0.41074909550E+01 0.35751329949E+01 0.31704732554E+01
 0.28783899159E+01 0.26884949200E+01 0.25948250024E+01 0.25947969850E+01 0.26884208721E+01
 0.28783005463E+01 0.31704120936E+01 0.35751299089E+01 0.41075335188E+01 0.47858818734E+01
 0.56275345963E+01 0.66426341523E+01 0.78272188364E+01 0.91582998190E+01 0.10592815153E+02
 0.12070165873E+02 0.13515904557E+02 0.14844512700E+02 0.15958860367E+02 0.16761063512E+02
 0.17180437932E+02 0.17180360244E+02 0.16760855220E+02 0.15958590084E+02 0.14844266114E+02
 0.13515738613E+02 0.12070085158E+02 0.10592794912E+02 0.91583208599E+01 0.78272667201E+01
 0.63812550025E+01 0.53494830949E+01 0.45115317133E+01 0.38498472957E+01 0.33421513097E+01
 0.29676148390E+01 0.27102055999E+01 0.25594568278E+01 0.25097636376E+01 0.25594073389E+01
 0.27101328988E+01 0.29675597165E+01 0.33421437404E+01 0.38498813010E+01 0.45115678378E+01
 0.53494848182E+01 0.63812235134E+01 0.76119262380E+01 0.90276869214E+01 0.10592815153E+02
 0.12251406129E+02 0.13930547882E+02 0.15541069126E+02 0.16965527601E+02 0.18081096662E+02
 0.18791907682E+02 0.19036024267E+02 0.18791807013E+02 0.18080910414E+02 0.16965299603E+02
 0.15540860890E+02 0.13930399814E+02 0.12251320323E+02 0.10592776985E+02 0.90276886822E+01
 0.76119578126E+01 0.59736308995E+01 0.49651009320E+01 0.41625083298E+01 0.35417013321E+01
 0.30769103018E+01 0.27461790414E+01 0.25336555942E+01 0.24296228250E+01 0.24296001151E+01
 0.25336028692E+01 0.27461320989E+01 0.30768996753E+01 0.35417272674E+01 0.41625402791E+01
 0.49651068511E+01 0.59736093455E+01 0.72026215200E+01 0.86490484505E+01 0.10287423882E+02
 0.12070165873E+02 0.13930547882E+02 0.15782350470E+02 0.17497632850E+02 0.18932781232E+02
 0.19966762588E+02 0.20508755144E+02 0.20508739487E+02 0.19966701794E+02 0.18932658554E+02
 0.17497465798E+02 0.15782184573E+02 0.13930417044E+02 0.12070077337E+02 0.10287374728E+02
 0.86490387858E+01 0.72026420851E+01 0.54569417981E+01 0.45074935522E+01 0.37668016092E+01
 0.32059186486E+01 0.27975175137E+01 0.25200659539E+01 0.23589863837E+01 0.23061404151E+01
 0.23589551105E+01 0.25200292548E+01 0.27975048887E+01 0.32059366669E+01 0.37668277480E+01
 0.45074989232E+01 0.54569219337E+01 0.66382072385E+01 0.80596046909E+01 0.97076833980E+01
 0.11545648909E+02 0.13515904557E+02 0.15541069126E+02 0.17497632850E+02 0.19227298494E+02
 0.20587437522E+02 0.21459186154E+02 0.21759837048E+02 0.21459206818E+02 0.20587429017E+02
 0.19227220514E+02 0.17497498608E+02 0.15540925405E+02 0.13515785044E+02 0.11545563687E+02
 0.97076350322E+01 0.80595961977E+01 0.66382276221E+01 0.48743633475E+01 0.40120583446E+01
 0.33523404086E+01 0.28639364567E+01 0.25200424001E+01 0.23009762040E+01 0.21943627568E+01
 0.21943506833E+01 0.23009517901E+01 0.25200296889E+01 0.28639471255E+01 0.33523603249E+01
 0.40120606407E+01 0.48743380731E+01 0.59687636184E+01 0.73141333466E+01 0.89097919436E+01
 0.10731327278E+02 0.12731804295E+02 0.14844512700E+02 0.16965527601E+02 0.18932781232E+02
 0.20587437522E+02 0.21788160635E+02 0.22421338973E+02 0.22421374525E+02 0.21788225158E+02
 0.20587451744E+02 0.18932709147E+02 0.16965400520E+02 0.14844381854E+02 0.12731697073E+02
 0.10731251602E+02 0.89097549375E+01 0.73141392807E+01 0.59687956981E+01 0.42687046255E+01
 0.35116360732E+01 0.29435796507E+01 0.25335982249E+01 0.22572435223E+01 0.20977559563E+01
 0.20456091278E+01 0.20977440400E+01 0.22572339612E+01 0.25336038711E+01 0.29435948098E+01
 0.35116375576E+01 0.42686745629E+01 0.52477774570E+01 0.64761135377E+01 0.79653015342E+01
 0.97042878500E+01 0.11657926852E+02 0.13769760887E+02 0.15958860367E+02 0.18081096662E+02
 0.19966762588E+02 0.21459186154E+02 0.22421338973E+02 0.22754331853E+02 0.22421419752E+02
 0.21459267188E+02 0.19966767418E+02 0.18081018854E+02 0.15958745677E+02 0.13769648796E+02
 0.11657833865E+02 0.97042267417E+01 0.79652881162E+01 0.64761468812E+01 0.52478273957E+01
 0.36769606666E+01 0.30329350686E+01 0.25593962264E+01 0.22280566073E+01 0.20180992664E+01
 0.19162915236E+01 0.19162887049E+01 0.20180953733E+01 0.22280604810E+01 0.25594084080E+01
 0.30329395037E+01 0.36769340366E+01 0.45247005399E+01 0.56084643728E+01 0.69501212862E+01
 0.85520434179E+01 0.10392166146E+02 0.12424797518E+02 0.14583083073E+02 0.16761063512E+02
 0.18791907682E+02 0.20508755144E+02 0.21759837048E+02 0.22421374525E+02 0.22421419752E+02
 0.21759932123E+02 0.20508821777E+02 0.18791904154E+02 0.16761004413E+02 0.14582998849E+02
 0.12424707212E+02 0.10392090173E+02 0.85520108455E+01 0.69501488779E+01 0.56085315196E+01
 0.45247624604E+01 0.31268789694E+01 0.25947886788E+01 0.22124180410E+01 0.19556791446E+01
 0.18079825538E+01 0.17597845291E+01 0.18079836956E+01 0.19556840831E+01 0.22124288449E+01
 0.25947979079E+01 0.31268652708E+01 0.38393177395E+01 0.47656311187E+01 0.59345413499E+01
 0.73603664753E+01 0.90350230349E+01 0.10925245117E+02 0.12974425619E+02 0.15102919011E+02
 0.17180437932E+02 0.19036024267E+02 0.20508739487E+02 0.21459206818E+02 0.21788225158E+02
 0.21459267188E+02 0.20508821777E+02 0.19036086925E+02 0.17180462193E+02 0.15102902249E+02
 0.12974371055E+02 0.10925174617E+02 0.90349792602E+01 0.73603859398E+01 0.59346187886E+01
 0.47657204251E+01 0.38393741583E+01 0.26359381791E+01 0.22082093387E+01 0.19095330028E+01
 0.17206598960E+01 0.16292293806E+01 0.16292315844E+01 0.17206660353E+01 0.19095433567E+01
 0.22082228277E+01 0.26359418931E+01 0.32188719406E+01 0.39883193548E+01 0.49756394445E+01
 0.62038113486E+01 0.76780491830E+01 0.93793431667E+01 0.11263242057E+02 0.13261734141E+02
 0.15281579922E+02 0.17180360244E+02 0.18791807013E+02 0.19966701794E+02 0.20587429017E+02
 0.20587451744E+02 0.19966767418E+02 0.18791904154E+02 0.17180462193E+02 0.15281648725E+02
 0.13261741509E+02 0.11263198938E+02 0.93793003781E+01 0.76780611542E+01 0.62038911368E+01
 0.49757471674E+01 0.39884008825E+01 0.32189035196E+01 0.22123965838E+01 0.18777074612E+01
 0.16530773125E+01 0.15239644480E+01 0.14818626441E+01 0.15239691310E+01 0.16530858913E+01
 0.18777217772E+01 0.22124139772E+01 0.26780817675E+01 0.33015641922E+01 0.41128977971E+01
 0.51392648811E+01 0.63962594151E+01 0.78792984923E+01 0.95586353260E+01 0.11379082306E+02
 0.13261675239E+02 0.15102766354E+02 0.16760855220E+02 0.18080910414E+02 0.18932658554E+02
 0.19227220514E+02 0.18932709147E+02 0.18081018854E+02 0.16761004413E+02 0.15102902249E+02
 0.13261741509E+02 0.11379072003E+02 0.95585992920E+01 0.78793027182E+01 0.63963325042E+01
 0.51393776369E+01 0.41129939396E+01 0.33016083794E+01 0.26780808097E+01 0.18575530214E+01
 0.16031375835E+01 0.14421937556E+01 0.13643066970E+01 0.13643080227E+01 0.14421976742E+01
 0.16031471835E+01 0.18575734629E+01 0.22213671645E+01 0.27159918600E+01 0.33674506667E+01
 0.42027687612E+01 0.52433827647E+01 0.64966312465E+01 0.79482478595E+01 0.95586341513E+01
 0.11263192959E+02 0.12974279185E+02 0.14582841811E+02 0.15958590084E+02 0.16965299603E+02
 0.17497465798E+02 0.17497498608E+02 0.16965400520E+02 0.15958745677E+02 0.14582998849E+02
 0.12974371055E+02 0.11263198938E+02 0.95585992920E+01 0.79482420643E+01 0.64966918462E+01
 0.52434896630E+01 0.42028685472E+01 0.33675012929E+01 0.27159908619E+01 0.22213428693E+01
 0.15682642517E+01 0.13814534461E+01 0.12740284213E+01 0.12390007213E+01 0.12740267688E+01
 0.13814541994E+01 0.15682768599E+01 0.18461108384E+01 0.22312901939E+01 0.27446595992E+01
 0.34099929161E+01 0.42499093313E+01 0.52791368083E+01 0.64966424117E+01 0.78793192909E+01
 0.93793436399E+01 0.10925177887E+02 0.12424634208E+02 0.13769524835E+02 0.14844266114E+02
 0.15540860890E+02 0.15782184573E+02 0.15540925405E+02 0.14844381854E+02 0.13769648796E+02
 0.12424707212E+02 0.10925174617E+02 0.93793003781E+01 0.78793027182E+01 0.64966918462E+01
 0.52792365508E+01 0.42500091182E+01 0.34100481342E+01 0.27446597777E+01 0.22312592638E+01
 0.18460814592E+01 0.13390416475E+01 0.12080633659E+01 0.11446623500E+01 0.11446586550E+01
 0.12080559678E+01 0.13390416552E+01 0.15458122555E+01 0.18404401714E+01 0.22388128700E+01
 0.27600972832E+01 0.34247014645E+01 0.42499057738E+01 0.52433907702E+01 0.63962870547E+01
 0.76780836672E+01 0.90350333022E+01 0.10392119002E+02 0.11657811402E+02 0.12731643971E+02
 0.13515738613E+02 0.13930399814E+02 0.13930417044E+02 0.13515785044E+02 0.12731697073E+02
 0.11657833865E+02 0.10392090173E+02 0.90349792602E+01 0.76780611542E+01 0.63963325042E+01
 0.52434896630E+01 0.42500091182E+01 0.34247637892E+01 0.27601031408E+01 0.22387801352E+01
 0.18404021276E+01 0.15457925310E+01 0.11634879579E+01 0.10777773778E+01 0.10498267407E+01
 0.10777670841E+01 0.11634776421E+01 0.13124364419E+01 0.15334152876E+01 0.18382485927E+01
 0.22415958368E+01 0.27600886839E+01 0.34099767848E+01 0.42027577419E+01 0.51392734177E+01
 0.62038413783E+01 0.73604042530E+01 0.85520673542E+01 0.97042795756E+01 0.10731282667E+02
 0.11545579241E+02 0.12070085158E+02 0.12251320323E+02 0.12070077337E+02 0.11545563687E+02
 0.10731251602E+02 0.97042267417E+01 0.85520108455E+01 0.73603859398E+01 0.62038911368E+01
 0.51393776369E+01 0.42028685472E+01 0.34100481342E+01 0.27601031408E+01 0.22415669817E+01
 0.18382064119E+01 0.15333868754E+01 0.13124315560E+01 0.10351925411E+01 0.98549295561E+00
 0.98548605850E+00 0.10351780568E+01 0.11378345911E+01 0.12996751043E+01 0.15294758632E+01
 0.18382468843E+01 0.22388027163E+01 0.27446380623E+01 0.33674231203E+01 0.41128769471E+01
 0.49756364285E+01 0.59345586253E+01 0.69501521023E+01 0.79653345352E+01 0.89098170096E+01
 0.97076954780E+01 0.10287421051E+02 0.10592794912E+02 0.10592776985E+02 0.10287374728E+02
 0.97076350322E+01 0.89097549375E+01 0.79652881162E+01 0.69501488779E+01 0.59346187886E+01
 0.49757471674E+01 0.41129939396E+01 0.33675012929E+01 0.27446597777E+01 0.22387801352E+01
 0.18382064119E+01 0.15294425509E+01 0.12996628183E+01 0.11378421006E+01 0.94834741074E+00
 0.92675992823E+00 0.94833580760E+00 0.10145232987E+01 0.11294837639E+01 0.12996793778E+01
 0.15334191534E+01 0.18404380558E+01 0.22312778640E+01 0.27159676687E+01 0.33015307677E+01
 0.39882844677E+01 0.47656057611E+01 0.56084581553E+01 0.64761295573E+01 0.73141677942E+01
 0.80596500290E+01 0.86490956672E+01 0.90277255961E+01 0.91583208599E+01 0.90276886822E+01
 0.86490387858E+01 0.80595961977E+01 0.73141392807E+01 0.64761468812E+01 0.56085315196E+01
 0.47657204251E+01 0.39884008825E+01 0.33016083794E+01 0.27159908619E+01 0.22312592638E+01
 0.18404021276E+01 0.15333868754E+01 0.12996628183E+01 0.11294854866E+01 0.10145363523E+01
 0.89828044152E+00 0.89827584724E+00 0.93620777628E+00 0.10145288479E+01 0.11378446667E+01
 0.13124478131E+01 0.15458216468E+01 0.18461158945E+01 0.22213649626E+01 0.26780667151E+01
 0.32188386165E+01 0.38392687467E+01 0.45246501467E+01 0.52477446990E+01 0.59687613401E+01
 0.66382370684E+01 0.72026755624E+01 0.76119911450E+01 0.78272803518E+01 0.78272667201E+01
 0.76119578126E+01 0.72026420851E+01 0.66382276221E+01 0.59687956981E+01 0.52478273957E+01
 0.45247624604E+01 0.38393741583E+01 0.32189035196E+01 0.26780808097E+01 0.22213428693E+01
 0.18460814592E+01 0.15457925310E+01 0.13124315560E+01 0.11378421006E+01 0.10145363523E+01
 0.93621791638E+00 0.89827777592E+00 0.92676306693E+00 0.98549312949E+00 0.10777738518E+01
 0.12080618572E+01 0.13814636246E+01 0.16031666440E+01 0.18777540715E+01 0.22082607222E+01
 0.25948232297E+01 0.30329326342E+01 0.35115924219E+01 0.40119914170E+01 0.45074317671E+01
 0.49650626253E+01 0.53494675768E+01 0.56275352732E+01 0.57735835698E+01 0.57735841851E+01
 0.56275396539E+01 0.53494841266E+01 0.49651018612E+01 0.45074940032E+01 0.40120580205E+01
 0.35116349194E+01 0.30329334666E+01 0.25947872581E+01 0.22082085423E+01 0.18777074020E+01
 0.16031382116E+01 0.13814545979E+01 0.12080646868E+01 0.10777784764E+01 0.98549369393E+00
 0.92676040498E+00 0.89827613516E+00 0.92676306693E+00 0.96329494675E+00 0.10265005485E+01
 0.11195858223E+01 0.12465102238E+01 0.14115137771E+01 0.16185406690E+01 0.18705084833E+01
 0.21683450743E+01 0.25097680969E+01 0.28879358307E+01 0.32903034689E+01 0.36981713497E+01
 0.40873972608E+01 0.44305055299E+01 0.47000142243E+01 0.48723798702E+01 0.49317077338E+01
 0.48723840482E+01 0.47000262292E+01 0.44305305032E+01 0.40874349392E+01 0.36982096229E+01
 0.32903227876E+01 0.28879234235E+01 0.25097277554E+01 0.21682933872E+01 0.18704635814E+01
 0.16185139326E+01 0.14115070449E+01 0.12465164308E+01 0.11195932298E+01 0.10265005034E+01
 0.96328763034E+00 0.92675589150E+00 0.91482289435E+00 0.98549312949E+00 0.10265005485E+01
 0.10907804197E+01 0.11813206018E+01 0.13015530623E+01 0.14548937737E+01 0.16441527495E+01
 0.18707835899E+01 0.21339676994E+01 0.24296074717E+01 0.27494192928E+01 0.30804209574E+01
 0.34051376726E+01 0.37027609645E+01 0.39512799620E+01 0.41303157088E+01 0.42241270080E+01
 0.42241276234E+01 0.41303192133E+01 0.39512891254E+01 0.37027748929E+01 0.34051488878E+01
 0.30804187123E+01 0.27493973706E+01 0.24295693748E+01 0.21339246634E+01 0.18707482917E+01
 0.16441339943E+01 0.14548935271E+01 0.13015653298E+01 0.11813338516E+01 0.10907845305E+01
 0.10264936506E+01 0.98548229869E+00 0.96555993349E+00 0.96556500337E+00 0.10777738518E+01
 0.11195858223E+01 0.11813206018E+01 0.12657472134E+01 0.13758227364E+01 0.15142311113E+01
 0.16827883616E+01 0.18817197478E+01 0.21088681133E+01 0.23589623675E+01 0.26231351775E+01
 0.28888995912E+01 0.31407564200E+01 0.33615049101E+01 0.35341752274E+01 0.36443125940E+01
 0.36821717879E+01 0.36443111265E+01 0.35341740231E+01 0.33615034547E+01 0.31407504173E+01
 0.28888848411E+01 0.26231119586E+01 0.23589354304E+01 0.21088437388E+01 0.18817038161E+01
 0.16827854488E+01 0.15142421979E+01 0.13758426723E+01 0.12657660389E+01 0.11813294534E+01
 0.11195825962E+01 0.10777639628E+01 0.10536434977E+01 0.10457738793E+01 0.10536514748E+01
 0.12080618572E+01 0.12465102238E+01 0.13015530623E+01 0.13758227364E+01 0.14719008736E+01
 0.15918552542E+01 0.17366711772E+01 0.19056190689E+01 0.20956516930E+01 0.23009622292E+01
 0.25128456234E+01 0.27199833975E+01 0.29092216248E+01 0.30668393408E+01 0.31802011737E+01
 0.32395478461E+01 0.32395468224E+01 0.31801983037E+01 0.30668338802E+01 0.29092112020E+01
 0.27199674949E+01 0.25128285551E+01 0.23009504603E+01 0.20956489057E+01 0.19056255202E+01
 0.17366862360E+01 0.15918773449E+01 0.14719251235E+01 0.13758417224E+01 0.13015614824E+01
 0.12465083038E+01 0.12080543372E+01 0.11838794813E+01 0.11722555426E+01 0.11722584850E+01
 0.11838868156E+01 0.13814636246E+01 0.14115137771E+01 0.14548937737E+01 0.15142311113E+01
 0.15918552542E+01 0.16893540658E+01 0.18070808651E+01 0.19436702821E+01 0.20956516828E+01
 0.22572563687E+01 0.24205032350E+01 0.25756239333E+01 0.27118573158E+01 0.28185941085E+01
 0.28867621152E+01 0.29102119724E+01 0.28867625210E+01 0.28185925233E+01 0.27118509866E+01
 0.25756134126E+01 0.24204939987E+01 0.22572553955E+01 0.20956621579E+01 0.19436903992E+01
 0.18071064966E+01 0.16893802890E+01 0.15918761563E+01 0.15142416477E+01 0.14548934523E+01
 0.14115071120E+01 0.13814561788E+01 0.13621933953E+01 0.13515885501E+01 0.13482210079E+01
 0.13515910869E+01 0.13621986498E+01 0.16031666440E+01 0.16185406690E+01 0.16441527495E+01
 0.16827883616E+01 0.17366711772E+01 0.18070808651E+01 0.18939854827E+01 0.19957342907E+01
 0.21088681009E+01 0.22280990584E+01 0.23465060466E+01 0.24559901532E+01 0.25480211902E+01
 0.26146531280E+01 0.26496801511E+01 0.26496823203E+01 0.26146570482E+01 0.25480220302E+01
 0.24559864016E+01 0.23465015000E+01 0.22280996571E+01 0.21088775002E+01 0.19957521955E+01
 0.18940081250E+01 0.18071015791E+01 0.17366821464E+01 0.16827851168E+01 0.16441383470E+01
 0.16185240881E+01 0.16031558483E+01 0.15950621093E+01 0.15914851823E+01 0.15902836999E+01
 0.15902829268E+01 0.15914844475E+01 0.15950654328E+01 0.18777540715E+01 0.18705084833E+01
 0.18707835899E+01 0.18817197478E+01 0.19056190689E+01 0.19436702821E+01 0.19957342907E+01
 0.20602051357E+01 0.21339677165E+01 0.22124752529E+01 0.22899840458E+01 0.23599997932E+01
 0.24159714670E+01 0.24521903501E+01 0.24647332926E+01 0.24521968683E+01 0.24159789894E+01
 0.23600029345E+01 0.22899817817E+01 0.22124702995E+01 0.21339640990E+01 0.20602064981E+01
 0.19957413363E+01 0.19436779927E+01 0.19056184481E+01 0.18817050857E+01 0.18707584549E+01
 0.18704836262E+01 0.18777393117E+01 0.18888833259E+01 0.19002145770E+01 0.19085020420E+01
 0.19115261780E+01 0.19084965198E+01 0.19002090011E+01 0.18888854823E+01 0.22082607222E+01
 0.21683450743E+01 0.21339676994E+01 0.21088681133E+01 0.20956516930E+01 0.20956516828E+01
 0.21088681009E+01 0.21339677165E+01 0.21683451304E+01 0.22082607937E+01 0.22491006127E+01
 0.22858177728E+01 0.23135782936E+01 0.23285337320E+01 0.23285386874E+01 0.23135895057E+01
 0.22858270959E+01 0.22491006864E+01 0.22082486554E+01 0.21683237230E+01 0.21339451825E+01
 0.21088524521E+01 0.20956434091E+01 0.20956429397E+01 0.21088512426E+01 0.21339437463E+01
 0.21683226618E+01 0.22082483857E+01 0.22491012783E+01 0.22858283100E+01 0.23135909548E+01
 0.23285399990E+01 0.23285346618E+01 0.23135787836E+01 0.22858179259E+01 0.22491005908E+01
 0.25948232297E+01 0.25097680969E+01 0.24296074717E+01 0.23589623675E+01 0.23009622292E+01
 0.22572563687E+01 0.22280990584E+01 0.22124752529E+01 0.22082607937E+01 0.22124317279E+01