   2   2   0   0
  0.2001288E+02  0.3839590E-09  0.3839590E-09  0.3839590E-09  0.5000000E-15
  1.000000000000000E-004
  CAR 
 unknown system                          
     17.56566717     -8.13172806  301      6.10613294      1.00000000
     -8.132  0.0000E+00  0.0000E+00
     -8.046  0.0000E+00  0.0000E+00
     -7.960  0.0000E+00  0.0000E+00
     -7.875  0.0000E+00  0.0000E+00
     -7.789  0.0000E+00  0.0000E+00
     -7.703  0.0000E+00  0.0000E+00
     -7.618  0.0000E+00  0.0000E+00
     -7.532  0.0000E+00  0.0000E+00
     -7.446  0.0000E+00  0.0000E+00
     -7.361  0.0000E+00  0.0000E+00
     -7.275  0.3895E-18  0.3337E-19
     -7.189  0.4376E-16  0.3781E-17
     -7.104  0.3723E-14  0.3227E-15
     -7.018  0.2204E-12  0.1920E-13
     -6.933  0.9187E-11  0.8062E-12
     -6.847  0.2713E-09  0.2405E-10
     -6.761  0.5722E-08  0.5142E-09
     -6.676  0.8710E-07  0.7975E-08
     -6.590  0.9681E-06  0.9090E-07
     -6.504  0.7946E-05  0.7716E-06
     -6.419  0.4857E-04  0.4932E-05
     -6.333  0.2219E-03  0.2394E-04
     -6.247  0.7597E-03  0.8902E-04
     -6.162  0.1963E-02  0.2571E-03
     -6.076  0.3922E-02  0.5931E-03
     -5.990  0.6387E-02  0.1140E-02
     -5.905  0.9097E-02  0.1919E-02
     -5.819  0.1180E-01  0.2931E-02
     -5.733  0.1384E-01  0.4116E-02
     -5.648  0.1487E-01  0.5390E-02
     -5.562  0.1604E-01  0.6764E-02
     -5.476  0.1848E-01  0.8347E-02
     -5.391  0.2118E-01  0.1016E-01
     -5.305  0.2244E-01  0.1208E-01
     -5.219  0.2212E-01  0.1398E-01
     -5.134  0.2154E-01  0.1582E-01
     -5.048  0.2268E-01  0.1777E-01
     -4.962  0.2642E-01  0.2003E-01
     -4.877  0.3055E-01  0.2265E-01
     -4.791  0.3207E-01  0.2539E-01
     -4.705  0.3089E-01  0.2804E-01
     -4.620  0.2888E-01  0.3051E-01
     -4.534  0.2784E-01  0.3290E-01
     -4.448  0.2997E-01  0.3546E-01
     -4.363  0.3601E-01  0.3855E-01
     -4.277  0.4272E-01  0.4221E-01
     -4.191  0.4556E-01  0.4611E-01
     -4.106  0.4363E-01  0.4985E-01
     -4.020  0.3994E-01  0.5327E-01
     -3.934  0.3874E-01  0.5659E-01
     -3.849  0.4327E-01  0.6029E-01
     -3.763  0.5318E-01  0.6485E-01
     -3.678  0.6229E-01  0.7019E-01
     -3.592  0.6351E-01  0.7563E-01
     -3.506  0.5711E-01  0.8052E-01
     -3.421  0.4900E-01  0.8472E-01
     -3.335  0.4364E-01  0.8845E-01
     -3.249  0.4342E-01  0.9217E-01
     -3.164  0.4802E-01  0.9629E-01
     -3.078  0.5164E-01  0.1007E+00
     -2.992  0.4822E-01  0.1048E+00
     -2.907  0.3960E-01  0.1082E+00
     -2.821  0.3301E-01  0.1111E+00
     -2.735  0.3251E-01  0.1138E+00
     -2.650  0.3614E-01  0.1169E+00
     -2.564  0.3825E-01  0.1202E+00
     -2.478  0.3461E-01  0.1232E+00
     -2.393  0.2673E-01  0.1255E+00
     -2.307  0.1982E-01  0.1272E+00
     -2.221  0.1692E-01  0.1286E+00
     -2.136  0.1693E-01  0.1301E+00
     -2.050  0.1692E-01  0.1315E+00
     -1.964  0.1526E-01  0.1328E+00
     -1.879  0.1270E-01  0.1339E+00
     -1.793  0.1089E-01  0.1348E+00
     -1.707  0.1035E-01  0.1357E+00
     -1.622  0.1071E-01  0.1366E+00
     -1.536  0.1261E-01  0.1377E+00
     -1.450  0.1785E-01  0.1393E+00
     -1.365  0.2726E-01  0.1416E+00
     -1.279  0.3851E-01  0.1449E+00
     -1.193  0.4751E-01  0.1490E+00
     -1.108  0.5390E-01  0.1536E+00
     -1.022  0.6172E-01  0.1589E+00
     -0.936  0.7132E-01  0.1650E+00
     -0.851  0.7681E-01  0.1716E+00
     -0.765  0.7476E-01  0.1780E+00
     -0.679  0.6831E-01  0.1838E+00
     -0.594  0.6037E-01  0.1890E+00
     -0.508  0.5085E-01  0.1933E+00
     -0.423  0.4226E-01  0.1970E+00
     -0.337  0.3923E-01  0.2003E+00
     -0.251  0.4067E-01  0.2038E+00
     -0.166  0.4024E-01  0.2072E+00
     -0.080  0.3584E-01  0.2103E+00
      0.006  0.3155E-01  0.2130E+00
      0.091  0.2999E-01  0.2156E+00
      0.177  0.2892E-01  0.2181E+00
      0.263  0.2647E-01  0.2203E+00
      0.348  0.2493E-01  0.2225E+00
      0.434  0.2626E-01  0.2247E+00
      0.520  0.2775E-01  0.2271E+00
      0.605  0.2592E-01  0.2293E+00
      0.691  0.2160E-01  0.2312E+00
      0.777  0.1858E-01  0.2328E+00
      0.862  0.1910E-01  0.2344E+00
      0.948  0.2149E-01  0.2362E+00
      1.034  0.2147E-01  0.2381E+00
      1.119  0.1700E-01  0.2395E+00
      1.205  0.1164E-01  0.2405E+00
      1.291  0.1163E-01  0.2415E+00
      1.376  0.2060E-01  0.2433E+00
      1.462  0.3641E-01  0.2464E+00
      1.548  0.5202E-01  0.2509E+00
      1.633  0.6112E-01  0.2561E+00
      1.719  0.6308E-01  0.2615E+00
      1.805  0.6258E-01  0.2669E+00
      1.890  0.6571E-01  0.2725E+00
      1.976  0.7369E-01  0.2788E+00
      2.062  0.7974E-01  0.2856E+00
      2.147  0.7686E-01  0.2922E+00
      2.233  0.6780E-01  0.2980E+00
      2.319  0.6141E-01  0.3033E+00
      2.404  0.6151E-01  0.3086E+00
      2.490  0.6608E-01  0.3142E+00
      2.576  0.7335E-01  0.3205E+00
      2.661  0.8154E-01  0.3275E+00
      2.747  0.8629E-01  0.3349E+00
      2.832  0.8503E-01  0.3422E+00
      2.918  0.8284E-01  0.3493E+00
      3.004  0.8794E-01  0.3568E+00
      3.089  0.9995E-01  0.3653E+00
      3.175  0.1078E+00  0.3746E+00
      3.261  0.1030E+00  0.3834E+00
      3.346  0.9157E-01  0.3912E+00
      3.432  0.8649E-01  0.3987E+00
      3.518  0.9000E-01  0.4064E+00
      3.603  0.9219E-01  0.4143E+00
      3.689  0.8695E-01  0.4217E+00
      3.775  0.8098E-01  0.4286E+00
      3.860  0.8347E-01  0.4358E+00
      3.946  0.9248E-01  0.4437E+00
      4.032  0.9740E-01  0.4521E+00
      4.117  0.9295E-01  0.4600E+00
      4.203  0.8447E-01  0.4673E+00
      4.289  0.7899E-01  0.4740E+00
      4.374  0.7572E-01  0.4805E+00
      4.460  0.6991E-01  0.4865E+00
      4.546  0.6305E-01  0.4919E+00
      4.631  0.6047E-01  0.4971E+00
      4.717  0.6099E-01  0.5023E+00
      4.803  0.5843E-01  0.5073E+00
      4.888  0.5195E-01  0.5118E+00
      4.974  0.4578E-01  0.5157E+00
      5.060  0.4092E-01  0.5192E+00
      5.145  0.3492E-01  0.5222E+00
      5.231  0.2793E-01  0.5246E+00
      5.317  0.2241E-01  0.5265E+00
      5.402  0.1872E-01  0.5281E+00
      5.488  0.1547E-01  0.5294E+00
      5.574  0.1269E-01  0.5305E+00
      5.659  0.1094E-01  0.5314E+00
      5.745  0.9280E-02  0.5322E+00
      5.831  0.6693E-02  0.5328E+00
      5.916  0.3773E-02  0.5331E+00
      6.002  0.1643E-02  0.5333E+00
      6.087  0.6193E-03  0.5333E+00
      6.173  0.4677E-03  0.5334E+00
      6.259  0.1087E-02  0.5335E+00
      6.344  0.2604E-02  0.5337E+00
      6.430  0.5096E-02  0.5341E+00
      6.516  0.8472E-02  0.5348E+00
      6.601  0.1242E-01  0.5359E+00
      6.687  0.1619E-01  0.5373E+00
      6.773  0.1890E-01  0.5389E+00
      6.858  0.2039E-01  0.5407E+00
      6.944  0.2162E-01  0.5425E+00
      7.030  0.2454E-01  0.5446E+00
      7.115  0.3033E-01  0.5472E+00
      7.201  0.3736E-01  0.5504E+00
      7.287  0.4358E-01  0.5541E+00
      7.372  0.5013E-01  0.5584E+00
      7.458  0.5849E-01  0.5634E+00
      7.544  0.6560E-01  0.5691E+00
      7.629  0.6757E-01  0.5749E+00
      7.715  0.6593E-01  0.5805E+00
      7.801  0.6610E-01  0.5862E+00
      7.886  0.7190E-01  0.5923E+00
      7.972  0.8318E-01  0.5994E+00
      8.058  0.9508E-01  0.6076E+00
      8.143  0.9998E-01  0.6162E+00
      8.229  0.9486E-01  0.6243E+00
      8.315  0.8586E-01  0.6316E+00
      8.400  0.8191E-01  0.6387E+00
      8.486  0.8483E-01  0.6459E+00
      8.572  0.8827E-01  0.6535E+00
      8.657  0.8658E-01  0.6609E+00
      8.743  0.8145E-01  0.6679E+00
      8.829  0.7916E-01  0.6747E+00
      8.914  0.8512E-01  0.6819E+00
      9.000  0.1009E+00  0.6906E+00
      9.086  0.1215E+00  0.7010E+00
      9.171  0.1355E+00  0.7126E+00
      9.257  0.1349E+00  0.7242E+00
      9.343  0.1256E+00  0.7349E+00
      9.428  0.1192E+00  0.7451E+00
      9.514  0.1173E+00  0.7552E+00
      9.599  0.1122E+00  0.7648E+00
      9.685  0.9854E-01  0.7732E+00
      9.771  0.8070E-01  0.7801E+00
      9.856  0.6809E-01  0.7860E+00
      9.942  0.6518E-01  0.7915E+00
     10.028  0.6926E-01  0.7975E+00
     10.113  0.7445E-01  0.8039E+00
     10.199  0.7600E-01  0.8104E+00
     10.285  0.7573E-01  0.8169E+00
     10.370  0.8260E-01  0.8239E+00
     10.456  0.1006E+00  0.8325E+00
     10.542  0.1186E+00  0.8427E+00
     10.627  0.1220E+00  0.8531E+00
     10.713  0.1110E+00  0.8627E+00
     10.799  0.9771E-01  0.8710E+00
     10.884  0.8870E-01  0.8786E+00
     10.970  0.8068E-01  0.8855E+00
     11.056  0.7039E-01  0.8916E+00
     11.141  0.5975E-01  0.8967E+00
     11.227  0.5215E-01  0.9011E+00
     11.313  0.4982E-01  0.9054E+00
     11.398  0.5439E-01  0.9101E+00
     11.484  0.6484E-01  0.9156E+00
     11.570  0.7476E-01  0.9220E+00
     11.655  0.7619E-01  0.9286E+00
     11.741  0.6914E-01  0.9345E+00
     11.827  0.6308E-01  0.9399E+00
     11.912  0.6549E-01  0.9455E+00
     11.998  0.7411E-01  0.9518E+00
     12.084  0.8271E-01  0.9589E+00
     12.169  0.8728E-01  0.9664E+00
     12.255  0.8473E-01  0.9737E+00
     12.341  0.7391E-01  0.9800E+00
     12.426  0.6048E-01  0.9852E+00
     12.512  0.5255E-01  0.9897E+00
     12.598  0.5042E-01  0.9940E+00
     12.683  0.4799E-01  0.9981E+00
     12.769  0.4246E-01  0.1002E+01
     12.854  0.3676E-01  0.1005E+01
     12.940  0.3543E-01  0.1008E+01
     13.026  0.3969E-01  0.1011E+01
     13.111  0.4487E-01  0.1015E+01
     13.197  0.4465E-01  0.1019E+01
     13.283  0.3844E-01  0.1022E+01
     13.368  0.3265E-01  0.1025E+01
     13.454  0.3441E-01  0.1028E+01
     13.540  0.4382E-01  0.1032E+01
     13.625  0.5295E-01  0.1036E+01
     13.711  0.5483E-01  0.1041E+01
     13.797  0.5116E-01  0.1045E+01
     13.882  0.4792E-01  0.1049E+01
     13.968  0.4553E-01  0.1053E+01
     14.054  0.3881E-01  0.1057E+01
     14.139  0.2629E-01  0.1059E+01
     14.225  0.1326E-01  0.1060E+01
     14.311  0.4837E-02  0.1061E+01
     14.396  0.1259E-02  0.1061E+01
     14.482  0.2320E-03  0.1061E+01
     14.568  0.3024E-04  0.1061E+01
     14.653  0.4267E-05  0.1061E+01
     14.739  0.1508E-04  0.1061E+01
     14.825  0.1030E-03  0.1061E+01
     14.910  0.5044E-03  0.1061E+01
     14.996  0.1760E-02  0.1061E+01
     15.082  0.4431E-02  0.1061E+01
     15.167  0.8174E-02  0.1062E+01
     15.253  0.1131E-01  0.1063E+01
     15.339  0.1215E-01  0.1064E+01
     15.424  0.1066E-01  0.1065E+01
     15.510  0.8212E-02  0.1066E+01
     15.596  0.5875E-02  0.1066E+01
     15.681  0.3803E-02  0.1066E+01
     15.767  0.2032E-02  0.1067E+01
     15.853  0.8263E-03  0.1067E+01
     15.938  0.2441E-03  0.1067E+01
     16.024  0.5126E-04  0.1067E+01
     16.109  0.7581E-05  0.1067E+01
     16.195  0.7860E-06  0.1067E+01
     16.281  0.5701E-07  0.1067E+01
     16.366  0.2889E-08  0.1067E+01
     16.452  0.1022E-09  0.1067E+01
     16.538  0.2520E-11  0.1067E+01
     16.623  0.4334E-13  0.1067E+01
     16.709  0.5188E-15  0.1067E+01
     16.795  0.4674E-17  0.1067E+01
     16.880  0.0000E+00  0.1067E+01
     16.966  0.0000E+00  0.1067E+01
     17.052  0.0000E+00  0.1067E+01
     17.137  0.0000E+00  0.1067E+01
     17.223  0.0000E+00  0.1067E+01
     17.309  0.0000E+00  0.1067E+01
     17.394  0.0000E+00  0.1067E+01
     17.480  0.0000E+00  0.1067E+01
     17.566  0.0000E+00  0.1067E+01
