    2    2   15    1
  0.2001288E+02  0.3839590E-09  0.3839590E-09  0.3839590E-09  0.5000000E-15
  1.000000000000000E-004
  CAR 
 unknown system                          
      8     60      8
 
  0.6250000E-01  0.6250000E-01  0.6250000E-01  0.3906250E-02
    1       -6.080682   1.000000
    2        5.309175   1.000000
    3        5.755005   0.997088
    4        5.755005   0.997088
    5        8.472374   0.000000
    6        8.533313   0.000000
    7        8.533313   0.000000
    8        9.585988   0.000000
 
  0.1875000E+00  0.6250000E-01  0.6250000E-01  0.1171875E-01
    1       -5.809424   1.000000
    2        3.796647   1.000000
    3        4.933046   1.000000
    4        5.636003   0.999840
    5        8.554207   0.000000
    6        8.779267   0.000000
    7        9.087640   0.000000
    8       11.013490   0.000000
 
  0.3125000E+00  0.6250000E-01  0.6250000E-01  0.1171875E-01
    1       -5.154028   1.000000
    2        1.546454   1.000000
    3        4.442227   1.000000
    4        5.167798   1.000000
    5        8.117682   0.000000
    6        9.270035   0.000000
    7        9.562230   0.000000
    8       12.491945   0.000000
 
  0.4375000E+00  0.6250000E-01  0.6250000E-01  0.1171875E-01
    1       -4.237325   1.000000
    2       -0.366230   1.000000
    3        4.225534   1.000000
    4        4.755190   1.000000
    5        7.803839   0.000000
    6        9.320833   0.000000
    7        9.334097   0.000000
    8       13.685152   0.000000
 
 -0.4375000E+00  0.6250000E-01  0.6250000E-01  0.1171875E-01
    1       -3.778577   1.000000
    2       -1.079788   1.000000
    3        4.278162   1.000000
    4        4.532931   1.000000
    5        7.721616   0.000000
    6        9.121572   0.000000
    7        9.397234   0.000000
    8       13.733749   0.000000
 
 -0.3125000E+00  0.6250000E-01  0.6250000E-01  0.1171875E-01
    1       -4.551897   1.000000
    2        0.199887   1.000000
    3        4.552343   1.000000
    4        4.569274   1.000000
    5        7.887127   0.000000
    6        9.135859   0.000000
    7        9.665516   0.000000
    8       12.812170   0.000000
 
 -0.1875000E+00  0.6250000E-01  0.6250000E-01  0.1171875E-01
    1       -5.411152   1.000000
    2        2.284588   1.000000
    3        4.830451   1.000000
    4        5.038699   1.000000
    5        8.230886   0.000000
    6        9.020558   0.000000
    7        9.740062   0.000000
    8       11.634449   0.000000
 
 -0.6250000E-01  0.6250000E-01  0.6250000E-01  0.1171875E-01
    1       -5.944341   1.000000
    2        4.557818   1.000000
    3        5.319105   1.000000
    4        5.486918   0.999998
    5        8.243977   0.000000
    6        8.861294   0.000000
    7        9.124806   0.000000
    8       10.296498   0.000000
 
  0.1875000E+00  0.1875000E+00  0.6250000E-01  0.1171875E-01
    1       -5.672895   1.000000
    2        3.665606   1.000000
    3        4.750827   1.000000
    4        4.843443   1.000000
    5        7.813944   0.000000
    6        9.640449   0.000000
    7        9.995293   0.000000
    8       10.540383   0.000000
 
  0.3125000E+00  0.1875000E+00  0.6250000E-01  0.2343750E-01
    1       -5.141800   1.000000
    2        2.150888   1.000000
    3        3.767834   1.000000
    4        4.579503   1.000000
    5        7.986161   0.000000
    6        9.759524   0.000000
    7       10.293400   0.000000
    8       10.800962   0.000000
 
  0.4375000E+00  0.1875000E+00  0.6250000E-01  0.2343750E-01
    1       -4.284657   1.000000
    2        0.263179   1.000000
    3        3.274125   1.000000
    4        4.159434   1.000000
    5        8.190384   0.000000
    6        9.647349   0.000000
    7       10.829457   0.000000
    8       11.070030   0.000000
 
 -0.4375000E+00  0.1875000E+00  0.6250000E-01  0.2343750E-01
    1       -3.507111   1.000000
    2       -0.969002   1.000000
    3        2.983987   1.000000
    4        4.063914   1.000000
    5        8.271204   0.000000
    6        9.315877   0.000000
    7       10.663569   0.000000
    8       13.132082   0.000000
 
 -0.3125000E+00  0.1875000E+00  0.6250000E-01  0.2343750E-01
    1       -3.975280   1.000000
    2       -0.265172   1.000000
    3        2.905845   1.000000
    4        4.354741   1.000000
    5        8.573509   0.000000
    6        9.211897   0.000000
    7       10.611813   0.000000
    8       12.369244   0.000000
 
 -0.1875000E+00  0.1875000E+00  0.6250000E-01  0.2343750E-01
    1       -4.890371   1.000000
    2        1.491251   1.000000
    3        3.202767   1.000000
    4        4.872489   1.000000
    5        8.880953   0.000000
    6        9.179961   0.000000
    7       10.492949   0.000000
    8       10.947902   0.000000
 
 -0.6250000E-01  0.1875000E+00  0.6250000E-01  0.2343750E-01
    1       -5.540876   1.000000
    2        2.977304   1.000000
    3        4.346837   1.000000
    4        5.253691   1.000000
    5        8.394654   0.000000
    6        9.115226   0.000000
    7        9.803627   0.000000
    8       11.056383   0.000000
 
  0.3125000E+00  0.3125000E+00  0.6250000E-01  0.1171875E-01
    1       -4.736537   1.000000
    2        1.655792   1.000000
    3        3.623289   1.000000
    4        3.747328   1.000000
    5        6.988491   0.000000
    6        8.657202   0.000000
    7       11.893547   0.000000
    8       12.026985   0.000000
 
  0.4375000E+00  0.3125000E+00  0.6250000E-01  0.2343750E-01
    1       -3.974504   1.000000
    2        0.405130   1.000000
    3        2.822157   1.000000
    4        3.393489   1.000000
    5        7.305884   0.000000
    6        8.494508   0.000000
    7       11.853378   0.000000
    8       13.038586   0.000000
 
 -0.4375000E+00  0.3125000E+00  0.6250000E-01  0.2343750E-01
    1       -3.060820   1.000000
    2       -0.813483   1.000000
    3        1.968429   1.000000
    4        3.361604   1.000000
    5        7.540320   0.000000
    6       10.176920   0.000000
    7       11.418505   0.000000
    8       12.949008   0.000000
 
 -0.3125000E+00  0.3125000E+00  0.6250000E-01  0.2343750E-01
    1       -3.131957   1.000000
    2       -0.719080   1.000000
    3        1.607184   1.000000
    4        3.712434   1.000000
    5        7.954230   0.000000
    6       10.933009   0.000000
    7       12.268720   0.000000
    8       12.526616   0.000000
 
 -0.1875000E+00  0.3125000E+00  0.6250000E-01  0.2343750E-01
    1       -4.043421   1.000000
    2        0.240028   1.000000
    3        2.225140   1.000000
    4        4.308824   1.000000
    5        8.610808   0.000000
    6        9.816308   0.000000
    7       11.278996   0.000000
    8       11.536717   0.000000
 
 -0.6250000E-01  0.3125000E+00  0.6250000E-01  0.2343750E-01
    1       -4.775230   1.000000
    2        0.867906   1.000000
    3        3.892689   1.000000
    4        4.772744   1.000000
    5        8.362132   0.000000
    6        9.177286   0.000000
    7       10.038764   0.000000
    8       11.733270   0.000000
 
  0.4375000E+00  0.4375000E+00  0.6250000E-01  0.1171875E-01
    1       -3.313057   1.000000
    2       -0.466269   1.000000
    3        2.922994   1.000000
    4        3.146089   1.000000
    5        6.584566   0.000941
    6        7.293756   0.000000
    7       14.217138   0.000000
    8       14.224885   0.000000
 
 -0.4375000E+00  0.4375000E+00  0.6250000E-01  0.2343750E-01
    1       -2.389811   1.000000
    2       -1.467222   1.000000
    3        2.351919   1.000000
    4        2.896185   1.000000
    5        7.018263   0.000000
    6        7.759071   0.000000
    7       13.955485   0.000000
    8       15.007353   0.000000
 
 -0.3125000E+00  0.4375000E+00  0.6250000E-01  0.2343750E-01
    1       -2.482564   1.000000
    2       -1.303438   1.000000
    3        1.606494   1.000000
    4        3.216203   1.000000
    5        7.389602   0.000000
    6       10.022425   0.000000
    7       12.407843   0.000000
    8       13.575858   0.000000
 
 -0.1875000E+00  0.4375000E+00  0.6250000E-01  0.2343750E-01
    1       -3.248250   1.000000
    2       -0.912604   1.000000
    3        2.184394   1.000000
    4        3.827830   1.000000
    5        8.079940   0.000000
    6       10.074438   0.000000
    7       11.640276   0.000000
    8       12.883113   0.000000
 
 -0.6250000E-01  0.4375000E+00  0.6250000E-01  0.2343750E-01
    1       -3.866826   1.000000
    2       -0.774267   1.000000
    3        3.720330   1.000000
    4        4.429892   1.000000
    5        8.168823   0.000000
    6        9.052001   0.000000
    7        9.849746   0.000000
    8       13.443990   0.000000
 
 -0.4375000E+00 -0.4375000E+00  0.6250000E-01  0.1171875E-01
    1       -2.443301   1.000000
    2       -1.486052   1.000000
    3        2.783061   1.000000
    4        3.023607   1.000000
    5        6.576573   0.001137
    6        6.939799   0.000000
    7       15.313784   0.000000
    8       15.397821   0.000000
 
 -0.3125000E+00 -0.4375000E+00  0.6250000E-01  0.2343750E-01
    1       -3.225430   1.000000
    2       -0.530051   1.000000
    3        2.513011   1.000000
    4        3.057694   1.000000
    5        7.110839   0.000000
    6        8.009679   0.000000
    7       12.875571   0.000000
    8       14.221316   0.000000
 
 -0.1875000E+00 -0.4375000E+00  0.6250000E-01  0.2343750E-01
    1       -3.700492   1.000000
    2       -0.284841   1.000000
    3        2.586201   1.000000
    4        3.666793   1.000000
    5        7.825320   0.000000
    6       10.362282   0.000000
    7       10.634576   0.000000
    8       11.856749   0.000000
 
 -0.3125000E+00 -0.3125000E+00  0.6250000E-01  0.1171875E-01
    1       -4.081795   1.000000
    2        0.592170   1.000000
    3        3.202878   1.000000
    4        3.389052   1.000000
    5        6.719651   0.000024
    6        7.877593   0.000000
    7       13.042823   0.000000
    8       13.108676   0.000000
 
 -0.1875000E+00 -0.3125000E+00  0.6250000E-01  0.2343750E-01
    1       -4.617254   1.000000
    2        1.300678   1.000000
    3        3.250487   1.000000
    4        3.913720   1.000000
    5        7.603642   0.000000
    6        9.185941   0.000000
    7       10.896767   0.000000
    8       11.887992   0.000000
 
 -0.1875000E+00 -0.1875000E+00  0.6250000E-01  0.1171875E-01
    1       -5.268913   1.000000
    2        2.691051   1.000000
    3        4.180266   1.000000
    4        4.208775   1.000000
    5        7.368005   0.000000
    6        9.557906   0.000000
    7       10.818952   0.000000
    8       10.984850   0.000000
 
  0.1875000E+00  0.1875000E+00  0.1875000E+00  0.3906250E-02
    1       -5.676053   1.000000
    2        3.061199   1.000000
    3        5.305837   1.000000
    4        5.305837   1.000000
    5        8.113000   0.000000
    6        9.158134   0.000000
    7        9.158134   0.000000
    8       11.670598   0.000000
 
  0.3125000E+00  0.1875000E+00  0.1875000E+00  0.1171875E-01
    1       -5.278734   1.000000
    2        2.223085   1.000000
    3        3.764535   1.000000
    4        5.327309   1.000000
    5        8.768726   0.000000
    6        9.276855   0.000000
    7        9.581919   0.000000
    8       11.643222   0.000000
 
  0.4375000E+00  0.1875000E+00  0.1875000E+00  0.1171875E-01
    1       -4.520694   1.000000
    2        0.844153   1.000000
    3        2.665557   1.000000
    4        4.812573   1.000000
    5        8.582474   0.000000
    6       10.040352   0.000000
    7       10.265148   0.000000
    8       11.927103   0.000000
 
 -0.4375000E+00  0.1875000E+00  0.1875000E+00  0.1171875E-01
    1       -3.609274   1.000000
    2       -0.673726   1.000000
    3        2.520245   1.000000
    4        4.272129   1.000000
    5        8.057913   0.000000
    6       10.248978   0.000000
    7       10.421780   0.000000
    8       13.795649   0.000000
 
 -0.3125000E+00  0.1875000E+00  0.1875000E+00  0.1171875E-01
    1       -3.593794   1.000000
    2       -0.702145   1.000000
    3        2.827006   1.000000
    4        3.947638   1.000000
    5        7.766213   0.000000
    6       10.330424   0.000000
    7       10.773934   0.000000
    8       11.786875   0.000000
 
 -0.1875000E+00  0.1875000E+00  0.1875000E+00  0.1171875E-01
    1       -4.504070   1.000000
    2        0.840103   1.000000
    3        3.447309   1.000000
    4        3.921799   1.000000
    5        7.694431   0.000000
    6        9.919854   0.000000
    7       10.607897   0.000000
    8       11.167202   0.000000
 
  0.3125000E+00  0.3125000E+00  0.1875000E+00  0.1171875E-01
    1       -5.018345   1.000000
    2        1.546441   1.000000
    3        4.292385   1.000000
    4        4.346973   1.000000
    5        8.108892   0.000000
    6        9.540339   0.000000
    7       10.416634   0.000000
    8       10.757657   0.000000
 
  0.4375000E+00  0.3125000E+00  0.1875000E+00  0.2343750E-01
    1       -4.382972   1.000000
    2        0.783205   1.000000
    3        2.722976   1.000000
    4        4.149087   1.000000
    5        8.595775   0.000000
    6        9.680863   0.000000
    7       10.128465   0.000000
    8       11.702932   0.000000
 
 -0.4375000E+00  0.3125000E+00  0.1875000E+00  0.2343750E-01
    1       -3.476902   1.000000
    2       -0.327641   1.000000
    3        1.917558   1.000000
    4        3.567308   1.000000
    5        9.052885   0.000000
    6        9.545998   0.000000
    7       10.845750   0.000000
    8       12.809886   0.000000
 
 -0.3125000E+00  0.3125000E+00  0.1875000E+00  0.2343750E-01
    1       -2.978808   1.000000
    2       -0.955422   1.000000
    3        1.925842   1.000000
    4        3.246915   1.000000
    5        8.569979   0.000000
    6        9.879739   0.000000
    7       11.633693   0.000000
    8       12.974919   0.000000
 
 -0.1875000E+00  0.3125000E+00  0.1875000E+00  0.2343750E-01
    1       -3.767537   1.000000
    2        0.072333   1.000000
    3        2.351549   1.000000
    4        3.430733   1.000000
    5        8.299457   0.000000
    6        9.514373   0.000000
    7       10.444124   0.000000
    8       12.947464   0.000000
 
  0.4375000E+00  0.4375000E+00  0.1875000E+00  0.1171875E-01
    1       -3.878874   1.000000
    2        0.125631   1.000000
    3        2.695277   1.000000
    4        3.586414   1.000000
    5        7.301109   0.000000
    6        9.353286   0.000000
    7       11.720497   0.000000
    8       11.997608   0.000000
 
 -0.4375000E+00  0.4375000E+00  0.1875000E+00  0.2343750E-01
    1       -3.062503   1.000000
    2       -0.672462   1.000000
    3        2.100663   1.000000
    4        2.882037   1.000000
    5        8.088167   0.000000
    6        9.108706   0.000000
    7       11.340646   0.000000
    8       14.201401   0.000000
 
 -0.3125000E+00  0.4375000E+00  0.1875000E+00  0.2343750E-01
    1       -2.239722   1.000000
    2       -1.435197   1.000000
    3        1.771463   1.000000
    4        2.368621   1.000000
    5        9.219992   0.000000
    6       10.146658   0.000000
    7       10.893176   0.000000
    8       11.895910   0.000000
 
 -0.1875000E+00  0.4375000E+00  0.1875000E+00  0.2343750E-01
    1       -2.852037   1.000000
    2       -0.884706   1.000000
    3        1.767566   1.000000
    4        2.854288   1.000000
    5        9.315413   0.000000
    6        9.757631   0.000000
    7       10.555574   0.000000
    8       13.066130   0.000000
 
 -0.4375000E+00 -0.4375000E+00  0.1875000E+00  0.1171875E-01
    1       -2.407704   1.000000
    2       -1.418038   1.000000
    3        1.879123   1.000000
    4        3.238994   1.000000
    5        6.856389   0.000000
    6        8.790517   0.000000
    7       13.855069   0.000000
    8       14.102221   0.000000
 
 -0.3125000E+00 -0.4375000E+00  0.1875000E+00  0.2343750E-01
    1       -2.306212   1.000000
    2       -1.445339   1.000000
    3        1.974749   1.000000
    4        2.591216   1.000000
    5        7.979111   0.000000
    6        8.905973   0.000000
    7       12.351685   0.000000
    8       13.476135   0.000000
 
 -0.3125000E+00 -0.3125000E+00  0.1875000E+00  0.1171875E-01
    1       -3.161800   1.000000
    2       -0.637107   1.000000
    3        2.153686   1.000000
    4        3.355844   1.000000
    5        7.009816   0.000000
    6        8.975529   0.000000
    7       12.898393   0.000000
    8       12.913034   0.000000
 
  0.3125000E+00  0.3125000E+00  0.3125000E+00  0.3906250E-02
    1       -4.908805   1.000000
    2        0.830523   1.000000
    3        4.887515   1.000000
    4        4.887515   1.000000
    5        7.666860   0.000000
    6        9.377069   0.000000
    7        9.377069   0.000000
    8       13.593242   0.000000
 
  0.4375000E+00  0.3125000E+00  0.3125000E+00  0.1171875E-01
    1       -4.421684   1.000000
    2        0.251391   1.000000
    3        3.401279   1.000000
    4        4.799196   1.000000
    5        8.370007   0.000000
    6        9.609562   0.000000
    7        9.647366   0.000000
    8       12.940167   0.000000
 
 -0.4375000E+00  0.3125000E+00  0.3125000E+00  0.1171875E-01
    1       -3.616361   1.000000
    2       -0.267482   1.000000
    3        1.836396   1.000000
    4        4.206030   1.000000
    5        7.971789   0.000000
    6       11.073568   0.000000
    7       11.271428   0.000000
    8       12.714977   0.000000
 
 -0.3125000E+00  0.3125000E+00  0.3125000E+00  0.1171875E-01
    1       -2.779732   1.000000
    2       -1.053397   1.000000
    3        1.486579   1.000000
    4        3.649673   1.000000
    5        7.334982   0.000000
    6       11.267144   0.000000
    7       12.365256   0.000000
    8       12.693338   0.000000
 
  0.4375000E+00  0.4375000E+00  0.3125000E+00  0.1171875E-01
    1       -4.101445   1.000000
    2       -0.316155   1.000000
    3        3.749680   1.000000
    4        4.223736   1.000000
    5        8.047561   0.000000
    6        9.408457   0.000000
    7       10.134949   0.000000
    8       12.208528   0.000000
 
 -0.4375000E+00  0.4375000E+00  0.3125000E+00  0.2343750E-01
    1       -3.470785   1.000000
    2       -0.669049   1.000000
    3        2.412293   1.000000
    4        3.735197   1.000000
    5        8.810260   0.000000
    6        9.149279   0.000000
    7       11.757757   0.000000
    8       11.937985   0.000000
 
 -0.3125000E+00  0.4375000E+00  0.3125000E+00  0.2343750E-01
    1       -2.640115   1.000000
    2       -1.115277   1.000000
    3        1.579811   1.000000
    4        3.007096   1.000000
    5        8.437936   0.000000
    6       10.709442   0.000000
    7       11.529867   0.000000
    8       12.075333   0.000000
 
 -0.4375000E+00 -0.4375000E+00  0.3125000E+00  0.1171875E-01
    1       -3.105151   1.000000
    2       -0.947348   1.000000
    3        2.006048   1.000000
    4        3.751116   1.000000
    5        7.487786   0.000000
    6       11.230814   0.000000
    7       11.550906   0.000000
    8       11.713941   0.000000
 
  0.4375000E+00  0.4375000E+00  0.4375000E+00  0.3906250E-02
    1       -4.001641   1.000000
    2       -0.840041   1.000000
    3        4.664675   1.000000
    4        4.664675   1.000000
    5        7.414090   0.000000
    6        9.225153   0.000000
    7        9.225153   0.000000
    8       13.610849   0.000000
 
 -0.4375000E+00  0.4375000E+00  0.4375000E+00  0.1171875E-01
    1       -3.643772   1.000000
    2       -1.015176   1.000000
    3        3.425961   1.000000
    4        4.389914   1.000000
    5        8.093512   0.000000
    6        9.384309   0.000000
    7        9.812374   0.000000
    8       14.054682   0.000000
