unknown system                          
   1.00000000000000     
     0.000000    2.732980    2.732980
     2.732980    0.000000    2.732980
     2.732980    2.732980   -0.000000
   Si
     2
Direct
  0.500000  0.500000  0.500000
  0.750000  0.750000  0.750000
 
   32   32   32
 0.85226633792E+00 0.87355676530E+00 0.93865949350E+00 0.10512441918E+01 0.12173531113E+01
 0.14451644261E+01 0.17442757218E+01 0.21240660402E+01 0.25907973897E+01 0.31435359739E+01
 0.37696449105E+01 0.44412700825E+01 0.51145265973E+01 0.57327116623E+01 0.62338292101E+01
 0.65612843873E+01 0.66752280115E+01 0.65612831846E+01 0.62338277769E+01 0.57327097892E+01
 0.51145230108E+01 0.44412648099E+01 0.37696394350E+01 0.31435310920E+01 0.25907930325E+01
 0.21240630044E+01 0.17442752080E+01 0.14451658675E+01 0.12173546974E+01 0.10512454656E+01
 0.93866120549E+00 0.87355840702E+00 0.87355676530E+00 0.91030175573E+00 0.98579319797E+00
 0.11038920312E+01 0.12700477155E+01 0.14908627342E+01 0.17732614061E+01 0.21229107254E+01
 0.25416503661E+01 0.30241031185E+01 0.35542673937E+01 0.41034459727E+01 0.46309447610E+01
 0.50883609742E+01 0.54271180995E+01 0.56076327457E+01 0.56076340927E+01 0.54271191756E+01
 0.50883551480E+01 0.46309286737E+01 0.41034267098E+01 0.35542596708E+01 0.30241146984E+01
 0.25416713583E+01 0.21229222482E+01 0.17732554729E+01 0.14908492824E+01 0.12700407308E+01
 0.11038937089E+01 0.98579563476E+00 0.91030036559E+00 0.87355518456E+00 0.93865949350E+00
 0.98579319797E+00 0.10669848143E+01 0.11859129279E+01 0.13472141889E+01 0.15559424606E+01
 0.18166588116E+01 0.21319101543E+01 0.24999894625E+01 0.29122611699E+01 0.33508698948E+01
 0.37880120590E+01 0.41877984833E+01 0.45109880591E+01 0.47218009207E+01 0.47950922577E+01
 0.47218023077E+01 0.45109899864E+01 0.41877998241E+01 0.37880120056E+01 0.33508682711E+01
 0.29122585132E+01 0.24999868237E+01 0.21319085256E+01 0.18166585448E+01 0.15559431990E+01
 0.13472152478E+01 0.11859136476E+01 0.10669847858E+01 0.98579252290E+00 0.93865882271E+00
 0.92322001084E+00 0.10512441918E+01 0.11038920312E+01 0.11859129279E+01 0.13006478664E+01
 0.14519636858E+01 0.16436134825E+01 0.18782374479E+01 0.21558976322E+01 0.24721944431E+01
 0.28163455343E+01 0.31699831263E+01 0.35075644885E+01 0.37989681518E+01 0.40141055000E+01
 0.41285355248E+01 0.41285355177E+01 0.40141056644E+01 0.37989706012E+01 0.35075728952E+01
 0.31699961509E+01 0.28163527578E+01 0.24721849878E+01 0.21558740526E+01 0.18782163633E+01
 0.16436095685E+01 0.14519756023E+01 0.13006622696E+01 0.11859195232E+01 0.11038910763E+01
 0.10512412401E+01 0.10255499955E+01 0.10255512576E+01 0.12173531113E+01 0.12700477155E+01
 0.13472141889E+01 0.14519636858E+01 0.15876295995E+01 0.17569958013E+01 0.19612175797E+01
 0.21984624528E+01 0.24624474573E+01 0.27412924827E+01 0.30172992815E+01 0.32682070904E+01
 0.34700740696E+01 0.36013117298E+01 0.36468595571E+01 0.36013116881E+01 0.34700735794E+01
 0.32682057524E+01 0.30172970827E+01 0.27412898355E+01 0.24624449950E+01 0.21984607724E+01
 0.19612169942E+01 0.17569961811E+01 0.15876304331E+01 0.14519643392E+01 0.13472141914E+01
 0.12700469677E+01 0.12173519768E+01 0.11867213357E+01 0.11766759122E+01 0.11867221793E+01
 0.14451644261E+01 0.14908627342E+01 0.15559424606E+01 0.16436134825E+01 0.17569958013E+01
 0.18982141702E+01 0.20673104924E+01 0.22610978065E+01 0.24721949958E+01 0.26886221946E+01
 0.28943658921E+01 0.30711284724E+01 0.32010788962E+01 0.32699983627E+01 0.32699978905E+01
 0.32010784035E+01 0.30711280800E+01 0.28943621804E+01 0.26886122534E+01 0.24721833498E+01
 0.22610954662E+01 0.20673241679E+01 0.18982371782E+01 0.17570120986E+01 0.16436118665E+01
 0.15559264883E+01 0.14908463851E+01 0.14451584403E+01 0.14161893597E+01 0.14021383939E+01
 0.14021356796E+01 0.14161863781E+01 0.17442757218E+01 0.17732614061E+01 0.18166588116E+01
 0.18782374479E+01 0.19612175797E+01 0.20673104924E+01 0.21957638648E+01 0.23425598075E+01
 0.24999894526E+01 0.26568864047E+01 0.27997166045E+01 0.29144579165E+01 0.29888814807E+01
 0.30146710507E+01 0.29888829479E+01 0.29144605420E+01 0.27997196708E+01 0.26568890605E+01
 0.24999912461E+01 0.23425608130E+01 0.21957643278E+01 0.20673105772E+01 0.19612173873E+01
 0.18782369572E+01 0.18166577960E+01 0.17732597081E+01 0.17442736519E+01 0.17262114797E+01
 0.17164253552E+01 0.17133353044E+01 0.17164263250E+01 0.17262132556E+01 0.21240660402E+01
 0.21229107254E+01 0.21319101543E+01 0.21558976322E+01 0.21984624528E+01 0.22610978065E+01
 0.23425598075E+01 0.24385180640E+01 0.25416497945E+01 0.26423449441E+01 0.27300318418E+01
 0.27948599038E+01 0.28293007673E+01 0.28293031464E+01 0.27948652963E+01 0.27300370823E+01
 0.26423492902E+01 0.25416556408E+01 0.24385264197E+01 0.23425652198E+01 0.22610907427E+01
 0.21984400554E+01 0.21558714447E+01 0.21318985000E+01 0.21229205513E+01 0.21240850439E+01
 0.21302821671E+01 0.21370635383E+01 0.21412635223E+01 0.21412666499E+01 0.21370654195E+01
 0.21302717595E+01 0.25907973897E+01 0.25416503661E+01 0.24999894625E+01 0.24721944431E+01
 0.24624474573E+01 0.24721949958E+01 0.24999894526E+01 0.25416497945E+01 0.25907973733E+01
 0.26398314032E+01 0.26812157736E+01 0.27087318112E+01 0.27183638297E+01 0.27087340858E+01
 0.26812184727E+01 0.26398331857E+01 0.25907978550E+01 0.25416479970E+01 0.24999842510E+01
 0.24721872446E+01 0.24624395639E+01 0.24721878029E+01 0.24999842519E+01 0.25416474410E+01
 0.25907978586E+01 0.26398337496E+01 0.26812184812E+01 0.27087335392E+01 0.27183638438E+01
 0.27087323854E+01 0.26812157911E+01 0.26398308628E+01 0.31435359739E+01 0.30241031185E+01
 0.29122611699E+01 0.28163455343E+01 0.27412924827E+01 0.26886221946E+01 0.26568864047E+01
 0.26423449441E+01 0.26398314032E+01 0.26437985013E+01 0.26493583318E+01 0.26530234831E+01
 0.26530237603E+01 0.26493575079E+01 0.26437955439E+01 0.26398287769E+01 0.26423425441E+01
 0.26568784313E+01 0.26886071659E+01 0.27412816082E+01 0.28163518297E+01 0.29122813953E+01
 0.30241189530E+01 0.31435344164E+01 0.32595876914E+01 0.33602732420E+01 0.34344863768E+01
 0.34738295810E+01 0.34738298709E+01 0.34344907406E+01 0.33602854905E+01 0.32596015173E+01
 0.37696449105E+01 0.35542673937E+01 0.33508698948E+01 0.31699831263E+01 0.30172992815E+01
 0.28943658921E+01 0.27997166045E+01 0.27300318418E+01 0.26812157736E+01 0.26493583318E+01
 0.26314440447E+01 0.26256685707E+01 0.26314440964E+01 0.26493560211E+01 0.26812114203E+01
 0.27300285334E+01 0.27997150412E+01 0.28943642313E+01 0.30172980370E+01 0.31699849922E+01
 0.33508745549E+01 0.35542715958E+01 0.37696478412E+01 0.39819600261E+01 0.41733073689E+01
 0.43256509820E+01 0.44237754172E+01 0.44576462734E+01 0.44237756876E+01 0.43256490553E+01
 0.41733033002E+01 0.39819564074E+01 0.44412700825E+01 0.41034459727E+01 0.37880120590E+01
 0.35075644885E+01 0.32682070904E+01 0.30711284724E+01 0.29144579165E+01 0.27948599038E+01
 0.27087318112E+01 0.26530234831E+01 0.26256685707E+01 0.26256677432E+01 0.26530212397E+01
 0.27087287088E+01 0.27948563706E+01 0.29144547314E+01 0.30711285755E+01 0.32682143341E+01
 0.35075768944E+01 0.37880188884E+01 0.41034383368E+01 0.44412544557E+01 0.47819688404E+01
 0.51006131593E+01 0.53701019261E+01 0.55655605351E+01 0.56682644579E+01 0.56682588964E+01
 0.55655442039E+01 0.53700808453E+01 0.51006012756E+01 0.47819750329E+01 0.51145265973E+01
 0.46309447610E+01 0.41877984833E+01 0.37989681518E+01 0.34700740696E+01 0.32010788962E+01
 0.29888814807E+01 0.28293007673E+01 0.27183638297E+01 0.26530237603E+01 0.26314440964E+01
 0.26530212397E+01 0.27183581914E+01 0.28292932699E+01 0.29888752543E+01 0.32010761519E+01
 0.34700751581E+01 0.37989731196E+01 0.41878070876E+01 0.46309547599E+01 0.51145344149E+01
 0.56149267779E+01 0.60995971881E+01 0.65306984292E+01 0.68707087187E+01 0.70883757487E+01
 0.71632844661E+01 0.70883791107E+01 0.68707128866E+01 0.65307010532E+01 0.60995971589E+01
 0.56149230844E+01 0.57327116623E+01 0.50883609742E+01 0.45109880591E+01 0.40141055000E+01
 0.36013117298E+01 0.32699983627E+01 0.30146710507E+01 0.28293031464E+01 0.27087340858E+01
 0.26493575079E+01 0.26493560211E+01 0.27087287088E+01 0.28292932699E+01 0.30146597843E+01
 0.32699915796E+01 0.36013122409E+01 0.40141099722E+01 0.45109927037E+01 0.50883691097E+01
 0.57327305054E+01 0.64178245000E+01 0.71043009556E+01 0.77428843313E+01 0.82808353989E+01
 0.86700178100E+01 0.88742439628E+01 0.88742582805E+01 0.86700500983E+01 0.82808617523E+01
 0.77428861999E+01 0.71042793630E+01 0.64177965275E+01 0.62338292101E+01 0.54271180995E+01
 0.47218009207E+01 0.41285355248E+01 0.36468595571E+01 0.32699978905E+01 0.29888829479E+01
 0.27948652963E+01 0.26812184727E+01 0.26437955439E+01 0.26812114203E+01 0.27948563706E+01
 0.29888752543E+01 0.32699915796E+01 0.36468575168E+01 0.41285424161E+01 0.47218159085E+01
 0.54271350983E+01 0.62338446224E+01 0.71158755808E+01 0.80297052558E+01 0.89161121226E+01
 0.97062607572E+01 0.10331163991E+02 0.10732260858E+02 0.10870515801E+02 0.10732262523E+02
 0.10331168347E+02 0.97062645232E+01 0.89161093513E+01 0.80296949142E+01 0.71158616497E+01
 0.65612843873E+01 0.56076327457E+01 0.47950922577E+01 0.41285355177E+01 0.36013116881E+01
 0.32010784035E+01 0.29144605420E+01 0.27300370823E+01 0.26398331857E+01 0.26398287769E+01
 0.27300285334E+01 0.29144547314E+01 0.32010761519E+01 0.36013122409E+01 0.41285424161E+01
 0.47951083590E+01 0.56076546341E+01 0.65613056615E+01 0.76339364384E+01 0.87822635341E+01
 0.99413926443E+01 0.11028901910E+02 0.11953696176E+02 0.12628718347E+02 0.12985217895E+02
 0.12985202628E+02 0.12628690989E+02 0.11953686989E+02 0.11028915078E+02 0.99414074668E+01
 0.87822635981E+01 0.76339222212E+01 0.66752280115E+01 0.56076340927E+01 0.47218023077E+01
 0.40141056644E+01 0.34700735794E+01 0.30711280800E+01 0.27997196708E+01 0.26423492902E+01
 0.25907978550E+01 0.26423425441E+01 0.27997150412E+01 0.30711285755E+01 0.34700751581E+01
 0.40141099722E+01 0.47218159085E+01 0.56076546341E+01 0.66752451807E+01 0.79103787351E+01
 0.92753916195E+01 0.10706274215E+02 0.12113519906E+02 0.13387783411E+02 0.14411610692E+02
 0.15077218596E+02 0.15307987053E+02 0.15077219963E+02 0.14411618714E+02 0.13387794950E+02
 0.12113524375E+02 0.10706269036E+02 0.92753831456E+01 0.79103681715E+01 0.65612831846E+01
 0.54271191756E+01 0.45109899864E+01 0.37989706012E+01 0.32682057524E+01 0.28943621804E+01
 0.26568890605E+01 0.25416556408E+01 0.25416479970E+01 0.26568784313E+01 0.28943642313E+01
 0.32682143341E+01 0.37989731196E+01 0.45109927037E+01 0.54271350983E+01 0.65613056615E+01
 0.79103787351E+01 0.94472514314E+01 0.11116006923E+02 0.12829390203E+02 0.14469390729E+02
 0.15892420316E+02 0.16941269952E+02 0.17495884103E+02 0.17495896196E+02 0.16941294270E+02
 0.15892433120E+02 0.14469381788E+02 0.12829373366E+02 0.11115999895E+02 0.94472505884E+01
 0.79103673047E+01 0.62338277769E+01 0.50883551480E+01 0.41877998241E+01 0.35075728952E+01
 0.30172970827E+01 0.26886122534E+01 0.24999912461E+01 0.24385264197E+01 0.24999842510E+01
 0.26886071659E+01 0.30172980370E+01 0.35075768944E+01 0.41878070876E+01 0.50883691097E+01
 0.62338446224E+01 0.76339364384E+01 0.92753916195E+01 0.11116006923E+02 0.13079924403E+02
 0.15053348669E+02 0.16875094597E+02 0.18342728458E+02 0.19291435496E+02 0.19619155414E+02
 0.19291425557E+02 0.18342717340E+02 0.16875086228E+02 0.15053339925E+02 0.13079915612E+02
 0.11116002002E+02 0.92753876567E+01 0.76339256915E+01 0.57327097892E+01 0.46309286737E+01
 0.37880120056E+01 0.31699961509E+01 0.27412898355E+01 0.24721833498E+01 0.23425608130E+01
 0.23425652198E+01 0.24721872446E+01 0.27412816082E+01 0.31699849922E+01 0.37880188884E+01
 0.46309547599E+01 0.57327305054E+01 0.71158755808E+01 0.87822635341E+01 0.10706274215E+02
 0.12829390203E+02 0.15053348669E+02 0.17219315209E+02 0.19095072202E+02 0.20471533329E+02
 0.21198984529E+02 0.21198967051E+02 0.20471501132E+02 0.19095055944E+02 0.17219314130E+02
 0.15053341609E+02 0.12829375500E+02 0.10706270612E+02 0.87822739670E+01 0.71158774766E+01
 0.51145230108E+01 0.41034267098E+01 0.33508682711E+01 0.28163527578E+01 0.24624449950E+01
 0.22610954662E+01 0.21957643278E+01 0.22610907427E+01 0.24624395639E+01 0.28163518297E+01
 0.33508745549E+01 0.41034383368E+01 0.51145344149E+01 0.64178245000E+01 0.80297052558E+01
 0.99413926443E+01 0.12113519906E+02 0.14469390729E+02 0.16875094597E+02 0.19095072202E+02
 0.20883182049E+02 0.22042569781E+02 0.22444149460E+02 0.22042555349E+02 0.20883160094E+02
 0.19095052725E+02 0.16875085383E+02 0.14469393612E+02 0.12113530488E+02 0.99414032314E+01
 0.80297091458E+01 0.64178193348E+01 0.44412648099E+01 0.35542596708E+01 0.29122585132E+01
 0.24721849878E+01 0.21984607724E+01 0.20673241679E+01 0.20673105772E+01 0.21984400554E+01
 0.24721878029E+01 0.29122813953E+01 0.35542715958E+01 0.44412544557E+01 0.56149267779E+01
 0.71043009556E+01 0.89161121226E+01 0.11028901910E+02 0.13387783411E+02 0.15892420316E+02
 0.18342728458E+02 0.20471533329E+02 0.22042569781E+02 0.22877133228E+02 0.22877130225E+02
 0.22042551186E+02 0.20471495282E+02 0.18342699401E+02 0.15892431296E+02 0.13387821995E+02
 0.11028925917E+02 0.89161066812E+01 0.71042925633E+01 0.56149361693E+01 0.37696394350E+01
 0.30241146984E+01 0.24999868237E+01 0.21558740526E+01 0.19612169942E+01 0.18982371782E+01
 0.19612173873E+01 0.21558714447E+01 0.24999842519E+01 0.30241189530E+01 0.37696478412E+01
 0.47819688404E+01 0.60995971881E+01 0.77428843313E+01 0.97062607572E+01 0.11953696176E+02
 0.14411610692E+02 0.16941269952E+02 0.19291435496E+02 0.21198984529E+02 0.22444149460E+02
 0.22877130225E+02 0.22444137030E+02 0.21198961200E+02 0.19291412318E+02 0.16941261906E+02
 0.14411620642E+02 0.11953714200E+02 0.97062787657E+01 0.77429003440E+01 0.60996069978E+01
 0.47819673036E+01 0.31435310920E+01 0.25416713583E+01 0.21319085256E+01 0.18782163633E+01
 0.17569961811E+01 0.17570120986E+01 0.18782369572E+01 0.21318985000E+01 0.25416474410E+01
 0.31435344164E+01 0.39819600261E+01 0.51006131593E+01 0.65306984292E+01 0.82808353989E+01
 0.10331163991E+02 0.12628718347E+02 0.15077218596E+02 0.17495884103E+02 0.19619155414E+02
 0.21198967051E+02 0.22042555349E+02 0.22042551186E+02 0.21198961200E+02 0.19619155790E+02
 0.17495883800E+02 0.15077206030E+02 0.12628703503E+02 0.10331175128E+02 0.82808776370E+01
 0.65307344872E+01 0.51006084778E+01 0.39819332050E+01 0.25907930325E+01 0.21229222482E+01
 0.18166585448E+01 0.16436095685E+01 0.15876304331E+01 0.16436118665E+01 0.18166577960E+01
 0.21229205513E+01 0.25907978586E+01 0.32595876914E+01 0.41733073689E+01 0.53701019261E+01
 0.68707087187E+01 0.86700178100E+01 0.10732260858E+02 0.12985217895E+02 0.15307987053E+02
 0.17495896196E+02 0.19291425557E+02 0.20471501132E+02 0.20883160094E+02 0.20471495282E+02
 0.19291412318E+02 0.17495883800E+02 0.15307989334E+02 0.12985236765E+02 0.10732285384E+02
 0.86700402869E+01 0.68707284414E+01 0.53701147110E+01 0.41733070977E+01 0.32595790462E+01
 0.21240630044E+01 0.17732554729E+01 0.15559431990E+01 0.14519756023E+01 0.14519643392E+01
 0.15559264883E+01 0.17732597081E+01 0.21240850439E+01 0.26398337496E+01 0.33602732420E+01
 0.43256509820E+01 0.55655605351E+01 0.70883757487E+01 0.88742439628E+01 0.10870515801E+02
 0.12985202628E+02 0.15077219963E+02 0.16941294270E+02 0.18342717340E+02 0.19095055944E+02
 0.19095052725E+02 0.18342699401E+02 0.16941261906E+02 0.15077206030E+02 0.12985236765E+02
 0.10870577390E+02 0.88742835984E+01 0.70883783760E+01 0.55655561261E+01 0.43256620618E+01
 0.33602838383E+01 0.26398223455E+01 0.17442752080E+01 0.14908492824E+01 0.13472152478E+01
 0.13006622696E+01 0.13472141914E+01 0.14908463851E+01 0.17442736519E+01 0.21302821671E+01
 0.26812184812E+01 0.34344863768E+01 0.44237754172E+01 0.56682644579E+01 0.71632844661E+01
 0.88742582805E+01 0.10732262523E+02 0.12628690989E+02 0.14411618714E+02 0.15892433120E+02
 0.16875086228E+02 0.17219314130E+02 0.16875085383E+02 0.15892431296E+02 0.14411620642E+02
 0.12628703503E+02 0.10732285384E+02 0.88742835984E+01 0.71633053741E+01 0.56682785547E+01
 0.44237808553E+01 0.34344823775E+01 0.26812102020E+01 0.21302777671E+01 0.14451658675E+01
 0.12700407308E+01 0.11859136476E+01 0.11859195232E+01 0.12700469677E+01 0.14451584403E+01
 0.17262114797E+01 0.21370635383E+01 0.27087335392E+01 0.34738295810E+01 0.44576462734E+01
 0.56682588964E+01 0.70883791107E+01 0.86700500983E+01 0.10331168347E+02 0.11953686989E+02
 0.13387794950E+02 0.14469381788E+02 0.15053339925E+02 0.15053341609E+02 0.14469393612E+02
 0.13387821995E+02 0.11953714200E+02 0.10331175128E+02 0.86700402869E+01 0.70883783760E+01
 0.56682785547E+01 0.44576665019E+01 0.34738286258E+01 0.27087194222E+01 0.21370604448E+01
 0.17262232126E+01 0.12173546974E+01 0.11038937089E+01 0.10669847858E+01 0.11038910763E+01
 0.12173519768E+01 0.14161893597E+01 0.17164253552E+01 0.21412635223E+01 0.27183638438E+01
 0.34738298709E+01 0.44237756876E+01 0.55655442039E+01 0.68707128866E+01 0.82808617523E+01
 0.97062645232E+01 0.11028915078E+02 0.12113524375E+02 0.12829373366E+02 0.13079915612E+02
 0.12829375500E+02 0.12113530488E+02 0.11028925917E+02 0.97062787657E+01 0.82808776370E+01
 0.68707284414E+01 0.55655561261E+01 0.44237808553E+01 0.34738286258E+01 0.27183598393E+01
 0.21412601131E+01 0.17164238261E+01 0.14161901022E+01 0.10512454656E+01 0.98579563476E+00
 0.98579252290E+00 0.10512412401E+01 0.11867213357E+01 0.14021383939E+01 0.17133353044E+01
 0.21412666499E+01 0.27087323854E+01 0.34344907406E+01 0.43256490553E+01 0.53700808453E+01
 0.65307010532E+01 0.77428861999E+01 0.89161093513E+01 0.99414074668E+01 0.10706269036E+02
 0.11115999895E+02 0.11116002002E+02 0.10706270612E+02 0.99414032314E+01 0.89161066812E+01
 0.77429003440E+01 0.65307344872E+01 0.53701147110E+01 0.43256620618E+01 0.34344823775E+01
 0.27087194222E+01 0.21412601131E+01 0.17133319120E+01 0.14021341440E+01 0.11867201902E+01
 0.93866120549E+00 0.91030036559E+00 0.93865882271E+00 0.10255499955E+01 0.11766759122E+01
 0.14021356796E+01 0.17164263250E+01 0.21370654195E+01 0.26812157911E+01 0.33602854905E+01
 0.41733033002E+01 0.51006012756E+01 0.60995971589E+01 0.71042793630E+01 0.80296949142E+01
 0.87822635981E+01 0.92753831456E+01 0.94472505884E+01 0.92753876567E+01 0.87822739670E+01
 0.80297091458E+01 0.71042925633E+01 0.60996069978E+01 0.51006084778E+01 0.41733070977E+01
 0.33602838383E+01 0.26812102020E+01 0.21370604448E+01 0.17164238261E+01 0.14021341440E+01
 0.11766751552E+01 0.10255514456E+01 0.87355840702E+00 0.87355518456E+00 0.92322001084E+00
 0.10255512576E+01 0.11867221793E+01 0.14161863781E+01 0.17262132556E+01 0.21302717595E+01
 0.26398308628E+01 0.32596015173E+01 0.39819564074E+01 0.47819750329E+01 0.56149230844E+01
 0.64177965275E+01 0.71158616497E+01 0.76339222212E+01 0.79103681715E+01 0.79103673047E+01
 0.76339256915E+01 0.71158774766E+01 0.64178193348E+01 0.56149361693E+01 0.47819673036E+01
 0.39819332050E+01 0.32595790462E+01 0.26398223455E+01 0.21302777671E+01 0.17262232126E+01
 0.14161901022E+01 0.11867201902E+01 0.10255514456E+01 0.92322493689E+00 0.87355741821E+00
 0.91030203028E+00 0.98579325602E+00 0.11038921789E+01 0.12700478632E+01 0.14908626339E+01
 0.17732611844E+01 0.21229106717E+01 0.25416504369E+01 0.30241031699E+01 0.35542676668E+01
 0.41034468208E+01 0.46309461115E+01 0.50883625473E+01 0.54271198945E+01 0.56076347789E+01
 0.56076358947E+01 0.54271200958E+01 0.50883549810E+01 0.46309275434E+01 0.41034246319E+01
 0.35542567739E+01 0.30241116205E+01 0.25416688456E+01 0.21229205117E+01 0.17732543766E+01
 0.14908488828E+01 0.12700411071E+01 0.11038945239E+01 0.98579642545E+00 0.91030108093E+00
 0.87355595937E+00 0.91030203028E+00 0.95629031820E+00 0.10356156463E+01 0.11519722327E+01
 0.13099433316E+01 0.15144439753E+01 0.17698335582E+01 0.20784587991E+01 0.24385188732E+01
 0.28415122016E+01 0.32700287880E+01 0.36970137481E+01 0.40875184889E+01 0.44032599280E+01
 0.46092592091E+01 0.46808893716E+01 0.46092630165E+01 0.44032560704E+01 0.40875000805E+01
 0.36969907349E+01 0.32700205324E+01 0.28415274947E+01 0.24385454435E+01 0.20784744902E+01
 0.17698277154E+01 0.15144262528E+01 0.13099310702E+01 0.11519717325E+01 0.10356188791E+01
 0.95628869590E+00 0.91029762965E+00 0.89524824700E+00 0.98579325602E+00 0.10356156463E+01
 0.11135453718E+01 0.12229616303E+01 0.13676236573E+01 0.15510213283E+01 0.17754586518E+01
 0.20407540275E+01 0.23425598486E+01 0.26706062428E+01 0.30075423256E+01 0.33292250634E+01
 0.36070601801E+01 0.38123250184E+01 0.39215666175E+01 0.39215682051E+01 0.38123273168E+01
 0.36070593348E+01 0.33292214512E+01 0.30075405136E+01 0.26706095021E+01 0.23425662765E+01
 0.20407585402E+01 0.17754580901E+01 0.15510172640E+01 0.13676203390E+01 0.12229612773E+01
 0.11135459282E+01 0.10356138488E+01 0.98578939196E+00 0.96155125971E+00 0.96155333239E+00
 0.11038921789E+01 0.11519722327E+01 0.12229616303E+01 0.13200056499E+01 0.14462738320E+01
 0.16042156380E+01 0.17946340812E+01 0.20155731848E+01 0.22610973856E+01 0.25202655799E+01
 0.27768403789E+01 0.30102967602E+01 0.31983693123E+01 0.33207926408E+01 0.33633155831E+01
 0.33207964919E+01 0.31983724432E+01 0.30102989131E+01 0.27768462633E+01 0.25202741019E+01
 0.22610981779E+01 0.20155600252E+01 0.17946166689E+01 0.16042101174E+01 0.14462831949E+01
 0.13200170644E+01 0.12229637303E+01 0.11519675514E+01 0.11038893596E+01 0.10761513455E+01
 0.10670937410E+01 0.10761506643E+01 0.12700478632E+01 0.13099433316E+01 0.13676236573E+01
 0.14462738320E+01 0.15487981489E+01 0.16769961568E+01 0.18306701182E+01 0.20067363790E+01
 0.21984625796E+01 0.23950943393E+01 0.25822444597E+01 0.27433267563E+01 0.28619815926E+01
 0.29250069265E+01 0.29250097676E+01 0.28619854362E+01 0.27433251029E+01 0.25822394958E+01
 0.23950935199E+01 0.21984667222E+01 0.20067383051E+01 0.18306660076E+01 0.16769915297E+01
 0.15487990633E+01 0.14462773861E+01 0.13676227267E+01 0.13099377261E+01 0.12700442692E+01
 0.12451341784E+01 0.12331924311E+01 0.12331907380E+01 0.12451327998E+01 0.14908626339E+01
 0.15144439753E+01 0.15510213283E+01 0.16042156380E+01 0.16769961568E+01 0.17708335793E+01
 0.18849229403E+01 0.20155734841E+01 0.21558980610E+01 0.22959995015E+01 0.24238384944E+01
 0.25268041793E+01 0.25937420139E+01 0.26169679104E+01 0.25937412768E+01 0.25268029379E+01
 0.24238363246E+01 0.22959959692E+01 0.21558949218E+01 0.20155747831E+01 0.18849310802E+01
 0.17708452524E+01 0.16770036859E+01 0.16042134416E+01 0.15510109792E+01 0.15144326010E+01
 0.14908565480E+01 0.14767965154E+01 0.14694980567E+01 0.14672542360E+01 0.14694960634E+01
 0.14767965607E+01 0.17732611844E+01 0.17698335582E+01 0.17754586518E+01 0.17946340812E+01
 0.18306701182E+01 0.18849229403E+01 0.19562501012E+01 0.20407537592E+01 0.21319099156E+01
 0.22211891398E+01 0.22991733518E+01 0.23569934503E+01 0.23877749472E+01 0.23877742735E+01
 0.23569926381E+01 0.22991752535E+01 0.22211956370E+01 0.21319188504E+01 0.20407594411E+01
 0.19562485264E+01 0.18849161840E+01 0.18306641104E+01 0.17946322219E+01 0.17754591392E+01
 0.17698330464E+01 0.17732591503E+01 0.17809473765E+01 0.17886548057E+01 0.17933036208E+01
 0.17933033942E+01 0.17886549960E+01 0.17809489992E+01 0.21229106717E+01 0.20784587991E+01
 0.20407540275E+01 0.20155731848E+01 0.20067363790E+01 0.20155734841E+01 0.20407537592E+01
 0.20784579455E+01 0.21229101087E+01 0.21672675878E+01 0.22047414711E+01 0.22296887530E+01
 0.22384281143E+01 0.22296889369E+01 0.22047450709E+01 0.21672783055E+01 0.21229266678E+01
 0.20784711960E+01 0.20407524470E+01 0.20155548832E+01 0.20067101168E+01 0.20155536567E+01
 0.20407495333E+01 0.20784672172E+01 0.21229231223E+01 0.21672757076E+01 0.22047428636E+01
 0.22296871831E+01 0.22384275604E+01 0.22296892165E+01 0.22047418920E+01 0.21672677489E+01
 0.25416504369E+01 0.24385188732E+01 0.23425598486E+01 0.22610973856E+01 0.21984625796E+01
 0.21558980610E+01 0.21319099156E+01 0.21229101087E+01 0.21240661005E+01 0.21302723544E+01
 0.21370656922E+01 0.21412669522E+01 0.21412648787E+01 0.21370656689E+01 0.21302839725E+01
 0.21240865385E+01 0.21229223628E+01 0.21318999784E+01 0.21558712868E+01 0.21984383842E+01
 0.22610886720E+01 0.23425628798E+01 0.24385233508E+01 0.25416525885E+01 0.26423475632E+01
 0.27300365452E+01 0.27948649071E+01 0.28293029825E+01 0.28293015882E+01 0.27948612465E+01
 0.27300325567E+01 0.26423451646E+01 0.30241031699E+01 0.28415122016E+01 0.26706062428E+01
 0.25202655799E+01 0.23950943393E+01 0.22959995015E+01 0.22211891398E+01 0.21672675878E+01
 0.21302723544E+01 0.21065569273E+01 0.20933876030E+01 0.20891671117E+01 0.20933884605E+01
 0.21065670072E+01 0.21302928982E+01 0.21672825800E+01 0.22211782689E+01 0.22959635314E+01
 0.23950609185E+01 0.25202627956E+01 0.26706327760E+01 0.28415403736E+01 0.30241104219E+01
 0.32054681919E+01 0.33700502504E+01 0.35018657749E+01 0.35871450320E+01 0.36166483631E+01
 0.35871381562E+01 0.35018630926E+01 0.33700588203E+01 0.32054782319E+01 0.35542676668E+01
 0.32700287880E+01 0.30075423256E+01 0.27768403789E+01 0.25822444597E+01 0.24238384944E+01
 0.22991733518E+01 0.22047414711E+01 0.21370656922E+01 0.20933876030E+01 0.20719515060E+01
 0.20719560278E+01 0.20934030673E+01 0.21370897401E+01 0.22047579955E+01 0.22991631362E+01
 0.24238029100E+01 0.25822108273E+01 0.27768365143E+01 0.30075685471E+01 0.32700610858E+01
 0.35542857486E+01 0.38439836081E+01 0.41176547383E+01 0.43512436496E+01 0.45219507431E+01
 0.46121031385E+01 0.46121015266E+01 0.45219466182E+01 0.43512398247E+01 0.41176534232E+01
 0.38439794170E+01 0.41034468208E+01 0.36970137481E+01 0.33292250634E+01 0.30102967602E+01
 0.27433267563E+01 0.25268041793E+01 0.23569934503E+01 0.22296887530E+01 0.21412669522E+01
 0.20891671117E+01 0.20719560278E+01 0.20891856769E+01 0.21412968251E+01 0.22297091052E+01
 0.23569815789E+01 0.25267633826E+01 0.27432920359E+01 0.30103005596E+01 0.33292617875E+01
 0.36970489832E+01 0.41034585614E+01 0.45294976032E+01 0.49475230422E+01 0.53239036708E+01
 0.56239000852E+01 0.58174663870E+01 0.58843618611E+01 0.58174632510E+01 0.56238903054E+01
 0.53238918170E+01 0.49475194767E+01 0.45294996417E+01 0.46309461115E+01 0.40875184889E+01
 0.36070601801E+01 0.31983693123E+01 0.28619815926E+01 0.25937420139E+01 0.23877749472E+01
 0.22384281143E+01 0.21412648787E+01 0.20933884605E+01 0.20934030673E+01 0.21412968251E+01
 0.22384486352E+01 0.23877598367E+01 0.25936968589E+01 0.28619431107E+01 0.31983727319E+01
 0.36071050365E+01 0.40875716726E+01 0.46309762708E+01 0.52171598152E+01 0.58133302225E+01
 0.63759402118E+01 0.68560288139E+01 0.72069373071E+01 0.73923057367E+01 0.73923064497E+01
 0.72069396676E+01 0.68560342120E+01 0.63759503145E+01 0.58133411258E+01 0.52171575727E+01
 0.50883625473E+01 0.44032599280E+01 0.38123250184E+01 0.33207926408E+01 0.29250069265E+01
 0.26169679104E+01 0.23877742735E+01 0.22296889369E+01 0.21370656689E+01 0.21065670072E+01
 0.21370897401E+01 0.22297091052E+01 0.23877598367E+01 0.26169191850E+01 0.29249630785E+01
 0.33207962002E+01 0.38123782008E+01 0.44033248106E+01 0.50884028372E+01 0.58488667117E+01
 0.66492885699E+01 0.74377265681E+01 0.81503987502E+01 0.87205465961E+01 0.90895250125E+01
 0.92172630580E+01 0.90895403513E+01 0.87205681185E+01 0.81504165329E+01 0.74377378270E+01
 0.66492933851E+01 0.58488561260E+01 0.54271198945E+01 0.46092592091E+01 0.39215666175E+01
 0.33633155831E+01 0.29250097676E+01 0.25937412768E+01 0.23569926381E+01 0.22047450709E+01
 0.21302839725E+01 0.21302928982E+01 0.22047579955E+01 0.23569815789E+01 0.25936968589E+01
 0.29249630785E+01 0.33633153052E+01 0.39216264219E+01 0.46093386804E+01 0.54271669038E+01
 0.63610587034E+01 0.73769612132E+01 0.84184604983E+01 0.94092496341E+01 0.10261390227E+02
 0.10888551717E+02 0.11221446352E+02 0.11221448203E+02 0.10888555596E+02 0.10261393525E+02
 0.94092545919E+01 0.84184739158E+01 0.73769796278E+01 0.63610570972E+01 0.56076347789E+01
 0.46808893716E+01 0.39215682051E+01 0.33207964919E+01 0.28619854362E+01 0.25268029379E+01
 0.22991752535E+01 0.21672783055E+01 0.21240865385E+01 0.21672825800E+01 0.22991631362E+01
 0.25267633826E+01 0.28619431107E+01 0.33207962002E+01 0.39216264219E+01 0.46809706642E+01
 0.56076866719E+01 0.66957933338E+01 0.79173976118E+01 0.92175617226E+01 0.10513289851E+02
 0.11698767178E+02 0.12658105619E+02 0.13284644780E+02 0.13502639011E+02 0.13284626886E+02
 0.12658089084E+02 0.11698767434E+02 0.10513307543E+02 0.92175902603E+01 0.79174232667E+01
 0.66957900087E+01 0.56076358947E+01 0.46092630165E+01 0.38123273168E+01 0.31983724432E+01
 0.27433251029E+01 0.24238363246E+01 0.22211956370E+01 0.21229266678E+01 0.21229223628E+01
 0.22211782689E+01 0.24238029100E+01 0.27432920359E+01 0.31983727319E+01 0.38123782008E+01
 0.46093386804E+01 0.56076866719E+01 0.68122728852E+01 0.82059017563E+01 0.97418132770E+01
 0.11338827204E+02 0.12881599020E+02 0.14229228348E+02 0.15234675924E+02 0.15773409981E+02
 0.15773411556E+02 0.15234681785E+02 0.14229237609E+02 0.12881608163E+02 0.11338839785E+02
 0.97418375602E+01 0.82059287467E+01 0.68122710126E+01 0.54271200958E+01 0.44032560704E+01
 0.36070593348E+01 0.30102989131E+01 0.25822394958E+01 0.22959959692E+01 0.21319188504E+01
 0.20784711960E+01 0.21318999784E+01 0.22959635314E+01 0.25822108273E+01 0.30103005596E+01
 0.36071050365E+01 0.44033248106E+01 0.54271669038E+01 0.66957933338E+01 0.82059017563E+01
 0.99246303593E+01 0.11781628114E+02 0.13663863428E+02 0.15417106835E+02 0.16860101766E+02
 0.17815124412E+02 0.18149845860E+02 0.17815144543E+02 0.16860126217E+02 0.15417117295E+02
 0.13663859170E+02 0.11781630298E+02 0.99246560745E+01 0.82059349886E+01 0.66957953381E+01
 0.50883549810E+01 0.40875000805E+01 0.33292214512E+01 0.27768462633E+01 0.23950935199E+01
 0.21558949218E+01 0.20407594411E+01 0.20407524470E+01 0.21558712868E+01 0.23950609185E+01
 0.27768365143E+01 0.33292617875E+01 0.40875716726E+01 0.50884028372E+01 0.63610587034E+01
 0.79173976118E+01 0.97418132770E+01 0.11781628114E+02 0.13937886274E+02 0.16059165258E+02
 0.17946042638E+02 0.19374374343E+02 0.20144912661E+02 0.20144906801E+02 0.19374365631E+02
 0.17946042175E+02 0.16059168053E+02 0.13937884662E+02 0.11781633961E+02 0.97418438984E+01