    2    2   15    1
  0.2001288E+02  0.3839590E-09  0.3839590E-09  0.3839590E-09  0.5000000E-15
  1.000000000000000E-004
  CAR 
 unknown system                          
      8    182      8
 
  0.4166667E-01  0.4166667E-01  0.4166667E-01  0.1157407E-02
    1       -6.171896   1.000000
    2        5.384122   0.999972
    3        5.604223   0.993347
    4        5.604223   0.993347
    5        8.244276   0.000000
    6        8.258029   0.000000
    7        8.258029   0.000000
    8        8.959202   0.000000
 
  0.1250000E+00  0.4166667E-01  0.4166667E-01  0.3472222E-02
    1       -6.052709   1.000000
    2        4.496594   1.000000
    3        5.189432   1.000000
    4        5.551485   0.997803
    5        8.301389   0.000000
    6        8.374450   0.000000
    7        8.560826   0.000000
    8        9.813880   0.000000
 
  0.2083333E+00  0.4166667E-01  0.4166667E-01  0.3472222E-02
    1       -5.758677   1.000000
    2        3.002808   1.000000
    3        4.823828   1.000000
    4        5.284515   0.999999
    5        8.022411   0.000000
    6        8.759192   0.000000
    7        9.054801   0.000000
    8       11.155252   0.000000
 
  0.2916667E+00  0.4166667E-01  0.4166667E-01  0.3472222E-02
    1       -5.302551   1.000000
    2        1.504564   1.000000
    3        4.530393   1.000000
    4        4.971345   1.000000
    5        7.713771   0.000000
    6        9.049342   0.000000
    7        9.301610   0.000000
    8       12.314977   0.000000
 
  0.3750000E+00  0.4166667E-01  0.4166667E-01  0.3472222E-02
    1       -4.720235   1.000000
    2        0.157122   1.000000
    3        4.338553   1.000000
    4        4.701013   1.000000
    5        7.468668   0.000000
    6        9.094625   0.000000
    7        9.228435   0.000000
    8       13.229982   0.000000
 
  0.4583333E+00  0.4166667E-01  0.4166667E-01  0.3472222E-02
    1       -4.128624   1.000000
    2       -0.880311   1.000000
    3        4.257012   1.000000
    4        4.508830   1.000000
    5        7.321179   0.000000
    6        9.061188   0.000000
    7        9.064319   0.000000
    8       13.458700   0.000000
 
 -0.4583333E+00  0.4166667E-01  0.4166667E-01  0.3472222E-02
    1       -3.902589   1.000000
    2       -1.218749   1.000000
    3        4.284935   1.000000
    4        4.409927   1.000000
    5        7.285394   0.000000
    6        8.965029   0.000000
    7        9.094321   0.000000
    8       13.429121   0.000000
 
 -0.3750000E+00  0.4166667E-01  0.4166667E-01  0.3472222E-02
    1       -4.311294   1.000000
    2       -0.585751   1.000000
    3        4.414161   1.000000
    4        4.415326   1.000000
    5        7.362287   0.000000
    6        8.969005   0.000000
    7        9.222518   0.000000
    8       13.356184   0.000000
 
 -0.2916667E+00  0.4166667E-01  0.4166667E-01  0.3472222E-02
    1       -4.924010   1.000000
    2        0.581136   1.000000
    3        4.525878   1.000000
    4        4.637940   1.000000
    5        7.546400   0.000000
    6        9.008380   0.000000
    7        9.375125   0.000000
    8       12.576790   0.000000
 
 -0.2083333E+00  0.4166667E-01  0.4166667E-01  0.3472222E-02
    1       -5.471092   1.000000
    2        1.992967   1.000000
    3        4.743668   1.000000
    4        4.934466   1.000000
    5        7.815307   0.000000
    6        8.898049   0.000000
    7        9.364130   0.000000
    8       11.765211   0.000000
 
 -0.1250000E+00  0.4166667E-01  0.4166667E-01  0.3472222E-02
    1       -5.875536   1.000000
    2        3.517788   1.000000
    3        5.048838   1.000000
    4        5.256871   1.000000
    5        8.107117   0.000000
    6        8.554132   0.000000
    7        9.030496   0.000000
    8       10.674863   0.000000
 
 -0.4166667E-01  0.4166667E-01  0.4166667E-01  0.3472222E-02
    1       -6.112116   1.000000
    2        4.962242   1.000000
    3        5.383754   0.999973
    4        5.482529   0.999575
    5        8.121108   0.000000
    6        8.440054   0.000000
    7        8.551366   0.000000
    8        9.363549   0.000000
 
  0.1250000E+00  0.1250000E+00  0.4166667E-01  0.3472222E-02
    1       -5.992968   1.000000
    2        4.408853   1.000000
    3        5.041887   1.000000
    4        5.140628   1.000000
    5        7.884882   0.000000
    6        8.862092   0.000000
    7        9.033697   0.000000
    8        9.874582   0.000000
 
  0.2083333E+00  0.1250000E+00  0.4166667E-01  0.6944444E-02
    1       -5.756770   1.000000
    2        3.375500   1.000000
    3        4.459481   1.000000
    4        4.996496   1.000000
    5        7.897526   0.000000
    6        9.026537   0.000000
    7        9.530635   0.000000
    8       10.519455   0.000000
 
  0.2916667E+00  0.1250000E+00  0.4166667E-01  0.6944444E-02
    1       -5.353121   1.000000
    2        1.971443   1.000000
    3        4.079607   1.000000
    4        4.708078   1.000000
    5        8.085311   0.000000
    6        8.986614   0.000000
    7        9.912337   0.000000
    8       10.763175   0.000000
 
  0.3750000E+00  0.1250000E+00  0.4166667E-01  0.6944444E-02
    1       -4.806724   1.000000
    2        0.608377   1.000000
    3        3.819904   1.000000
    4        4.408572   1.000000
    5        8.022569   0.000000
    6        9.007498   0.000000
    7        9.918380   0.000000
    8       11.358564   0.000000
 
  0.4583333E+00  0.1250000E+00  0.4166667E-01  0.6944444E-02
    1       -4.193650   1.000000
    2       -0.537745   1.000000
    3        3.639828   1.000000
    4        4.218879   1.000000
    5        7.905588   0.000000
    6        8.933152   0.000000
    7        9.751019   0.000000
    8       12.474564   0.000000
 
 -0.4583333E+00  0.1250000E+00  0.4166667E-01  0.6944444E-02
    1       -3.783220   1.000000
    2       -1.164567   1.000000
    3        3.516872   1.000000
    4        4.194577   1.000000
    5        7.865084   0.000000
    6        8.890511   0.000000
    7        9.613704   0.000000
    8       13.599955   0.000000
 
 -0.3750000E+00  0.1250000E+00  0.4166667E-01  0.6944444E-02
    1       -4.011739   1.000000
    2       -0.826349   1.000000
    3        3.469560   1.000000
    4        4.327570   1.000000
    5        7.924681   0.000000
    6        8.935367   0.000000
    7        9.592044   0.000000
    8       13.298853   0.000000
 
 -0.2916667E+00  0.1250000E+00  0.4166667E-01  0.6944444E-02
    1       -4.604607   1.000000
    2        0.196980   1.000000
    3        3.531210   1.000000
    4        4.579665   1.000000
    5        8.077980   0.000000
    6        9.014536   0.000000
    7        9.667881   0.000000
    8       12.144217   0.000000
 
 -0.2083333E+00  0.1250000E+00  0.4166667E-01  0.6944444E-02
    1       -5.186122   1.000000
    2        1.502347   1.000000
    3        3.729373   1.000000
    4        4.902699   1.000000
    5        8.290853   0.000000
    6        8.949490   0.000000
    7        9.686898   0.000000
    8       11.302013   0.000000
 
 -0.1250000E+00  0.1250000E+00  0.4166667E-01  0.6944444E-02
    1       -5.641021   1.000000
    2        2.879329   1.000000
    3        4.111190   1.000000
    4        5.216559   1.000000
    5        8.377593   0.000000
    6        8.736200   0.000000
    7        9.356336   0.000000
    8       10.937258   0.000000
 
 -0.4166667E-01  0.1250000E+00  0.4166667E-01  0.6944444E-02
    1       -5.934106   1.000000
    2        3.951037   1.000000
    3        4.845406   1.000000
    4        5.370192   0.999982
    5        8.164590   0.000000
    6        8.591925   0.000000
    7        8.953923   0.000000
    8       10.332640   0.000000
 
  0.2083333E+00  0.2083333E+00  0.4166667E-01  0.3472222E-02
    1       -5.578390   1.000000
    2        3.112453   1.000000
    3        4.293539   1.000000
    4        4.305970   1.000000
    5        7.295679   0.000000
    6        9.645013   0.000000
    7       10.242905   0.000000
    8       10.265610   0.000000
 
  0.2916667E+00  0.2083333E+00  0.4166667E-01  0.6944444E-02
    1       -5.229550   1.000000
    2        2.160917   1.000000
    3        3.716160   1.000000
    4        4.126101   1.000000
    5        7.329997   0.000000
    6        9.308562   0.000000
    7       10.442974   0.000000
    8       10.869143   0.000000
 
  0.3750000E+00  0.2083333E+00  0.4166667E-01  0.6944444E-02
    1       -4.727220   1.000000
    2        0.972237   1.000000
    3        3.263952   1.000000
    4        3.865469   1.000000
    5        7.589800   0.000000
    6        9.529412   0.000000
    7       10.243378   0.000000
    8       11.076963   0.000000
 
  0.4583333E+00  0.2083333E+00  0.4166667E-01  0.6944444E-02
    1       -4.120909   1.000000
    2       -0.164284   1.000000
    3        2.873123   1.000000
    4        3.729312   1.000000
    5        7.661653   0.000000
    6        9.974304   0.000000
    7       10.517078   0.000000
    8       10.953114   0.000000
 
 -0.4583333E+00  0.2083333E+00  0.4166667E-01  0.6944444E-02
    1       -3.587938   1.000000
    2       -0.974225   1.000000
    3        2.566667   1.000000
    4        3.764818   1.000000
    5        7.734153   0.000000
    6        9.755407   0.000000
    7       10.759290   0.000000
    8       11.932984   0.000000
 
 -0.3750000E+00  0.2083333E+00  0.4166667E-01  0.6944444E-02
    1       -3.598516   1.000000
    2       -0.955781   1.000000
    3        2.388541   1.000000
    4        3.951621   1.000000
    5        7.923896   0.000000
    6        9.617055   0.000000
    7       10.626488   0.000000
    8       13.272583   0.000000
 
 -0.2916667E+00  0.2083333E+00  0.4166667E-01  0.6944444E-02
    1       -4.137873   1.000000
    2       -0.133046   1.000000
    3        2.382009   1.000000
    4        4.258001   1.000000
    5        8.226884   0.000000
    6        9.536919   0.000000
    7       10.542059   0.000000
    8       11.919636   0.000000
 
 -0.2083333E+00  0.2083333E+00  0.4166667E-01  0.6944444E-02
    1       -4.741357   1.000000
    2        0.947243   1.000000
    3        2.630695   1.000000
    4        4.631048   1.000000
    5        8.570850   0.000000
    6        9.311121   0.000000
    7       10.364825   0.000000
    8       11.000104   0.000000
 
 -0.1250000E+00  0.2083333E+00  0.4166667E-01  0.6944444E-02
    1       -5.239491   1.000000
    2        1.865800   1.000000
    3        3.345635   1.000000
    4        4.968171   1.000000
    5        8.654044   0.000000
    6        8.877855   0.000000
    7        9.816357   0.000000
    8       10.927740   0.000000
 
 -0.4166667E-01  0.2083333E+00  0.4166667E-01  0.6944444E-02
    1       -5.584214   1.000000
    2        2.482282   1.000000
    3        4.465940   1.000000
    4        5.092554   1.000000
    5        8.125511   0.000000
    6        8.747738   0.000000
    7        9.415884   0.000000
    8       11.245515   0.000000
 
  0.2916667E+00  0.2916667E+00  0.4166667E-01  0.3472222E-02
    1       -4.935125   1.000000
    2        1.699012   1.000000
    3        3.593855   1.000000
    4        3.646243   1.000000
    5        6.766506   0.000000
    6        8.544268   0.000000
    7       11.583104   0.000000
    8       11.656391   0.000000
 
  0.3750000E+00  0.2916667E+00  0.4166667E-01  0.6944444E-02
    1       -4.481403   1.000000
    2        0.862861   1.000000
    3        3.107772   1.000000
    4        3.420081   1.000000
    5        6.881430   0.000000
    6        8.233025   0.000000
    7       11.726823   0.000000
    8       12.332947   0.000000
 
  0.4583333E+00  0.2916667E+00  0.4166667E-01  0.6944444E-02
    1       -3.900041   1.000000
    2       -0.062029   1.000000
    3        2.484026   1.000000
    4        3.292445   1.000000
    5        7.122831   0.000000
    6        8.756731   0.000000
    7       11.510070   0.000000
    8       12.420022   0.000000
 
 -0.4583333E+00  0.2916667E+00  0.4166667E-01  0.6944444E-02
    1       -3.302548   1.000000
    2       -0.870429   1.000000
    3        1.943918   1.000000
    4        3.331341   1.000000
    5        7.237186   0.000000
    6        9.998763   0.000000
    7       11.247064   0.000000
    8       12.251329   0.000000
 
 -0.3750000E+00  0.2916667E+00  0.4166667E-01  0.6944444E-02
    1       -3.103367   1.000000
    2       -1.106139   1.000000
    3        1.610688   1.000000
    4        3.522718   1.000000
    5        7.450304   0.000000
    6       10.920487   0.000000
    7       11.642215   0.000000
    8       12.080372   0.000000
 
 -0.2916667E+00  0.2916667E+00  0.4166667E-01  0.6944444E-02
    1       -3.560380   1.000000
    2       -0.544347   1.000000
    3        1.577237   1.000000
    4        3.841720   1.000000
    5        7.801257   0.000000
    6       10.678896   0.000000
    7       11.723623   0.000000
    8       11.965062   0.000000
 
 -0.2083333E+00  0.2916667E+00  0.4166667E-01  0.6944444E-02
    1       -4.168318   1.000000
    2        0.140193   1.000000
    3        2.023676   1.000000
    4        4.240424   1.000000
    5        8.228334   0.000000
    6        9.934935   0.000000
    7       11.006381   0.000000
    8       11.360015   0.000000
 
 -0.1250000E+00  0.2916667E+00  0.4166667E-01  0.6944444E-02
    1       -4.695087   1.000000
    2        0.621467   1.000000
    3        3.011621   1.000000
    4        4.615397   1.000000
    5        8.417620   0.000000
    6        9.133837   0.000000
    7       10.019534   0.000000
    8       11.486950   0.000000
 
 -0.4166667E-01  0.2916667E+00  0.4166667E-01  0.6944444E-02
    1       -5.080307   1.000000
    2        1.040313   1.000000
    3        4.199679   1.000000
    4        4.776021   1.000000
    5        7.875214   0.000000
    6        8.964003   0.000000
    7        9.538103   0.000000
    8       11.885618   0.000000
 
  0.3750000E+00  0.3750000E+00  0.4166667E-01  0.3472222E-02
    1       -4.075406   1.000000
    2        0.261832   1.000000
    3        3.086358   1.000000
    4        3.174809   1.000000
    5        6.427668   0.000408
    6        7.507584   0.000000
    7       13.090934   0.000000
    8       13.124020   0.000000
 
  0.4583333E+00  0.3750000E+00  0.4166667E-01  0.6944444E-02
    1       -3.529497   1.000000
    2       -0.477641   1.000000
    3        2.693023   1.000000
    4        2.977921   1.000000
    5        6.638222   0.000001
    6        7.408658   0.000000
    7       13.136167   0.000000
    8       13.866773   0.000000
 
 -0.4583333E+00  0.3750000E+00  0.4166667E-01  0.6944444E-02
    1       -2.910107   1.000000
    2       -1.173308   1.000000
    3        1.994455   1.000000
    4        2.993797   1.000000
    5        6.831854   0.000000
    6        8.312064   0.000000
    7       12.881148   0.000000
    8       13.878941   0.000000
 
 -0.3750000E+00  0.3750000E+00  0.4166667E-01  0.6944444E-02
    1       -2.572888   1.000000
    2       -1.494845   1.000000
    3        1.459000   1.000000
    4        3.165966   1.000000
    5        7.035455   0.000000
    6        9.786984   0.000000
    7       12.550455   0.000000
    8       13.376744   0.000000
 
 -0.2916667E+00  0.3750000E+00  0.4166667E-01  0.6944444E-02
    1       -2.991240   1.000000
    2       -1.095713   1.000000
    3        1.361290   1.000000
    4        3.474246   1.000000
    5        7.387352   0.000000
    6       11.324784   0.000000
    7       11.771472   0.000000
    8       12.517400   0.000000
 
 -0.2083333E+00  0.3750000E+00  0.4166667E-01  0.6944444E-02
    1       -3.569330   1.000000
    2       -0.728075   1.000000
    3        1.892822   1.000000
    4        3.878860   1.000000
    5        7.847660   0.000000
    6       10.171571   0.000000
    7       11.227124   0.000000
    8       12.540868   0.000000
 
 -0.1250000E+00  0.3750000E+00  0.4166667E-01  0.6944444E-02
    1       -4.082029   1.000000
    2       -0.492429   1.000000
    3        2.906020   1.000000
    4        4.289418   1.000000
    5        8.164075   0.000000
    6        9.135257   0.000000
    7       10.030543   0.000000
    8       12.623663   0.000000
 
 -0.4166667E-01  0.3750000E+00  0.4166667E-01  0.6944444E-02
    1       -4.474099   1.000000
    2       -0.218706   1.000000
    3        4.042694   1.000000
    4        4.515798   1.000000
    5        7.670525   0.000000
    6        8.965627   0.000000
    7        9.407948   0.000000
    8       12.849334   0.000000
 
  0.4583333E+00  0.4583333E+00  0.4166667E-01  0.3472222E-02
    1       -3.019012   1.000000
    2       -1.132782   1.000000
    3        2.801531   1.000000
    4        2.907267   1.000000
    5        6.339645   0.003218
    6        6.800405   0.000000
    7       14.625557   0.000000
    8       14.639753   0.000000
 
 -0.4583333E+00  0.4583333E+00  0.4166667E-01  0.6944444E-02
    1       -2.403556   1.000000
    2       -1.782298   1.000000
    3        2.509465   1.000000
    4        2.792905   1.000000
    5        6.599333   0.000003
    6        6.980927   0.000000
    7       14.588058   0.000000
    8       15.117329   0.000000
 
 -0.3750000E+00  0.4583333E+00  0.4166667E-01  0.6944444E-02
    1       -2.397710   1.000000
    2       -1.713168   1.000000
    3        1.895103   1.000000
    4        2.935233   1.000000
    5        6.771027   0.000000
    6        8.224281   0.000000
    7       13.572865   0.000000
    8       14.287564   0.000000
 
 -0.2916667E+00  0.4583333E+00  0.4166667E-01  0.6944444E-02
    1       -2.891275   1.000000
    2       -1.215534   1.000000
    3        1.626573   1.000000
    4        3.220957   1.000000
    5        7.103683   0.000000
    6        9.857890   0.000000
    7       11.908465   0.000000
    8       12.953945   0.000000
 
 -0.2083333E+00  0.4583333E+00  0.4166667E-01  0.6944444E-02
    1       -3.312824   1.000000
    2       -1.077109   1.000000
    3        2.039121   1.000000
    4        3.619485   1.000000
    5        7.571072   0.000000
    6       10.334544   0.000000
    7       11.373453   0.000000
    8       11.776900   0.000000
 
 -0.1250000E+00  0.4583333E+00  0.4166667E-01  0.6944444E-02
    1       -3.665807   1.000000
    2       -1.118881   1.000000
    3        2.955962   1.000000
    4        4.057448   1.000000
    5        7.976506   0.000000
    6        9.140977   0.000000
    7       10.072965   0.000000
    8       13.605203   0.000000
 
 -0.4166667E-01  0.4583333E+00  0.4166667E-01  0.6944444E-02
    1       -3.944712   1.000000
    2       -1.080562   1.000000
    3        3.978286   1.000000
    4        4.365104   1.000000
    5        7.560583   0.000000
    6        8.921781   0.000000
    7        9.275163   0.000000
    8       13.525555   0.000000
 
 -0.4583333E+00 -0.4583333E+00  0.4166667E-01  0.3472222E-02
    1       -2.425944   1.000000
    2       -1.794982   1.000000
    3        2.744148   1.000000
    4        2.853367   1.000000
    5        6.391129   0.001005
    6        6.589086   0.000004
    7       15.296496   0.000000
    8       15.343623   0.000000
 
 -0.3750000E+00 -0.4583333E+00  0.4166667E-01  0.6944444E-02
    1       -2.985723   1.000000
    2       -1.139821   1.000000
    3        2.570912   1.000000
    4        2.854233   1.000000
    5        6.599261   0.000003
    6        7.136894   0.000000
    7       13.864401   0.000000
    8       14.627987   0.000000
 
 -0.2916667E+00 -0.4583333E+00  0.4166667E-01  0.6944444E-02
    1       -3.421334   1.000000
    2       -0.610954   1.000000
    3        2.192598   1.000000
    4        3.112016   1.000000
    5        6.950975   0.000000
    6        8.489058   0.000000
    7       12.186274   0.000000
    8       13.146686   0.000000
 
 -0.2083333E+00 -0.4583333E+00  0.4166667E-01  0.6944444E-02
    1       -3.722085   1.000000
    2       -0.520165   1.000000
    3        2.375999   1.000000
    4        3.499024   1.000000
    5        7.428081   0.000000
    6       10.206335   0.000000
    7       10.613829   0.000000
    8       11.572008   0.000000
 
 -0.1250000E+00 -0.4583333E+00  0.4166667E-01  0.6944444E-02
    1       -3.891453   1.000000
    2       -0.792299   1.000000
    3        3.124933   1.000000
    4        3.961636   1.000000
    5        7.893267   0.000000
    6        9.240893   0.000000
    7       10.207006   0.000000
    8       12.169317   0.000000
 
 -0.3750000E+00 -0.3750000E+00  0.4166667E-01  0.3472222E-02
    1       -3.570147   1.000000
    2       -0.445052   1.000000
    3        2.915657   1.000000
    4        3.014626   1.000000
    5        6.350278   0.002556
    6        7.109070   0.000000
    7       13.866363   0.000000
    8       13.873372   0.000000
 
 -0.2916667E+00 -0.3750000E+00  0.4166667E-01  0.6944444E-02
    1       -4.029395   1.000000
    2        0.193385   1.000000
    3        2.873392   1.000000
    4        3.165694   1.000000
    5        6.731718   0.000000
    6        7.777288   0.000000
    7       12.422686   0.000000
    8       13.094867   0.000000
 
 -0.2083333E+00 -0.3750000E+00  0.4166667E-01  0.6944444E-02
    1       -4.337155   1.000000
    2        0.464849   1.000000
    3        2.852451   1.000000
    4        3.540576   1.000000
    5        7.339236   0.000000
    6        9.113660   0.000000
    7       10.853780   0.000000
    8       11.725776   0.000000
 
 -0.1250000E+00 -0.3750000E+00  0.4166667E-01  0.6944444E-02
    1       -4.485182   1.000000
    2        0.208709   1.000000
    3        3.374006   1.000000
    4        4.032954   1.000000
    5        7.897766   0.000000
    6        9.409196   0.000000
    7       10.381273   0.000000
    8       10.906560   0.000000
 
 -0.2916667E+00 -0.2916667E+00  0.4166667E-01  0.3472222E-02
    1       -4.531343   1.000000
    2        0.978942   1.000000
    3        3.312939   1.000000
    4        3.386249   1.000000
    5        6.568463   0.000007
    6        7.989438   0.000000
    7       12.329370   0.000000
    8       12.384811   0.000000
 
 -0.2083333E+00 -0.2916667E+00  0.4166667E-01  0.6944444E-02
    1       -4.882178   1.000000
    2        1.521090   1.000000
    3        3.390614   1.000000
    4        3.741751   1.000000
    5        7.083931   0.000000
    6        8.761137   0.000000
    7       11.055792   0.000000
    8       11.589488   0.000000
 
 -0.1250000E+00 -0.2916667E+00  0.4166667E-01  0.6944444E-02
    1       -5.066788   1.000000
    2        1.470342   1.000000
    3        3.679185   1.000000
    4        4.267572   1.000000
    5        7.854151   0.000000
    6        9.480121   0.000000
    7       10.198267   0.000000
    8       10.484436   0.000000
 
 -0.2083333E+00 -0.2083333E+00  0.4166667E-01  0.3472222E-02
    1       -5.284722   1.000000
    2        2.413499   1.000000
    3        3.926383   1.000000
    4        3.950713   1.000000
    5        7.013074   0.000000
    6        9.140726   0.000000
    7       10.866749   0.000000
    8       10.950088   0.000000
 
 -0.1250000E+00 -0.2083333E+00  0.4166667E-01  0.6944444E-02
    1       -5.521567   1.000000
    2        2.778822   1.000000
    3        4.075868   1.000000
    4        4.556509   1.000000
    5        7.607708   0.000000
    6        9.480562   0.000000
    7       10.176771   0.000000
    8       10.237410   0.000000
 
 -0.1250000E+00 -0.1250000E+00  0.4166667E-01  0.3472222E-02
    1       -5.814827   1.000000
    2        3.783305   1.000000
    3        4.663949   1.000000
    4        4.720951   1.000000
    5        7.595588   0.000000
    6        9.403557   0.000000
    7        9.619295   0.000000
    8       10.146026   0.000000
 
  0.1250000E+00  0.1250000E+00  0.1250000E+00  0.1157407E-02
    1       -5.993557   1.000000
    2        4.046480   1.000000
    3        5.357900   0.999988
    4        5.357900   0.999988
    5        8.089928   0.000000
    6        8.619896   0.000000
    7        8.619896   0.000000
    8       10.183064   0.000000
 
  0.2083333E+00  0.1250000E+00  0.1250000E+00  0.3472222E-02
    1       -5.816628   1.000000
    2        3.421819   1.000000
    3        4.498101   1.000000
    4        5.428055   0.999901
    5        8.434221   0.000000
    6        8.606704   0.000000
    7        8.878771   0.000000
    8       10.827414   0.000000
 
  0.2916667E+00  0.1250000E+00  0.1250000E+00  0.3472222E-02
    1       -5.468245   1.000000
    2        2.370276   1.000000
    3        3.724497   1.000000
    4        5.215176   1.000000
    5        8.561946   0.000000
    6        8.956245   0.000000
    7        9.242091   0.000000
    8       11.260700   0.000000
 
  0.3750000E+00  0.1250000E+00  0.1250000E+00  0.3472222E-02
    1       -4.965961   1.000000
    2        1.049264   1.000000
    3        3.365745   1.000000
    4        4.874966   1.000000
    5        8.305940   0.000000
    6        9.309721   0.000000
    7        9.490732   0.000000
    8       11.867824   0.000000
 
  0.4583333E+00  0.1250000E+00  0.1250000E+00  0.3472222E-02
    1       -4.360408   1.000000
    2       -0.173133   1.000000
    3        3.221923   1.000000
    4        4.537104   1.000000
    5        8.060952   0.000000
    6        9.351667   0.000000
    7        9.466971   0.000000
    8       12.942638   0.000000
 
 -0.4583333E+00  0.1250000E+00  0.1250000E+00  0.3472222E-02
    1       -3.827844   1.000000
    2       -1.027187   1.000000
    3        3.236195   1.000000
    4        4.268041   1.000000
    5        7.886593   0.000000
    6        9.192936   0.000000
    7        9.574911   0.000000
    8       13.824641   0.000000
 
 -0.3750000E+00  0.1250000E+00  0.1250000E+00  0.3472222E-02
    1       -3.824871   1.000000
    2       -1.032757   1.000000
    3        3.386816   1.000000
    4        4.100974   1.000000
    5        7.812697   0.000000
    6        9.142229   0.000000
    7        9.748158   0.000000
    8       12.967141   0.000000
 
 -0.2916667E+00  0.1250000E+00  0.1250000E+00  0.3472222E-02
    1       -4.355568   1.000000
    2       -0.184147   1.000000
    3        3.654857   1.000000
    4        4.054283   1.000000
    5        7.842064   0.000000
    6        9.198124   0.000000
    7        9.986140   0.000000
    8       11.652638   0.000000
 
 -0.2083333E+00  0.1250000E+00  0.1250000E+00  0.3472222E-02
    1       -4.961818   1.000000
    2        1.044907   1.000000
    3        4.013936   1.000000
    4        4.136790   1.000000
    5        7.902797   0.000000
    6        9.271479   0.000000
    7       10.172631   0.000000
    8       10.690025   0.000000
 
 -0.1250000E+00  0.1250000E+00  0.1250000E+00  0.3472222E-02
    1       -5.465258   1.000000
    2        2.428156   1.000000
    3        4.345685   1.000000
    4        4.410651   1.000000
    5        7.790625   0.000000
    6        9.273543   0.000000
    7       10.080859   0.000000
    8       10.397563   0.000000
 
  0.2083333E+00  0.2083333E+00  0.1250000E+00  0.3472222E-02
    1       -5.699115   1.000000
    2        2.974856   1.000000
    3        4.697756   1.000000
    4        4.894924   1.000000
    5        8.039910   0.000000
    6        8.773214   0.000000
    7        9.532802   0.000000
    8       10.803053   0.000000
 
  0.2916667E+00  0.2083333E+00  0.1250000E+00  0.6944444E-02
    1       -5.408301   1.000000
    2        2.334164   1.000000
    3        3.729347   1.000000
    4        4.824479   1.000000
    5        8.129029   0.000000
    6        9.113030   0.000000
    7       10.018245   0.000000
    8       10.487993   0.000000
 
  0.3750000E+00  0.2083333E+00  0.1250000E+00  0.6944444E-02
    1       -4.956337   1.000000
    2        1.368812   1.000000
    3        2.996907   1.000000
    4        4.553920   1.000000
    5        8.529128   0.000000
    6        9.079387   0.000000
    7       10.331698   0.000000
    8       10.588166   0.000000
 
  0.4583333E+00  0.2083333E+00  0.1250000E+00  0.6944444E-02
    1       -4.377024   1.000000
    2        0.220095   1.000000
    3        2.679452   1.000000
    4        4.205163   1.000000
    5        8.604440   0.000000
    6        8.953271   0.000000
    7       10.685038   0.000000
    8       11.089439   0.000000
 
 -0.4583333E+00  0.2083333E+00  0.1250000E+00  0.6944444E-02
    1       -3.781499   1.000000
    2       -0.753955   1.000000
    3        2.584931   1.000000
    4        3.923151   1.000000
    5        8.419039   0.000000
    6        8.901202   0.000000
    7       10.741623   0.000000
    8       12.306748   0.000000
 
 -0.3750000E+00  0.2083333E+00  0.1250000E+00  0.6944444E-02
    1       -3.546947   1.000000
    2       -1.089138   1.000000
    3        2.625721   1.000000
    4        3.785544   1.000000
    5        8.234472   0.000000
    6        8.998712   0.000000
    7       10.768952   0.000000
    8       12.854825   0.000000
 
 -0.2916667E+00  0.2083333E+00  0.1250000E+00  0.6944444E-02
    1       -3.961383   1.000000
    2       -0.482050   1.000000
    3        2.759004   1.000000
    4        3.833445   1.000000
    5        8.140142   0.000000
    6        9.219878   0.000000
    7       10.839817   0.000000
    8       11.389921   0.000000
 
 -0.2083333E+00  0.2083333E+00  0.1250000E+00  0.6944444E-02
    1       -4.575127   1.000000
    2        0.595797   1.000000
    3        2.985725   1.000000
    4        4.056205   1.000000
    5        8.089417   0.000000
    6        9.490986   0.000000
    7       10.221479   0.000000
    8       10.945578   0.000000
 
 -0.1250000E+00  0.2083333E+00  0.1250000E+00  0.6944444E-02
    1       -5.119702   1.000000
    2        1.785194   1.000000
    3        3.374482   1.000000
    4        4.362409   1.000000
    5        7.866311   0.000000
    6        9.480563   0.000000
    7       10.019748   0.000000
    8       10.741566   0.000000
 