       N       E                     dE             d eps       ncg     rms          rms(c)
DAV:   1     0.852274859316E+00    0.85227E+00   -0.23549E+03  2976   0.454E+02
DAV:   2    -0.108804665130E+02   -0.11733E+02   -0.11158E+02  4584   0.628E+01
DAV:   3    -0.110025176911E+02   -0.12205E+00   -0.12205E+00  3624   0.823E+00
DAV:   4    -0.110029154856E+02   -0.39779E-03   -0.39779E-03  4776   0.484E-01
DAV:   5    -0.110029156909E+02   -0.20535E-06   -0.20530E-06  3576   0.846E-03    0.300E+00
DAV:   6    -0.108788021688E+02    0.12411E+00   -0.81669E-02  3432   0.149E+00    0.178E+00
DAV:   7    -0.108223825692E+02    0.56420E-01   -0.14985E-01  3752   0.214E+00    0.153E-01
DAV:   8    -0.108236717956E+02   -0.12892E-02   -0.38946E-03  3296   0.460E-01    0.248E-02
DAV:   9    -0.108237634633E+02   -0.91668E-04   -0.89780E-05  2328   0.760E-02
   1 F= -.10823763E+02 E0= -.10823733E+02  d E =-.108238E+02
       N       E                     dE             d eps       ncg     rms          rms(c)
DAV:   1    -0.108319068752E+02   -0.82351E-02   -0.22777E-01  3744   0.265E+00    0.303E-01
DAV:   2    -0.108280339440E+02    0.38729E-02   -0.31385E-03  3832   0.357E-01    0.174E-01
DAV:   3    -0.108260209406E+02    0.20130E-02   -0.40838E-03  3496   0.322E-01    0.218E-02
DAV:   4    -0.108260100965E+02    0.10844E-04   -0.42696E-05  1592   0.576E-02
   2 F= -.10826010E+02 E0= -.10825992E+02  d E =-.224663E-02
       N       E                     dE             d eps       ncg     rms          rms(c)
DAV:   1    -0.108289846737E+02   -0.29637E-02   -0.36668E-02  3648   0.107E+00    0.122E-01
DAV:   2    -0.108283673628E+02    0.61731E-03   -0.50121E-04  3712   0.143E-01    0.700E-02
DAV:   3    -0.108280535881E+02    0.31377E-03   -0.63997E-04  2080   0.129E-01
   3 F= -.10828054E+02 E0= -.10828032E+02  d E =-.429012E-02
