 running on    8 total cores
 distrk:  each k-point on    8 cores,    1 groups
 distr:  one band on    1 cores,    8 groups
 using from now: INCAR     
 vasp.5.4.4.18Apr17-6-g9f103f2a35 (build Dec 09 2018 21:25:21) complex          
  
 POSCAR found type information on POSCAR  Si
 POSCAR found :  1 types and       2 ions
 scaLAPACK will be used

 ----------------------------------------------------------------------------- 
|                                                                             |
|           W    W    AA    RRRRR   N    N  II  N    N   GGGG   !!!           |
|           W    W   A  A   R    R  NN   N  II  NN   N  G    G  !!!           |
|           W    W  A    A  R    R  N N  N  II  N N  N  G       !!!           |
|           W WW W  AAAAAA  RRRRR   N  N N  II  N  N N  G  GGG   !            |
|           WW  WW  A    A  R   R   N   NN  II  N   NN  G    G                |
|           W    W  A    A  R    R  N    N  II  N    N   GGGG   !!!           |
|                                                                             |
|      For optimal performance we recommend to set                            |
|        NCORE= 4 - approx SQRT( number of cores)                             |
|      NCORE specifies how many cores store one orbital (NPAR=cpu/NCORE).     |
|      This setting can  greatly improve the performance of VASP for DFT.     |
|      The default,   NCORE=1            might be grossly inefficient         |
|      on modern multi-core architectures or massively parallel machines.     |
|      Do your own testing !!!!                                               |
|      Unfortunately you need to use the default for GW and RPA calculations. |
|      (for HF NCORE is supported but not extensively tested yet)             |
|                                                                             |
 ----------------------------------------------------------------------------- 

 LDA part: xc-table for Pade appr. of Perdew
 POSCAR, INCAR and KPOINTS ok, starting setup
 FFT: planning ...
 WAVECAR not read
 entering main loop
       N       E                     dE             d eps       ncg     rms          rms(c)
DAV:   1     0.852274859316E+00    0.85227E+00   -0.23549E+03  2976   0.454E+02
DAV:   2    -0.108804665130E+02   -0.11733E+02   -0.11158E+02  4584   0.628E+01
DAV:   3    -0.110025176911E+02   -0.12205E+00   -0.12205E+00  3624   0.823E+00
DAV:   4    -0.110029154856E+02   -0.39779E-03   -0.39779E-03  4776   0.484E-01
DAV:   5    -0.110029156909E+02   -0.20535E-06   -0.20530E-06  3576   0.846E-03    0.300E+00
DAV:   6    -0.108788021688E+02    0.12411E+00   -0.81669E-02  3432   0.149E+00    0.178E+00
DAV:   7    -0.108223825692E+02    0.56420E-01   -0.14985E-01  3752   0.214E+00    0.153E-01
DAV:   8    -0.108236717956E+02   -0.12892E-02   -0.38946E-03  3296   0.460E-01    0.248E-02
DAV:   9    -0.108237634633E+02   -0.91668E-04   -0.89780E-05  2328   0.760E-02
   1 F= -.10823763E+02 E0= -.10823733E+02  d E =-.108238E+02
 curvature:   0.00 expect dE= 0.000E+00 dE for cont linesearch  0.000E+00
 trial: gam= 0.00000 g(F)=  0.118E-44 g(S)=  0.150E-01 ort = 0.000E+00 (trialstep = 0.100E+01)
 search vector abs. value=  0.150E-01
 bond charge predicted
       N       E                     dE             d eps       ncg     rms          rms(c)
DAV:   1    -0.108319068752E+02   -0.82351E-02   -0.22777E-01  3744   0.265E+00    0.303E-01
DAV:   2    -0.108280339440E+02    0.38729E-02   -0.31385E-03  3832   0.357E-01    0.174E-01
DAV:   3    -0.108260209406E+02    0.20130E-02   -0.40838E-03  3496   0.322E-01    0.218E-02
DAV:   4    -0.108260100965E+02    0.10844E-04   -0.42696E-05  1592   0.576E-02
   2 F= -.10826010E+02 E0= -.10825992E+02  d E =-.224663E-02
 trial-energy change:   -0.002247  1 .order   -0.002566   -0.014985    0.009854
 step:   0.6033(harm=  0.6033)  dis= 0.00000  next Energy=   -10.828284 (dE=-0.452E-02)
 bond charge predicted
       N       E                     dE             d eps       ncg     rms          rms(c)
DAV:   1    -0.108289846737E+02   -0.29637E-02   -0.36668E-02  3648   0.107E+00    0.122E-01
DAV:   2    -0.108283673628E+02    0.61731E-03   -0.50121E-04  3712   0.143E-01    0.700E-02
DAV:   3    -0.108280535881E+02    0.31377E-03   -0.63997E-04  2080   0.129E-01
   3 F= -.10828054E+02 E0= -.10828032E+02  d E =-.429012E-02
 curvature:  -0.30 expect dE=-0.366E-05 dE for cont linesearch -0.366E-05
 trial: gam= 0.00000 g(F)=  0.158E-43 g(S)=  0.121E-04 ort =-0.426E-03 (trialstep = 0.921E+00)
 search vector abs. value=  0.121E-04
 reached required accuracy - stopping structural energy minimisation
 writing wavefunctions
