unknown system                          
   1.00000000000000     
    -2.431282    2.431282    1.339074
     2.431282   -2.431282    1.339074
     2.431282    2.431282   -1.339074
   Si
     2
Direct
  0.750000  0.250000  0.500000
  0.500000  0.500000  0.000000
 
   36   36   36
  9.7147      9.6451      9.4426      9.1246      8.7159      8.2442      7.7353      7.2103      6.6855      6.1736    
  5.6858      5.2329      4.8255      4.4727      4.1811      3.9543      3.7932      3.6973      3.6654      3.6973    
  3.7932      3.9543      4.1811      4.4727      4.8255      5.2329      5.6858      6.1736      6.6855      7.2103    
  7.7353      8.2442      8.7159      9.1246      9.4426      9.6451      9.6451      9.8000      9.8136      9.6890    
  9.4405      9.0905      8.6638      8.1845      7.6723      7.1436      6.6119      6.0911      5.5950      5.1378    
  4.7317      4.3857      4.1051      3.8919      3.7457      3.6653      3.6497      3.6991      3.8139      3.9949    
  4.2417      4.5519      4.9210      5.3428      5.8101      6.3152      6.8493      7.4009      7.9531      8.4830    
  8.9618      9.3587      9.4426      9.8136      10.050      10.139      10.082      9.8903      9.5853      9.1906    
  8.7285      8.2180      7.6746      7.1129      6.5485      5.9988      5.4812      5.0120      4.6030      4.2620    
  3.9921      3.7935      3.6649      3.6047      3.6124      3.6879      3.8317      4.0437      4.3225      4.6657    
  5.0696      5.5305      6.0436      6.6022      7.1950      7.8042      8.4040      8.9618      9.1246      9.6890    
  10.139      10.447      10.599      10.593      10.444      10.170      9.7956      9.3417      8.8251      8.2602    
  7.6614      7.0455      6.4332      5.8463      5.3054      4.8264      4.4198      4.0905      3.8393      3.6644    
  3.5637      3.5356      3.5793      3.6949      3.8823      4.1413      4.4712      4.8714      5.3410      5.8779    
  6.4767      7.1256      7.8042      8.4830      8.7159      9.4405      10.082      10.599      10.962      11.157    
  11.185      11.060      10.806      10.444      9.9938      9.4687      8.8797      8.2398      7.5670      6.8853    
  6.2217      5.6024      5.0483      4.5733      4.1840      3.8817      3.6642      3.5281      3.4707      3.4904    
  3.5867      3.7598      4.0104      4.3403      4.7513      5.2454      5.8223      6.4767      7.1950      7.9531    
  8.2442      9.0905      9.8903      10.593      11.157      11.551      11.760      11.788      11.665      11.423    
  11.081      10.648      10.122      9.5107      8.8289      8.0959      7.3400      6.5947      5.8928      5.2610    
  4.7171      4.2695      3.9195      3.6642      3.4988      3.4192      3.4228      3.5087      3.6775      3.9315    
  4.2745      4.7111      5.2454      5.8779      6.6022      7.4009      7.7353      8.6638      9.5853      10.444    
  11.185      11.760      12.125      12.279      12.259      12.119      11.898      11.609      11.234      10.746    
  10.131      9.4090      8.6144      7.7816      6.9518      6.1658      5.4567      4.8461      4.3440      3.9516    
  3.6645      3.4764      3.3819      3.3773      3.4616      3.6362      3.9051      4.2745      4.7513      5.3410    
  6.0436      6.8493      7.2103      8.1845      9.1906      10.170      11.060      11.788      12.279      12.514    
  12.539      12.433      12.277      12.113      11.932      11.680      11.286      10.709      9.9607      9.1046    
  8.1941      7.2798      6.4113      5.6281      4.9556      4.4051      3.9768      3.6649      3.4614      3.3594    
  3.3545      3.4459      3.6362      3.9315      4.3403      4.8714      5.5305      6.3152      6.6855      7.6724    
  8.7285      9.7956      10.806      11.665      12.259      12.539      12.542      12.374      12.167      12.024    
  11.981      11.988      11.935      11.702      11.210      10.464      9.5495      8.5626      7.5665      6.6198    
  5.7687      5.0416      4.4504      3.9942      3.6653      3.4539      3.3519      3.3545      3.4616      3.6775    
  4.0104      4.4712      5.0696      5.8101      6.1736      7.1436      8.2180      9.3417      10.444      11.423    
  12.119      12.433      12.374      12.055      11.656      11.363      11.296      11.461      11.752      11.984    
  11.976      11.614      10.897      9.9342      8.8737      7.8009      6.7834      5.8731      5.1009      4.4784    
  4.0032      3.6655      3.4539      3.3594      3.3773      3.5087      3.7598      4.1413      4.6657      5.3428    
  5.6858      6.6119      7.6746      8.8251      9.9938      11.081      11.898      12.277      12.167      11.656    
  10.952      10.320      9.9954      10.095      10.577      11.250      11.845      12.115      11.914      11.245    
  10.246      9.1167      7.9747      6.8961      5.9374      5.1311      4.4878      4.0032      3.6653      3.4614    
  3.3819      3.4228      3.5867      3.8823      4.3225      4.9210      5.2329      6.0911      7.1129      8.2602    
  9.4687      10.648      11.609      12.113      12.024      11.363      10.320      9.2128      8.3902      8.1226    
  8.5031      9.4114      10.555      11.570      12.147      12.119      11.504      10.475      9.2832      8.0814    
  6.9534      5.9591      5.1311      4.4784      3.9942      3.6649      3.4764      3.4192      3.4904      3.6949    
  4.0437      4.5519      4.8255      5.5950      6.5485      7.6614      8.8797      10.122      11.234      11.932    
  11.981      11.296      9.9954      8.3902      6.9106      5.9829      5.8902      6.6707      8.1014      9.7740    
  11.232      12.114      12.246      11.673      10.615      9.3677      8.1174      6.9534      5.9374      5.1009    
  4.4504      3.9768      3.6645      3.4988      3.4707      3.5793      3.8317      4.2417      4.4727      5.1378    
  5.9988      7.0456      8.2398      9.5107      10.746      11.680      11.988      11.461      10.095      8.1226    
  5.9830      4.2168      3.3067      3.5180      4.8038      6.8185      9.0348      10.914      12.060      12.312    
  11.756      10.661      9.3677      8.0814      6.8961      5.8731      5.0416      4.4051      3.9516      3.6642    
  3.5281      3.5356      3.6879      3.9949      4.1811      4.7317      5.4812      6.4332      7.5670      8.8289    
  10.131      11.286      11.935      11.752      10.577      8.5031      5.8902      3.3067      1.3862     0.63675    
  1.2717      3.1323      5.7409      8.4597      10.688      12.022      12.333      11.756      10.615      9.2832    
  7.9747      6.7834      5.7687      4.9556      4.3440      3.9195      3.6642      3.5637      3.6124      3.8139    
  3.9543      4.3857      5.0120      5.8464      6.8853      8.0959      9.4090      10.709      11.702      11.984    
  11.250      9.4114      6.6707      3.5180     0.63675     -1.2755     -1.7224     -.57652      1.8741      5.0236    
  8.1455      10.607      12.022      12.312      11.673      10.475      9.1167      7.8009      6.6198      5.6281    
  4.8461      4.2695      3.8817      3.6644      3.6047      3.6991      3.7932      4.1052      4.6030      5.3054    
  6.2217      7.3400      8.6144      9.9607      11.210      11.976      11.845      10.555      8.1014      4.8038    
  1.2717     -1.7224     -3.4558     -3.4839     -1.7919      1.1987      4.7720      8.1455      10.688      12.060    
  12.246      11.504      10.246      8.8737      7.5665      6.4113      5.4567      4.7171      4.1840      3.8393    
  3.6649      3.6497      3.6973      3.8919      4.2620      4.8264      5.6024      6.5947      7.7816      9.1046    
  10.464      11.614      12.115      11.570      9.7740      6.8185      3.1323     -.57654     -3.4839     -4.8858    
 -4.4253     -2.2156      1.1987      5.0236      8.4597      10.914      12.114      12.119      11.245      9.9342    
  8.5626      7.2798      6.1658      5.2610      4.5733      4.0905      3.7935      3.6653      3.6654      3.7457    
  3.9921      4.4198      5.0483      5.8928      6.9518      8.1941      9.5495      10.897      11.914      12.147    
  11.232      9.0348      5.7408      1.8741     -1.7919     -4.4254     -5.3838     -4.4253     -1.7919      1.8741    
  5.7409      9.0348      11.232      12.147      11.914      10.897      9.5495      8.1941      6.9518      5.8928    
  5.0483      4.4198      3.9921      3.7457      3.6973      3.6653      3.7935      4.0906      4.5733      5.2610    
  6.1658      7.2798      8.5626      9.9341      11.245      12.119      12.114      10.914      8.4597      5.0235    
  1.1986     -2.2157     -4.4254     -4.8858     -3.4839     -.57652      3.1323      6.8185      9.7740      11.570    
  12.115      11.614      10.464      9.1046      7.7816      6.5947      5.6024      4.8264      4.2620      3.8919    
  3.7932      3.6498      3.6649      3.8393      4.1841      4.7171      5.4567      6.4113      7.5664      8.8737    
  10.246      11.504      12.246      12.060      10.688      8.1455      4.7720      1.1986     -1.7919     -3.4839    
 -3.4558     -1.7224      1.2717      4.8038      8.1014      10.555      11.845      11.976      11.210      9.9607    
  8.6144      7.3400      6.2217      5.3054      4.6030      4.1051      3.9543      3.6991      3.6047      3.6645    
  3.8817      4.2695      4.8461      5.6281      6.6198      7.8009      9.1166      10.475      11.673      12.312    
  12.022      10.607      8.1455      5.0235      1.8741     -.57654     -1.7224     -1.2755     0.63675      3.5180    
  6.6707      9.4114      11.250      11.984      11.702      10.709      9.4090      8.0959      6.8853      5.8463    
  5.0120      4.3857      4.1811      3.8139      3.6124      3.5638      3.6642      3.9196      4.3441      4.9556    
  5.7686      6.7834      7.9746      9.2831      10.614      11.756      12.333      12.022      10.688      8.4597    
  5.7408      3.1323      1.2717     0.63675      1.3862      3.3067      5.8902      8.5031      10.577      11.752    
  11.935      11.286      10.131      8.8289      7.5670      6.4332      5.4812      4.7317      4.4727      3.9949    
  3.6879      3.5356      3.5281      3.6642      3.9516      4.4051      5.0416      5.8731      6.8960      8.0814    
  9.3677      10.661      11.756      12.312      12.060      10.914      9.0348      6.8185      4.8038      3.5180    
  3.3067      4.2168      5.9829      8.1226      10.095      11.461      11.988      11.680      10.746      9.5107    
  8.2398      7.0455      5.9988      5.1378      4.8255      4.2417      3.8317      3.5793      3.4707      3.4988    
  3.6645      3.9768      4.4504      5.1008      5.9373      6.9534      8.1174      9.3677      10.614      11.673    
  12.246      12.114      11.232      9.7740      8.1014      6.6707      5.8902      5.9830      6.9106      8.3902    
  9.9954      11.296      11.981      11.932      11.234      10.122      8.8797      7.6614      6.5485      5.5950    
  5.2329      4.5519      4.0437      3.6949      3.4904      3.4192      3.4764      3.6650      3.9943      4.4784    
  5.1310      5.9590      6.9534      8.0814      9.2831      10.475      11.504      12.119      12.147      11.570    
  10.555      9.4114      8.5031      8.1226      8.3902      9.2128      10.320      11.363      12.024      12.113    
  11.609      10.648      9.4687      8.2602      7.1129      6.0911      5.6858      4.9210      4.3225      3.8823    
  3.5867      3.4228      3.3819      3.4615      3.6654      4.0032      4.4878      5.1310      5.9373      6.8960    
  7.9746      9.1166      10.246      11.245      11.914      12.115      11.845      11.250      10.577      10.095    
  9.9954      10.320      10.952      11.656      12.167      12.277      11.898      11.081      9.9938      8.8251    
  7.6746      6.6119      6.1736      5.3428      4.6657      4.1412      3.7598      3.5087      3.3773      3.3594    
  3.4539      3.6655      4.0032      4.4784      5.1008      5.8731      6.7834      7.8009      8.8737      9.9341    
  10.897      11.614      11.976      11.984      11.752      11.461      11.296      11.363      11.656      12.055    
  12.374      12.433      12.119      11.423      10.444      9.3417      8.2180      7.1436      6.6855      5.8101    
  5.0696      4.4712      4.0104      3.6775      3.4616      3.3545      3.3519      3.4539      3.6654      3.9943    
  4.4504      5.0416      5.7686      6.6198      7.5664      8.5626      9.5495      10.464      11.210      11.702    
  11.935      11.988      11.981      12.024      12.167      12.374      12.542      12.539      12.259      11.665    
  10.806      9.7956      8.7285      7.6723      7.2103      6.3152      5.5305      4.8714      4.3402      3.9315    
  3.6362      3.4459      3.3545      3.3594      3.4615      3.6650      3.9768      4.4051      4.9556      5.6281    
  6.4113      7.2798      8.1941      9.1046      9.9607      10.709      11.286      11.680      11.932      12.113    
  12.277      12.433      12.539      12.514      12.279      11.788      11.060      10.170      9.1906      8.1845    
  7.7353      6.8493      6.0436      5.3410      4.7513      4.2744      3.9051      3.6362      3.4616      3.3773    
  3.3819      3.4764      3.6645      3.9516      4.3441      4.8461      5.4567      6.1658      6.9518      7.7816    
  8.6144      9.4090      10.131      10.746      11.234      11.609      11.898      12.119      12.259      12.279    
  12.125      11.760      11.185      10.444      9.5853      8.6638      8.2442      7.4009      6.6022      5.8779    
  5.2454      4.7111      4.2744      3.9315      3.6775      3.5087      3.4228      3.4192      3.4988      3.6642    
  3.9196      4.2695      4.7171      5.2610      5.8928      6.5947      7.3400      8.0959      8.8289      9.5107    
  10.122      10.648      11.081      11.423      11.665      11.788      11.760      11.551      11.157      10.593    
  9.8903      9.0905      8.7159      7.9531      7.1950      6.4767      5.8222      5.2454      4.7513      4.3402    
  4.0104      3.7598      3.5867      3.4904      3.4707      3.5281      3.6642      3.8817      4.1841      4.5733    
  5.0483      5.6024      6.2217      6.8853      7.5670      8.2398      8.8797      9.4687      9.9938      10.444    
  10.806      11.060      11.185      11.157      10.962      10.599      10.082      9.4405      9.1246      8.4830    
  7.8042      7.1256      6.4767      5.8779      5.3410      4.8714      4.4712      4.1412      3.8823      3.6949    
  3.5793      3.5356      3.5638      3.6645      3.8393      4.0906      4.4198      4.8264      5.3054      5.8464    
  6.4332      7.0456      7.6614      8.2602      8.8251      9.3417      9.7956      10.170      10.444      10.593    
  10.599      10.447      10.139      9.6890      9.4426      8.9618      8.4040      7.8042      7.1950      6.6022    
  6.0436      5.5305      5.0696      4.6657      4.3225      4.0437      3.8317      3.6879      3.6124      3.6047    
  3.6649      3.7935      3.9921      4.2620      4.6030      5.0120      5.4812      5.9988      6.5485      7.1129    
  7.6746      8.2180      8.7285      9.1906      9.5853      9.8903      10.082      10.139      10.050      9.8136    
  9.6451      9.3587      8.9618      8.4830      7.9531      7.4009      6.8493      6.3152      5.8101      5.3428    
  4.9210      4.5519      4.2417      3.9949      3.8139      3.6991      3.6498      3.6653      3.7457      3.8919    
  4.1052      4.3857      4.7317      5.1378      5.5950      6.0911      6.6119      7.1436      7.6724      8.1845    
  8.6638      9.0905      9.4405      9.6890      9.8136      9.8000      9.6451      9.5350      9.3051      8.9730    
  8.5629      8.1016      7.6136      7.1188      6.6316      6.1628      5.7211      5.3150      4.9531      4.6431    
  4.3910      4.2003      4.0722      4.0067      4.0031      4.0614      4.1820      4.3657      4.6123      4.9196    
  5.2825      5.6926      6.1389      6.6091      7.0914      7.5746      8.0468      8.4940      8.8980      9.2369    
  9.4871      9.6279      9.5350      9.6451      9.6279      9.4871      9.2369      8.8980      8.4940      8.0468    
  7.5746      7.0914      6.6091      6.1389      5.6926      5.2825      4.9196      4.6123      4.3657      4.1820    
  4.0614      4.0031      4.0067      4.0722      4.2003      4.3910      4.6431      4.9530      5.3149      5.7210    
  6.1628      6.6316      7.1188      7.6136      8.1016      8.5629      8.9730      9.3051      9.2890      9.6113    
  9.8136      9.8846      9.8250      9.6461      9.3662      9.0064      8.5867      8.1239      7.6317      7.1228    
  6.6111      6.1120      5.6414      5.2142      4.8417      4.5313      4.2863      4.1076      3.9942      3.9454    
  3.9607      4.0403      4.1843      4.3920      4.6611      4.9880      5.3679      5.7956      6.2657      6.7718    
  7.3037      7.8462      8.3769      8.8680      8.9263      9.4385      9.8512      10.139      10.289      10.298    
  10.177      9.9426      9.6145      9.2108      8.7466      8.2348      7.6889      7.1248      6.5615      6.0196    
  5.5180      5.0719      4.6914      4.3815      4.1436      3.9768      3.8796      3.8509      3.8902      3.9974    
  4.1720      4.4128      4.7183      5.0866      5.5157      6.0030      6.5434      7.1272      7.7370      8.3475    
  8.4741      9.1428      9.7431      10.238      10.599      10.811      10.873      10.795      10.594      10.287    
  9.8908      9.4181      8.8798      8.2890      7.6638      7.0272      6.4047      5.8206      5.2946      4.8401    
  4.4640      4.1683      3.9516      3.8116      3.7462      3.7540      3.8344      3.9871      4.2123      4.5103    
  4.8820      5.3283      5.8488      6.4392      7.0887      7.7769      7.9622      8.7485      9.5032      10.181    
  10.742      11.157      11.412      11.507      11.454      11.274      10.985      10.595      10.111      9.5431    
  8.9027      8.2102      7.4931      6.7832      6.1111      5.5016      4.9720      4.5310      4.1808      3.9195    
  3.7436      3.6494      3.6347      3.6983      3.8404      4.0623      4.3666      4.7567      5.2360      5.8055    
  6.4606      7.1877      7.4187      8.2826      9.1538      9.9825      10.719      11.323      11.760      12.013    
  12.098      12.047      11.889      11.633      11.274      10.796      10.200      9.5080      8.7443      7.9423    
  7.1409      6.3781      5.6847      5.0818      4.5798      4.1808      3.8817      3.6774      3.5628      3.5345    
  3.5912      3.7335      3.9643      4.2885      4.7118      5.2395      5.8727      6.6051      6.8670      7.7711    
  8.7206      9.6643      10.546      11.312      11.902      12.279      12.458      12.491      12.431      12.313    
  12.131      11.849      11.421      10.825      10.083      9.2464      8.3574      7.4636      6.6109      5.8367    
  5.1654      4.6087      4.1683      3.8393      3.6148      3.4883      3.4554      3.5146      3.6677      3.9193    
  4.2765      4.7472      5.3375      6.0476      6.3247      7.2362      8.2284      9.2516      10.246      11.146    
  11.859      12.322      12.539      12.577      12.529      12.474      12.441      12.395      12.256      11.934    
  11.379      10.607      9.6975      8.7223      7.7383      6.8002      5.9513      5.2194      4.6167      4.1436    
  3.7935      3.5575      3.4275      3.3985      3.4696      3.6437      3.9275      4.3303      4.8618      5.5276    
  5.8050      6.6954      7.6983      8.7682      9.8440      10.853      11.675      12.203      12.413      12.374    
  12.219      12.089      12.081      12.204      12.376      12.455      12.300      11.830      11.056      10.081    
  9.0228      7.9542      6.9384      6.0241      5.2417      4.6033      4.1076      3.7457      3.5068      3.3816    
  3.3651      3.4569      3.6618      3.9888      4.4493      5.0534      5.3186      6.1630      7.1479      8.2345    
  9.3637      10.460      11.390      11.991      12.188      12.026      11.656      11.286      11.105      11.215    
  11.585      12.066      12.441      12.511      12.164      11.411      10.383      9.2478      8.1032      7.0202    
  6.0524      5.2317      4.5692      4.0614      3.6973      3.4641      3.3519      3.3558      3.4770      3.7222    
  4.1028      4.6317      4.8751      5.6521      6.5924      7.6670      8.8227      9.9849      11.026      11.735    
  11.963      11.695      11.064      10.320      9.7520      9.5865      9.9095      10.629      11.506      12.242    
  12.578      12.378      11.663      10.593      9.3896      8.1801      7.0430      6.0355      5.1898      4.5156    
  4.0067      3.6498      3.4307      3.3392      3.3713      3.5300      3.8244      4.2682      4.4831      5.1752    
  6.0468      7.0811      8.2351      9.4387      10.585      11.445      11.787      11.502      10.661      9.5044    
  8.3902      7.6811      7.6260      8.2700      9.4345      10.779      11.916      12.534      12.485      11.809    
  10.706      9.4444      8.1828      7.0063      5.9743      5.1180      4.4446      3.9454      3.6047      3.4077    
  3.3442      3.4118      3.6156      3.9676      4.1498      4.7438      5.5262      6.4929      7.6148      8.8325    
  10.057      11.092      11.640      11.483      10.579      9.1023      7.4158      5.9830      5.2285      5.3969    
  6.4654      8.1489      9.9966      11.538      12.423      12.505      11.856      10.721      9.4115      8.1123    
  6.9123      5.8715      5.0191      4.3590      3.8796      3.5638      3.3960      3.3672      3.4769      3.7329    
  3.8800      4.3678      5.0453      5.9200      6.9784      8.1772      9.4394      10.631      11.447      11.568    
  10.817      9.2374      7.1221      4.9587      3.3067      2.6282      3.1334      4.7061      6.9416      9.2817    
  11.188      12.289      12.458      11.810      10.639      9.2935      7.9719      6.7651      5.7315      4.8970    
  4.2618      3.8117      3.5281      3.3960      3.4078      3.5655      3.6760      4.0539      4.6170      5.3807    
  6.3463      7.4894      8.7509      10.035      11.116      11.618      11.234      9.8441      7.5951      4.9031    
  2.3725     0.63678     0.16373      1.0986      3.2124      5.9792      8.7474      10.933      12.167      12.360    
  11.678      10.465      9.0959      7.7676      6.5704      5.5595      4.7561      4.1564      3.7436      3.4988    
  3.4077      3.4651      3.5377      3.8055      4.2504      4.8914      5.7408      6.7928      8.0103      9.3184    
  10.586      11.484      11.611      10.690      8.6784      5.8323      2.6872     -.56056E-01 -1.7224     -1.8735    
 -.45593      2.1800      5.3976      8.4767      10.817      12.076      12.218      11.466      10.206      8.8261    
  7.5071      6.3358      5.3621      4.6015      4.0461      3.6774      3.4764      3.4307      3.4641      3.6235    
  3.9509      4.4646      5.1831      6.1151      7.2456      8.5246      9.8629      11.067      11.733      11.463    
  10.029      7.4750      4.1663     0.74072     -2.0354     -3.4839     -3.2302     -1.3306      1.7469      5.2785    
  8.5077      10.850      12.015      12.029      11.174      9.8703      8.4939      7.2000      6.0700      5.1463    
  4.4384      3.9345      3.6148      3.4614      3.4539      3.5068      3.7201      4.1080      4.6900      5.4834    
  6.4916      7.6899      9.0162      10.365      11.466      11.881      11.237      9.3670      6.4067      2.8171    
 -.68828     -3.3163     -4.4253     -3.7328     -1.4112      1.9706      5.6344      8.8259      11.008      11.961    
  11.783      10.805      9.4695      8.1108      6.8574      5.7825      4.9198      4.2722      3.8248      3.5575    
  3.5068      3.4539      3.5575      3.8248      4.2722      4.9197      5.7824      6.8574      8.1108      9.4695    
  10.805      11.783      11.961      11.008      8.8259      5.6344      1.9706     -1.4113     -3.7328     -4.4254    
 -3.3163     -.68829      2.8171      6.4067      9.3670      11.237      11.881      11.466      10.365      9.0162    
  7.6900      6.4916      5.4834      4.6900      4.1080      3.7201      3.6235      3.4641      3.4614      3.6148    
  3.9345      4.4384      5.1463      6.0699      7.2000      8.4939      9.8702      11.174      12.029      12.015    
  10.850      8.5077      5.2784      1.7469     -1.3307     -3.2303     -3.4839     -2.0355     0.74070      4.1663    
  7.4750      10.029      11.463      11.733      11.067      9.8629      8.5247      7.2456      6.1151      5.1831    
  4.4646      3.9509      3.8055      3.5377      3.4307      3.4764      3.6774      4.0461      4.6015      5.3621    
  6.3358      7.5070      8.8261      10.206      11.465      12.218      12.076      10.817      8.4767      5.3976    
  2.1799     -.45597     -1.8736     -1.7224     -.56108E-01  2.6871      5.8323      8.6784      10.690      11.611    
  11.484      10.586      9.3184      8.0103      6.7928      5.7408      4.8913      4.2504      4.0538      3.6760    
  3.4651      3.4077      3.4988      3.7436      4.1564      4.7561      5.5595      6.5704      7.7675      9.0958    
  10.465      11.678      12.360      12.167      10.933      8.7473      5.9792      3.2124      1.0986     0.16367    
 0.63672      2.3724      4.9030      7.5951      9.8440      11.234      11.618      11.116      10.035      8.7509    
  7.4894      6.3463      5.3806      4.6170      4.3677      3.8800      3.5655      3.4078      3.3960      3.5281    
  3.8117      4.2618      4.8970      5.7315      6.7650      7.9719      9.2935      10.639      11.810      12.458    
  12.289      11.188      9.2817      6.9416      4.7061      3.1334      2.6281      3.3067      4.9587      7.1221    
  9.2374      10.817      11.568      11.447      10.631      9.4394      8.1772      6.9784      5.9200      5.0453    
  4.7438      4.1497      3.7329      3.4769      3.3672      3.3960      3.5638      3.8797      4.3590      5.0191    
  5.8715      6.9123      8.1123      9.4114      10.721      11.856      12.505      12.423      11.538      9.9966    
  8.1489      6.4654      5.3969      5.2284      5.9829      7.4157      9.1022      10.579      11.483      11.640    
  11.092      10.057      8.8325      7.6148      6.4928      5.5261      5.1752      4.4830      3.9676      3.6156    
  3.4118      3.3443      3.4077      3.6048      3.9454      4.4447      5.1180      5.9743      7.0063      8.1828    
  9.4444      10.706      11.809      12.485      12.534      11.916      10.779      9.4345      8.2699      7.6260    
  7.6810      8.3901      9.5044      10.661      11.502      11.787      11.446      10.585      9.4387      8.2351    
  7.0811      6.0468      5.6521      4.8750      4.2682      3.8244      3.5300      3.3714      3.3392      3.4307    
  3.6498      4.0067      4.5156      5.1898      6.0355      7.0429      8.1801      9.3896      10.593      11.663    
  12.378      12.578      12.242      11.506      10.629      9.9094      9.5865      9.7519      10.320      11.064    
  11.695      11.963      11.735      11.026      9.9849      8.8227      7.6670      6.5924      6.1630      5.3186    
  4.6317      4.1028      3.7222      3.4770      3.3558      3.3519      3.4641      3.6973      4.0614      4.5692    
  5.2317      6.0524      7.0202      8.1033      9.2478      10.383      11.411      12.164      12.511      12.441    
  12.066      11.585      11.215      11.105      11.286      11.656      12.026      12.188      11.991      11.390    
  10.460      9.3637      8.2345      7.1478      6.6954      5.8050      5.0534      4.4493      3.9888      3.6618    
  3.4569      3.3651      3.3816      3.5068      3.7457      4.1076      4.6033      5.2417      6.0241      6.9384    
  7.9543      9.0228      10.081      11.056      11.831      12.301      12.455      12.376      12.204      12.081    
  12.089      12.219      12.374      12.413      12.203      11.675      10.853      9.8440      8.7682      7.6983    
  7.2362      6.3247      5.5276      4.8618      4.3303      3.9275      3.6437      3.4696      3.3985      3.4275    
  3.5575      3.7936      4.1436      4.6167      5.2194      5.9513      6.8002      7.7383      8.7223      9.6975    
  10.607      11.379      11.934      12.256      12.395      12.441      12.474      12.529      12.577      12.539    
  12.322      11.859      11.146      10.246      9.2516      8.2284      7.7711      6.8670      6.0476      5.3375    
  4.7472      4.2764      3.9193      3.6677      3.5146      3.4554      3.4883      3.6148      3.8393      4.1683    
  4.6087      5.1654      5.8367      6.6109      7.4636      8.3574      9.2464      10.083      10.825      11.421    
  11.849      12.131      12.313      12.431      12.491      12.458      12.279      11.902      11.312      10.546    
  9.6643      8.7206      8.2826      7.4187      6.6051      5.8727      5.2394      4.7118      4.2884      3.9643    
  3.7335      3.5912      3.5345      3.5628      3.6774      3.8817      4.1808      4.5798      5.0819      5.6848    
  6.3781      7.1409      7.9423      8.7443      9.5080      10.200      10.796      11.274      11.633      11.889    
  12.047      12.099      12.013      11.760      11.323      10.719      9.9825      9.1538      8.7485      7.9622    