unknown system                          
   1.00000000000000     
    -2.431282    2.431282    1.339074
     2.431282   -2.431282    1.339074
     2.431282    2.431282   -1.339074
   Si
     2
Direct
  0.750000  0.250000  0.500000
  0.500000  0.500000  0.000000
 
   36   36   36
 0.97146874658E+01 0.96450967897E+01 0.94425847980E+01 0.91245555369E+01 0.87159078498E+01
 0.82442178535E+01 0.77352692417E+01 0.72102902763E+01 0.66855160439E+01 0.61736273766E+01
 0.56857830846E+01 0.52328883468E+01 0.48254913206E+01 0.44727077454E+01 0.41811068532E+01
 0.39542724538E+01 0.37931986772E+01 0.36972693442E+01 0.36654494283E+01 0.36972685262E+01
 0.37931986426E+01 0.39542752410E+01 0.41811123067E+01 0.44727124524E+01 0.48254927249E+01
 0.52328892296E+01 0.56857881120E+01 0.61736360066E+01 0.66855229144E+01 0.72102920096E+01
 0.77352672451E+01 0.82442150503E+01 0.87159062407E+01 0.91245567872E+01 0.94425891971E+01
 0.96451011203E+01 0.96451011203E+01 0.97999558984E+01 0.98135702564E+01 0.96889626889E+01
 0.94405445851E+01 0.90904669294E+01 0.86638493804E+01 0.81844789451E+01 0.76723483147E+01
 0.71435548206E+01 0.66119417920E+01 0.60910504006E+01 0.55949956438E+01 0.51377819120E+01
 0.47316704228E+01 0.43857044561E+01 0.41051476912E+01 0.38919229592E+01 0.37457102306E+01
 0.36652939788E+01 0.36497499153E+01 0.36990505518E+01 0.38138996839E+01 0.39949358620E+01
 0.42417127797E+01 0.45518991472E+01 0.49210153285E+01 0.53428264680E+01 0.58101263286E+01
 0.63152197532E+01 0.68493439459E+01 0.74008745224E+01 0.79531037550E+01 0.84829613584E+01
 0.89618280259E+01 0.93587185481E+01 0.94425891971E+01 0.98135732661E+01 0.10050046292E+02
 0.10139232083E+02 0.10081771895E+02 0.98902528377E+01 0.95853060716E+01 0.91906075406E+01
 0.87285380080E+01 0.82179601144E+01 0.76745562408E+01 0.71128929872E+01 0.65485429844E+01
 0.59987542705E+01 0.54812470547E+01 0.50119550690E+01 0.46030336645E+01 0.42620024059E+01
 0.39921115932E+01 0.37935326227E+01 0.36648966579E+01 0.36047352004E+01 0.36123507913E+01
 0.36878849948E+01 0.38317304209E+01 0.40437204726E+01 0.43225495953E+01 0.46656716872E+01
 0.50696414532E+01 0.55305056511E+01 0.60435900039E+01 0.66021509726E+01 0.71950256757E+01
 0.78042446836E+01 0.84039772860E+01 0.89618280259E+01 0.91245567872E+01 0.96889649163E+01
 0.10139233200E+02 0.10447436625E+02 0.10598878609E+02 0.10593424350E+02 0.10443583404E+02
 0.10169956166E+02 0.97956388852E+01 0.93416644412E+01 0.88251146913E+01 0.82602356910E+01
 0.76613594328E+01 0.70455495896E+01 0.64332202949E+01 0.58463490089E+01 0.53053691214E+01
 0.48263866479E+01 0.44198101813E+01 0.40905445711E+01 0.38393048818E+01 0.36644452775E+01
 0.35637397153E+01 0.35355777483E+01 0.35793048759E+01 0.36948775241E+01 0.38822960714E+01
 0.41412574780E+01 0.44711771924E+01 0.48713839132E+01 0.53409952197E+01 0.58779108969E+01
 0.64766650703E+01 0.71255661147E+01 0.78042446836E+01 0.84829613584E+01 0.87159062407E+01
 0.94405444241E+01 0.10081772122E+02 0.10598878115E+02 0.10962113909E+02 0.11156934305E+02
 0.11184846925E+02 0.11060356081E+02 0.10805778844E+02 0.10444149477E+02 0.99938364895E+01
 0.94686527491E+01 0.88796867845E+01 0.82397629094E+01 0.75669756301E+01 0.68852529787E+01
 0.62217302878E+01 0.56024238921E+01 0.50483173948E+01 0.45732744293E+01 0.41840265431E+01
 0.38817142830E+01 0.36641543969E+01 0.35280766382E+01 0.34707085101E+01 0.34904303520E+01
 0.35867043263E+01 0.37597603650E+01 0.40104437847E+01 0.43402619513E+01 0.47512856136E+01
 0.52453654208E+01 0.58222520034E+01 0.64766650703E+01 0.71950256757E+01 0.79531037550E+01
 0.82442150503E+01 0.90904651342E+01 0.98902524347E+01 0.10593423579E+02 0.11156932872E+02
 0.11551226662E+02 0.11759609435E+02 0.11788356859E+02 0.11665367445E+02 0.11422591160E+02
 0.11081354409E+02 0.10648040191E+02 0.10122067764E+02 0.95107072716E+01 0.88288974321E+01
 0.80959013251E+01 0.73399846650E+01 0.65946759179E+01 0.58927796254E+01 0.52610122754E+01
 0.47170713759E+01 0.42694830820E+01 0.39195352720E+01 0.36641615099E+01 0.34987500239E+01
 0.34191740737E+01 0.34227939786E+01 0.35086731736E+01 0.36774911318E+01 0.39315026752E+01
 0.42744657756E+01 0.47110739024E+01 0.52453654208E+01 0.58779108969E+01 0.66021509726E+01
 0.74008745224E+01 0.77352672451E+01 0.86638468499E+01 0.95853055039E+01 0.10443583966E+02
 0.11184846099E+02 0.11759607702E+02 0.12124526722E+02 0.12278618396E+02 0.12259248624E+02
 0.12118696537E+02 0.11897823075E+02 0.11608669731E+02 0.11234321459E+02 0.10746304704E+02
 0.10130902449E+02 0.94089630838E+01 0.86144087278E+01 0.77815664029E+01 0.69517966109E+01
 0.61658204413E+01 0.54567040760E+01 0.48460848229E+01 0.43440362828E+01 0.39516017639E+01
 0.36644635500E+01 0.34764178596E+01 0.33818945654E+01 0.33773196974E+01 0.34616019849E+01
 0.36362093842E+01 0.39051216565E+01 0.42744657756E+01 0.47512856136E+01 0.53409952197E+01
 0.60435900039E+01 0.68493439459E+01 0.72102920096E+01 0.81844774004E+01 0.91906062347E+01
 0.10169957633E+02 0.11060358124E+02 0.11788356580E+02 0.12278617032E+02 0.12514217215E+02
 0.12539046460E+02 0.12433387345E+02 0.12276803173E+02 0.12113060393E+02 0.11932394242E+02
 0.11679828840E+02 0.11286416418E+02 0.10709113378E+02 0.99606543583E+01 0.91045769127E+01
 0.81940946781E+01 0.72798327669E+01 0.64112737322E+01 0.56280809044E+01 0.49556243401E+01
 0.44050887357E+01 0.39768226950E+01 0.36649208292E+01 0.34614303204E+01 0.33593787014E+01
 0.33544872032E+01 0.34458752362E+01 0.36362093842E+01 0.39315026752E+01 0.43402619513E+01
 0.48713839132E+01 0.55305056511E+01 0.63152197532E+01 0.66855229144E+01 0.76723507376E+01
 0.87285370142E+01 0.97956392240E+01 0.10805782478E+02 0.11665370989E+02 0.12259249480E+02
 0.12539046378E+02 0.12542216317E+02 0.12374357188E+02 0.12166825582E+02 0.12023998173E+02
 0.11980569777E+02 0.11987671849E+02 0.11935305587E+02 0.11702051190E+02 0.11210392842E+02
 0.10463936293E+02 0.95494976737E+01 0.85625690065E+01 0.75664540703E+01 0.66197930439E+01
 0.57686564941E+01 0.50416302081E+01 0.44504305923E+01 0.39942459166E+01 0.36653219902E+01
 0.34539216649E+01 0.33518535835E+01 0.33544872032E+01 0.34616019849E+01 0.36774911318E+01
 0.40104437847E+01 0.44711771924E+01 0.50696414532E+01 0.58101263286E+01 0.61736360066E+01
 0.71435617020E+01 0.82179624709E+01 0.93416641175E+01 0.10444151945E+02 0.11422597015E+02
 0.12118701640E+02 0.12433390276E+02 0.12374359550E+02 0.12054835002E+02 0.11655981807E+02
 0.11362936931E+02 0.11295618029E+02 0.11461465486E+02 0.11751629055E+02 0.11984084856E+02
 0.11975813493E+02 0.11613759437E+02 0.10896760435E+02 0.99341541483E+01 0.88737303240E+01
 0.78009407591E+01 0.67834438827E+01 0.58730791885E+01 0.51008627462E+01 0.44783584220E+01
 0.40031530316E+01 0.36654803045E+01 0.34539216649E+01 0.33593787014E+01 0.33773196974E+01
 0.35086731736E+01 0.37597603650E+01 0.41412574780E+01 0.46656716872E+01 0.53428264680E+01
 0.56857881120E+01 0.66119485449E+01 0.76745624743E+01 0.88251167780E+01 0.99938377485E+01
 0.11081359937E+02 0.11897831296E+02 0.12276810069E+02 0.12166831772E+02 0.11655987708E+02
 0.10952103414E+02 0.10320469060E+02 0.99953542440E+01 0.10095348899E+02 0.10577157073E+02
 0.11249849352E+02 0.11845227572E+02 0.12114731370E+02 0.11913973124E+02 0.11245084467E+02
 0.10246024344E+02 0.91166673177E+01 0.79746749265E+01 0.68960518457E+01 0.59373686719E+01
 0.51310605244E+01 0.44877914819E+01 0.40031530316E+01 0.36653219902E+01 0.34614303204E+01
 0.33818945654E+01 0.34227939786E+01 0.35867043263E+01 0.38822960714E+01 0.43225495953E+01
 0.49210153285E+01 0.52328892296E+01 0.60910521749E+01 0.71128990609E+01 0.82602414357E+01
 0.94686553141E+01 0.10648044662E+02 0.11608679311E+02 0.12113070877E+02 0.12024007011E+02
 0.11362947189E+02 0.10320478904E+02 0.92127850499E+01 0.83901708564E+01 0.81225606214E+01
 0.85031265721E+01 0.94114049901E+01 0.10554540230E+02 0.11570017570E+02 0.12146846670E+02
 0.12119177159E+02 0.11503604254E+02 0.10475034290E+02 0.92831531332E+01 0.80814170295E+01
 0.69534162508E+01 0.59590743242E+01 0.51310605244E+01 0.44783584220E+01 0.39942459166E+01
 0.36649208292E+01 0.34764178596E+01 0.34191740737E+01 0.34904303520E+01 0.36948775241E+01
 0.40437204726E+01 0.45518991472E+01 0.48254927249E+01 0.55949937731E+01 0.65485451563E+01
 0.76613664823E+01 0.88796923719E+01 0.10122071897E+02 0.11234330587E+02 0.11932408082E+02
 0.11980581802E+02 0.11295628493E+02 0.99953682190E+01 0.83901836648E+01 0.69105844224E+01
 0.59829455313E+01 0.58901611695E+01 0.66707124863E+01 0.81014440744E+01 0.97740142874E+01
 0.11232197891E+02 0.12113604381E+02 0.12245855976E+02 0.11673001108E+02 0.10614529015E+02
 0.93677438665E+01 0.81174142459E+01 0.69534162508E+01 0.59373686719E+01 0.51008627462E+01
 0.44504305923E+01 0.39768226950E+01 0.36644635500E+01 0.34987500239E+01 0.34707085101E+01
 0.35793048759E+01 0.38317304209E+01 0.42417127797E+01 0.44727124524E+01 0.51377826730E+01
 0.59987539376E+01 0.70455553344E+01 0.82397714271E+01 0.95107125129E+01 0.10746311108E+02
 0.11679842952E+02 0.11987688758E+02 0.11461477609E+02 0.10095359892E+02 0.81225762217E+01
 0.59829586042E+01 0.42168473862E+01 0.33067129173E+01 0.35179505245E+01 0.48037891410E+01
 0.68185459278E+01 0.90348358161E+01 0.10913629761E+02 0.12059635474E+02 0.12312391860E+02
 0.11756444762E+02 0.10661327303E+02 0.93677438665E+01 0.80814170295E+01 0.68960518457E+01
 0.58730791885E+01 0.50416302081E+01 0.44050887357E+01 0.39516017639E+01 0.36641615099E+01
 0.35280766382E+01 0.35355777483E+01 0.36878849948E+01 0.39949358620E+01 0.41811123067E+01
 0.47316774079E+01 0.54812492404E+01 0.64332244164E+01 0.75669857733E+01 0.88289061210E+01
 0.10130906448E+02 0.11286424915E+02 0.11935323257E+02 0.11751646442E+02 0.10577167337E+02
 0.85031361084E+01 0.58901744768E+01 0.33067221966E+01 0.13861658816E+01 0.63674845636E+00
 0.12716891098E+01 0.31323129935E+01 0.57408656334E+01 0.84597321308E+01 0.10688150168E+02
 0.12022131069E+02 0.12332829223E+02 0.11756444762E+02 0.10614529015E+02 0.92831531332E+01
 0.79746749265E+01 0.67834438827E+01 0.57686564941E+01 0.49556243401E+01 0.43440362828E+01
 0.39195352720E+01 0.36641543969E+01 0.35637397153E+01 0.36123507913E+01 0.38138996839E+01
 0.39542752410E+01 0.43857152137E+01 0.50119632003E+01 0.58463535224E+01 0.68852624379E+01
 0.80959142071E+01 0.94089693679E+01 0.10709114827E+02 0.11702060435E+02 0.11984102857E+02
 0.11249863744E+02 0.94114112473E+01 0.66707177696E+01 0.35179564420E+01 0.63674963092E+00
 -.12755005302E+01 -.17223975396E+01 -.57652074573E+00 0.18740907519E+01 0.50235533107E+01
 0.81455338651E+01 0.10606903103E+02 0.12022131069E+02 0.12312391860E+02 0.11673001108E+02
 0.10475034290E+02 0.91166673177E+01 0.78009407591E+01 0.66197930439E+01 0.56280809044E+01
 0.48460848229E+01 0.42694830820E+01 0.38817142830E+01 0.36644452775E+01 0.36047352004E+01
 0.36990505518E+01 0.37931986426E+01 0.41051569529E+01 0.46030468412E+01 0.53053771022E+01
 0.62217375753E+01 0.73399981158E+01 0.86144206508E+01 0.99606552768E+01 0.11210390619E+02
 0.11975821234E+02 0.11845241576E+02 0.10554547909E+02 0.81014441316E+01 0.48037869210E+01
 0.12716829409E+01 -.17224073764E+01 -.34558388160E+01 -.34839148731E+01 -.17918574342E+01
 0.11986628912E+01 0.47720139199E+01 0.81455338651E+01 0.10688150168E+02 0.12059635474E+02
 0.12245855976E+02 0.11503604254E+02 0.10246024344E+02 0.88737303240E+01 0.75664540703E+01
 0.64112737322E+01 0.54567040760E+01 0.47170713759E+01 0.41840265431E+01 0.38393048818E+01
 0.36648966579E+01 0.36497499153E+01 0.36972685262E+01 0.38919269407E+01 0.42620162061E+01
 0.48264007002E+01 0.56024319676E+01 0.65946854723E+01 0.77815800287E+01 0.91045829659E+01
 0.10463929833E+02 0.11613753288E+02 0.12114735173E+02 0.11570023080E+02 0.97740118508E+01
 0.68185376633E+01 0.31323006478E+01 -.57654106143E+00 -.34839354901E+01 -.48858119791E+01
 -.44253294009E+01 -.22156420471E+01 0.11986628912E+01 0.50235533107E+01 0.84597321308E+01
 0.10913629761E+02 0.12113604381E+02 0.12119177159E+02 0.11245084467E+02 0.99341541483E+01
 0.85625690065E+01 0.72798327669E+01 0.61658204413E+01 0.52610122754E+01 0.45732744293E+01
 0.40905445711E+01 0.37935326227E+01 0.36652939788E+01 0.36654494283E+01 0.37457089615E+01
 0.39921203425E+01 0.44198285693E+01 0.50483322909E+01 0.58927876080E+01 0.69518055230E+01
 0.81941026454E+01 0.95494937864E+01 0.10896746862E+02 0.11913964006E+02 0.12146844376E+02
 0.11232191242E+02 0.90348209788E+01 0.57408479309E+01 0.18740680888E+01 -.17918893937E+01
 -.44253567400E+01 -.53838263942E+01 -.44253294009E+01 -.17918574342E+01 0.18740907519E+01
 0.57408656334E+01 0.90348358161E+01 0.11232197891E+02 0.12146846670E+02 0.11913973124E+02
 0.10896760435E+02 0.95494976737E+01 0.81940946781E+01 0.69517966109E+01 0.58927796254E+01
 0.50483173948E+01 0.44198101813E+01 0.39921115932E+01 0.37457102306E+01 0.36972693442E+01
 0.36652916955E+01 0.37935347636E+01 0.40905612596E+01 0.45732974062E+01 0.52610264946E+01
 0.61658256640E+01 0.72798357231E+01 0.85625657802E+01 0.99341390748E+01 0.11245066432E+02
 0.12119166500E+02 0.12113594470E+02 0.10913609473E+02 0.84597052745E+01 0.50235276843E+01
 0.11986335563E+01 -.22156785466E+01 -.44253567400E+01 -.48858119791E+01 -.34839148731E+01
 -.57652074573E+00 0.31323129935E+01 0.68185459278E+01 0.97740142874E+01 0.11570017570E+02
 0.12114731370E+02 0.11613759437E+02 0.10463936293E+02 0.91045769127E+01 0.77815664029E+01
 0.65946759179E+01 0.56024238921E+01 0.48263866479E+01 0.42620024059E+01 0.38919229592E+01
 0.37931986772E+01 0.36497517266E+01 0.36648979916E+01 0.38393167590E+01 0.41840522620E+01
 0.47170956977E+01 0.54567137579E+01 0.64112719921E+01 0.75664462905E+01 0.88737132872E+01
 0.10245999949E+02 0.11503584991E+02 0.12245844651E+02 0.12059617937E+02 0.10688118699E+02
 0.81454993744E+01 0.47719851515E+01 0.11986335563E+01 -.17918893937E+01 -.34839354901E+01
 -.34558388160E+01 -.17223975396E+01 0.12716891098E+01 0.48037891410E+01 0.81014440744E+01
 0.10554540230E+02 0.11845227572E+02 0.11975813493E+02 0.11210392842E+02 0.99606543583E+01
 0.86144087278E+01 0.73399846650E+01 0.62217302878E+01 0.53053691214E+01 0.46030336645E+01
 0.41051476912E+01 0.39542724538E+01 0.36990569387E+01 0.36047432202E+01 0.36644564749E+01
 0.38817373652E+01 0.42695131548E+01 0.48461040744E+01 0.56280816221E+01 0.66197815732E+01
 0.78009205539E+01 0.91166375731E+01 0.10475003804E+02 0.11672982526E+02 0.12312380064E+02
 0.12022108578E+02 0.10606867253E+02 0.81454993744E+01 0.50235276843E+01 0.18740680888E+01
 -.57654106143E+00 -.17224073764E+01 -.12755005302E+01 0.63674845636E+00 0.35179505245E+01
 0.66707124863E+01 0.94114049901E+01 0.11249849352E+02 0.11984084856E+02 0.11702051190E+02
 0.10709113378E+02 0.94089630838E+01 0.80959013251E+01 0.68852529787E+01 0.58463490089E+01
 0.50119550690E+01 0.43857044561E+01 0.41811068532E+01 0.38139054468E+01 0.36123654361E+01
 0.35637562783E+01 0.36641758359E+01 0.39195649072E+01 0.43440628202E+01 0.49556327737E+01
 0.57686464333E+01 0.67834228103E+01 0.79746439508E+01 0.92831141539E+01 0.10614495386E+02
 0.11756427003E+02 0.12332817200E+02 0.12022108578E+02 0.10688118699E+02 0.84597052745E+01
 0.57408479309E+01 0.31323006478E+01 0.12716829409E+01 0.63674963092E+00 0.13861658816E+01
 0.33067129173E+01 0.58901611695E+01 0.85031265721E+01 0.10577157073E+02 0.11751629055E+02
 0.11935305587E+02 0.11286416418E+02 0.10130902449E+02 0.88288974321E+01 0.75669756301E+01
 0.64332202949E+01 0.54812470547E+01 0.47316704228E+01 0.44727077454E+01 0.39949366128E+01
 0.36878982979E+01 0.35355985408E+01 0.35280996439E+01 0.36641891927E+01 0.39516312352E+01
 0.44051060351E+01 0.50416264037E+01 0.58730599709E+01 0.68960236480E+01 0.80813789758E+01
 0.93677001069E+01 0.10661292736E+02 0.11756427003E+02 0.12312380064E+02 0.12059617937E+02
 0.10913609473E+02 0.90348209788E+01 0.68185376633E+01 0.48037869210E+01 0.35179564420E+01
 0.33067221966E+01 0.42168473862E+01 0.59829455313E+01 0.81225606214E+01 0.10095348899E+02
 0.11461465486E+02 0.11987671849E+02 0.11679828840E+02 0.10746304704E+02 0.95107072716E+01
 0.82397629094E+01 0.70455495896E+01 0.59987542705E+01 0.51377819120E+01 0.48254913206E+01
 0.42417093401E+01 0.38317351715E+01 0.35793213613E+01 0.34707309958E+01 0.34987758573E+01
 0.36644931685E+01 0.39768478392E+01 0.44504376729E+01 0.51008493637E+01 0.59373438150E+01
 0.69533844083E+01 0.81173737398E+01 0.93677001069E+01 0.10614495386E+02 0.11672982526E+02
 0.12245844651E+02 0.12113594470E+02 0.11232191242E+02 0.97740118508E+01 0.81014441316E+01
 0.66707177696E+01 0.58901744768E+01 0.59829586042E+01 0.69105844224E+01 0.83901708564E+01
 0.99953542440E+01 0.11295618029E+02 0.11980569777E+02 0.11932394242E+02 0.11234321459E+02
 0.10122067764E+02 0.88796867845E+01 0.76613594328E+01 0.65485429844E+01 0.55949956438E+01
 0.52328883468E+01 0.45518939752E+01 0.40437158614E+01 0.36948825400E+01 0.34904455665E+01
 0.34191953535E+01 0.34764445588E+01 0.36649503057E+01 0.39942661898E+01 0.44783581281E+01
 0.51310421342E+01 0.59590476289E+01 0.69533844083E+01 0.80813789758E+01 0.92831141539E+01
 0.10475003804E+02 0.11503584991E+02 0.12119166500E+02 0.12146844376E+02 0.11570023080E+02
 0.10554547909E+02 0.94114112473E+01 0.85031361084E+01 0.81225762217E+01 0.83901836648E+01
 0.92127850499E+01 0.10320469060E+02 0.11362936931E+02 0.12023998173E+02 0.12113060393E+02
 0.11608669731E+02 0.10648040191E+02 0.94686527491E+01 0.82602356910E+01 0.71128929872E+01
 0.60910504006E+01 0.56857830846E+01 0.49210081625E+01 0.43225387566E+01 0.38822888642E+01
 0.35867073970E+01 0.34228064276E+01 0.33819144111E+01 0.34614575528E+01 0.36653509969E+01
 0.40031703552E+01 0.44877885632E+01 0.51310421342E+01 0.59373438150E+01 0.68960236480E+01
 0.79746439508E+01 0.91166375731E+01 0.10245999949E+02 0.11245066432E+02 0.11913964006E+02
 0.12114735173E+02 0.11845241576E+02 0.11249863744E+02 0.10577167337E+02 0.10095359892E+02
 0.99953682190E+01 0.10320478904E+02 0.10952103414E+02 0.11655981807E+02 0.12166825582E+02
 0.12276803173E+02 0.11897823075E+02 0.11081354409E+02 0.99938364895E+01 0.88251146913E+01
 0.76745562408E+01 0.66119417920E+01 0.61736273766E+01 0.53428163351E+01 0.46656574646E+01
 0.41412416367E+01 0.37597509851E+01 0.35086744224E+01 0.33773302562E+01 0.33593979905E+01
 0.34539493610E+01 0.36655091269E+01 0.40031703552E+01 0.44783581281E+01 0.51008493637E+01
 0.58730599709E+01 0.67834228103E+01 0.78009205539E+01 0.88737132872E+01 0.99341390748E+01
 0.10896746862E+02 0.11613753288E+02 0.11975821234E+02 0.11984102857E+02 0.11751646442E+02
 0.11461477609E+02 0.11295628493E+02 0.11362947189E+02 0.11655987708E+02 0.12054835002E+02
 0.12374357188E+02 0.12433387345E+02 0.12118696537E+02 0.11422591160E+02 0.10444149477E+02
 0.93416644412E+01 0.82179601144E+01 0.71435548206E+01 0.66855160439E+01 0.58101161596E+01
 0.50696269072E+01 0.44711578347E+01 0.40104251917E+01 0.36774808657E+01 0.34616024540E+01
 0.33544970733E+01 0.33518728155E+01 0.34539493610E+01 0.36653509969E+01 0.39942661898E+01
 0.44504376729E+01 0.50416264037E+01 0.57686464333E+01 0.66197815732E+01 0.75664462905E+01
 0.85625657802E+01 0.95494937864E+01 0.10463929833E+02 0.11210390619E+02 0.11702060435E+02
 0.11935323257E+02 0.11987688758E+02 0.11980581802E+02 0.12024007011E+02 0.12166831772E+02
 0.12374359550E+02 0.12542216317E+02 0.12539046460E+02 0.12259248624E+02 0.11665367445E+02
 0.10805778844E+02 0.97956388852E+01 0.87285380080E+01 0.76723483147E+01 0.72102902763E+01
 0.63152139099E+01 0.55304950965E+01 0.48713668201E+01 0.43402400295E+01 0.39314832144E+01
 0.36361990498E+01 0.34458755679E+01 0.33544970733E+01 0.33593979905E+01 0.34614575528E+01
 0.36649503057E+01 0.39768478392E+01 0.44051060351E+01 0.49556327737E+01 0.56280816221E+01
 0.64112719921E+01 0.72798357231E+01 0.81941026454E+01 0.91045829659E+01 0.99606552768E+01
 0.10709114827E+02 0.11286424915E+02 0.11679842952E+02 0.11932408082E+02 0.12113070877E+02
 0.12276810069E+02 0.12433390276E+02 0.12539046378E+02 0.12514217215E+02 0.12278618396E+02
 0.11788356859E+02 0.11060356081E+02 0.10169956166E+02 0.91906075406E+01 0.81844789451E+01
 0.77352692417E+01 0.68493432043E+01 0.60435855925E+01 0.53409850289E+01 0.47512675130E+01
 0.42744430010E+01 0.39051020822E+01 0.36361990498E+01 0.34616024540E+01 0.33773302562E+01
 0.33819144111E+01 0.34764445588E+01 0.36644931685E+01 0.39516312352E+01 0.43440628202E+01
 0.48461040744E+01 0.54567137579E+01 0.61658256640E+01 0.69518055230E+01 0.77815800287E+01
 0.86144206508E+01 0.94089693679E+01 0.10130906448E+02 0.10746311108E+02 0.11234330587E+02
 0.11608679311E+02 0.11897831296E+02 0.12118701640E+02 0.12259249480E+02 0.12278617032E+02
 0.12124526722E+02 0.11759609435E+02 0.11184846925E+02 0.10443583404E+02 0.95853060716E+01
 0.86638493804E+01 0.82442178535E+01 0.74008762998E+01 0.66021507232E+01 0.58779074533E+01
 0.52453555785E+01 0.47110555770E+01 0.42744430010E+01 0.39314832144E+01 0.36774808657E+01
 0.35086744224E+01 0.34228064276E+01 0.34191953535E+01 0.34987758573E+01 0.36641891927E+01
 0.39195649072E+01 0.42695131548E+01 0.47170956977E+01 0.52610264946E+01 0.58927876080E+01
 0.65946854723E+01 0.73399981158E+01 0.80959142071E+01 0.88289061210E+01 0.95107125129E+01
 0.10122071897E+02 0.10648044662E+02 0.11081359937E+02 0.11422597015E+02 0.11665370989E+02
 0.11788356580E+02 0.11759607702E+02 0.11551226662E+02 0.11156934305E+02 0.10593424350E+02
 0.98902528377E+01 0.90904669294E+01 0.87159078498E+01 0.79531057090E+01 0.71950266273E+01
 0.64766648166E+01 0.58222488518E+01 0.52453555785E+01 0.47512675130E+01 0.43402400295E+01
 0.40104251917E+01 0.37597509851E+01 0.35867073970E+01 0.34904455665E+01 0.34707309958E+01
 0.35280996439E+01 0.36641758359E+01 0.38817373652E+01 0.41840522620E+01 0.45732974062E+01
 0.50483322909E+01 0.56024319676E+01 0.62217375753E+01 0.68852624379E+01 0.75669857733E+01
 0.82397714271E+01 0.88796923719E+01 0.94686553141E+01 0.99938377485E+01 0.10444151945E+02
 0.10805782478E+02 0.11060358124E+02 0.11184846099E+02 0.11156932872E+02 0.10962113909E+02
 0.10598878609E+02 0.10081771895E+02 0.94405445851E+01 0.91245555369E+01 0.84829618591E+01
 0.78042455896E+01 0.71255665853E+01 0.64766648166E+01 0.58779074533E+01 0.53409850289E+01
 0.48713668201E+01 0.44711578347E+01 0.41412416367E+01 0.38822888642E+01 0.36948825400E+01
 0.35793213613E+01 0.35355985408E+01 0.35637562783E+01 0.36644564749E+01 0.38393167590E+01
 0.40905612596E+01 0.44198285693E+01 0.48264007002E+01 0.53053771022E+01 0.58463535224E+01
 0.64332244164E+01 0.70455553344E+01 0.76613664823E+01 0.82602414357E+01 0.88251167780E+01
 0.93416641175E+01 0.97956392240E+01 0.10169957633E+02 0.10443583966E+02 0.10593423579E+02
 0.10598878115E+02 0.10447436625E+02 0.10139232083E+02 0.96889626889E+01 0.94425847980E+01
 0.89618254111E+01 0.84039771622E+01 0.78042455896E+01 0.71950266273E+01 0.66021507232E+01
 0.60435855925E+01 0.55304950965E+01 0.50696269072E+01 0.46656574646E+01 0.43225387566E+01
 0.40437158614E+01 0.38317351715E+01 0.36878982979E+01 0.36123654361E+01 0.36047432202E+01
 0.36648979916E+01 0.37935347636E+01 0.39921203425E+01 0.42620162061E+01 0.46030468412E+01
 0.50119632003E+01 0.54812492404E+01 0.59987539376E+01 0.65485451563E+01 0.71128990609E+01
 0.76745624743E+01 0.82179624709E+01 0.87285370142E+01 0.91906062347E+01 0.95853055039E+01
 0.98902524347E+01 0.10081772122E+02 0.10139233200E+02 0.10050046292E+02 0.98135702564E+01
 0.96450967897E+01 0.93587131881E+01 0.89618254111E+01 0.84829618591E+01 0.79531057090E+01
 0.74008762998E+01 0.68493432043E+01 0.63152139099E+01 0.58101161596E+01 0.53428163351E+01
 0.49210081625E+01 0.45518939752E+01 0.42417093401E+01 0.39949366128E+01 0.38139054468E+01
 0.36990569387E+01 0.36497517266E+01 0.36652916955E+01 0.37457089615E+01 0.38919269407E+01
 0.41051569529E+01 0.43857152137E+01 0.47316774079E+01 0.51377826730E+01 0.55949937731E+01
 0.60910521749E+01 0.66119485449E+01 0.71435617020E+01 0.76723507376E+01 0.81844774004E+01
 0.86638468499E+01 0.90904651342E+01 0.94405444241E+01 0.96889649163E+01 0.98135732661E+01
 0.97999558984E+01 0.96451013382E+01 0.95350025412E+01 0.93050908809E+01 0.89729616386E+01
 0.85629463477E+01 0.81016401103E+01 0.76136404271E+01 0.71187938410E+01 0.66316450574E+01
 0.61628006388E+01 0.57210579273E+01 0.53149600333E+01 0.49530561594E+01 0.46430994633E+01
 0.43910025745E+01 0.42002773824E+01 0.40722200399E+01 0.40066887947E+01 0.40031287529E+01
 0.40614008612E+01 0.41820245140E+01 0.43657019705E+01 0.46122893446E+01 0.49196077996E+01
 0.52825095580E+01 0.56925932450E+01 0.61388539324E+01 0.66091094795E+01 0.70914309064E+01
 0.75745526104E+01 0.80467829822E+01 0.84939896546E+01 0.88980242120E+01 0.92368918697E+01
 0.94871391579E+01 0.96278721790E+01 0.95350059218E+01 0.96451008898E+01 0.96278683662E+01
 0.94871355833E+01 0.92368910100E+01 0.88980253998E+01 0.84939908287E+01 0.80467831516E+01
 0.75745523186E+01 0.70914318886E+01 0.66091148244E+01 0.61388667068E+01 0.56926124047E+01
 0.52825275661E+01 0.49196151934E+01 0.46122845654E+01 0.43656942495E+01 0.41820238649E+01
 0.40614071617E+01 0.40031342414E+01 0.40066898685E+01 0.40722207648E+01 0.42002808739E+01
 0.43910040059E+01 0.46430921237E+01 0.49530413563E+01 0.53149458749E+01 0.57210499697E+01
 0.61627980789E+01 0.66316447094E+01 0.71187939434E+01 0.76136401400E+01 0.81016387250E+01
 0.85629448570E+01 0.89729625393E+01 0.93050946458E+01 0.92889691964E+01 0.96113273282E+01
 0.98135729941E+01 0.98845953597E+01 0.98250469621E+01 0.96461298464E+01 0.93662175929E+01
 0.90064355362E+01 0.85867469493E+01 0.81238952971E+01 0.76316779098E+01 0.71228499036E+01
 0.66111432626E+01 0.61119795770E+01 0.56414401508E+01 0.52142112506E+01 0.48417187995E+01
 0.45312739226E+01 0.42863404793E+01 0.41075805039E+01 0.39942320504E+01 0.39453771433E+01
 0.39606592675E+01 0.40402607116E+01 0.41842912068E+01 0.43919852193E+01 0.46611327081E+01
 0.49880146358E+01 0.53678758360E+01 0.57955778739E+01 0.62657394122E+01 0.67717535239E+01
 0.73037198675E+01 0.78461741165E+01 0.83769292550E+01 0.88680321508E+01 0.89263114960E+01
 0.94384966072E+01 0.98512225181E+01 0.10139233651E+02 0.10288571278E+02 0.10297874745E+02
 0.10176873169E+02 0.99425748055E+01 0.96145106212E+01 0.92108182372E+01 0.87465935974E+01
 0.82348243067E+01 0.76888812414E+01 0.71247543388E+01 0.65614953742E+01 0.60195508707E+01
 0.55179604020E+01 0.50718778737E+01 0.46913522105E+01 0.43814900830E+01 0.41436033001E+01
 0.39768142731E+01 0.38796199429E+01 0.38509133676E+01 0.38902329035E+01 0.39973994981E+01
 0.41719561924E+01 0.44128209150E+01 0.47183370895E+01 0.50866106077E+01 0.55156872756E+01
 0.60029599167E+01 0.65434420728E+01 0.71272092348E+01 0.77370267201E+01 0.83474540731E+01
 0.84740820223E+01 0.91428491095E+01 0.97430544162E+01 0.10237741551E+02 0.10598881276E+02
 0.10811237315E+02 0.10873315776E+02 0.10795128539E+02 0.10593519066E+02 0.10286800670E+02
 0.98908469246E+01 0.94181375173E+01 0.88797829466E+01 0.82890019705E+01 0.76638037941E+01
 0.70271867261E+01 0.64046903241E+01 0.58206078411E+01 0.52946399404E+01 0.48401273189E+01
 0.44640394780E+01 0.41682733628E+01 0.39516031288E+01 0.38116400260E+01 0.37462298161E+01
 0.37540236321E+01 0.38343964660E+01 0.39871384810E+01 0.42123030697E+01 0.45103000740E+01
 0.48819917501E+01 0.53282916703E+01 0.58487815363E+01 0.64392473666E+01 0.70886845612E+01
 0.77769131214E+01 0.79621788593E+01 0.87484673932E+01 0.95031591357E+01 0.10181013060E+02
 0.10741897792E+02 0.11156940282E+02 0.11412065358E+02 0.11506676923E+02 0.11453864331E+02
 0.11274296377E+02 0.10984947009E+02 0.10595055942E+02 0.10111318034E+02 0.95430544530E+01
 0.89026626273E+01 0.82101602911E+01 0.74931402989E+01 0.67832450673E+01 0.61110622333E+01
 0.55016327362E+01 0.49719883809E+01 0.45309705611E+01 0.41808043970E+01 0.39195498038E+01
 0.37435779934E+01 0.36494157237E+01 0.36346788807E+01 0.36982856266E+01 0.38403752074E+01
 0.40622809213E+01 0.43665536432E+01 0.47566847392E+01 0.52360137830E+01 0.58055028695E+01
 0.64605543970E+01 0.71876636002E+01 0.74187187850E+01 0.82825639577E+01 0.91538018284E+01
 0.99825391356E+01 0.10719246639E+02 0.11322642632E+02 0.11759617848E+02 0.12013241155E+02
 0.12098497829E+02 0.12047453770E+02 0.11888765676E+02 0.11633413317E+02 0.11273672171E+02
 0.10795859187E+02 0.10200142468E+02 0.95079955189E+01 0.87442941597E+01 0.79422787281E+01
 0.71408994557E+01 0.63780581867E+01 0.56847489131E+01 0.50818377949E+01 0.45798120305E+01
 0.41808085215E+01 0.38817380392E+01 0.36773951866E+01 0.35628048910E+01 0.35345379139E+01
 0.35911997062E+01 0.37335186059E+01 0.39643421342E+01 0.42884553279E+01 0.47117782315E+01
 0.52394582744E+01 0.58727442756E+01 0.66051154868E+01 0.68669945246E+01 0.77711232653E+01
 0.87206374606E+01 0.96643074504E+01 0.10546016353E+02 0.11312147466E+02 0.11901612968E+02
 0.12278626442E+02 0.12458411345E+02 0.12490790661E+02 0.12431356050E+02 0.12313108717E+02
 0.12131329013E+02 0.11849051056E+02 0.11420980294E+02 0.10824600554E+02 0.10083005493E+02
 0.92463661284E+01 0.83573860412E+01 0.74635549000E+01 0.66108989358E+01 0.58366612378E+01
 0.51653786298E+01 0.46087413887E+01 0.41682809720E+01 0.38393279925E+01 0.36148432251E+01
 0.34883000070E+01 0.34553672658E+01 0.35146228870E+01 0.36677237029E+01 0.39193084428E+01
 0.42764539549E+01 0.47471737490E+01 0.53375486966E+01 0.60476405607E+01 0.63246843491E+01
 0.72361904982E+01 0.82283828785E+01 0.92515660609E+01 0.10245692425E+02 0.11145642140E+02
 0.11859443888E+02 0.12322039045E+02 0.12539051912E+02 0.12576616111E+02 0.12528612279E+02
 0.12473951653E+02 0.12441079191E+02 0.12395335748E+02 0.12255658658E+02 0.11933790045E+02
 0.11378699047E+02 0.10606646838E+02 0.96974537741E+01 0.87222515375E+01 0.77382944157E+01
 0.68001730391E+01 0.59512790534E+01 0.52193506074E+01 0.46166680949E+01 0.41436059857E+01
 0.37935476097E+01 0.35574910591E+01 0.34274621424E+01 0.33985175024E+01 0.34696001237E+01
 0.36436935336E+01 0.39274962604E+01 0.43303380847E+01 0.48617706455E+01 0.55275790047E+01
 0.58049952736E+01 0.66953638911E+01 0.76982788892E+01 0.87682400134E+01 0.98439651014E+01
 0.10852838862E+02 0.11675282869E+02 0.12202821856E+02 0.12412946730E+02 0.12374361282E+02