   2   2   0   0
  0.1583089E+02  0.3689903E-09  0.3689903E-09  0.3689903E-09  0.5000000E-15
  1.000000000000000E-004
  CAR 
 unknown system                          
     22.64064745     -6.63963126  301      8.65877924      1.00000000
     -6.640  0.0000E+00  0.0000E+00
     -6.542  0.0000E+00  0.0000E+00
     -6.444  0.0000E+00  0.0000E+00
     -6.347  0.0000E+00  0.0000E+00
     -6.249  0.0000E+00  0.0000E+00
     -6.152  0.0000E+00  0.0000E+00
     -6.054  0.0000E+00  0.0000E+00
     -5.956  0.0000E+00  0.0000E+00
     -5.859  0.0000E+00  0.0000E+00
     -5.761  0.1185E-16  0.1156E-17
     -5.664  0.2370E-14  0.2325E-15
     -5.566  0.3035E-12  0.2985E-13
     -5.468  0.2433E-10  0.2405E-11
     -5.371  0.1223E-08  0.1217E-09
     -5.273  0.3856E-07  0.3886E-08
     -5.176  0.7644E-06  0.7849E-07
     -5.078  0.9537E-05  0.1009E-05
     -4.980  0.7506E-04  0.8336E-05
     -4.883  0.3740E-03  0.4484E-04
     -4.785  0.1189E-02  0.1609E-03
     -4.688  0.2471E-02  0.4020E-03
     -4.590  0.3639E-02  0.7572E-03
     -4.492  0.4775E-02  0.1223E-02
     -4.395  0.7256E-02  0.1931E-02
     -4.297  0.1135E-01  0.3039E-02
     -4.200  0.1446E-01  0.4451E-02
     -4.102  0.1439E-01  0.5855E-02
     -4.004  0.1214E-01  0.7040E-02
     -3.907  0.9748E-02  0.7991E-02
     -3.809  0.8754E-02  0.8845E-02
     -3.712  0.1072E-01  0.9891E-02
     -3.614  0.1619E-01  0.1147E-01
     -3.516  0.2263E-01  0.1368E-01
     -3.419  0.2482E-01  0.1610E-01
     -3.321  0.2085E-01  0.1814E-01
     -3.224  0.1623E-01  0.1972E-01
     -3.126  0.1665E-01  0.2135E-01
     -3.028  0.2025E-01  0.2332E-01
     -2.931  0.2154E-01  0.2543E-01
     -2.833  0.1977E-01  0.2736E-01
     -2.736  0.1919E-01  0.2923E-01
     -2.638  0.2177E-01  0.3135E-01
     -2.540  0.2483E-01  0.3378E-01
     -2.443  0.2598E-01  0.3631E-01
     -2.345  0.2545E-01  0.3880E-01
     -2.248  0.2391E-01  0.4113E-01
     -2.150  0.2318E-01  0.4339E-01
     -2.052  0.2634E-01  0.4596E-01
     -1.955  0.3125E-01  0.4901E-01
     -1.857  0.3101E-01  0.5204E-01
     -1.760  0.2453E-01  0.5443E-01
     -1.662  0.1766E-01  0.5616E-01
     -1.564  0.1498E-01  0.5762E-01
     -1.467  0.1744E-01  0.5932E-01
     -1.369  0.2550E-01  0.6181E-01
     -1.272  0.3813E-01  0.6553E-01
     -1.174  0.4892E-01  0.7031E-01
     -1.076  0.5049E-01  0.7523E-01
     -0.979  0.4385E-01  0.7951E-01
     -0.881  0.3690E-01  0.8311E-01
     -0.784  0.3366E-01  0.8640E-01
     -0.686  0.3095E-01  0.8942E-01
     -0.588  0.2608E-01  0.9197E-01
     -0.491  0.2099E-01  0.9402E-01
     -0.393  0.1835E-01  0.9581E-01
     -0.296  0.1962E-01  0.9772E-01
     -0.198  0.2501E-01  0.1002E+00
     -0.100  0.3179E-01  0.1033E+00
     -0.003  0.3626E-01  0.1068E+00
      0.095  0.3876E-01  0.1106E+00
      0.192  0.4241E-01  0.1147E+00
      0.290  0.4729E-01  0.1193E+00
      0.388  0.4991E-01  0.1242E+00
      0.485  0.4810E-01  0.1289E+00
      0.583  0.4419E-01  0.1332E+00
      0.680  0.4129E-01  0.1372E+00
      0.778  0.4103E-01  0.1413E+00
      0.876  0.4339E-01  0.1455E+00
      0.973  0.4520E-01  0.1499E+00
      1.071  0.4704E-01  0.1545E+00
      1.168  0.5350E-01  0.1597E+00
      1.266  0.5913E-01  0.1655E+00
      1.364  0.5226E-01  0.1706E+00
      1.461  0.3505E-01  0.1740E+00
      1.559  0.2088E-01  0.1760E+00
      1.656  0.1571E-01  0.1776E+00
      1.754  0.1556E-01  0.1791E+00
      1.852  0.1635E-01  0.1807E+00
      1.949  0.1970E-01  0.1826E+00
      2.047  0.2873E-01  0.1854E+00
      2.144  0.4103E-01  0.1894E+00
      2.242  0.5065E-01  0.1944E+00
      2.340  0.5386E-01  0.1996E+00
      2.437  0.5116E-01  0.2046E+00
      2.535  0.4716E-01  0.2092E+00
      2.632  0.4585E-01  0.2137E+00
      2.730  0.4661E-01  0.2182E+00
      2.828  0.4785E-01  0.2229E+00
      2.925  0.4941E-01  0.2277E+00
      3.023  0.4784E-01  0.2324E+00
      3.120  0.3832E-01  0.2361E+00
      3.218  0.2544E-01  0.2386E+00
      3.316  0.2013E-01  0.2406E+00
      3.413  0.2513E-01  0.2430E+00
      3.511  0.3292E-01  0.2463E+00
      3.608  0.3632E-01  0.2498E+00
      3.706  0.3504E-01  0.2532E+00
      3.804  0.3306E-01  0.2565E+00
      3.901  0.3512E-01  0.2599E+00
      3.999  0.4535E-01  0.2643E+00
      4.096  0.6301E-01  0.2705E+00
      4.194  0.7806E-01  0.2781E+00
      4.292  0.8041E-01  0.2859E+00
      4.389  0.7339E-01  0.2931E+00
      4.487  0.6523E-01  0.2995E+00
      4.584  0.5638E-01  0.3050E+00
      4.682  0.4662E-01  0.3095E+00
      4.780  0.4067E-01  0.3135E+00
      4.877  0.4118E-01  0.3175E+00
      4.975  0.4339E-01  0.3217E+00
      5.072  0.4080E-01  0.3257E+00
      5.170  0.3543E-01  0.3292E+00
      5.268  0.3616E-01  0.3327E+00
      5.365  0.4612E-01  0.3372E+00
      5.463  0.5840E-01  0.3429E+00
      5.560  0.6437E-01  0.3492E+00
      5.658  0.6423E-01  0.3555E+00
      5.756  0.6588E-01  0.3619E+00
      5.853  0.6955E-01  0.3687E+00
      5.951  0.6709E-01  0.3752E+00
      6.048  0.5792E-01  0.3809E+00
      6.146  0.4932E-01  0.3857E+00
      6.244  0.4683E-01  0.3903E+00
      6.341  0.5157E-01  0.3953E+00
      6.439  0.5923E-01  0.4011E+00
      6.536  0.6257E-01  0.4072E+00
      6.634  0.5962E-01  0.4130E+00
      6.732  0.5591E-01  0.4185E+00
      6.829  0.5879E-01  0.4242E+00
      6.927  0.6905E-01  0.4309E+00
      7.024  0.7996E-01  0.4387E+00
      7.122  0.8757E-01  0.4473E+00
      7.220  0.9140E-01  0.4562E+00
      7.317  0.8846E-01  0.4648E+00
      7.415  0.7886E-01  0.4725E+00
      7.513  0.6716E-01  0.4791E+00
      7.610  0.5594E-01  0.4845E+00
      7.708  0.4738E-01  0.4892E+00
      7.805  0.4313E-01  0.4934E+00
      7.903  0.4118E-01  0.4974E+00
      8.001  0.4009E-01  0.5013E+00
      8.098  0.4085E-01  0.5053E+00
      8.196  0.4308E-01  0.5095E+00
      8.293  0.4409E-01  0.5138E+00
      8.391  0.4394E-01  0.5181E+00
      8.489  0.4810E-01  0.5228E+00
      8.586  0.5851E-01  0.5285E+00
      8.684  0.6680E-01  0.5350E+00
      8.781  0.6376E-01  0.5412E+00
      8.879  0.5409E-01  0.5465E+00
      8.977  0.5266E-01  0.5517E+00
      9.074  0.6136E-01  0.5577E+00
      9.172  0.6228E-01  0.5637E+00
      9.269  0.4550E-01  0.5682E+00
      9.367  0.2465E-01  0.5706E+00
      9.465  0.1549E-01  0.5721E+00
      9.562  0.1949E-01  0.5740E+00
      9.660  0.2910E-01  0.5768E+00
      9.757  0.3675E-01  0.5804E+00
      9.855  0.4068E-01  0.5844E+00
      9.953  0.4412E-01  0.5887E+00
     10.050  0.4791E-01  0.5934E+00
     10.148  0.4863E-01  0.5981E+00
     10.245  0.4670E-01  0.6027E+00
     10.343  0.4795E-01  0.6074E+00
     10.441  0.5584E-01  0.6128E+00
     10.538  0.6747E-01  0.6194E+00
     10.636  0.7527E-01  0.6267E+00
     10.733  0.7562E-01  0.6341E+00
     10.831  0.7384E-01  0.6413E+00
     10.929  0.7270E-01  0.6484E+00
     11.026  0.6775E-01  0.6550E+00
     11.124  0.5898E-01  0.6608E+00
     11.221  0.5605E-01  0.6663E+00
     11.319  0.6740E-01  0.6728E+00
     11.417  0.8780E-01  0.6814E+00
     11.514  0.1042E+00  0.6916E+00
     11.612  0.1092E+00  0.7022E+00
     11.709  0.1017E+00  0.7122E+00
     11.807  0.8398E-01  0.7204E+00
     11.905  0.6211E-01  0.7264E+00
     12.002  0.4475E-01  0.7308E+00
     12.100  0.3538E-01  0.7342E+00
     12.197  0.3021E-01  0.7372E+00
     12.295  0.2957E-01  0.7401E+00
     12.393  0.4040E-01  0.7440E+00
     12.490  0.6083E-01  0.7500E+00
     12.588  0.7656E-01  0.7574E+00
     12.685  0.7790E-01  0.7650E+00
     12.783  0.7127E-01  0.7720E+00
     12.881  0.6848E-01  0.7787E+00
     12.978  0.7045E-01  0.7856E+00
     13.076  0.6889E-01  0.7923E+00
     13.173  0.5999E-01  0.7981E+00
     13.271  0.4924E-01  0.8029E+00
     13.369  0.4540E-01  0.8074E+00
     13.466  0.5570E-01  0.8128E+00
     13.564  0.8077E-01  0.8207E+00
     13.661  0.1062E+00  0.8311E+00
     13.759  0.1141E+00  0.8422E+00
     13.857  0.1063E+00  0.8526E+00
     13.954  0.9559E-01  0.8619E+00
     14.052  0.8499E-01  0.8702E+00
     14.149  0.7196E-01  0.8772E+00
     14.247  0.5915E-01  0.8830E+00
     14.345  0.5299E-01  0.8882E+00
     14.442  0.5665E-01  0.8937E+00
     14.540  0.6606E-01  0.9001E+00
     14.637  0.7388E-01  0.9073E+00
     14.735  0.7533E-01  0.9147E+00
     14.833  0.6976E-01  0.9215E+00
     14.930  0.6150E-01  0.9275E+00
     15.028  0.5705E-01  0.9331E+00
     15.125  0.5798E-01  0.9387E+00
     15.223  0.6149E-01  0.9447E+00
     15.321  0.6370E-01  0.9510E+00
     15.418  0.6098E-01  0.9569E+00
     15.516  0.5484E-01  0.9623E+00
     15.613  0.4831E-01  0.9670E+00
     15.711  0.4061E-01  0.9709E+00
     15.809  0.3322E-01  0.9742E+00
     15.906  0.3015E-01  0.9771E+00
     16.004  0.3170E-01  0.9802E+00
     16.101  0.3493E-01  0.9836E+00
     16.199  0.3917E-01  0.9875E+00
     16.297  0.4721E-01  0.9921E+00
     16.394  0.5799E-01  0.9977E+00
     16.492  0.6530E-01  0.1004E+01
     16.589  0.6670E-01  0.1011E+01
     16.687  0.6295E-01  0.1017E+01
     16.785  0.5370E-01  0.1022E+01
     16.882  0.4085E-01  0.1026E+01
     16.980  0.2801E-01  0.1029E+01
     17.077  0.1818E-01  0.1030E+01
     17.175  0.1334E-01  0.1032E+01
     17.273  0.1273E-01  0.1033E+01
     17.370  0.1407E-01  0.1034E+01
     17.468  0.1691E-01  0.1036E+01
     17.565  0.2269E-01  0.1038E+01
     17.663  0.3138E-01  0.1041E+01
     17.761  0.3802E-01  0.1045E+01
     17.858  0.3680E-01  0.1049E+01
     17.956  0.2836E-01  0.1051E+01
     18.053  0.1834E-01  0.1053E+01
     18.151  0.1068E-01  0.1054E+01
     18.249  0.5792E-02  0.1055E+01
     18.346  0.2879E-02  0.1055E+01
     18.444  0.1683E-02  0.1055E+01
     18.541  0.2553E-02  0.1055E+01
     18.639  0.5604E-02  0.1056E+01
     18.737  0.9589E-02  0.1057E+01
     18.834  0.1233E-01  0.1058E+01
     18.932  0.1255E-01  0.1059E+01
     19.029  0.1032E-01  0.1060E+01
     19.127  0.6585E-02  0.1061E+01
     19.225  0.3190E-02  0.1061E+01
     19.322  0.1778E-02  0.1062E+01
     19.420  0.2711E-02  0.1062E+01
     19.517  0.4857E-02  0.1062E+01
     19.615  0.6042E-02  0.1063E+01
     19.713  0.5366E-02  0.1063E+01
     19.810  0.4266E-02  0.1064E+01
     19.908  0.3771E-02  0.1064E+01
     20.005  0.3502E-02  0.1065E+01
     20.103  0.3370E-02  0.1065E+01
     20.201  0.3291E-02  0.1065E+01
     20.298  0.2686E-02  0.1065E+01
     20.396  0.1804E-02  0.1066E+01
     20.493  0.1662E-02  0.1066E+01
     20.591  0.2402E-02  0.1066E+01
     20.689  0.2898E-02  0.1066E+01
     20.786  0.2302E-02  0.1067E+01
     20.884  0.1162E-02  0.1067E+01
     20.981  0.3711E-03  0.1067E+01
     21.079  0.7486E-04  0.1067E+01
     21.177  0.9528E-05  0.1067E+01
     21.274  0.7641E-06  0.1067E+01
     21.372  0.3856E-07  0.1067E+01
     21.469  0.1223E-08  0.1067E+01
     21.567  0.2433E-10  0.1067E+01
     21.665  0.3035E-12  0.1067E+01
     21.762  0.2370E-14  0.1067E+01
     21.860  0.1185E-16  0.1067E+01
     21.957  0.0000E+00  0.1067E+01
     22.055  0.0000E+00  0.1067E+01
     22.153  0.0000E+00  0.1067E+01
     22.250  0.0000E+00  0.1067E+01
     22.348  0.0000E+00  0.1067E+01
     22.445  0.0000E+00  0.1067E+01
     22.543  0.0000E+00  0.1067E+01
     22.641  0.0000E+00  0.1067E+01
