    2    2   15    1
  0.1583089E+02  0.3689903E-09  0.3689903E-09  0.3689903E-09  0.5000000E-15
  1.000000000000000E-004
  CAR 
 unknown system                          
      8     56      8
 
  0.6250000E-01  0.6250000E-01  0.6250000E-01  0.1562500E-01
    1       -4.232082   1.000000
    2        4.412576   1.000000
    3        6.678096   1.000000
    4        8.196716   0.999457
    5       11.834143   0.000000
    6       13.684702   0.000000
    7       14.251768   0.000000
    8       16.115761   0.000000
 
  0.1875000E+00  0.6250000E-01  0.6250000E-01  0.3125000E-01
    1       -3.016638   1.000000
    2        4.167511   1.000000
    3        6.976531   1.000000
    4        9.138122   0.000350
    5       10.791154   0.000000
    6       10.896249   0.000000
    7       13.658694   0.000000
    8       14.409612   0.000000
 
  0.3125000E+00  0.6250000E-01  0.6250000E-01  0.3125000E-01
    1       -1.021201   1.000000
    2        4.462124   1.000000
    3        5.542286   1.000000
    4        7.246689   1.000000
    5        8.593614   0.677524
    6       11.722585   0.000000
    7       13.162188   0.000000
    8       13.558915   0.000000
 
  0.4375000E+00  0.6250000E-01  0.6250000E-01  0.1562500E-01
    1        1.308644   1.000000
    2        2.228452   1.000000
    3        5.762565   1.000000
    4        6.156406   1.000000
    5        8.476325   0.901500
    6       10.561009   0.000000
    7       13.074669   0.000000
    8       14.020426   0.000000
 
 -0.6250000E-01  0.6250000E-01  0.6250000E-01  0.7812500E-02
    1       -4.639631   1.000000
    2        5.016758   1.000000
    3        5.873747   1.000000
    4        7.864689   1.000000
    5       10.968357   0.000000
    6       14.836645   0.000000
    7       17.300270   0.000000
    8       17.401459   0.000000
 
  0.1875000E+00  0.1875000E+00  0.6250000E-01  0.1562500E-01
    1       -1.203959   1.000000
    2        4.453574   1.000000
    3        6.422375   1.000000
    4        6.617441   1.000000
    5        9.563723   0.000000
    6       11.550235   0.000000
    7       12.854505   0.000000
    8       13.046578   0.000000
 
  0.3125000E+00  0.1875000E+00  0.6250000E-01  0.3125000E-01
    1        1.256259   1.000000
    2        2.955122   1.000000
    3        4.300582   1.000000
    4        5.775919   1.000000
    5        9.818125   0.000000
    6       11.554305   0.000000
    7       12.575977   0.000000
    8       14.611138   0.000000
 
  0.4375000E+00  0.1875000E+00  0.6250000E-01  0.3125000E-01
    1       -0.107761   1.000000
    2        2.723114   1.000000
    3        4.902111   1.000000
    4        7.249540   1.000000
    5        9.065105   0.002032
    6       11.722405   0.000000
    7       13.640554   0.000000
    8       14.517915   0.000000
 
 -0.4375000E+00  0.1875000E+00  0.6250000E-01  0.3125000E-01
    1       -2.269196   1.000000
    2        2.104592   1.000000
    3        7.519958   1.000000
    4        8.798415   0.161730
    5       10.324017   0.000000
    6       11.445844   0.000000
    7       12.656162   0.000000
    8       14.992869   0.000000
 
 -0.3125000E+00  0.1875000E+00  0.6250000E-01  0.1562500E-01
    1       -3.666501   1.000000
    2        2.193763   1.000000
    3        7.184550   1.000000
    4        9.121148   0.000539
    5       12.111281   0.000000
    6       13.623420   0.000000
    7       14.176579   0.000000
    8       14.795242   0.000000
 
 -0.1875000E+00  0.1875000E+00  0.6250000E-01  0.1562500E-01
    1       -4.261524   1.000000
    2        3.005605   1.000000
    3        5.989717   1.000000
    4        9.100636   0.000891
    5       12.765780   0.000000
    6       12.930212   0.000000
    7       15.843214   0.000000
    8       17.188773   0.000000
 
 -0.6250000E-01  0.1875000E+00  0.6250000E-01  0.1562500E-01
    1       -4.043506   1.000000
    2        4.129592   1.000000
    3        5.358130   1.000000
    4        9.680530   0.000000
    5       12.558143   0.000000
    6       12.674944   0.000000
    7       13.715957   0.000000
    8       15.688654   0.000000
 
  0.3125000E+00  0.3125000E+00  0.6250000E-01  0.1562500E-01
    1        1.118884   1.000000
    2        1.186422   1.000000
    3        4.709952   1.000000
    4        7.192092   1.000000
    5        9.804616   0.000000
    6       10.629280   0.000000
    7       14.664536   0.000000
    8       15.514358   0.000000
 
  0.4375000E+00  0.3125000E+00  0.6250000E-01  0.3125000E-01
    1       -1.156340   1.000000
    2        0.309638   1.000000
    3        8.045018   0.999993
    4        8.655770   0.508489
    5        9.976496   0.000000
    6       11.366363   0.000000
    7       12.462581   0.000000
    8       13.852874   0.000000
 
 -0.4375000E+00  0.3125000E+00  0.6250000E-01  0.1562500E-01
    1       -2.728793   1.000000
    2        0.223107   1.000000
    3        8.020107   0.999997
    4       10.085773   0.000000
    5       10.603545   0.000000
    6       12.688028   0.000000
    7       13.725678   0.000000
    8       13.816695   0.000000
 
 -0.3125000E+00  0.3125000E+00  0.6250000E-01  0.1562500E-01
    1       -3.508233   1.000000
    2        0.908979   1.000000
    3        6.673139   1.000000
    4       10.039293   0.000000
    5       10.794108   0.000000
    6       14.124896   0.000000
    7       15.828824   0.000000
    8       16.881786   0.000000
 
 -0.1875000E+00  0.3125000E+00  0.6250000E-01  0.3125000E-01
    1       -3.479281   1.000000
    2        2.317634   1.000000
    3        5.477359   1.000000
    4       10.635343   0.000000
    5       11.029665   0.000000
    6       12.935299   0.000000
    7       14.709082   0.000000
    8       15.607368   0.000000
 
 -0.6250000E-01  0.3125000E+00  0.6250000E-01  0.1562500E-01
    1       -2.643268   1.000000
    2        3.991447   1.000000
    3        5.365208   1.000000
    4        8.440881   0.938314
    5       11.069036   0.000000
    6       12.611263   0.000000
    7       13.269413   0.000000
    8       13.643137   0.000000
 
  0.4375000E+00  0.4375000E+00  0.6250000E-01  0.7812500E-02
    1       -1.427370   1.000000
    2       -1.427370   1.000000
    3        9.163736   0.000178
    4        9.163736   0.000178
    5       11.335799   0.000000
    6       11.335800   0.000000
    7       13.531425   0.000000
    8       13.531426   0.000000
 
 -0.4375000E+00  0.4375000E+00  0.6250000E-01  0.1562500E-01
    1       -2.386105   1.000000
    2       -0.906486   1.000000
    3        7.715550   1.000000
    4        9.096280   0.000989
    5       11.150725   0.000000
    6       12.522312   0.000000
    7       16.588381   0.000000
    8       16.686289   0.000000
 
 -0.3125000E+00  0.4375000E+00  0.6250000E-01  0.3125000E-01
    1       -2.544290   1.000000
    2        0.390210   1.000000
    3        6.309779   1.000000
    4        9.037691   0.003689
    5       11.386225   0.000000
    6       12.858092   0.000000
    7       14.795220   0.000000
    8       15.318662   0.000000
 
 -0.1875000E+00  0.4375000E+00  0.6250000E-01  0.3125000E-01
    1       -1.900115   1.000000
    2        2.388040   1.000000
    3        5.569849   1.000000
    4        7.802545   1.000000
    5        9.661242   0.000000
    6       12.471635   0.000000
    7       13.964593   0.000000
    8       15.302764   0.000000
 
 -0.6250000E-01  0.4375000E+00  0.6250000E-01  0.1562500E-01
    1       -0.475911   1.000000
    2        4.037536   1.000000
    3        5.192084   1.000000
    4        5.981514   1.000000
    5        9.124353   0.000497
    6       11.541389   0.000000
    7       11.850725   0.000000
    8       15.133629   0.000000
 
 -0.4375000E+00 -0.4375000E+00  0.6250000E-01  0.1562500E-01
    1       -1.251432   1.000000
    2       -1.244767   1.000000
    3        7.506933   1.000000
    4        7.521167   1.000000
    5       11.477522   0.000000
    6       13.364739   0.000000
    7       14.203013   0.000000
    8       14.805050   0.000000
 
 -0.3125000E+00 -0.4375000E+00  0.6250000E-01  0.3125000E-01
    1       -0.795718   1.000000
    2        0.652120   1.000000
    3        6.466350   1.000000
    4        7.381974   1.000000
    5        8.244773   0.998291
    6       12.124361   0.000000
    7       15.058244   0.000000
    8       16.360364   0.000000
 
 -0.1875000E+00 -0.4375000E+00  0.6250000E-01  0.3125000E-01
    1        0.420329   1.000000
    2        3.034840   1.000000
    3        4.204405   1.000000
    4        6.413351   1.000000
    5        8.638119   0.558074
    6       10.569912   0.000000
    7       13.073161   0.000000
    8       16.444114   0.000000
 
 -0.6250000E-01 -0.4375000E+00  0.6250000E-01  0.1562500E-01
    1        0.905154   1.000000
    2        2.633074   1.000000
    3        6.215471   1.000000
    4        6.948462   1.000000
    5        7.562279   1.000000
    6       10.177829   0.000000
    7       11.610230   0.000000
    8       15.351685   0.000000
 
 -0.3125000E+00 -0.3125000E+00  0.6250000E-01  0.1562500E-01
    1        1.551991   1.000000
    2        1.728977   1.000000
    3        3.905053   1.000000
    4        7.283608   1.000000
    5        7.691007   1.000000
    6       10.193141   0.000000
    7       14.922739   0.000000
    8       15.585067   0.000000
 
 -0.1875000E+00 -0.3125000E+00  0.6250000E-01  0.3125000E-01
    1        0.592852   1.000000
    2        3.629565   1.000000
    3        4.969150   1.000000
    4        7.143073   1.000000
    5        8.250298   0.998064
    6       10.057588   0.000000
    7       11.649084   0.000000
    8       14.045742   0.000000
 
 -0.6250000E-01 -0.3125000E+00  0.6250000E-01  0.1562500E-01
    1       -1.573744   1.000000
    2        5.806988   1.000000
    3        6.818858   1.000000
    4        7.189182   1.000000
    5        8.421800   0.953101
    6       10.906397   0.000000
    7       11.622432   0.000000
    8       13.300982   0.000000
 
 -0.1875000E+00 -0.1875000E+00  0.6250000E-01  0.1562500E-01
    1       -1.758599   1.000000
    2        6.436927   1.000000
    3        7.105308   1.000000
    4        7.403323   1.000000
    5        8.759999   0.237079
    6       10.407222   0.000000
    7       11.602838   0.000000
    8       11.825560   0.000000
 
 -0.6250000E-01 -0.1875000E+00  0.6250000E-01  0.1562500E-01
    1       -3.391861   1.000000
    2        6.124888   1.000000
    3        6.873037   1.000000
    4        8.720170   0.332110
    5       10.846507   0.000000
    6       11.275492   0.000000
    7       12.077094   0.000000
    8       13.814160   0.000000
 
 -0.6250000E-01 -0.6250000E-01  0.6250000E-01  0.3906250E-02
    1       -4.421096   1.000000
    2        6.508528   1.000000
    3        6.508529   1.000000
    4        6.774266   1.000000
    5       10.723817   0.000000
    6       14.478095   0.000000
    7       14.594586   0.000000
    8       16.472368   0.000000
 
  0.1875000E+00  0.1875000E+00  0.1875000E+00  0.1562500E-01
    1       -0.285990   1.000000
    2        2.581644   1.000000
    3        5.992140   1.000000
    4        6.082319   1.000000
    5       10.555972   0.000000
    6       12.394022   0.000000
    7       13.621623   0.000000
    8       14.060761   0.000000
 
  0.3125000E+00  0.1875000E+00  0.1875000E+00  0.1562500E-01
    1        2.014319   1.000000
    2        2.762842   1.000000
    3        3.792349   1.000000
    4        4.442824   1.000000
    5       11.478415   0.000000
    6       13.398093   0.000000
    7       13.703732   0.000000
    8       13.884977   0.000000
 
 -0.1875000E+00  0.1875000E+00  0.1875000E+00  0.7812500E-02
    1       -3.885218   1.000000
    2        2.826567   1.000000
    3        4.254441   1.000000
    4       10.645896   0.000000
    5       11.221134   0.000000
    6       14.003728   0.000000
    7       16.238382   0.000000
    8       16.751841   0.000000
 
  0.3125000E+00  0.3125000E+00  0.1875000E+00  0.7812500E-02
    1        0.983727   1.000000
    2        0.983727   1.000000
    3        5.872286   1.000000
    4        5.872287   1.000000
    5       11.805373   0.000000
    6       11.805376   0.000000
    7       13.605439   0.000000
    8       13.605444   0.000000
 
 -0.3125000E+00  0.3125000E+00  0.1875000E+00  0.1562500E-01
    1       -3.136006   1.000000
    2        1.197519   1.000000
    3        4.472944   1.000000
    4        8.618803   0.611287
    5       12.559987   0.000000
    6       15.469687   0.000000
    7       16.070428   0.000000
    8       16.848720   0.000000
 
 -0.1875000E+00  0.3125000E+00  0.1875000E+00  0.1562500E-01
    1       -2.919597   1.000000
    2        2.291439   1.000000
    3        3.809707   1.000000
    4        8.774007   0.207598
    5       11.370746   0.000000
    6       13.995119   0.000000
    7       16.017428   0.000000
    8       16.320580   0.000000
 
 -0.4375000E+00  0.4375000E+00  0.1875000E+00  0.1562500E-01
    1       -2.021870   1.000000
    2       -0.559963   1.000000
    3        5.480292   1.000000
    4        6.879958   1.000000
    5       13.606936   0.000000
    6       14.607402   0.000000
    7       16.161179   0.000000
    8       16.543302   0.000000
 
 -0.3125000E+00  0.4375000E+00  0.1875000E+00  0.3125000E-01
    1       -1.994048   1.000000
    2        0.854425   1.000000
    3        4.169171   1.000000
    4        6.903966   1.000000
    5       11.009575   0.000000
    6       15.309779   0.000000
    7       16.373763   0.000000
    8       17.820384   0.000000
 
 -0.1875000E+00  0.4375000E+00  0.1875000E+00  0.1562500E-01
    1       -1.167330   1.000000
    2        2.523719   1.000000
    3        4.084446   1.000000
    4        6.996448   1.000000
    5        7.907129   1.000000
    6       13.711402   0.000000
    7       15.128952   0.000000
    8       16.455106   0.000000
 
 -0.4375000E+00 -0.4375000E+00  0.1875000E+00  0.1562500E-01
    1       -0.725622   1.000000
    2       -0.711495   1.000000
    3        5.331347   1.000000
    4        5.353956   1.000000
    5       10.864946   0.000000
    6       15.977164   0.000000
    7       16.646830   0.000000
    8       16.956978   0.000000
 
 -0.3125000E+00 -0.4375000E+00  0.1875000E+00  0.3125000E-01
    1       -0.086421   1.000000
    2        1.290807   1.000000
    3        4.581347   1.000000
    4        5.843464   1.000000
    5        7.033552   1.000000
    6       13.896525   0.000000
    7       16.655631   0.000000
    8       17.692124   0.000000
 
 -0.1875000E+00 -0.4375000E+00  0.1875000E+00  0.1562500E-01
    1        1.264503   1.000000
    2        2.988814   1.000000
    3        4.157557   1.000000
    4        5.069227   1.000000
    5        7.254981   1.000000
    6       11.679598   0.000000
    7       13.014315   0.000000
    8       16.616601   0.000000
 
 -0.3125000E+00 -0.3125000E+00  0.1875000E+00  0.1562500E-01
    1        2.098558   1.000000
    2        2.570943   1.000000
    3        3.641042   1.000000
    4        5.757976   1.000000
    5        5.874347   1.000000
    6       11.928310   0.000000
    7       14.389125   0.000000
    8       15.191494   0.000000
 
 -0.1875000E+00 -0.3125000E+00  0.1875000E+00  0.1562500E-01
    1        0.246208   1.000000
    2        4.623166   1.000000
    3        5.549830   1.000000
    4        6.623093   1.000000
    5        7.420372   1.000000
    6       10.433399   0.000000
    7       11.503690   0.000000
    8       12.985883   0.000000
 
 -0.1875000E+00 -0.1875000E+00  0.1875000E+00  0.3906250E-02
    1       -1.944078   1.000000
    2        7.789086   1.000000
    3        7.789086   1.000000
    4        7.885094   1.000000
    5        8.100508   0.999961
    6        9.378279   0.000000
    7       11.323608   0.000000
    8       11.323610   0.000000
 
 -0.3125000E+00  0.3125000E+00  0.3125000E+00  0.7812500E-02
    1       -2.396646   1.000000
    2        1.337373   1.000000
    3        2.931847   1.000000
    4        6.556697   1.000000
    5       14.219296   0.000000
    6       15.100360   0.000000
    7       16.657228   0.000000
    8       18.088848   0.000000
 
 -0.4375000E+00  0.4375000E+00  0.3125000E+00  0.1562500E-01
    1       -1.304865   1.000000
    2        0.087001   1.000000
    3        3.450860   1.000000
    4        4.806711   1.000000
    5       14.550612   0.000000
    6       14.737985   0.000000
    7       17.637429   0.000000
    8       18.706181   0.000000
 
 -0.3125000E+00  0.4375000E+00  0.3125000E+00  0.1562500E-01
    1       -1.091362   1.000000
    2        1.170791   1.000000
    3        2.795264   1.000000
    4        5.003992   1.000000
    5       10.555840   0.000000
    6       17.465246   0.000000
    7       17.828053   0.000000
    8       18.841967   0.000000
 
 -0.4375000E+00 -0.4375000E+00  0.3125000E+00  0.1562500E-01
    1        0.099606   1.000000
    2        0.124138   1.000000
    3        3.472981   1.000000
    4        3.488001   1.000000
    5       10.395305   0.000000
    6       17.707647   0.000000
    7       18.993433   0.000000
    8       19.556935   0.000000
 
 -0.3125000E+00 -0.4375000E+00  0.3125000E+00  0.1562500E-01
    1        0.918337   1.000000
    2        1.782308   1.000000
    3        3.409714   1.000000
    4        4.243368   1.000000
    5        6.602437   1.000000
    6       15.561705   0.000000
    7       16.796563   0.000000
    8       17.968759   0.000000
 
 -0.3125000E+00 -0.3125000E+00  0.3125000E+00  0.3906250E-02
    1        2.313094   1.000000
    2        3.283111   1.000000
    3        4.037033   1.000000
    4        4.747504   1.000000
    5        4.747504   1.000000
    6       13.641438   0.000000
    7       14.207980   0.000000
    8       14.207985   0.000000
 
 -0.4375000E+00  0.4375000E+00  0.4375000E+00  0.7812500E-02
    1       -0.286404   1.000000
    2        0.584551   1.000000
    3        2.242869   1.000000
    4        3.102052   1.000000
    5       14.451543   0.000000
    6       14.489289   0.000000
    7       19.875552   0.000000
    8       20.640647   0.000000
 
 -0.4375000E+00 -0.4375000E+00  0.4375000E+00  0.3906250E-02
    1        0.774520   1.000000
    2        0.814238   1.000000
    3        2.449669   1.000000
    4        2.449669   1.000000
    5       10.231902   0.000000
    6       18.220153   0.000000
    7       20.157744   0.000000
    8       20.193614   0.000000
