 vasp.5.4.4.18Apr17-6-g9f103f2a35 (build Dec 09 2018 21:25:21) complex          
  
 executed on IFC18.0.1.163_CrayMP date 2019.03.23  21:15:31
 running on    8 total cores
 distrk:  each k-point on    8 cores,    1 groups
 distr:  one band on NCORES_PER_BAND=   1 cores,    8 groups


--------------------------------------------------------------------------------------------------------


 INCAR:
 POTCAR:   PAW_PBE Si 05Jan2001                   

 ----------------------------------------------------------------------------- 
|                                                                             |
|           W    W    AA    RRRRR   N    N  II  N    N   GGGG   !!!           |
|           W    W   A  A   R    R  NN   N  II  NN   N  G    G  !!!           |
|           W    W  A    A  R    R  N N  N  II  N N  N  G       !!!           |
|           W WW W  AAAAAA  RRRRR   N  N N  II  N  N N  G  GGG   !            |
|           WW  WW  A    A  R   R   N   NN  II  N   NN  G    G                |
|           W    W  A    A  R    R  N    N  II  N    N   GGGG   !!!           |
|                                                                             |
|      For optimal performance we recommend to set                            |
|        NCORE= 4 - approx SQRT( number of cores)                             |
|      NCORE specifies how many cores store one orbital (NPAR=cpu/NCORE).     |
|      This setting can  greatly improve the performance of VASP for DFT.     |
|      The default,   NCORE=1            might be grossly inefficient         |
|      on modern multi-core architectures or massively parallel machines.     |
|      Do your own testing !!!!                                               |
|      Unfortunately you need to use the default for GW and RPA calculations. |
|      (for HF NCORE is supported but not extensively tested yet)             |
|                                                                             |
 ----------------------------------------------------------------------------- 

 POTCAR:   PAW_PBE Si 05Jan2001                   
   VRHFIN =Si: s2p2                                                             
   LEXCH  = PE                                                                  
   EATOM  =   103.0669 eV,    7.5752 Ry                                         
                                                                                
   TITEL  = PAW_PBE Si 05Jan2001                                                
   LULTRA =        F    use ultrasoft PP ?                                      
   IUNSCR =        1    unscreen: 0-lin 1-nonlin 2-no                           
   RPACOR =    1.500    partial core radius                                     
   POMASS =   28.085; ZVAL   =    4.000    mass and valenz                      
   RCORE  =    1.900    outmost cutoff radius                                   
   RWIGS  =    2.480; RWIGS  =    1.312    wigner-seitz radius (au A)           
   ENMAX  =  245.345; ENMIN  =  184.009 eV                                      
   ICORE  =        2    local potential                                         
   LCOR   =        T    correct aug charges                                     
   LPAW   =        T    paw PP                                                  
   EAUG   =  322.069                                                            
   DEXC   =    -.007                                                            
   RMAX   =    2.944    core radius for proj-oper                               
   RAUG   =    1.300    factor for augmentation sphere                          
   RDEP   =    1.993    radius for radial grids                                 
   QCUT   =   -4.246; QGAM   =    8.493    optimization parameters              
                                                                                
   Description                                                                  
     l     E      TYP  RCUT    TYP  RCUT                                        
     0   .000     23  1.900                                                     
     0   .000     23  1.900                                                     
     1   .000     23  1.900                                                     
     1   .000     23  1.900                                                     
     2   .000      7  1.900                                                     
  local pseudopotential read in
  partial core-charges read in
  atomic valenz-charges read in
  non local Contribution for L=           0  read in
    real space projection operators read in
  non local Contribution for L=           0  read in
    real space projection operators read in
  non local Contribution for L=           1  read in
    real space projection operators read in
  non local Contribution for L=           1  read in
    real space projection operators read in
    PAW grid and wavefunctions read in
 
   number of l-projection  operators is LMAX  =           4
   number of lm-projection operators is LMMAX =           8
 
 PAW_PBE Si 05Jan2001                   :
 energy of atom  1       EATOM= -103.0669
 kinetic energy error for atom=    0.0013 (will be added to EATOM!!)
 
 
 POSCAR: Si2                                     
  positions in direct lattice
  No initial velocities read in
 exchange correlation table for  LEXCH =        8
   RHO(1)=    0.500       N(1)  =     2000
   RHO(2)=  100.500       N(2)  =     4000
 


--------------------------------------------------------------------------------------------------------


 ion  position               nearest neighbor table
   1  0.750  0.250  0.500-   2 2.52   2 2.52   2 2.52   2 2.52
   2  0.500  0.500  0.000-   1 2.52   1 2.52   1 2.52   1 2.52
 
  LATTYP: Found a body centered tetragonal cell.
 ALAT       =     4.8625640000
 C/A-ratio  =     0.5507686891
  
  Lattice vectors:
  
 A1 = (  -2.4312820000,   2.4312820000,   1.3390740000)
 A2 = (   2.4312820000,  -2.4312820000,   1.3390740000)
 A3 = (   2.4312820000,   2.4312820000,  -1.3390740000)


Analysis of symmetry for initial positions (statically):
=====================================================================
 Subroutine PRICEL returns:
 Original cell was already a primitive cell.
 

 Routine SETGRP: Setting up the symmetry group for a 
 body centered tetragonal supercell.


 Subroutine GETGRP returns: Found 16 space group operations
 (whereof  8 operations were pure point group operations)
 out of a pool of 16 trial point group operations.


The static configuration has the point symmetry D_2d.
 The point group associated with its full space group is D_4h.


Analysis of symmetry for dynamics (positions and initial velocities):
=====================================================================
 Subroutine PRICEL returns:
 Original cell was already a primitive cell.
 

 Routine SETGRP: Setting up the symmetry group for a 
 body centered tetragonal supercell.


 Subroutine GETGRP returns: Found 16 space group operations
 (whereof  8 operations were pure point group operations)
 out of a pool of 16 trial point group operations.


The dynamic configuration has the point symmetry D_2d.
 The point group associated with its full space group is D_4h.


 Subroutine INISYM returns: Found 16 space group operations
 (whereof  8 operations are pure point group operations),
 and found     1 'primitive' translations

 
 
 KPOINTS: Automatic kpoint scheme                 

Automatic generation of k-mesh.
Space group operators:
 irot       det(A)        alpha          n_x          n_y          n_z        tau_x        tau_y        tau_z
    1     1.000000     0.000000     1.000000     0.000000     0.000000     0.000000     0.000000     0.000000
    2    -1.000000    90.000000     0.000000    -0.000000    -1.000000     0.000000     0.000000     0.000000
    3     1.000000   180.000000    -0.000000    -0.000000     1.000000     0.000000     0.000000     0.000000
    4    -1.000000    90.000000     0.000000     0.000000     1.000000     0.000000     0.000000     0.000000
    5    -1.000000   180.000000     0.000000    -1.000000    -0.000000     0.000000     0.000000     0.000000
    6     1.000000   180.000000     0.707107     0.707107    -0.000000     0.000000     0.000000     0.000000
    7    -1.000000   180.000000     1.000000     0.000000     0.000000     0.000000     0.000000     0.000000
    8     1.000000   180.000000     0.707107    -0.707107     0.000000     0.000000     0.000000     0.000000
    9    -1.000000     0.000000     1.000000     0.000000     0.000000     0.250000     0.750000     0.500000
   10     1.000000    90.000000     0.000000    -0.000000    -1.000000     0.250000     0.750000     0.500000
   11    -1.000000   180.000000    -0.000000    -0.000000     1.000000     0.250000     0.750000     0.500000
   12     1.000000    90.000000     0.000000     0.000000     1.000000     0.250000     0.750000     0.500000
   13     1.000000   180.000000     0.000000    -1.000000    -0.000000     0.250000     0.750000     0.500000
   14    -1.000000   180.000000     0.707107     0.707107    -0.000000     0.250000     0.750000     0.500000
   15     1.000000   180.000000     1.000000     0.000000     0.000000     0.250000     0.750000     0.500000
   16    -1.000000   180.000000     0.707107    -0.707107     0.000000     0.250000     0.750000     0.500000
 
 Subroutine IBZKPT returns following result:
 ===========================================
 
 Found     56 irreducible k-points:
 
 Following reciprocal coordinates:
            Coordinates               Weight
  0.062500  0.062500  0.062500    128.000000
  0.187500  0.062500  0.062500    256.000000
  0.312500  0.062500  0.062500    256.000000
  0.437500  0.062500  0.062500    128.000000
 -0.062500  0.062500  0.062500     64.000000
  0.187500  0.187500  0.062500    128.000000
  0.312500  0.187500  0.062500    256.000000
  0.437500  0.187500  0.062500    256.000000
 -0.437500  0.187500  0.062500    256.000000
 -0.312500  0.187500  0.062500    128.000000
 -0.187500  0.187500  0.062500    128.000000
 -0.062500  0.187500  0.062500    128.000000
  0.312500  0.312500  0.062500    128.000000
  0.437500  0.312500  0.062500    256.000000
 -0.437500  0.312500  0.062500    128.000000
 -0.312500  0.312500  0.062500    128.000000
 -0.187500  0.312500  0.062500    256.000000
 -0.062500  0.312500  0.062500    128.000000
  0.437500  0.437500  0.062500     64.000000
 -0.437500  0.437500  0.062500    128.000000
 -0.312500  0.437500  0.062500    256.000000
 -0.187500  0.437500  0.062500    256.000000
 -0.062500  0.437500  0.062500    128.000000
 -0.437500 -0.437500  0.062500    128.000000
 -0.312500 -0.437500  0.062500    256.000000
 -0.187500 -0.437500  0.062500    256.000000
 -0.062500 -0.437500  0.062500    128.000000
 -0.312500 -0.312500  0.062500    128.000000
 -0.187500 -0.312500  0.062500    256.000000
 -0.062500 -0.312500  0.062500    128.000000
 -0.187500 -0.187500  0.062500    128.000000
 -0.062500 -0.187500  0.062500    128.000000
 -0.062500 -0.062500  0.062500     32.000000
  0.187500  0.187500  0.187500    128.000000
  0.312500  0.187500  0.187500    128.000000
 -0.187500  0.187500  0.187500     64.000000
  0.312500  0.312500  0.187500     64.000000
 -0.312500  0.312500  0.187500    128.000000
 -0.187500  0.312500  0.187500    128.000000
 -0.437500  0.437500  0.187500    128.000000
 -0.312500  0.437500  0.187500    256.000000
 -0.187500  0.437500  0.187500    128.000000
 -0.437500 -0.437500  0.187500    128.000000
 -0.312500 -0.437500  0.187500    256.000000
 -0.187500 -0.437500  0.187500    128.000000
 -0.312500 -0.312500  0.187500    128.000000
 -0.187500 -0.312500  0.187500    128.000000
 -0.187500 -0.187500  0.187500     32.000000
 -0.312500  0.312500  0.312500     64.000000
 -0.437500  0.437500  0.312500    128.000000
 -0.312500  0.437500  0.312500    128.000000
 -0.437500 -0.437500  0.312500    128.000000
 -0.312500 -0.437500  0.312500    128.000000
 -0.312500 -0.312500  0.312500     32.000000
 -0.437500  0.437500  0.437500     64.000000
 -0.437500 -0.437500  0.437500     32.000000
 
 Following cartesian coordinates:
            Coordinates               Weight
  0.025707  0.025707  0.046674    128.000000
  0.025707  0.051413  0.093348    256.000000
  0.025707  0.077120  0.140022    256.000000
  0.025707  0.102826  0.186696    128.000000
  0.025707  0.000000  0.000000     64.000000
  0.051413  0.051413  0.140022    128.000000
  0.051413  0.077120  0.186696    256.000000
  0.051413  0.102826  0.233370    256.000000
  0.051413 -0.077120 -0.093348    256.000000
  0.051413 -0.051413 -0.046674    128.000000
  0.051413 -0.025707  0.000000    128.000000
  0.051413  0.000000  0.046674    128.000000
  0.077120  0.077120  0.233370    128.000000
  0.077120  0.102826  0.280044    256.000000
  0.077120 -0.077120 -0.046674    128.000000
  0.077120 -0.051413  0.000000    128.000000
  0.077120 -0.025707  0.046674    256.000000
  0.077120 -0.000000  0.093348    128.000000
  0.102826  0.102826  0.326718     64.000000
  0.102826 -0.077120  0.000000    128.000000
  0.102826 -0.051413  0.046674    256.000000
  0.102826 -0.025707  0.093348    256.000000
  0.102826 -0.000000  0.140022    128.000000
 -0.077120 -0.077120 -0.326718    128.000000
 -0.077120 -0.051413 -0.280044    256.000000
 -0.077120 -0.025707 -0.233370    256.000000
 -0.077120  0.000000 -0.186696    128.000000
 -0.051413 -0.051413 -0.233370    128.000000
 -0.051413 -0.025707 -0.186696    256.000000
 -0.051413  0.000000 -0.140022    128.000000
 -0.025707 -0.025707 -0.140022    128.000000
 -0.025707  0.000000 -0.093348    128.000000
  0.000000  0.000000 -0.046674     32.000000
  0.077120  0.077120  0.140022    128.000000
  0.077120  0.102826  0.186696    128.000000
  0.077120 -0.000000  0.000000     64.000000
  0.102826  0.102826  0.233370     64.000000
  0.102826 -0.025707  0.000000    128.000000
  0.102826  0.000000  0.046674    128.000000
  0.128533 -0.051413  0.000000    128.000000
  0.128533 -0.025707  0.046674    256.000000
  0.128533  0.000000  0.093348    128.000000
 -0.051413 -0.051413 -0.326718    128.000000
 -0.051413 -0.025707 -0.280044    256.000000
 -0.051413  0.000000 -0.233370    128.000000
 -0.025707 -0.025707 -0.233370    128.000000
 -0.025707  0.000000 -0.186696    128.000000
  0.000000  0.000000 -0.140022     32.000000
  0.128533  0.000000  0.000000     64.000000
  0.154240 -0.025707 -0.000000    128.000000
  0.154240  0.000000  0.046674    128.000000
 -0.025707 -0.025707 -0.326718    128.000000
 -0.025707 -0.000000 -0.280044    128.000000
  0.000000  0.000000 -0.233370     32.000000
  0.179946  0.000000  0.000000     64.000000
  0.000000  0.000000 -0.326718     32.000000
 


--------------------------------------------------------------------------------------------------------




 Dimension of arrays:
   k-points           NKPTS =     56   k-points in BZ     NKDIM =     56   number of bands    NBANDS=      8
   number of dos      NEDOS =    301   number of ions     NIONS =      2
   non local maximal  LDIM  =      4   non local SUM 2l+1 LMDIM =      8
   total plane-waves  NPLWV =   5832
   max r-space proj   IRMAX =      1   max aug-charges    IRDMAX=   6357
   dimension x,y,z NGX =    18 NGY =   18 NGZ =   18
   dimension x,y,z NGXF=    36 NGYF=   36 NGZF=   36
   support grid    NGXF=    36 NGYF=   36 NGZF=   36
   ions per type =               2
   NGX,Y,Z   is equivalent  to a cutoff of   8.11,  8.11,  8.11 a.u.
   NGXF,Y,Z  is equivalent  to a cutoff of  16.22, 16.22, 16.22 a.u.

 SYSTEM =  unknown system                          
 POSCAR =  Si2                                     

 Startparameter for this run:
   NWRITE =      2    write-flag & timer
   PREC   = normal    normal or accurate (medium, high low for compatibility)
   ISTART =      0    job   : 0-new  1-cont  2-samecut
   ICHARG =      2    charge: 1-file 2-atom 10-const
   ISPIN  =      1    spin polarized calculation?
   LNONCOLLINEAR =      F non collinear calculations
   LSORBIT =      F    spin-orbit coupling
   INIWAV =      1    electr: 0-lowe 1-rand  2-diag
   LASPH  =      F    aspherical Exc in radial PAW
   METAGGA=      F    non-selfconsistent MetaGGA calc.

 Electronic Relaxation 1
   ENCUT  =  350.0 eV  25.72 Ry    5.07 a.u.   5.63  5.63  5.63*2*pi/ulx,y,z
   ENINI  =  350.0     initial cutoff
   ENAUG  =  322.1 eV  augmentation charge cutoff
   NELM   =     60;   NELMIN=  2; NELMDL= -5     # of ELM steps 
   EDIFF  = 0.4E-03   stopping-criterion for ELM
   LREAL  =      F    real-space projection
   NLSPLINE    = F    spline interpolate recip. space projectors
   LCOMPAT=      F    compatible to vasp.4.4
   GGA_COMPAT  = T    GGA compatible to vasp.4.4-vasp.4.6
   LMAXPAW     = -100 max onsite density
   LMAXMIX     =    2 max onsite mixed and CHGCAR
   VOSKOWN=      0    Vosko Wilk Nusair interpolation
   ROPT   =    0.00000
 Ionic relaxation
   EDIFFG = -.1E-01   stopping-criterion for IOM
   NSW    =     15    number of steps for IOM
   NBLOCK =      1;   KBLOCK =     15    inner block; outer block 
   IBRION =      2    ionic relax: 0-MD 1-quasi-New 2-CG
   NFREE  =      1    steps in history (QN), initial steepest desc. (CG)
   ISIF   =      2    stress and relaxation
   IWAVPR =     11    prediction:  0-non 1-charg 2-wave 3-comb
   ISYM   =      2    0-nonsym 1-usesym 2-fastsym
   LCORR  =      T    Harris-Foulkes like correction to forces

   POTIM  = 0.5000    time-step for ionic-motion
   TEIN   =    0.0    initial temperature
   TEBEG  =    0.0;   TEEND  =   0.0 temperature during run
   SMASS  =  -3.00    Nose mass-parameter (am)
   estimated Nose-frequenzy (Omega)   =  0.10E-29 period in steps =****** mass=  -0.311E-27a.u.
   SCALEE = 1.0000    scale energy and forces
   NPACO  =    256;   APACO  = 16.0  distance and # of slots for P.C.
   PSTRESS=    0.0 pullay stress

  Mass of Ions in am
   POMASS =  28.09
  Ionic Valenz
   ZVAL   =   4.00
  Atomic Wigner-Seitz radii
   RWIGS  =  -1.00
  virtual crystal weights 
   VCA    =   1.00
   NELECT =       8.0000    total number of electrons
   NUPDOWN=      -1.0000    fix difference up-down

 DOS related values:
   EMIN   =  10.00;   EMAX   =-10.00  energy-range for DOS
   EFERMI =   0.00
   ISMEAR =     0;   SIGMA  =   0.20  broadening in eV -4-tet -1-fermi 0-gaus

 Electronic relaxation 2 (details)
   IALGO  =     38    algorithm
   LDIAG  =      T    sub-space diagonalisation (order eigenvalues)
   LSUBROT=      F    optimize rotation matrix (better conditioning)
   TURBO    =      0    0=normal 1=particle mesh
   IRESTART =      0    0=no restart 2=restart with 2 vectors
   NREBOOT  =      0    no. of reboots
   NMIN     =      0    reboot dimension
   EREF     =   0.00    reference energy to select bands
   IMIX   =      4    mixing-type and parameters
     AMIX     =   0.40;   BMIX     =  1.00
     AMIX_MAG =   1.60;   BMIX_MAG =  1.00
     AMIN     =   0.10
     WC   =   100.;   INIMIX=   1;  MIXPRE=   1;  MAXMIX= -45

 Intra band minimization:
   WEIMIN = 0.0010     energy-eigenvalue tresh-hold
   EBREAK =  0.13E-04  absolut break condition
   DEPER  =   0.30     relativ break condition  

   TIME   =   0.40     timestep for ELM

  volume/ion in A,a.u.               =      15.83       106.83
  Fermi-wavevector in a.u.,A,eV,Ry     =   1.034967  1.955804 14.573966  1.071156
  Thomas-Fermi vector in A             =   2.169287
 
 Write flags
   LWAVE        =      T    write WAVECAR
   LDOWNSAMPLE  =      F    k-point downsampling of WAVECAR
   LCHARG       =      T    write CHGCAR
   LVTOT        =      F    write LOCPOT, total local potential
   LVHAR        =      F    write LOCPOT, Hartree potential only
   LELF         =      F    write electronic localiz. function (ELF)
   LORBIT       =      0    0 simple, 1 ext, 2 COOP (PROOUT), +10 PAW based schemes


 Dipole corrections
   LMONO  =      F    monopole corrections only (constant potential shift)
   LDIPOL =      F    correct potential (dipole corrections)
   IDIPOL =      0    1-x, 2-y, 3-z, 4-all directions 
   EPSILON=  1.0000000 bulk dielectric constant

 Exchange correlation treatment:
   GGA     =    --    GGA type
   LEXCH   =     8    internal setting for exchange type
   VOSKOWN=      0    Vosko Wilk Nusair interpolation
   LHFCALC =     F    Hartree Fock is set to
   LHFONE  =     F    Hartree Fock one center treatment
   AEXX    =    0.0000 exact exchange contribution

 Linear response parameters
   LEPSILON=     F    determine dielectric tensor
   LRPA    =     F    only Hartree local field effects (RPA)
   LNABLA  =     F    use nabla operator in PAW spheres
   LVEL    =     F    velocity operator in full k-point grid
   LINTERFAST=   F  fast interpolation
   KINTER  =     0    interpolate to denser k-point grid
   CSHIFT  =0.1000    complex shift for real part using Kramers Kronig
   OMEGAMAX=  -1.0    maximum frequency
   DEG_THRESHOLD= 0.2000000E-02 threshold for treating states as degnerate
   RTIME   =   -0.100 relaxation time in fs
  (WPLASMAI=    0.000 imaginary part of plasma frequency in eV, 0.658/RTIME)
   DFIELD  = 0.0000000 0.0000000 0.0000000 field for delta impulse in time
 
 Orbital magnetization related:
   ORBITALMAG=     F  switch on orbital magnetization
   LCHIMAG   =     F  perturbation theory with respect to B field
   DQ        =  0.001000  dq finite difference perturbation B field
   LLRAUG    =     F  two centre corrections for induced B field



--------------------------------------------------------------------------------------------------------


 conjugate gradient relaxation of ions
 charge density and potential will be updated during run
 non-spin polarized calculation
 Variant of blocked Davidson
 Davidson routine will perform the subspace rotation
 perform sub-space diagonalisation
    after iterative eigenvector-optimisation
 modified Broyden-mixing scheme, WC =      100.0
 initial mixing is a Kerker type mixing with AMIX =  0.4000 and BMIX =      1.0000
 Hartree-type preconditioning will be used
 using additional bands            4
 reciprocal scheme for non local part
 use partial core corrections
 calculate Harris-corrections to forces 
   (improved forces if not selfconsistent)
 use gradient corrections 
 use of overlap-Matrix (Vanderbilt PP)
 Gauss-broadening in eV      SIGMA  =   0.20


--------------------------------------------------------------------------------------------------------


  energy-cutoff  :      350.00
  volume of cell :       31.66
      direct lattice vectors                 reciprocal lattice vectors
    -2.431282000  2.431282000  1.339074000    -0.000000000  0.205652820  0.373392359
     2.431282000 -2.431282000  1.339074000     0.205652820 -0.000000000  0.373392359
     2.431282000  2.431282000 -1.339074000     0.205652820  0.205652820 -0.000000000

  length of vectors
     3.689902913  3.689902913  3.689902913     0.426280349  0.426280349  0.290837007


 
 k-points in units of 2pi/SCALE and weight: Automatic kpoint scheme                 
   0.02570660  0.02570660  0.04667404       0.016
   0.02570660  0.05141321  0.09334809       0.031
   0.02570660  0.07711981  0.14002213       0.031
   0.02570660  0.10282641  0.18669618       0.016
   0.02570660  0.00000000 -0.00000000       0.008
   0.05141321  0.05141321  0.14002213       0.016
   0.05141321  0.07711981  0.18669618       0.031
   0.05141321  0.10282641  0.23337022       0.031
   0.05141321 -0.07711981 -0.09334809       0.031
   0.05141321 -0.05141321 -0.04667404       0.016
   0.05141321 -0.02570660 -0.00000000       0.016
   0.05141321 -0.00000000  0.04667404       0.016
   0.07711981  0.07711981  0.23337022       0.016
   0.07711981  0.10282641  0.28004427       0.031
   0.07711981 -0.07711981 -0.04667404       0.016
   0.07711981 -0.05141321 -0.00000000       0.016
   0.07711981 -0.02570660  0.04667404       0.031
   0.07711981 -0.00000000  0.09334809       0.016
   0.10282641  0.10282641  0.32671831       0.008
   0.10282641 -0.07711981 -0.00000000       0.016
   0.10282641 -0.05141321  0.04667404       0.031
   0.10282641 -0.02570660  0.09334809       0.031
   0.10282641 -0.00000000  0.14002213       0.016
  -0.07711981 -0.07711981 -0.32671831       0.016
  -0.07711981 -0.05141321 -0.28004427       0.031
  -0.07711981 -0.02570660 -0.23337022       0.031
  -0.07711981  0.00000000 -0.18669618       0.016
  -0.05141321 -0.05141321 -0.23337022       0.016
  -0.05141321 -0.02570660 -0.18669618       0.031
  -0.05141321  0.00000000 -0.14002213       0.016
  -0.02570660 -0.02570660 -0.14002213       0.016
  -0.02570660  0.00000000 -0.09334809       0.016
   0.00000000  0.00000000 -0.04667404       0.004
   0.07711981  0.07711981  0.14002213       0.016
   0.07711981  0.10282641  0.18669618       0.016
   0.07711981 -0.00000000 -0.00000000       0.008
   0.10282641  0.10282641  0.23337022       0.008
   0.10282641 -0.02570660 -0.00000000       0.016
   0.10282641 -0.00000000  0.04667404       0.016
   0.12853301 -0.05141321 -0.00000000       0.016
   0.12853301 -0.02570660  0.04667404       0.031
   0.12853301 -0.00000000  0.09334809       0.016
  -0.05141321 -0.05141321 -0.32671831       0.016
  -0.05141321 -0.02570660 -0.28004427       0.031
  -0.05141321  0.00000000 -0.23337022       0.016
  -0.02570660 -0.02570660 -0.23337022       0.016
  -0.02570660  0.00000000 -0.18669618       0.016
   0.00000000  0.00000000 -0.14002213       0.004
   0.12853301 -0.00000000 -0.00000000       0.008
   0.15423962 -0.02570660  0.00000000       0.016
   0.15423962  0.00000000  0.04667404       0.016
  -0.02570660 -0.02570660 -0.32671831       0.016
  -0.02570660 -0.00000000 -0.28004427       0.016
  -0.00000000 -0.00000000 -0.23337022       0.004
   0.17994622  0.00000000 -0.00000000       0.008
   0.00000000  0.00000000 -0.32671831       0.004
 
 k-points in reciprocal lattice and weights: Automatic kpoint scheme                 
   0.06250000  0.06250000  0.06250000       0.016
   0.18750000  0.06250000  0.06250000       0.031
   0.31250000  0.06250000  0.06250000       0.031
   0.43750000  0.06250000  0.06250000       0.016
  -0.06250000  0.06250000  0.06250000       0.008
   0.18750000  0.18750000  0.06250000       0.016
   0.31250000  0.18750000  0.06250000       0.031
   0.43750000  0.18750000  0.06250000       0.031
  -0.43750000  0.18750000  0.06250000       0.031
  -0.31250000  0.18750000  0.06250000       0.016
  -0.18750000  0.18750000  0.06250000       0.016
  -0.06250000  0.18750000  0.06250000       0.016
   0.31250000  0.31250000  0.06250000       0.016
   0.43750000  0.31250000  0.06250000       0.031
  -0.43750000  0.31250000  0.06250000       0.016
  -0.31250000  0.31250000  0.06250000       0.016
  -0.18750000  0.31250000  0.06250000       0.031
  -0.06250000  0.31250000  0.06250000       0.016
   0.43750000  0.43750000  0.06250000       0.008
  -0.43750000  0.43750000  0.06250000       0.016
  -0.31250000  0.43750000  0.06250000       0.031
  -0.18750000  0.43750000  0.06250000       0.031
  -0.06250000  0.43750000  0.06250000       0.016
  -0.43750000 -0.43750000  0.06250000       0.016
  -0.31250000 -0.43750000  0.06250000       0.031
  -0.18750000 -0.43750000  0.06250000       0.031
  -0.06250000 -0.43750000  0.06250000       0.016
  -0.31250000 -0.31250000  0.06250000       0.016
  -0.18750000 -0.31250000  0.06250000       0.031
  -0.06250000 -0.31250000  0.06250000       0.016
  -0.18750000 -0.18750000  0.06250000       0.016
  -0.06250000 -0.18750000  0.06250000       0.016
  -0.06250000 -0.06250000  0.06250000       0.004
   0.18750000  0.18750000  0.18750000       0.016
   0.31250000  0.18750000  0.18750000       0.016
  -0.18750000  0.18750000  0.18750000       0.008
   0.31250000  0.31250000  0.18750000       0.008
  -0.31250000  0.31250000  0.18750000       0.016
  -0.18750000  0.31250000  0.18750000       0.016
  -0.43750000  0.43750000  0.18750000       0.016
  -0.31250000  0.43750000  0.18750000       0.031
  -0.18750000  0.43750000  0.18750000       0.016
  -0.43750000 -0.43750000  0.18750000       0.016
  -0.31250000 -0.43750000  0.18750000       0.031
  -0.18750000 -0.43750000  0.18750000       0.016
  -0.31250000 -0.31250000  0.18750000       0.016
  -0.18750000 -0.31250000  0.18750000       0.016
  -0.18750000 -0.18750000  0.18750000       0.004
  -0.31250000  0.31250000  0.31250000       0.008
  -0.43750000  0.43750000  0.31250000       0.016
  -0.31250000  0.43750000  0.31250000       0.016
  -0.43750000 -0.43750000  0.31250000       0.016
  -0.31250000 -0.43750000  0.31250000       0.016
  -0.31250000 -0.31250000  0.31250000       0.004
  -0.43750000  0.43750000  0.43750000       0.008
  -0.43750000 -0.43750000  0.43750000       0.004
 
 position of ions in fractional coordinates (direct lattice) 
   0.75000000  0.25000000  0.50000000
   0.50000000  0.50000000  0.00000000
 
 position of ions in cartesian coordinates  (Angst):
   0.00000000  2.43128200  0.66953700
   0.00000000  0.00000000  1.33907400
 


--------------------------------------------------------------------------------------------------------


 k-point  1 :   0.0625 0.0625 0.0625  plane waves:     476
 k-point  2 :   0.1875 0.0625 0.0625  plane waves:     477
 k-point  3 :   0.3125 0.0625 0.0625  plane waves:     475
 k-point  4 :   0.4375 0.0625 0.0625  plane waves:     476
 k-point  5 :  -0.0625 0.0625 0.0625  plane waves:     479
 k-point  6 :   0.1875 0.1875 0.0625  plane waves:     478
 k-point  7 :   0.3125 0.1875 0.0625  plane waves:     476
 k-point  8 :   0.4375 0.1875 0.0625  plane waves:     477
 k-point  9 :  -0.4375 0.1875 0.0625  plane waves:     472
 k-point 10 :  -0.3125 0.1875 0.0625  plane waves:     475
 k-point 11 :  -0.1875 0.1875 0.0625  plane waves:     467
 k-point 12 :  -0.0625 0.1875 0.0625  plane waves:     475
 k-point 13 :   0.3125 0.3125 0.0625  plane waves:     470
 k-point 14 :   0.4375 0.3125 0.0625  plane waves:     470
 k-point 15 :  -0.4375 0.3125 0.0625  plane waves:     465
 k-point 16 :  -0.3125 0.3125 0.0625  plane waves:     470
 k-point 17 :  -0.1875 0.3125 0.0625  plane waves:     466
 k-point 18 :  -0.0625 0.3125 0.0625  plane waves:     475
 k-point 19 :   0.4375 0.4375 0.0625  plane waves:     470
 k-point 20 :  -0.4375 0.4375 0.0625  plane waves:     461
 k-point 21 :  -0.3125 0.4375 0.0625  plane waves:     465
 k-point 22 :  -0.1875 0.4375 0.0625  plane waves:     470
 k-point 23 :  -0.0625 0.4375 0.0625  plane waves:     475
 k-point 24 :  -0.4375-0.4375 0.0625  plane waves:     467
 k-point 25 :  -0.3125-0.4375 0.0625  plane waves:     470
 k-point 26 :  -0.1875-0.4375 0.0625  plane waves:     475
 k-point 27 :  -0.0625-0.4375 0.0625  plane waves:     466
 k-point 28 :  -0.3125-0.3125 0.0625  plane waves:     470
 k-point 29 :  -0.1875-0.3125 0.0625  plane waves:     473
 k-point 30 :  -0.0625-0.3125 0.0625  plane waves:     476
 k-point 31 :  -0.1875-0.1875 0.0625  plane waves:     480
 k-point 32 :  -0.0625-0.1875 0.0625  plane waves:     477
 k-point 33 :  -0.0625-0.0625 0.0625  plane waves:     472
 k-point 34 :   0.1875 0.1875 0.1875  plane waves:     477
 k-point 35 :   0.3125 0.1875 0.1875  plane waves:     478
 k-point 36 :  -0.1875 0.1875 0.1875  plane waves:     469
 k-point 37 :   0.3125 0.3125 0.1875  plane waves:     466
 k-point 38 :  -0.3125 0.3125 0.1875  plane waves:     466
 k-point 39 :  -0.1875 0.3125 0.1875  plane waves:     466
 k-point 40 :  -0.4375 0.4375 0.1875  plane waves:     468
 k-point 41 :  -0.3125 0.4375 0.1875  plane waves:     465
 k-point 42 :  -0.1875 0.4375 0.1875  plane waves:     474
 k-point 43 :  -0.4375-0.4375 0.1875  plane waves:     454
 k-point 44 :  -0.3125-0.4375 0.1875  plane waves:     468
 k-point 45 :  -0.1875-0.4375 0.1875  plane waves:     464
 k-point 46 :  -0.3125-0.3125 0.1875  plane waves:     469
 k-point 47 :  -0.1875-0.3125 0.1875  plane waves:     471
 k-point 48 :  -0.1875-0.1875 0.1875  plane waves:     488
 k-point 49 :  -0.3125 0.3125 0.3125  plane waves:     466
 k-point 50 :  -0.4375 0.4375 0.3125  plane waves:     469
 k-point 51 :  -0.3125 0.4375 0.3125  plane waves:     468
 k-point 52 :  -0.4375-0.4375 0.3125  plane waves:     472
 k-point 53 :  -0.3125-0.4375 0.3125  plane waves:     471
 k-point 54 :  -0.3125-0.3125 0.3125  plane waves:     464
 k-point 55 :  -0.4375 0.4375 0.4375  plane waves:     468
 k-point 56 :  -0.4375-0.4375 0.4375  plane waves:     480

 maximum and minimum number of plane-waves per node :       488      454

 maximum number of plane-waves:       488
 maximum index in each direction: 
   IXMAX=    6   IYMAX=    6   IZMAX=    5
   IXMIN=   -6   IYMIN=   -6   IZMIN=   -6


 serial   3D FFT for wavefunctions
 parallel 3D FFT for charge:
    minimum data exchange during FFTs selected (reduces bandwidth)


 total amount of memory used by VASP MPI-rank0    33029. kBytes
=======================================================================

   base      :      30000. kBytes
   nonl-proj :       1764. kBytes
   fftplans  :        247. kBytes
   grid      :        561. kBytes
   one-center:          6. kBytes
   wavefun   :        451. kBytes
 
     INWAV:  cpu time    0.0000: real time    0.0005
 Broyden mixing: mesh for mixing (old mesh)
   NGX = 11   NGY = 11   NGZ = 11
  (NGX  = 36   NGY  = 36   NGZ  = 36)
  gives a total of   1331 points

 initial charge density was supplied:
 charge density of overlapping atoms calculated
 number of electron       8.0000000 magnetization 
 keeping initial charge density in first step


--------------------------------------------------------------------------------------------------------


 Maximum index for augmentation-charges          875 (set IRDMAX)


--------------------------------------------------------------------------------------------------------


 First call to EWALD:  gamma=   0.560
 Maximum number of real-space cells 4x 4x 3
 Maximum number of reciprocal cells 3x 3x 3

    FEWALD:  cpu time    0.0080: real time    0.0070


--------------------------------------- Iteration      1(   1)  ---------------------------------------


    POTLOK:  cpu time    0.0360: real time    0.0455
    SETDIJ:  cpu time    0.0120: real time    0.0093
     EDDAV:  cpu time    0.7200: real time    0.7283
       DOS:  cpu time    0.0040: real time    0.0036
    --------------------------------------------
      LOOP:  cpu time    0.7720: real time    0.7876

 eigenvalue-minimisations  :   904
 total energy-change (2. order) : 0.1383993E+01  (-0.2724992E+03)
 number of electron       8.0000000 magnetization 
 augmentation part        8.0000000 magnetization 

 Free energy of the ion-electron system (eV)
  ---------------------------------------------------
  alpha Z        PSCENC =         4.25283547
  Ewald energy   TEWEN  =      -262.25953630
  -Hartree energ DENC   =        -2.45277502
  -exchange      EXHF   =         0.00000000
  -V(xc)+E(xc)   XCENC  =       -17.99167713
  PAW double counting   =        65.95520812      -30.76852678
  entropy T*S    EENTRO =        -0.01814609
  eigenvalues    EBANDS =        38.53535668
  atomic energy  EATOM  =       206.13125414
  Solvation  Ediel_sol  =         0.00000000
  ---------------------------------------------------
  free energy    TOTEN  =         1.38399308 eV

  energy without entropy =        1.40213917  energy(sigma->0) =        1.39306612


--------------------------------------------------------------------------------------------------------




--------------------------------------- Iteration      1(   2)  ---------------------------------------


     EDDAV:  cpu time    1.0400: real time    1.0470
       DOS:  cpu time    0.0000: real time    0.0032
    --------------------------------------------
      LOOP:  cpu time    1.0400: real time    1.0498

 eigenvalue-minimisations  :  1336
 total energy-change (2. order) :-0.1152233E+02  (-0.1121854E+02)
 number of electron       8.0000000 magnetization 
 augmentation part        8.0000000 magnetization 

 Free energy of the ion-electron system (eV)
  ---------------------------------------------------
  alpha Z        PSCENC =         4.25283547
  Ewald energy   TEWEN  =      -262.25953630
  -Hartree energ DENC   =        -2.45277502
  -exchange      EXHF   =         0.00000000
  -V(xc)+E(xc)   XCENC  =       -17.99167713
  PAW double counting   =        65.95520812      -30.76852678
  entropy T*S    EENTRO =        -0.01870248
  eigenvalues    EBANDS =        27.01358293
  atomic energy  EATOM  =       206.13125414
  Solvation  Ediel_sol  =         0.00000000
  ---------------------------------------------------
  free energy    TOTEN  =       -10.13833706 eV

  energy without entropy =      -10.11963458  energy(sigma->0) =      -10.12898582


--------------------------------------------------------------------------------------------------------




--------------------------------------- Iteration      1(   3)  ---------------------------------------


     EDDAV:  cpu time    0.9400: real time    0.9433
       DOS:  cpu time    0.0040: real time    0.0033
    --------------------------------------------
      LOOP:  cpu time    0.9440: real time    0.9468

 eigenvalue-minimisations  :  1192
 total energy-change (2. order) :-0.1284586E+00  (-0.1191486E+00)
 number of electron       8.0000000 magnetization 
 augmentation part        8.0000000 magnetization 

 Free energy of the ion-electron system (eV)
  ---------------------------------------------------
  alpha Z        PSCENC =         4.25283547
  Ewald energy   TEWEN  =      -262.25953630
  -Hartree energ DENC   =        -2.45277502
  -exchange      EXHF   =         0.00000000
  -V(xc)+E(xc)   XCENC  =       -17.99167713
  PAW double counting   =        65.95520812      -30.76852678
  entropy T*S    EENTRO =        -0.02027335
  eigenvalues    EBANDS =        26.88669517
  atomic energy  EATOM  =       206.13125414
  Solvation  Ediel_sol  =         0.00000000
  ---------------------------------------------------
  free energy    TOTEN  =       -10.26679569 eV

  energy without entropy =      -10.24652234  energy(sigma->0) =      -10.25665901


--------------------------------------------------------------------------------------------------------




--------------------------------------- Iteration      1(   4)  ---------------------------------------


     EDDAV:  cpu time    1.0560: real time    1.0639
       DOS:  cpu time    0.0040: real time    0.0034
    --------------------------------------------
      LOOP:  cpu time    1.0600: real time    1.0671

 eigenvalue-minimisations  :  1352
 total energy-change (2. order) :-0.3187030E-03  (-0.3186612E-03)
 number of electron       8.0000000 magnetization 
 augmentation part        8.0000000 magnetization 

 Free energy of the ion-electron system (eV)
  ---------------------------------------------------
  alpha Z        PSCENC =         4.25283547
  Ewald energy   TEWEN  =      -262.25953630
  -Hartree energ DENC   =        -2.45277502
  -exchange      EXHF   =         0.00000000
  -V(xc)+E(xc)   XCENC  =       -17.99167713
  PAW double counting   =        65.95520812      -30.76852678
  entropy T*S    EENTRO =        -0.02026602
  eigenvalues    EBANDS =        26.88636914
  atomic energy  EATOM  =       206.13125414
  Solvation  Ediel_sol  =         0.00000000
  ---------------------------------------------------
  free energy    TOTEN  =       -10.26711439 eV

  energy without entropy =      -10.24684837  energy(sigma->0) =      -10.25698138


--------------------------------------------------------------------------------------------------------




--------------------------------------- Iteration      1(   5)  ---------------------------------------


     EDDAV:  cpu time    0.9520: real time    0.9551
       DOS:  cpu time    0.0000: real time    0.0038
    CHARGE:  cpu time    0.0600: real time    0.0577
    MIXING:  cpu time    0.0000: real time    0.0023
    --------------------------------------------
      LOOP:  cpu time    1.0120: real time    1.0190

 eigenvalue-minimisations  :  1200
 total energy-change (2. order) :-0.6175976E-06  (-0.6170295E-06)
 number of electron       7.9999994 magnetization 
 augmentation part       -0.4700709 magnetization 

 Broyden mixing:
  rms(total) = 0.15359E+00    rms(broyden)= 0.15359E+00
  rms(prec ) = 0.35140E+00
  weight for this iteration     100.00

 Free energy of the ion-electron system (eV)
  ---------------------------------------------------
  alpha Z        PSCENC =         4.25283547
  Ewald energy   TEWEN  =      -262.25953630
  -Hartree energ DENC   =        -2.45277502
  -exchange      EXHF   =         0.00000000
  -V(xc)+E(xc)   XCENC  =       -17.99167713
  PAW double counting   =        65.95520812      -30.76852678
  entropy T*S    EENTRO =        -0.02026600
  eigenvalues    EBANDS =        26.88636850
  atomic energy  EATOM  =       206.13125414
  Solvation  Ediel_sol  =         0.00000000
  ---------------------------------------------------
  free energy    TOTEN  =       -10.26711501 eV

  energy without entropy =      -10.24684901  energy(sigma->0) =      -10.25698201


--------------------------------------------------------------------------------------------------------




--------------------------------------- Iteration      1(   6)  ---------------------------------------


    POTLOK:  cpu time    0.0280: real time    0.0348
    SETDIJ:  cpu time    0.0080: real time    0.0086
     EDDAV:  cpu time    0.9040: real time    0.9019
       DOS:  cpu time    0.0000: real time    0.0032
    CHARGE:  cpu time    0.0600: real time    0.0570
    MIXING:  cpu time    0.0000: real time    0.0019
    --------------------------------------------
      LOOP:  cpu time    1.0000: real time    1.0074

 eigenvalue-minimisations  :  1152
 total energy-change (2. order) : 0.6274648E-02  (-0.3643324E-03)
 number of electron       7.9999994 magnetization 
 augmentation part       -0.4717599 magnetization 

 Broyden mixing:
  rms(total) = 0.95450E-01    rms(broyden)= 0.95449E-01
  rms(prec ) = 0.21797E+00
  weight for this iteration     100.00

 eigenvalues of (default mixing * dielectric matrix)
  average eigenvalue GAMMA=   2.6328
  2.6328

 Free energy of the ion-electron system (eV)
  ---------------------------------------------------
  alpha Z        PSCENC =         4.25283547
  Ewald energy   TEWEN  =      -262.25953630
  -Hartree energ DENC   =        -2.46822847
  -exchange      EXHF   =         0.00000000
  -V(xc)+E(xc)   XCENC  =       -17.91735316
  PAW double counting   =        67.38825928      -32.23038818
  entropy T*S    EENTRO =        -0.02031092
  eigenvalues    EBANDS =        26.86262777
  atomic energy  EATOM  =       206.13125414
  Solvation  Ediel_sol  =         0.00000000
  ---------------------------------------------------
  free energy    TOTEN  =       -10.26084036 eV

  energy without entropy =      -10.24052944  energy(sigma->0) =      -10.25068490


--------------------------------------------------------------------------------------------------------




--------------------------------------- Iteration      1(   7)  ---------------------------------------


    POTLOK:  cpu time    0.0280: real time    0.0361
    SETDIJ:  cpu time    0.0080: real time    0.0086
     EDDAV:  cpu time    0.8560: real time    0.8535
       DOS:  cpu time    0.0000: real time    0.0032
    CHARGE:  cpu time    0.0560: real time    0.0562
    MIXING:  cpu time    0.0040: real time    0.0018
    --------------------------------------------
      LOOP:  cpu time    0.9520: real time    0.9594

 eigenvalue-minimisations  :  1088
 total energy-change (2. order) : 0.4417306E-02  (-0.9500523E-03)
 number of electron       7.9999994 magnetization 
 augmentation part       -0.4749315 magnetization 

 Broyden mixing:
  rms(total) = 0.50309E-02    rms(broyden)= 0.50306E-02
  rms(prec ) = 0.14525E-01
  weight for this iteration     100.00

 eigenvalues of (default mixing * dielectric matrix)
  average eigenvalue GAMMA=   2.5632
  2.5632  2.5632

 Free energy of the ion-electron system (eV)
  ---------------------------------------------------
  alpha Z        PSCENC =         4.25283547
  Ewald energy   TEWEN  =      -262.25953630
  -Hartree energ DENC   =        -2.59143043
  -exchange      EXHF   =         0.00000000
  -V(xc)+E(xc)   XCENC  =       -17.77785221
  PAW double counting   =        69.61381911      -34.50448759
  entropy T*S    EENTRO =        -0.02035068
  eigenvalues    EBANDS =        26.89932545
  atomic energy  EATOM  =       206.13125414
  Solvation  Ediel_sol  =         0.00000000
  ---------------------------------------------------
  free energy    TOTEN  =       -10.25642305 eV

  energy without entropy =      -10.23607237  energy(sigma->0) =      -10.24624771


--------------------------------------------------------------------------------------------------------




--------------------------------------- Iteration      1(   8)  ---------------------------------------


    POTLOK:  cpu time    0.0280: real time    0.0350
    SETDIJ:  cpu time    0.0080: real time    0.0086
     EDDAV:  cpu time    0.5600: real time    0.5596
       DOS:  cpu time    0.0000: real time    0.0033
    --------------------------------------------
      LOOP:  cpu time    0.6000: real time    0.6065

 eigenvalue-minimisations  :   624
 total energy-change (2. order) : 0.5064814E-04  (-0.3832405E-04)
 number of electron       7.9999994 magnetization 
 augmentation part       -0.4749315 magnetization 

 Free energy of the ion-electron system (eV)
  ---------------------------------------------------
  alpha Z        PSCENC =         4.25283547
  Ewald energy   TEWEN  =      -262.25953630
  -Hartree energ DENC   =        -2.61192740
  -exchange      EXHF   =         0.00000000
  -V(xc)+E(xc)   XCENC  =       -17.77609119
  PAW double counting   =        69.48776845      -34.38072300
  entropy T*S    EENTRO =        -0.02034225
  eigenvalues    EBANDS =        26.92038967
  atomic energy  EATOM  =       206.13125414
  Solvation  Ediel_sol  =         0.00000000
  ---------------------------------------------------
  free energy    TOTEN  =       -10.25637241 eV

  energy without entropy =      -10.23603015  energy(sigma->0) =      -10.24620128


--------------------------------------------------------------------------------------------------------




 average (electrostatic) potential at core
  the test charge radii are     0.9892
  (the norm of the test charge is              1.0000)
       1 -80.9959       2 -80.9959
 
 
 
 E-fermi :   8.6588     XC(G=0): -10.7556     alpha+bet :-15.1505


 k-point     1 :       0.0625    0.0625    0.0625
  band No.  band energies     occupation 
      1      -4.2321      2.00000
      2       4.4126      2.00000
      3       6.6781      2.00000
      4       8.1967      1.99891
      5      11.8341      0.00000
      6      13.6847      0.00000
      7      14.2518      0.00000
      8      16.1158      0.00000

 k-point     2 :       0.1875    0.0625    0.0625
  band No.  band energies     occupation 
      1      -3.0166      2.00000
      2       4.1675      2.00000
      3       6.9765      2.00000
      4       9.1381      0.00070
      5      10.7912      0.00000
      6      10.8962      0.00000
      7      13.6587      0.00000
      8      14.4096      0.00000

 k-point     3 :       0.3125    0.0625    0.0625
  band No.  band energies     occupation 
      1      -1.0212      2.00000
      2       4.4621      2.00000
      3       5.5423      2.00000
      4       7.2467      2.00000
      5       8.5936      1.35505
      6      11.7226      0.00000
      7      13.1622      0.00000
      8      13.5589      0.00000

 k-point     4 :       0.4375    0.0625    0.0625
  band No.  band energies     occupation 
      1       1.3086      2.00000
      2       2.2285      2.00000
      3       5.7626      2.00000
      4       6.1564      2.00000
      5       8.4763      1.80300
      6      10.5610      0.00000
      7      13.0747      0.00000
      8      14.0204      0.00000

 k-point     5 :      -0.0625    0.0625    0.0625
  band No.  band energies     occupation 
      1      -4.6396      2.00000
      2       5.0168      2.00000
      3       5.8737      2.00000
      4       7.8647      2.00000
      5      10.9684      0.00000
      6      14.8366      0.00000
      7      17.3003      0.00000
      8      17.4015      0.00000

 k-point     6 :       0.1875    0.1875    0.0625
  band No.  band energies     occupation 
      1      -1.2040      2.00000
      2       4.4536      2.00000
      3       6.4224      2.00000
      4       6.6174      2.00000
      5       9.5637      0.00000
      6      11.5502      0.00000
      7      12.8545      0.00000
      8      13.0466      0.00000

 k-point     7 :       0.3125    0.1875    0.0625
  band No.  band energies     occupation 
      1       1.2563      2.00000
      2       2.9551      2.00000
      3       4.3006      2.00000
      4       5.7759      2.00000
      5       9.8181      0.00000
      6      11.5543      0.00000
      7      12.5760      0.00000
      8      14.6111      0.00000

 k-point     8 :       0.4375    0.1875    0.0625
  band No.  band energies     occupation 
      1      -0.1078      2.00000
      2       2.7231      2.00000
      3       4.9021      2.00000
      4       7.2495      2.00000
      5       9.0651      0.00406
      6      11.7224      0.00000
      7      13.6406      0.00000
      8      14.5179      0.00000

 k-point     9 :      -0.4375    0.1875    0.0625
  band No.  band energies     occupation 
      1      -2.2692      2.00000
      2       2.1046      2.00000
      3       7.5200      2.00000
      4       8.7984      0.32346
      5      10.3240      0.00000
      6      11.4458      0.00000
      7      12.6562      0.00000
      8      14.9929      0.00000

 k-point    10 :      -0.3125    0.1875    0.0625
  band No.  band energies     occupation 
      1      -3.6665      2.00000
      2       2.1938      2.00000
      3       7.1845      2.00000
      4       9.1211      0.00108
      5      12.1113      0.00000
      6      13.6234      0.00000
      7      14.1766      0.00000
      8      14.7952      0.00000

 k-point    11 :      -0.1875    0.1875    0.0625
  band No.  band energies     occupation 
      1      -4.2615      2.00000
      2       3.0056      2.00000
      3       5.9897      2.00000
      4       9.1006      0.00178
      5      12.7658      0.00000
      6      12.9302      0.00000
      7      15.8432      0.00000
      8      17.1888      0.00000

 k-point    12 :      -0.0625    0.1875    0.0625
  band No.  band energies     occupation 
      1      -4.0435      2.00000
      2       4.1296      2.00000
      3       5.3581      2.00000
      4       9.6805      0.00000
      5      12.5581      0.00000
      6      12.6749      0.00000
      7      13.7160      0.00000
      8      15.6887      0.00000

 k-point    13 :       0.3125    0.3125    0.0625
  band No.  band energies     occupation 
      1       1.1189      2.00000
      2       1.1864      2.00000
      3       4.7100      2.00000
      4       7.1921      2.00000
      5       9.8046      0.00000
      6      10.6293      0.00000
      7      14.6645      0.00000
      8      15.5144      0.00000

 k-point    14 :       0.4375    0.3125    0.0625
  band No.  band energies     occupation 
      1      -1.1563      2.00000
      2       0.3096      2.00000
      3       8.0450      1.99999
      4       8.6558      1.01698
      5       9.9765      0.00000
      6      11.3664      0.00000
      7      12.4626      0.00000
      8      13.8529      0.00000

 k-point    15 :      -0.4375    0.3125    0.0625
  band No.  band energies     occupation 
      1      -2.7288      2.00000
      2       0.2231      2.00000
      3       8.0201      1.99999
      4      10.0858      0.00000
      5      10.6035      0.00000
      6      12.6880      0.00000
      7      13.7257      0.00000
      8      13.8167      0.00000

 k-point    16 :      -0.3125    0.3125    0.0625
  band No.  band energies     occupation 
      1      -3.5082      2.00000
      2       0.9090      2.00000
      3       6.6731      2.00000
      4      10.0393      0.00000
      5      10.7941      0.00000
      6      14.1249      0.00000
      7      15.8288      0.00000
      8      16.8818      0.00000

 k-point    17 :      -0.1875    0.3125    0.0625
  band No.  band energies     occupation 
      1      -3.4793      2.00000
      2       2.3176      2.00000
      3       5.4774      2.00000
      4      10.6353      0.00000
      5      11.0297      0.00000
      6      12.9353      0.00000
      7      14.7091      0.00000
      8      15.6074      0.00000

 k-point    18 :      -0.0625    0.3125    0.0625
  band No.  band energies     occupation 
      1      -2.6433      2.00000
      2       3.9914      2.00000
      3       5.3652      2.00000
      4       8.4409      1.87663
      5      11.0690      0.00000
      6      12.6113      0.00000
      7      13.2694      0.00000
      8      13.6431      0.00000

 k-point    19 :       0.4375    0.4375    0.0625
  band No.  band energies     occupation 
      1      -1.4274      2.00000
      2      -1.4274      2.00000
      3       9.1637      0.00036
      4       9.1637      0.00036
      5      11.3358      0.00000
      6      11.3358      0.00000
      7      13.5314      0.00000
      8      13.5314      0.00000

 k-point    20 :      -0.4375    0.4375    0.0625
  band No.  band energies     occupation 
      1      -2.3861      2.00000
      2      -0.9065      2.00000
      3       7.7156      2.00000
      4       9.0963      0.00198
      5      11.1507      0.00000
      6      12.5223      0.00000
      7      16.5884      0.00000
      8      16.6863      0.00000

 k-point    21 :      -0.3125    0.4375    0.0625
  band No.  band energies     occupation 
      1      -2.5443      2.00000
      2       0.3902      2.00000
      3       6.3098      2.00000
      4       9.0377      0.00738
      5      11.3862      0.00000
      6      12.8581      0.00000
      7      14.7952      0.00000
      8      15.3187      0.00000

 k-point    22 :      -0.1875    0.4375    0.0625
  band No.  band energies     occupation 
      1      -1.9001      2.00000
      2       2.3880      2.00000
      3       5.5698      2.00000
      4       7.8025      2.00000
      5       9.6612      0.00000
      6      12.4716      0.00000
      7      13.9646      0.00000
      8      15.3028      0.00000

 k-point    23 :      -0.0625    0.4375    0.0625
  band No.  band energies     occupation 
      1      -0.4759      2.00000
      2       4.0375      2.00000
      3       5.1921      2.00000
      4       5.9815      2.00000
      5       9.1244      0.00099
      6      11.5414      0.00000
      7      11.8507      0.00000
      8      15.1336      0.00000

 k-point    24 :      -0.4375   -0.4375    0.0625
  band No.  band energies     occupation 
      1      -1.2514      2.00000
      2      -1.2448      2.00000
      3       7.5069      2.00000
      4       7.5212      2.00000
      5      11.4775      0.00000
      6      13.3647      0.00000
      7      14.2030      0.00000
      8      14.8050      0.00000

 k-point    25 :      -0.3125   -0.4375    0.0625
  band No.  band energies     occupation 
      1      -0.7957      2.00000
      2       0.6521      2.00000
      3       6.4663      2.00000
      4       7.3820      2.00000
      5       8.2448      1.99658
      6      12.1244      0.00000
      7      15.0582      0.00000
      8      16.3604      0.00000

 k-point    26 :      -0.1875   -0.4375    0.0625
  band No.  band energies     occupation 
      1       0.4203      2.00000
      2       3.0348      2.00000
      3       4.2044      2.00000
      4       6.4134      2.00000
      5       8.6381      1.11615
      6      10.5699      0.00000
      7      13.0732      0.00000
      8      16.4441      0.00000

 k-point    27 :      -0.0625   -0.4375    0.0625
  band No.  band energies     occupation 
      1       0.9052      2.00000
      2       2.6331      2.00000
      3       6.2155      2.00000
      4       6.9485      2.00000
      5       7.5623      2.00000
      6      10.1778      0.00000
      7      11.6102      0.00000
      8      15.3517      0.00000

 k-point    28 :      -0.3125   -0.3125    0.0625
  band No.  band energies     occupation 
      1       1.5520      2.00000
      2       1.7290      2.00000
      3       3.9051      2.00000
      4       7.2836      2.00000
      5       7.6910      2.00000
      6      10.1931      0.00000
      7      14.9227      0.00000
      8      15.5851      0.00000

 k-point    29 :      -0.1875   -0.3125    0.0625
  band No.  band energies     occupation 
      1       0.5929      2.00000
      2       3.6296      2.00000
      3       4.9691      2.00000
      4       7.1431      2.00000
      5       8.2503      1.99613
      6      10.0576      0.00000
      7      11.6491      0.00000
      8      14.0457      0.00000

 k-point    30 :      -0.0625   -0.3125    0.0625
  band No.  band energies     occupation 
      1      -1.5737      2.00000
      2       5.8070      2.00000
      3       6.8189      2.00000
      4       7.1892      2.00000
      5       8.4218      1.90620
      6      10.9064      0.00000
      7      11.6224      0.00000
      8      13.3010      0.00000

 k-point    31 :      -0.1875   -0.1875    0.0625
  band No.  band energies     occupation 
      1      -1.7586      2.00000
      2       6.4369      2.00000
      3       7.1053      2.00000
      4       7.4033      2.00000
      5       8.7600      0.47416
      6      10.4072      0.00000
      7      11.6028      0.00000
      8      11.8256      0.00000

 k-point    32 :      -0.0625   -0.1875    0.0625
  band No.  band energies     occupation 
      1      -3.3919      2.00000
      2       6.1249      2.00000
      3       6.8730      2.00000
      4       8.7202      0.66422
      5      10.8465      0.00000
      6      11.2755      0.00000
      7      12.0771      0.00000
      8      13.8142      0.00000

 k-point    33 :      -0.0625   -0.0625    0.0625
  band No.  band energies     occupation 
      1      -4.4211      2.00000
      2       6.5085      2.00000
      3       6.5085      2.00000
      4       6.7743      2.00000
      5      10.7238      0.00000
      6      14.4781      0.00000
      7      14.5946      0.00000
      8      16.4724      0.00000

 k-point    34 :       0.1875    0.1875    0.1875
  band No.  band energies     occupation 
      1      -0.2860      2.00000
      2       2.5816      2.00000
      3       5.9921      2.00000
      4       6.0823      2.00000
      5      10.5560      0.00000
      6      12.3940      0.00000
      7      13.6216      0.00000
      8      14.0608      0.00000

 k-point    35 :       0.3125    0.1875    0.1875
  band No.  band energies     occupation 
      1       2.0143      2.00000
      2       2.7628      2.00000
      3       3.7923      2.00000
      4       4.4428      2.00000
      5      11.4784      0.00000
      6      13.3981      0.00000
      7      13.7037      0.00000
      8      13.8850      0.00000

 k-point    36 :      -0.1875    0.1875    0.1875
  band No.  band energies     occupation 
      1      -3.8852      2.00000
      2       2.8266      2.00000
      3       4.2544      2.00000
      4      10.6459      0.00000
      5      11.2211      0.00000
      6      14.0037      0.00000
      7      16.2384      0.00000
      8      16.7518      0.00000

 k-point    37 :       0.3125    0.3125    0.1875
  band No.  band energies     occupation 
      1       0.9837      2.00000
      2       0.9837      2.00000
      3       5.8723      2.00000
      4       5.8723      2.00000
      5      11.8054      0.00000
      6      11.8054      0.00000
      7      13.6054      0.00000
      8      13.6054      0.00000

 k-point    38 :      -0.3125    0.3125    0.1875
  band No.  band energies     occupation 
      1      -3.1360      2.00000
      2       1.1975      2.00000
      3       4.4729      2.00000
      4       8.6188      1.22257
      5      12.5600      0.00000
      6      15.4697      0.00000
      7      16.0704      0.00000
      8      16.8487      0.00000

 k-point    39 :      -0.1875    0.3125    0.1875
  band No.  band energies     occupation 
      1      -2.9196      2.00000
      2       2.2914      2.00000
      3       3.8097      2.00000
      4       8.7740      0.41520
      5      11.3707      0.00000
      6      13.9951      0.00000
      7      16.0174      0.00000
      8      16.3206      0.00000

 k-point    40 :      -0.4375    0.4375    0.1875
  band No.  band energies     occupation 
      1      -2.0219      2.00000
      2      -0.5600      2.00000
      3       5.4803      2.00000
      4       6.8800      2.00000
      5      13.6069      0.00000
      6      14.6074      0.00000
      7      16.1612      0.00000
      8      16.5433      0.00000

 k-point    41 :      -0.3125    0.4375    0.1875
  band No.  band energies     occupation 
      1      -1.9940      2.00000
      2       0.8544      2.00000
      3       4.1692      2.00000
      4       6.9040      2.00000
      5      11.0096      0.00000
      6      15.3098      0.00000
      7      16.3738      0.00000
      8      17.8204      0.00000

 k-point    42 :      -0.1875    0.4375    0.1875
  band No.  band energies     occupation 
      1      -1.1673      2.00000
      2       2.5237      2.00000
      3       4.0844      2.00000
      4       6.9964      2.00000
      5       7.9071      2.00000
      6      13.7114      0.00000
      7      15.1290      0.00000
      8      16.4551      0.00000

 k-point    43 :      -0.4375   -0.4375    0.1875
  band No.  band energies     occupation 
      1      -0.7256      2.00000
      2      -0.7115      2.00000
      3       5.3313      2.00000
      4       5.3540      2.00000
      5      10.8649      0.00000
      6      15.9772      0.00000
      7      16.6468      0.00000
      8      16.9570      0.00000

 k-point    44 :      -0.3125   -0.4375    0.1875
  band No.  band energies     occupation 
      1      -0.0864      2.00000
      2       1.2908      2.00000
      3       4.5813      2.00000
      4       5.8435      2.00000
      5       7.0336      2.00000
      6      13.8965      0.00000
      7      16.6556      0.00000
      8      17.6921      0.00000

 k-point    45 :      -0.1875   -0.4375    0.1875
  band No.  band energies     occupation 
      1       1.2645      2.00000
      2       2.9888      2.00000
      3       4.1576      2.00000
      4       5.0692      2.00000
      5       7.2550      2.00000
      6      11.6796      0.00000
      7      13.0143      0.00000
      8      16.6166      0.00000

 k-point    46 :      -0.3125   -0.3125    0.1875
  band No.  band energies     occupation 
      1       2.0986      2.00000
      2       2.5709      2.00000
      3       3.6410      2.00000
      4       5.7580      2.00000
      5       5.8743      2.00000
      6      11.9283      0.00000
      7      14.3891      0.00000
      8      15.1915      0.00000

 k-point    47 :      -0.1875   -0.3125    0.1875
  band No.  band energies     occupation 
      1       0.2462      2.00000
      2       4.6232      2.00000
      3       5.5498      2.00000
      4       6.6231      2.00000
      5       7.4204      2.00000
      6      10.4334      0.00000
      7      11.5037      0.00000
      8      12.9859      0.00000

 k-point    48 :      -0.1875   -0.1875    0.1875
  band No.  band energies     occupation 
      1      -1.9441      2.00000
      2       7.7891      2.00000
      3       7.7891      2.00000
      4       7.8851      2.00000
      5       8.1005      1.99992
      6       9.3783      0.00000
      7      11.3236      0.00000
      8      11.3236      0.00000

 k-point    49 :      -0.3125    0.3125    0.3125
  band No.  band energies     occupation 
      1      -2.3966      2.00000
      2       1.3374      2.00000
      3       2.9318      2.00000
      4       6.5567      2.00000
      5      14.2193      0.00000
      6      15.1004      0.00000
      7      16.6572      0.00000
      8      18.0888      0.00000

 k-point    50 :      -0.4375    0.4375    0.3125
  band No.  band energies     occupation 
      1      -1.3049      2.00000
      2       0.0870      2.00000
      3       3.4509      2.00000
      4       4.8067      2.00000
      5      14.5506      0.00000
      6      14.7380      0.00000
      7      17.6374      0.00000
      8      18.7062      0.00000

 k-point    51 :      -0.3125    0.4375    0.3125
  band No.  band energies     occupation 
      1      -1.0914      2.00000
      2       1.1708      2.00000
      3       2.7953      2.00000
      4       5.0040      2.00000
      5      10.5558      0.00000
      6      17.4652      0.00000
      7      17.8281      0.00000
      8      18.8420      0.00000

 k-point    52 :      -0.4375   -0.4375    0.3125
  band No.  band energies     occupation 
      1       0.0996      2.00000
      2       0.1241      2.00000
      3       3.4730      2.00000
      4       3.4880      2.00000
      5      10.3953      0.00000
      6      17.7076      0.00000
      7      18.9934      0.00000
      8      19.5569      0.00000

 k-point    53 :      -0.3125   -0.4375    0.3125
  band No.  band energies     occupation 
      1       0.9183      2.00000
      2       1.7823      2.00000
      3       3.4097      2.00000
      4       4.2434      2.00000
      5       6.6024      2.00000
      6      15.5617      0.00000
      7      16.7966      0.00000
      8      17.9688      0.00000

 k-point    54 :      -0.3125   -0.3125    0.3125
  band No.  band energies     occupation 
      1       2.3131      2.00000
      2       3.2831      2.00000
      3       4.0370      2.00000
      4       4.7475      2.00000
      5       4.7475      2.00000
      6      13.6414      0.00000
      7      14.2080      0.00000
      8      14.2080      0.00000

 k-point    55 :      -0.4375    0.4375    0.4375
  band No.  band energies     occupation 
      1      -0.2864      2.00000
      2       0.5846      2.00000
      3       2.2429      2.00000
      4       3.1021      2.00000
      5      14.4515      0.00000
      6      14.4893      0.00000
      7      19.8756      0.00000
      8      20.6406      0.00000

 k-point    56 :      -0.4375   -0.4375    0.4375
  band No.  band energies     occupation 
      1       0.7745      2.00000
      2       0.8142      2.00000
      3       2.4497      2.00000
      4       2.4497      2.00000
      5      10.2319      0.00000
      6      18.2202      0.00000
      7      20.1577      0.00000
      8      20.1936      0.00000


--------------------------------------------------------------------------------------------------------


 soft charge-density along one line, spin component           1
         0         1         2         3         4         5         6         7         8         9
 total charge-density along one line
 
 pseudopotential strength for first ion, spin component:           1
 18.112  -0.002   0.000  -0.000  -0.000  -0.000   0.000   0.000
 -0.002   0.005  -0.000   0.000   0.000   0.000  -0.000  -0.000
  0.000  -0.000   4.122   0.000   0.000  -0.006  -0.000  -0.000
 -0.000   0.000   0.000   4.123   0.000  -0.000  -0.006  -0.000
 -0.000   0.000   0.000   0.000   4.122  -0.000  -0.000  -0.006
 -0.000   0.000  -0.006  -0.000  -0.000   0.005   0.000   0.000
  0.000  -0.000  -0.000  -0.006  -0.000   0.000   0.005   0.000
  0.000  -0.000  -0.000  -0.000  -0.006   0.000   0.000   0.005
 total augmentation occupancy for first ion, spin component:           1
  1.626  -0.429   0.000   0.000   0.000  -0.000   0.000  -0.000
 -0.429   0.832   0.000   0.000   0.000   0.000   0.000   0.000
  0.000   0.000   0.888   0.000   0.000  -0.468  -0.000  -0.000
  0.000   0.000  -0.000   0.830  -0.000  -0.000  -0.427   0.000
 -0.000  -0.000   0.000  -0.000   0.888  -0.000   0.000  -0.468
 -0.000   0.000  -0.468  -0.000  -0.000   0.322   0.000   0.000
  0.000   0.000  -0.000  -0.427   0.000   0.000   0.297  -0.000
 -0.000   0.000  -0.000   0.000  -0.468   0.000  -0.000   0.322


------------------------ aborting loop because EDIFF is reached ----------------------------------------


    CHARGE:  cpu time    0.0560: real time    0.0548
    FORLOC:  cpu time    0.0000: real time    0.0009
    FORNL :  cpu time    0.0200: real time    0.0208
    STRESS:  cpu time    0.2120: real time    0.2116
    FORCOR:  cpu time    0.0200: real time    0.0217
    FORHAR:  cpu time    0.0080: real time    0.0055
    MIXING:  cpu time    0.0000: real time    0.0014
    OFIELD:  cpu time    0.0000: real time    0.0005

  FORCE on cell =-STRESS in cart. coord.  units (eV):
  Direction    XX          YY          ZZ          XY          YZ          ZX
  --------------------------------------------------------------------------------------
  Alpha Z     4.25284     4.25284     4.25284
  Ewald     -86.83110   -86.83110   -88.59756    -0.00000     0.00000    -0.00000
  Hartree     0.82481     0.82481     0.96651    -0.00000    -0.00000    -0.00000
  E(xc)     -25.22474   -25.22474   -25.08894    -0.00000     0.00000     0.00000
  Local     -14.92172   -14.92172   -11.34784    -0.00002    -0.00002    -0.00002
  n-local    77.18071    77.28807    74.89400     1.19182    -0.38778    -0.48492
  augment   -12.14830   -12.14830   -11.98800     0.00002     0.00002     0.00002
  Kinetic    54.43243    57.33767    56.91968     2.55837    -1.81138    -1.62898
  Fock        0.00000     0.00000     0.00000     0.00000     0.00000     0.00000
  -------------------------------------------------------------------------------------
  Total      -0.92877    -0.92877     0.01069     0.00000     0.00000     0.00000
  in kB     -46.99844   -46.99844     0.54088     0.00000     0.00000     0.00000
  external pressure =      -31.15 kB  Pullay stress =        0.00 kB


 VOLUME and BASIS-vectors are now :
 -----------------------------------------------------------------------------
  energy-cutoff  :      350.00
  volume of cell :       31.66
      direct lattice vectors                 reciprocal lattice vectors
    -2.431282000  2.431282000  1.339074000    -0.000000000  0.205652820  0.373392359
     2.431282000 -2.431282000  1.339074000     0.205652820 -0.000000000  0.373392359
     2.431282000  2.431282000 -1.339074000     0.205652820  0.205652820 -0.000000000

  length of vectors
     3.689902913  3.689902913  3.689902913     0.426280349  0.426280349  0.290837007


 FORCES acting on ions
    electron-ion (+dipol)            ewald-force                    non-local-force                 convergence-correction
 -----------------------------------------------------------------------------------------------
   -.172E-06 0.172E-06 0.730E-14   -.113E-13 0.197E-14 -.243E-14   0.515E-17 0.398E-16 0.163E-16   -.275E-08 0.275E-08 0.251E-15
   0.172E-06 -.172E-06 -.365E-13   0.114E-13 -.187E-14 0.202E-14   -.132E-16 -.627E-17 -.344E-16   0.275E-08 -.275E-08 -.243E-15
 -----------------------------------------------------------------------------------------------
   -.221E-13 0.192E-13 -.292E-13   0.100E-15 0.102E-15 -.404E-15   -.806E-17 0.336E-16 -.182E-16   0.303E-16 -.194E-15 0.810E-17
 
 
 POSITION                                       TOTAL-FORCE (eV/Angst)
 -----------------------------------------------------------------------------------
      0.00000      2.43128      0.66954         0.000000     -0.000000     -0.000000
      0.00000      0.00000      1.33907        -0.000000      0.000000      0.000000
 -----------------------------------------------------------------------------------
    total drift:                               -0.000000      0.000000     -0.000000


--------------------------------------------------------------------------------------------------------



  FREE ENERGIE OF THE ION-ELECTRON SYSTEM (eV)
  ---------------------------------------------------
  free  energy   TOTEN  =       -10.25637241 eV

  energy  without entropy=      -10.23603015  energy(sigma->0) =      -10.24620128
 


--------------------------------------------------------------------------------------------------------


    POTLOK:  cpu time    0.0400: real time    0.0523


--------------------------------------------------------------------------------------------------------




--------------------------------------------------------------------------------------------------------


  
 reached required accuracy - stopping structural energy minimisation
 writing wavefunctions
     LOOP+:  cpu time    8.6400: real time    9.4234
    4ORBIT:  cpu time    0.0000: real time    0.0000

 total amount of memory used by VASP MPI-rank0    33029. kBytes
=======================================================================

   base      :      30000. kBytes
   nonl-proj :       1764. kBytes
   fftplans  :        247. kBytes
   grid      :        561. kBytes
   one-center:          6. kBytes
   wavefun   :        451. kBytes
 
  
  
 General timing and accounting informations for this job:
 ========================================================
  
                  Total CPU time used (sec):       13.288
                            User time (sec):       11.640
                          System time (sec):        1.648
                         Elapsed time (sec):       16.129
  
                   Maximum memory used (kb):        9820.
                   Average memory used (kb):           0.
  
                          Minor page faults:        38214
                          Major page faults:           35
                 Voluntary context switches:        38793
