unknown system                          
           1
    -2.431282    2.431282    1.339074
     2.431282   -2.431282    1.339074
     2.431282    2.431282   -1.339074
   Si
   2
Direct configuration=     1
   0.75000000  0.25000000  0.50000000
   0.50000000  0.50000000  0.00000000
