unknown system                          
   1.00000000000000     
    -2.450000    2.450000    1.274000
     2.450000   -2.450000    1.274000
     2.450000    2.450000   -1.274000
   Si
     2
Direct
  0.250000  0.750000  0.500000
  0.000000  0.000000  0.000000
 
   28   28   28
 -5.5832     -4.0499     -.53927E-01  4.8944      9.1043      11.442      11.706      10.506      8.7955      7.1740    
  5.8195      4.7923      4.0887      3.6824      3.5498      3.6824      4.0888      4.7923      5.8196      7.1740    
  8.7955      10.506      11.706      11.442      9.1043      4.8943     -.53949E-01 -4.0499     -4.0499     -4.8413    
 -2.6904      1.5498      6.2899      9.9586      11.663      11.434      10.010      8.3015      6.7486      5.4861    
  4.5529      3.9363      3.6087      3.5498      3.7549      4.2361      5.0186      6.1261      7.5513      9.2139    
  10.887      11.856      11.206      8.4871      4.1145     -.62541     -.53949E-01 -2.6904     -2.7516     -.22183    
  3.8808      8.0149      10.839      11.755      11.016      9.4267      7.7608      6.3006      5.1452      4.3138    
  3.7869      3.5378      3.5499      3.8222      4.3700      5.2185      6.3871      7.8574      9.5318      11.140    
  11.923      11.057      8.2624      4.1145      4.8943      1.5498     -.22183     0.31125      2.9152      6.5141    
  9.7326      11.538      11.635      10.456      8.7964      7.2040      5.8550      4.8152      4.0875      3.6481    
  3.4732      3.5499      3.8809      4.4828      5.3800      6.5863      8.0729      9.7304      11.266      11.941    
  11.057      8.4871      9.1043      6.2899      3.8808      2.9152      3.8212      6.1924      9.0045      11.138    
  11.900      11.274      9.7969      8.1543      6.6611      5.4348      4.5125      3.8847      3.5266      3.4180    
  3.5500      3.9277      4.5682      5.4934      6.7110      8.1842      9.7979      11.266      11.923      11.206    
  11.442      9.9586      8.0149      6.5141      6.1924      7.2211      9.1126      10.986      12.026      11.867    
  10.706      9.1079      7.5342      6.1591      5.0595      4.2501      3.7138      3.4274      3.3746      3.5500    
  3.9602      4.6214      5.5518      6.7535      8.1842      9.7304      11.140      11.856      11.706      11.663    
  10.839      9.7326      9.0045      9.1126      10.043      11.312      12.244      12.330      11.481      10.026    
  8.4410      6.9677      5.7205      4.7443      4.0379      3.5812      3.3543      3.3448      3.5501      3.9769    
  4.6395      5.5518      6.7110      8.0729      9.5318      10.887      10.506      11.434      11.755      11.538    
  11.138      10.986      11.312      11.995      12.624      12.745      12.124      10.869      9.3453      7.8348    
  6.4819      5.3631      4.5000      3.8824      3.4909      3.3095      3.3296      3.5501      3.9769      4.6214    
  5.4934      6.5863      7.8574      9.2139      8.7955      10.010      11.016      11.636      11.900      12.026    
  12.244      12.624      13.004      13.085      12.621      11.588      10.202      8.7273      7.3241      6.0987    
  5.0996      4.3337      3.7877      3.4452      3.2944      3.3296      3.5501      3.9602      4.5682      5.3800    
  6.3871      7.5513      7.1740      8.3015      9.4267      10.456      11.274      11.867      12.330      12.745    
  13.085      13.197      12.900      12.117      10.951      9.5985      8.2181      6.9377      5.8343      4.9384    
  4.2496      3.7559      3.4452      3.3095      3.3448      3.5500      3.9277      4.4828      5.2185      6.1261    
  5.8196      6.7486      7.7607      8.7964      9.7969      10.706      11.481      12.124      12.621      12.900    
  12.843      12.370      11.512      10.383      9.1186      7.8560      6.6970      5.6995      4.8841      4.2496    
  3.7877      3.4909      3.3543      3.3746      3.5500      3.8809      4.3700      5.0186      4.7923      5.4861    
  6.3006      7.2040      8.1543      9.1079      10.026      10.869      11.588      12.117      12.370      12.272    
  11.801      10.997      9.9588      8.8105      7.6679      6.6153      5.6995      4.9384      4.3337      3.8824    
  3.5812      3.4274      3.4180      3.5499      3.8222      4.2361      4.0888      4.5529      5.1452      5.8550    
  6.6611      7.5342      8.4410      9.3453      10.202      10.951      11.512      11.801      11.754      11.357    
  10.654      9.7330      8.7043      7.6679      6.6970      5.8343      5.0996      4.5000      4.0379      3.7138    
  3.5266      3.4732      3.5499      3.7549      3.6824      3.9363      4.3138      4.8152      5.4348      6.1591    
  6.9677      7.8348      8.7273      9.5985      10.383      10.997      11.357      11.402      11.116      10.534    
  9.7330      8.8105      7.8560      6.9377      6.0987      5.3631      4.7443      4.2501      3.8847      3.6481    
  3.5378      3.5498      3.5498      3.6087      3.7868      4.0874      4.5125      5.0595      5.7205      6.4819    
  7.3241      8.2181      9.1186      9.9588      10.654      11.116      11.278      11.116      10.654      9.9588    
  9.1186      8.2181      7.3241      6.4819      5.7205      5.0595      4.5125      4.0875      3.7869      3.6087    
  3.6824      3.5498      3.5377      3.6481      3.8846      4.2501      4.7443      5.3631      6.0986      6.9376    
  7.8560      8.8105      9.7330      10.534      11.116      11.402      11.357      10.997      10.383      9.5985    
  8.7273      7.8348      6.9677      6.1591      5.4348      4.8152      4.3138      3.9363      4.0887      3.7549    
  3.5499      3.4731      3.5266      3.7138      4.0378      4.4999      5.0996      5.8343      6.6970      7.6679    
  8.7043      9.7330      10.654      11.357      11.754      11.801      11.512      10.951      10.202      9.3453    
  8.4410      7.5342      6.6611      5.8550      5.1452      4.5529      4.7923      4.2360      3.8222      3.5499    
  3.4179      3.4274      3.5812      3.8823      4.3337      4.9383      5.6995      6.6153      7.6679      8.8105    
  9.9588      10.997      11.801      12.272      12.370      12.117      11.588      10.869      10.026      9.1079    
  8.1543      7.2040      6.3006      5.4861      5.8195      5.0186      4.3699      3.8808      3.5499      3.3745    
  3.3542      3.4908      3.7876      4.2496      4.8841      5.6995      6.6970      7.8560      9.1186      10.383    
  11.512      12.370      12.843      12.900      12.621      12.124      11.481      10.706      9.7969      8.7964    
  7.7608      6.7486      7.1740      6.1261      5.2184      4.4827      3.9276      3.5500      3.3447      3.3094    
  3.4451      3.7559      4.2496      4.9383      5.8343      6.9376      8.2181      9.5985      10.951      12.117    
  12.900      13.197      13.085      12.745      12.330      11.867      11.274      10.456      9.4267      8.3015    
  8.7955      7.5513      6.3871      5.3799      4.5681      3.9602      3.5500      3.3296      3.2944      3.4451    
  3.7876      4.3337      5.0996      6.0986      7.3241      8.7273      10.202      11.588      12.621      13.085    
  13.004      12.624      12.244      12.026      11.900      11.635      11.016      10.010      10.506      9.2139    
  7.8573      6.5862      5.4933      4.6213      3.9768      3.5500      3.3296      3.3094      3.4908      3.8823    
  4.4999      5.3631      6.4819      7.8348      9.3453      10.869      12.124      12.745      12.624      11.995    
  11.312      10.986      11.138      11.538      11.755      11.434      11.706      10.887      9.5318      8.0728    
  6.7110      5.5518      4.6394      3.9768      3.5500      3.3447      3.3542      3.5812      4.0378      4.7443    
  5.7205      6.9677      8.4410      10.026      11.481      12.330      12.244      11.312      10.043      9.1126    
  9.0045      9.7326      10.839      11.663      11.442      11.856      11.140      9.7304      8.1841      6.7535    
  5.5518      4.6213      3.9602      3.5500      3.3745      3.4274      3.7138      4.2501      5.0595      6.1591    
  7.5342      9.1079      10.706      11.867      12.026      10.986      9.1126      7.2211      6.1924      6.5141    
  8.0149      9.9586      9.1043      11.206      11.923      11.266      9.7979      8.1841      6.7110      5.4933    
  4.5681      3.9276      3.5499      3.4179      3.5266      3.8846      4.5125      5.4348      6.6611      8.1543    
  9.7969      11.274      11.900      11.138      9.0045      6.1924      3.8212      2.9152      3.8808      6.2899    
  4.8944      8.4871      11.057      11.941      11.266      9.7304      8.0728      6.5862      5.3799      4.4827    
  3.8808      3.5499      3.4731      3.6481      4.0874      4.8152      5.8550      7.2040      8.7964      10.456    
  11.636      11.538      9.7326      6.5141      2.9152     0.31125     -.22183      1.5498     -.53927E-01  4.1145    
  8.2624      11.057      11.923      11.140      9.5318      7.8573      6.3871      5.2184      4.3699      3.8222    
  3.5499      3.5377      3.7868      4.3138      5.1452      6.3006      7.7607      9.4267      11.016      11.755    
  10.839      8.0149      3.8808     -.22183     -2.7516     -2.6904     -4.0499     -.62538      4.1145      8.4871    
  11.206      11.856      10.887      9.2139      7.5513      6.1261      5.0186      4.2360      3.7549      3.5498    
  3.6087      3.9363      4.5529      5.4861      6.7486      8.3015      10.010      11.434      11.663      9.9586    
  6.2899      1.5498     -2.6904     -4.8413     -4.0498     -2.9388     0.55438      5.0810      9.0396      11.293    
  11.572      10.408      8.7074      7.0805      5.7110      4.6625      3.9335      3.4975      3.3295      3.4184    
  3.7711      4.4093      5.3611      6.6369      8.1929      9.8869      11.247      11.374      9.6042      5.9964    
  1.4998     -2.3400     -2.9388     -4.0498     -2.3400      1.4997      5.9964      9.6043      11.374      11.247    
  9.8869      8.1929      6.6368      5.3610      4.4093      3.7710      3.4185      3.3295      3.4976      3.9336    
  4.6626      5.7111      7.0805      8.7074      10.408      11.572      11.293      9.0396      5.0810     0.55438    
 0.65478     -2.2330     -2.6904     -.55252      3.2987      7.3802      10.315      11.409      10.819      9.2963    
  7.6444      6.1813      5.0142      4.1676      3.6238      3.3555      3.3447      3.5892      4.1036      4.9145    
  6.0455      7.4879      9.1598      10.834      11.819      11.262      8.7879      4.8412      5.3417      1.7885    
 -.35186     -.22181      2.0905      5.6023      8.9362      10.974      11.308      10.282      8.6717      7.0904    
  5.7374      4.6878      3.9490      3.4987      3.3118      3.3746      3.6890      4.2725      5.1516      6.3455    
  7.8349      9.5236      11.153      12.010      11.347      8.9367      9.4689      6.4868      3.7410      2.3610    
  2.9152      5.1187      7.9896      10.355      11.408      11.016      9.6580      8.0449      6.5575      5.3263    
  4.3969      3.7634      3.4014      3.2894      3.4180      3.7927      4.4319      5.3609      6.5931      8.0999    
  9.7754      11.351      12.156      11.562      11.860      10.266      8.0444      6.1485      5.4297      6.1924    
  8.0335      10.066      11.387      11.510      10.535      9.0018      7.4449      6.0701      4.9659      4.1536    
  3.6182      3.3359      3.2894      3.4733      3.8951      4.5734      5.5301      6.7725      8.2648      9.8974    
  11.419      12.241      12.228      12.148      11.139      9.7052      8.5849      8.3557      9.1126      10.418    
  11.551      11.902      11.272      9.9251      8.3665      6.8988      5.6487      4.6702      3.9667      3.5187    
  3.3047      3.3118      3.5379      3.9914      4.6891      5.6487      6.8717      8.3172      9.8784      11.341    
  11.108      12.074      12.318      11.883      11.159      10.660      10.726      11.312      12.018      12.325    
  11.903      10.775      9.2875      7.7858      6.4309      5.3095      4.4493      3.8422      3.4677      3.3085    
  3.3556      3.6089      4.0764      4.7721      5.7089      6.8828      8.2517      9.7167      9.4204      10.722    
  11.748      12.274      12.328      12.166      12.103      12.294      12.624      12.776      12.442      11.514    
  10.165      8.6964      7.2909      6.0617      5.0646      4.3096      3.7829      3.4663      3.3467      3.4185    
  3.6825      4.1453      4.8171      5.7059      6.8042      8.0712      7.7870      9.0079      10.203      11.242    
  11.971      12.381      12.610      12.810      13.012      13.085      12.821      12.088      10.938      9.5822    
  8.1957      6.9098      5.8074      4.9223      4.2545      3.7898      3.5137      3.4173      3.4975      3.7550    
  4.1938      4.8207      5.6394      6.6404      6.4020      7.4183      8.5060      9.5891      10.590      11.424    
  12.051      12.513      12.845      13.011      12.900      12.406      11.524      10.374      9.0959      7.8243    
  6.6652      5.6793      4.8871      4.2852      3.8620      3.6079      3.5176      3.5891      3.8222      4.2189    
  4.7823      5.5133      5.3356      6.1053      6.9899      7.9473      8.9224      9.8588      10.711      11.438    
  12.014      12.406      12.551      12.370      11.835      10.988      9.9212      8.7576      7.6132      6.5733    
  5.6842      4.9608      4.4008      3.9974      3.7458      3.6435      3.6889      3.8808      4.2189      4.7040    
  4.5909      5.1183      5.7699      6.5293      7.3668      8.2431      9.1165      9.9484      10.701      11.326    
  11.762      11.938      11.801      11.336      10.586      9.6398      8.6056      7.5828      6.6427      5.8243    
  5.1421      4.5985      4.1923      3.9230      3.7902      3.7925      3.9275      4.1937      4.1452      4.4502    
  4.8751      5.4168      6.0644      6.7979      7.5899      8.4095      9.2232      9.9901      10.656      11.150    
  11.402      11.357      11.005      10.384      9.5706      8.6609      7.7409      6.8738      6.0964      5.4268    
  4.8734      4.4412      4.1336      3.9519      3.8949      3.9600      3.9767      4.0763      4.2906      4.6209    
  5.0662      5.6202      6.2699      6.9969      7.7787      8.5867      9.3807      10.103      10.681      11.037    
  11.116      10.899      10.414      9.7289      8.9253      8.0819      7.2581      6.4921      5.8069      5.2178    
  4.7361      4.3696      4.1215      3.9913      4.0763      3.9767      3.9913      4.1215      4.3696      4.7362    
  5.2179      5.8069      6.4921      7.2581      8.0819      8.9253      9.7289      10.414      10.899      11.116    
  11.037      10.681      10.103      9.3807      8.5867      7.7787      6.9969      6.2699      5.6202      5.0662    
  4.6209      4.2906      4.4502      4.1452      3.9601      3.8950      3.9520      4.1336      4.4412      4.8734    
  5.4268      6.0964      6.8738      7.7409      8.6609      9.5706      10.384      11.005      11.357      11.402    
  11.150      10.656      9.9901      9.2232      8.4095      7.5899      6.7978      6.0643      5.4168      4.8751    
  5.1183      4.5910      4.1938      3.9276      3.7925      3.7903      3.9231      4.1923      4.5985      5.1421    
  5.8243      6.6427      7.5828      8.6056      9.6398      10.586      11.336      11.801      11.938      11.762    
  11.326      10.701      9.9484      9.1165      8.2431      7.3668      6.5293      5.7699      6.1054      5.3357    
  4.7041      4.2189      3.8808      3.6890      3.6435      3.7458      3.9974      4.4007      4.9608      5.6842    
  6.5733      7.6132      8.7576      9.9212      10.988      11.835      12.370      12.551      12.406      12.014    
  11.438      10.711      9.8588      8.9224      7.9474      6.9899      7.4184      6.4021      5.5133      4.7823    
  4.2190      3.8223      3.5891      3.5176      3.6079      3.8620      4.2852      4.8871      5.6792      6.6652    
  7.8243      9.0959      10.374      11.524      12.406      12.900      13.011      12.845      12.513      12.051    
  11.424      10.590      9.5891      8.5060      9.0079      7.7871      6.6404      5.6395      4.8207      4.1938    
  3.7550      3.4975      3.4173      3.5136      3.7897      4.2545      4.9222      5.8073      6.9098      8.1957    
  9.5822      10.938      12.088      12.821      13.085      13.011      12.810      12.610      12.381      11.971    
  11.242      10.203      10.722      9.4205      8.0712      6.8042      5.7060      4.8171      4.1453      3.6825    
  3.4185      3.3466      3.4662      3.7828      4.3095      5.0646      6.0617      7.2908      8.6964      10.165    
  11.514      12.442      12.776      12.624      12.294      12.103      12.166      12.327      12.274      11.748    
  12.074      11.108      9.7167      8.2517      6.8828      5.7089      4.7721      4.0764      3.6088      3.3555    
  3.3084      3.4677      3.8421      4.4492      5.3095      6.4309      7.7857      9.2875      10.775      11.902    
  12.325      12.017      11.312      10.726      10.660      11.159      11.883      12.318      12.148      12.228    
  11.341      9.8784      8.3171      6.8716      5.6487      4.6891      3.9914      3.5379      3.3118      3.3046    
  3.5186      3.9667      4.6702      5.6487      6.8988      8.3665      9.9250      11.272      11.902      11.551    
  10.418      9.1126      8.3556      8.5849      9.7052      11.139      10.266      11.860      12.241      11.419    
  9.8973      8.2647      6.7725      5.5300      4.5733      3.8950      3.4732      3.2893      3.3358      3.6181    
  4.1535      4.9659      6.0701      7.4449      9.0018      10.535      11.510      11.387      10.066      8.0335    
  6.1924      5.4297      6.1485      8.0444      6.4868      9.4689      11.562      12.156      11.351      9.7754    
  8.0998      6.5930      5.3608      4.4318      3.7926      3.4179      3.2893      3.4013      3.7633      4.3968    
  5.3263      6.5575      8.0449      9.6580      11.016      11.407      10.355      7.9896      5.1188      2.9152    
  2.3611      3.7410      1.7885      5.3418      8.9367      11.347      12.011      11.153      9.5235      7.8348    
  6.3454      5.1515      4.2724      3.6889      3.3745      3.3117      3.4986      3.9490      4.6878      5.7374    
  7.0904      8.6717      10.282      11.308      10.974      8.9362      5.6024      2.0906     -.22174     -.35179    
 -2.2329     0.65481      4.8412      8.7879      11.262      11.819      10.834      9.1598      7.4878      6.0454    
  4.9144      4.1035      3.5891      3.3446      3.3555      3.6238      4.1676      5.0142      6.1813      7.6444    
  9.2963      10.819      11.409      10.315      7.3802      3.2988     -.55247     -2.6903     -.53752E-01 0.65491    
  3.3520      6.9473      10.081      11.759      11.734      10.470      8.7708      7.1552      5.7890      4.7323    
  3.9837      3.5177      3.3094      3.3467      3.6330      4.1867      5.0339      6.1907      7.6314      9.2511    
  10.756      11.413      10.552      8.0694      4.6350      1.4999     0.55450     -.62522     0.55449      3.5981    
  7.2739      10.226      11.588      11.281      9.8869      8.2125      6.6738      5.4047      4.4481      3.7947    
  3.4174      3.2944      3.4175      3.7947      4.4482      5.4047      6.6738      8.2125      9.8868      11.281    
  11.588      10.226      7.2739      3.5981      3.3520     0.65490     -.53773E-01  1.4999      4.6349      8.0695    
  10.552      11.413      10.756      9.2512      7.6314      6.1907      5.0339      4.1867      3.6331      3.3468    
  3.3095      3.5177      3.9837      4.7323      5.7891      7.1552      8.7708      10.470      11.734      11.759    
  10.081      6.9473      7.1933      3.9639      1.7886      1.5499      3.2988      6.2351      9.1265      10.915    
  11.169      10.161      8.5980      7.0562      5.7293      4.6936      3.9592      3.5055      3.3085      3.3543    
  3.6436      4.1922      5.0261      6.1679      7.6095      9.2754      10.972      12.122      11.980      10.211    
  10.629      7.9827      5.3223      3.7411      3.8809      5.6024      8.0687      10.191      11.165      10.803    
  9.5121      7.9570      6.5125      5.3099      4.3983      3.7750      3.4174      3.3047      3.4274      3.7903    
  4.4111      5.3153      6.5207      8.0101      9.6952      11.365      12.440      12.266      12.587      11.261    
  9.1593      7.1650      6.1485      6.5142      7.9896      9.7861      11.028      11.190      10.304      8.8512    
  7.3541      6.0229      4.9494      4.1594      3.6413      3.3724      3.3359      3.5266      3.9520      4.6302    
  5.5844      6.8267      8.3307      10.000      11.624      12.669      12.774      12.870      11.962      10.480    
  9.1435      8.5849      9.0045      10.066      11.101      11.482      10.951      9.7067      8.2228      6.8126    
  5.6056      4.6607      3.9855      3.5629      3.3723      3.4013      3.6482      4.1215      4.8384      5.8180    
  7.0658      8.5483      10.166      11.725      11.648      12.712      13.023      12.561      11.678      10.907    
  10.660      10.986      11.551      11.850      11.509      10.490      9.0880      7.6541      6.3533      5.2754    
  4.4532      3.8818      3.5422      3.4173      3.4986      3.7869      4.2906      5.0240      6.0012      7.2210    
  8.6450      10.177      10.026      11.386      12.453      12.963      12.904      12.526      12.183      12.103    
  12.244      12.325      12.023      11.179      9.9135      8.5150      7.1707      5.9936      5.0431      4.3328    
  3.8509      3.5795      3.5053      3.6237      3.9363      4.4502      5.1758      6.1213      7.2800      8.6114    
  8.4481      9.7244      10.953      11.988      12.644      12.896      12.893      12.832      12.810      12.745    
  12.442      11.739      10.646      9.3497      8.0247      6.7963      5.7478      4.9158      4.3022      3.8928    
  3.6727      3.6328      3.7709      4.0888      4.5909      5.2834      6.1691      7.2370      7.0944      8.1663    
  9.2917      10.382      11.345      12.074      12.527      12.763      12.865      12.845      12.621      12.088    
  11.212      10.094      8.8659      7.6513      6.5513      5.6263      4.8977      4.3617      4.0055      3.8182    
  3.7945      3.9334      4.2360      4.7040      5.3393      6.1404      6.0370      6.8625      7.7868      8.7599    
  9.7158      10.587      11.318      11.870      12.238      12.427      12.406      12.117      11.524      10.667    
  9.6263      8.5098      7.4247      6.4520      5.6359      4.9899      4.5094      4.1851      4.0107      3.9835    
  4.1034      4.3699      4.7823      5.3394      5.2835      5.8663      6.5583      7.3373      8.1666      8.9989    
  9.7850      10.484      11.064      11.497      11.744      11.762      11.512      10.988      10.226      9.3041    
  8.3209      7.3672      6.5085      5.7796      5.1912      4.7416      4.4264      4.2433      4.1921      4.2723    
  4.4827      4.8207      4.8171      5.1759      5.6406      6.2033      6.8485      7.5507      8.2772      8.9927    
  9.6642      10.259      10.737      11.051      11.150      10.997      10.586      9.9546      9.1730      8.3263    
  7.4918      6.7249      6.0560      5.4974      5.0523      4.7219      4.5077      4.4110      4.4318      4.5681    
  4.6213      4.7722      5.0242      5.3754      5.8210      6.3509      6.9485      7.5919      8.2564      8.9151    
  9.5351      10.073      10.473      10.681      10.654      10.384      9.8988      9.2591      8.5373      7.8003    
  7.0975      6.4591      5.9012      5.4331      5.0620      4.7933      4.6302      4.5734      4.6891      4.6394    
  4.6891      4.8385      5.0875      5.4339      5.8717      6.3907      6.9772      7.6148      8.2822      8.9480    
  9.5658      10.076      10.414      10.534      10.414      10.076      9.5658      8.9480      8.2822      7.6148    
  6.9772      6.3907      5.8717      5.4338      5.0875      4.8385      5.0242      4.7722      4.6214      4.5734    
  4.6303      4.7934      5.0621      5.4332      5.9012      6.4591      7.0975      7.8002      8.5373      9.2591    
  9.8988      10.384      10.654      10.681      10.473      10.073      9.5351      8.9151      8.2564      7.5919    
  6.9485      6.3509      5.8210      5.3754      5.6406      5.1760      4.8172      4.5682      4.4319      4.4111    
  4.5078      4.7220      5.0524      5.4975      6.0560      6.7249      7.4918      8.3263      9.1730      9.9546    
  10.586      10.997      11.150      11.051      10.737      10.259      9.6642      8.9927      8.2772      7.5507    
  6.8485      6.2033      6.5583      5.8664      5.2836      4.8208      4.4828      4.2724      4.1922      4.2434    
  4.4264      4.7416      5.1912      5.7796      6.5085      7.3672      8.3209      9.3041      10.226      10.988    
  11.512      11.762      11.744      11.497      11.064      10.484      9.7850      8.9989      8.1666      7.3373    
  7.7868      6.8626      6.0371      5.3394      4.7824      4.3699      4.1034      3.9836      4.0107      4.1852    
  4.5094      4.9899      5.6360      6.4520      7.4247      8.5098      9.6263      10.667      11.524      12.117    
  12.406      12.427      12.238      11.870      11.318      10.587      9.7158      8.7600      9.2918      8.1663    
  7.0945      6.1405      5.3394      4.7041      4.2361      3.9335      3.7945      3.8182      4.0055      4.3617    
  4.8977      5.6263      6.5513      7.6514      8.8659      10.094      11.212      12.088      12.621      12.845    
  12.865      12.763      12.527      12.074      11.345      10.383      10.953      9.7244      8.4481      7.2371    
  6.1692      5.2835      4.5909      4.0888      3.7710      3.6329      3.6727      3.8928      4.3022      4.9158    
  5.7478      6.7963      8.0247      9.3497      10.646      11.739      12.442      12.745      12.810      12.832    
  12.892      12.896      12.644      11.987      12.453      11.386      10.026      8.6115      7.2800      6.1214    
  5.1758      4.4502      3.9363      3.6237      3.5054      3.5795      3.8509      4.3328      5.0431      5.9936    
  7.1707      8.5150      9.9135      11.179      12.023      12.325      12.244      12.103      12.183      12.526    
  12.904      12.963      13.023      12.712      11.648      10.177      8.6450      7.2211      6.0013      5.0241    
  4.2906      3.7869      3.4986      3.4173      3.5422      3.8818      4.4532      5.2754      6.3533      7.6542    
  9.0880      10.490      11.509      11.850      11.551      10.986      10.660      10.907      11.678      12.561    
  11.962      12.870      12.774      11.725      10.166      8.5483      7.0658      5.8180      4.8384      4.1215    
  3.6481      3.4013      3.3723      3.5629      3.9855      4.6607      5.6056      6.8127      8.2228      9.7067    
  10.951      11.482      11.101      10.066      9.0045      8.5848      9.1435      10.480      9.1592      11.261    
  12.587      12.669      11.624      10.000      8.3307      6.8267      5.5844      4.6302      3.9520      3.5266    
  3.3358      3.3723      3.6412      4.1594      4.9494      6.0229      7.3541      8.8512      10.304      11.190    
  11.028      9.7861      7.9896      6.5142      6.1485      7.1650      5.3223      7.9827      10.629      12.266    
  12.440      11.365      9.6952      8.0100      6.5207      5.3152      4.4111      3.7903      3.4274      3.3046    
  3.4173      3.7749      4.3983      5.3099      6.5126      7.9570      9.5120      10.803      11.165      10.191    
  8.0687      5.6024      3.8809      3.7411      1.7886      3.9639      7.1933      10.211      11.980      12.122    
  10.972      9.2754      7.6095      6.1679      5.0261      4.1922      3.6436      3.3542      3.3085      3.5055    
  3.9591      4.6936      5.7293      7.0562      8.5980      10.161      11.169      10.915      9.1265      6.2351    
  3.2989      1.5499      4.8945      5.3418      7.1933      9.6511      11.683      12.537      12.053      10.645    
  8.9701      7.3945      6.0555      5.0057      4.2434      3.7459      3.4908      3.4663      3.6728      4.1234    
  4.8400      5.8409      7.1158      8.5947      10.114      11.219      11.302      10.130      8.0694      5.9965    
  5.0811      4.1146      4.8413      6.9473      9.5046      11.455      12.121      11.465      9.9931      8.3583    
  6.8621      5.6213      4.6738      4.0108      3.6080      3.4451      3.5137      3.8183      4.3759      5.2103    
  6.3361      7.7297      9.2973      10.812      11.690      11.352      9.6992      7.2739      6.9473      4.8413    
  4.1146      5.0811      7.2739      9.6992      11.352      11.690      10.812      9.2973      7.7297      6.3361    
  5.2103      4.3759      3.8183      3.5137      3.4451      3.6080      4.0108      4.6738      5.6213      6.8620    
  8.3583      9.9931      11.465      12.121      11.455      9.5046      9.6511      7.1933      5.3419      4.8945    
  5.9965      8.0695      10.130      11.302      11.219      10.114      8.5947      7.1158      5.8409      4.8400    