unknown system                          
   1.00000000000000     
    -2.450000    2.450000    1.274000
     2.450000   -2.450000    1.274000
     2.450000    2.450000   -1.274000
   Si
     2
Direct
  0.250000  0.750000  0.500000
  0.000000  0.000000  0.000000
 
   28   28   28
 -5.5797     -4.0468     -.51811E-01  4.8954      9.1045      11.442      11.706      10.506      8.7962      7.1746    
  5.8197      4.7917      4.0875      3.6808      3.5481      3.6808      4.0876      4.7918      5.8197      7.1746    
  8.7962      10.506      11.706      11.442      9.1045      4.8954     -.51822E-01 -4.0468     -4.0468     -4.8381    
 -2.6877      1.5514      6.2905      9.9586      11.663      11.435      10.010      8.3021      6.7490      5.4860    
  4.5521      3.9349      3.6070      3.5481      3.7533      4.2350      5.0183      6.1264      7.5521      9.2147    
  10.887      11.856      11.206      8.4875      4.1157     -.62312     -.51822E-01 -2.6877     -2.7489     -.21983    
  3.8818      8.0149      10.839      11.755      11.016      9.4270      7.7612      6.3008      5.1448      4.3128    
  3.7853      3.5360      3.5481      3.8208      4.3691      5.2183      6.3876      7.8583      9.5327      11.141    
  11.923      11.057      8.2628      4.1157      4.8954      1.5514     -.21983     0.31303      2.9162      6.5143    
  9.7321      11.537      11.635      10.456      8.7968      7.2044      5.8549      4.8146      4.0862      3.6465    
  3.4713      3.5482      3.8795      4.4820      5.3800      6.5870      8.0739      9.7314      11.267      11.941    
  11.057      8.4875      9.1045      6.2905      3.8818      2.9163      3.8219      6.1924      9.0039      11.137    
  11.899      11.273      9.7969      8.1547      6.6613      5.4346      4.5116      3.8832      3.5249      3.4161    
  3.5482      3.9263      4.5675      5.4935      6.7119      8.1853      9.7989      11.267      11.923      11.206    
  11.442      9.9586      8.0149      6.5143      6.1925      7.2207      9.1117      10.985      12.024      11.866    
  10.705      9.1080      7.5346      6.1592      5.0591      4.2491      3.7123      3.4256      3.3726      3.5482    
  3.9589      4.6208      5.5520      6.7544      8.1853      9.7314      11.141      11.856      11.706      11.663    
  10.839      9.7321      9.0039      9.1117      10.041      11.311      12.242      12.328      11.480      10.026    
  8.4412      6.9680      5.7205      4.7437      4.0367      3.5796      3.3523      3.3427      3.5483      3.9756    
  4.6388      5.5520      6.7119      8.0739      9.5327      10.887      10.506      11.435      11.755      11.537    
  11.137      10.985      11.311      11.993      12.622      12.743      12.122      10.868      9.3452      7.8351    
  6.4821      5.3630      4.4993      3.8811      3.4891      3.3075      3.3275      3.5483      3.9756      4.6208    
  5.4935      6.5870      7.8583      9.2147      8.7962      10.010      11.016      11.635      11.899      12.024    
  12.242      12.622      13.001      13.082      12.620      11.586      10.202      8.7273      7.3244      6.0988    
  5.0994      4.3329      3.7864      3.4434      3.2924      3.3275      3.5483      3.9589      4.5675      5.3800    
  6.3876      7.5521      7.1746      8.3021      9.4270      10.456      11.273      11.866      12.328      12.743    
  13.082      13.194      12.898      12.115      10.950      9.5981      8.2183      6.9380      5.8345      4.9381    
  4.2488      3.7546      3.4434      3.3075      3.3427      3.5482      3.9263      4.4820      5.2183      6.1264    
  5.8197      6.7490      7.7612      8.7968      9.7969      10.705      11.480      12.122      12.620      12.898    
  12.841      12.368      11.510      10.382      9.1184      7.8562      6.6973      5.6997      4.8838      4.2488    
  3.7864      3.4891      3.3523      3.3726      3.5482      3.8795      4.3691      5.0183      4.7918      5.4860    
  6.3008      7.2044      8.1547      9.1080      10.026      10.868      11.586      12.115      12.368      12.270    
  11.799      10.995      9.9579      8.8103      7.6681      6.6156      5.6997      4.9381      4.3329      3.8811    
  3.5796      3.4256      3.4161      3.5482      3.8208      4.2350      4.0876      4.5521      5.1448      5.8549    
  6.6613      7.5346      8.4412      9.3452      10.202      10.950      11.510      11.799      11.752      11.355    
  10.652      9.7322      8.7041      7.6681      6.6973      5.8345      5.0994      4.4993      4.0367      3.7123    
  3.5249      3.4713      3.5481      3.7533      3.6808      3.9349      4.3128      4.8146      5.4346      6.1592    
  6.9680      7.8351      8.7273      9.5981      10.382      10.995      11.355      11.400      11.114      10.532    
  9.7322      8.8103      7.8562      6.9380      6.0988      5.3630      4.7437      4.2491      3.8832      3.6465    
  3.5360      3.5481      3.5481      3.6070      3.7853      4.0862      4.5116      5.0591      5.7205      6.4821    
  7.3244      8.2183      9.1184      9.9579      10.652      11.114      11.276      11.114      10.652      9.9579    
  9.1184      8.2183      7.3244      6.4821      5.7205      5.0591      4.5116      4.0862      3.7853      3.6070    
  3.6808      3.5481      3.5360      3.6465      3.8832      4.2491      4.7437      5.3630      6.0988      6.9380    
  7.8562      8.8103      9.7322      10.532      11.114      11.400      11.355      10.995      10.382      9.5981    
  8.7273      7.8351      6.9680      6.1592      5.4346      4.8146      4.3128      3.9349      4.0875      3.7533    
  3.5481      3.4713      3.5249      3.7123      4.0367      4.4993      5.0994      5.8345      6.6973      7.6681    
  8.7041      9.7322      10.652      11.355      11.752      11.799      11.510      10.950      10.202      9.3452    
  8.4412      7.5346      6.6613      5.8549      5.1448      4.5521      4.7917      4.2350      3.8208      3.5482    
  3.4161      3.4256      3.5796      3.8811      4.3329      4.9381      5.6997      6.6156      7.6681      8.8103    
  9.9579      10.995      11.799      12.270      12.368      12.115      11.586      10.868      10.026      9.1080    
  8.1547      7.2044      6.3008      5.4860      5.8197      5.0182      4.3691      3.8795      3.5482      3.3726    
  3.3523      3.4891      3.7864      4.2488      4.8838      5.6997      6.6973      7.8562      9.1184      10.382    
  11.510      12.368      12.841      12.898      12.620      12.122      11.480      10.705      9.7969      8.7968    
  7.7612      6.7490      7.1746      6.1264      5.2183      4.4820      3.9263      3.5482      3.3428      3.3075    
  3.4434      3.7546      4.2488      4.9381      5.8345      6.9380      8.2183      9.5981      10.950      12.115    
  12.898      13.194      13.082      12.743      12.328      11.866      11.273      10.456      9.4270      8.3021    
  8.7962      7.5521      6.3876      5.3800      4.5675      3.9589      3.5483      3.3276      3.2924      3.4434    
  3.7864      4.3329      5.0994      6.0988      7.3244      8.7273      10.202      11.586      12.620      13.082    
  13.001      12.622      12.242      12.024      11.899      11.635      11.016      10.010      10.506      9.2147    
  7.8583      6.5870      5.4935      4.6208      3.9756      3.5483      3.3276      3.3075      3.4891      3.8811    
  4.4993      5.3630      6.4821      7.8351      9.3452      10.868      12.122      12.743      12.622      11.993    
  11.311      10.985      11.137      11.537      11.755      11.435      11.706      10.887      9.5327      8.0739    
  6.7119      5.5521      4.6389      3.9756      3.5483      3.3428      3.3523      3.5796      4.0367      4.7437    
  5.7205      6.9680      8.4412      10.026      11.480      12.328      12.242      11.311      10.041      9.1117    
  9.0039      9.7321      10.839      11.663      11.442      11.856      11.141      9.7314      8.1853      6.7544    
  5.5521      4.6208      3.9589      3.5482      3.3726      3.4256      3.7123      4.2491      5.0591      6.1592    
  7.5346      9.1080      10.705      11.866      12.024      10.985      9.1117      7.2207      6.1924      6.5143    
  8.0149      9.9586      9.1045      11.206      11.923      11.267      9.7989      8.1853      6.7119      5.4935    
  4.5675      3.9263      3.5482      3.4161      3.5249      3.8832      4.5116      5.4346      6.6613      8.1547    
  9.7969      11.273      11.899      11.137      9.0039      6.1925      3.8219      2.9162      3.8818      6.2905    
  4.8954      8.4875      11.057      11.941      11.267      9.7314      8.0739      6.5870      5.3800      4.4820    
  3.8795      3.5482      3.4713      3.6465      4.0862      4.8146      5.8549      7.2044      8.7968      10.456    
  11.635      11.537      9.7321      6.5143      2.9163     0.31303     -.21983      1.5514     -.51811E-01  4.1157    
  8.2628      11.057      11.923      11.141      9.5327      7.8583      6.3876      5.2183      4.3691      3.8208    
  3.5481      3.5360      3.7853      4.3128      5.1448      6.3008      7.7612      9.4270      11.016      11.755    
  10.839      8.0149      3.8818     -.21983     -2.7489     -2.6877     -4.0468     -.62311      4.1157      8.4875    
  11.206      11.856      10.887      9.2147      7.5521      6.1264      5.0182      4.2350      3.7533      3.5481    
  3.6070      3.9349      4.5521      5.4860      6.7490      8.3021      10.010      11.435      11.663      9.9586    
  6.2905      1.5514     -2.6877     -4.8381     -4.0467     -2.9359     0.55639      5.0820      9.0399      11.293    
  11.572      10.408      8.7081      7.0811      5.7111      4.6618      3.9322      3.4957      3.3275      3.4165    
  3.7695      4.4084      5.3608      6.6372      8.1934      9.8873      11.247      11.374      9.6044      5.9972    
  1.5015     -2.3373     -2.9359     -4.0467     -2.3373      1.5015      5.9972      9.6044      11.374      11.247    
  9.8873      8.1934      6.6372      5.3608      4.4084      3.7695      3.4165      3.3275      3.4957      3.9322    
  4.6619      5.7111      7.0811      8.7081      10.408      11.572      11.293      9.0399      5.0820     0.55640    
 0.65676     -2.2303     -2.6877     -.55035      3.3000      7.3806      10.315      11.409      10.819      9.2967    
  7.6449      6.1814      5.0137      4.1664      3.6221      3.3535      3.3427      3.5874      4.1024      4.9140    
  6.0458      7.4886      9.1606      10.835      11.819      11.262      8.7883      4.8423      5.3427      1.7901    
 -.34977     -.21981      2.0919      5.6029      8.9361      10.974      11.308      10.282      8.6720      7.0907    
  5.7373      4.6870      3.9476      3.4969      3.3098      3.3726      3.6874      4.2715      5.1514      6.3460    
  7.8359      9.5245      11.153      12.011      11.348      8.9371      9.4690      6.4873      3.7420      2.3623    
  2.9163      5.1192      7.9894      10.354      11.407      11.016      9.6580      8.0452      6.5577      5.3260    
  4.3958      3.7618      3.3994      3.2873      3.4161      3.7912      4.4311      5.3609      6.5938      8.1010    
  9.7764      11.352      12.156      11.562      11.860      10.265      8.0444      6.1488      5.4300      6.1924    
  8.0331      10.065      11.386      11.509      10.535      9.0019      7.4451      6.0701      4.9654      4.1524    
  3.6165      3.3339      3.2873      3.4714      3.8937      4.5727      5.5303      6.7734      8.2659      9.8983    
  11.419      12.241      12.228      12.148      11.139      9.7047      8.5844      8.3551      9.1117      10.417    
  11.550      11.901      11.271      9.9248      8.3666      6.8990      5.6485      4.6695      3.9654      3.5169    
  3.3027      3.3098      3.5361      3.9901      4.6885      5.6490      6.8726      8.3183      9.8794      11.341    
  11.109      12.074      12.317      11.882      11.158      10.659      10.725      11.311      12.016      12.324    
  11.901      10.774      9.2873      7.7859      6.4311      5.3092      4.4484      3.8408      3.4659      3.3065    
  3.3536      3.6071      4.0752      4.7716      5.7092      6.8837      8.2528      9.7176      9.4213      10.723    
  11.748      12.274      12.327      12.165      12.102      12.292      12.622      12.774      12.440      11.513    
  10.164      8.6964      7.2911      6.0618      5.0643      4.3087      3.7815      3.4645      3.3447      3.4165    
  3.6809      4.1441      4.8166      5.7062      6.8050      8.0722      7.7879      9.0087      10.203      11.242    
  11.970      12.380      12.609      12.808      13.009      13.082      12.819      12.086      10.937      9.5817    
  8.1958      6.9100      5.8075      4.9220      4.2537      3.7885      3.5120      3.4155      3.4957      3.7534    
  4.1928      4.8203      5.6396      6.6411      6.4026      7.4191      8.5067      9.5896      10.590      11.423    
  12.051      12.511      12.843      13.009      12.898      12.404      11.523      10.373      9.0956      7.8244    
  6.6655      5.6794      4.8868      4.2845      3.8608      3.6063      3.5158      3.5874      3.8208      4.2179    
  4.7818      5.5133      5.3356      6.1057      6.9905      7.9480      8.9230      9.8590      10.710      11.437    
  12.012      12.404      12.549      12.368      11.833      10.986      9.9204      8.7574      7.6134      6.5737    
  5.6844      4.9606      4.4001      3.9963      3.7444      3.6419      3.6873      3.8795      4.2179      4.7035    
  4.5902      5.1180      5.7700      6.5297      7.3674      8.2437      9.1168      9.9483      10.700      11.325    
  11.760      11.936      11.799      11.334      10.585      9.6391      8.6054      7.5831      6.6431      5.8245    
  5.1420      4.5979      4.1913      3.9218      3.7888      3.7911      3.9262      4.1927      4.1441      4.4494    
  4.8746      5.4166      6.0646      6.7983      7.5904      8.4099      9.2233      9.9897      10.655      11.149    
  11.400      11.355      11.003      10.382      9.5699      8.6608      7.7412      6.8742      6.0967      5.4268    
  4.8730      4.4404      4.1325      3.9507      3.8936      3.9588      3.9754      4.0751      4.2896      4.6202    
  5.0659      5.6202      6.2702      6.9974      7.7792      8.5869      9.3804      10.102      10.679      11.035    
  11.114      10.897      10.413      9.7281      8.9251      8.0822      7.2586      6.4925      5.8071      5.2176    
  4.7356      4.3687      4.1203      3.9900      4.0751      3.9755      3.9900      4.1204      4.3687      4.7356    
  5.2176      5.8071      6.4925      7.2586      8.0822      8.9251      9.7282      10.413      10.897      11.114    
  11.035      10.679      10.102      9.3804      8.5869      7.7791      6.9974      6.2702      5.6202      5.0658    
  4.6202      4.2896      4.4494      4.1441      3.9588      3.8937      3.9507      4.1325      4.4404      4.8730    
  5.4269      6.0967      6.8742      7.7412      8.6608      9.5699      10.382      11.003      11.355      11.400    
  11.149      10.655      9.9897      9.2232      8.4099      7.5904      6.7983      6.0646      5.4166      4.8746    
  5.1180      4.5903      4.1928      3.9263      3.7911      3.7889      3.9218      4.1913      4.5979      5.1421    
  5.8246      6.6431      7.5830      8.6054      9.6391      10.585      11.334      11.799      11.936      11.760    
  11.325      10.700      9.9483      9.1168      8.2437      7.3674      6.5297      5.7700      6.1057      5.3356    
  4.7035      4.2179      3.8795      3.6874      3.6419      3.7444      3.9963      4.4001      4.9606      5.6844    
  6.5737      7.6134      8.7574      9.9204      10.986      11.833      12.368      12.549      12.404      12.012    
  11.437      10.710      9.8590      8.9230      7.9480      6.9905      7.4191      6.4026      5.5134      4.7819    
  4.2179      3.8208      3.5874      3.5159      3.6064      3.8608      4.2845      4.8868      5.6794      6.6655    
  7.8244      9.0956      10.373      11.523      12.404      12.898      13.008      12.843      12.511      12.050    
  11.423      10.590      9.5896      8.5067      9.0087      7.7880      6.6411      5.6397      4.8203      4.1928    
  3.7534      3.4957      3.4155      3.5120      3.7885      4.2537      4.9220      5.8075      6.9100      8.1958    
  9.5817      10.937      12.086      12.819      13.082      13.009      12.808      12.609      12.380      11.970    
  11.242      10.203      10.723      9.4213      8.0722      6.8051      5.7063      4.8167      4.1441      3.6809    
  3.4166      3.3447      3.4645      3.7815      4.3087      5.0643      6.0618      7.2911      8.6964      10.164    
  11.512      12.440      12.774      12.622      12.292      12.102      12.165      12.327      12.274      11.748    
  12.074      11.109      9.7176      8.2528      6.8837      5.7092      4.7717      4.0752      3.6071      3.3536    
  3.3065      3.4659      3.8408      4.4484      5.3092      6.4310      7.7859      9.2873      10.774      11.901    
  12.324      12.016      11.311      10.725      10.659      11.158      11.882      12.317      12.148      12.228    
  11.341      9.8794      8.3183      6.8726      5.6490      4.6885      3.9901      3.5361      3.3097      3.3026    
  3.5169      3.9654      4.6695      5.6485      6.8990      8.3666      9.9248      11.271      11.901      11.550    
  10.417      9.1117      8.3551      8.5844      9.7047      11.139      10.265      11.860      12.241      11.419    
  9.8983      8.2659      6.7734      5.5303      4.5727      3.8937      3.4714      3.2873      3.3339      3.6164    
  4.1523      4.9654      6.0701      7.4451      9.0019      10.535      11.509      11.386      10.066      8.0331    
  6.1925      5.4301      6.1488      8.0445      6.4874      9.4690      11.562      12.156      11.352      9.7764    
  8.1009      6.5938      5.3609      4.4311      3.7911      3.4161      3.2873      3.3994      3.7617      4.3958    
  5.3260      6.5577      8.0452      9.6580      11.016      11.407      10.354      7.9894      5.1193      2.9163    
  2.3623      3.7421      1.7901      5.3427      8.9371      11.347      12.011      11.153      9.5244      7.8358    
  6.3460      5.1514      4.2715      3.6874      3.3726      3.3097      3.4968      3.9476      4.6870      5.7373    
  7.0907      8.6720      10.282      11.308      10.974      8.9361      5.6029      2.0920     -.21977     -.34973    
 -2.2303     0.65677      4.8423      8.7882      11.262      11.819      10.835      9.1606      7.4886      6.0458    
  4.9140      4.1023      3.5874      3.3427      3.3535      3.6221      4.1664      5.0137      6.1814      7.6449    
  9.2967      10.819      11.409      10.315      7.3806      3.3000     -.55032     -2.6877     -.51661E-01 0.65686    
  3.3534      6.9480      10.081      11.759      11.735      10.471      8.7716      7.1559      5.7892      4.7317    
  3.9825      3.5159      3.3075      3.3448      3.6314      4.1855      5.0334      6.1908      7.6319      9.2516    
  10.756      11.413      10.552      8.0699      4.6360      1.5016     0.55650     -.62295     0.55650      3.5994    
  7.2745      10.226      11.588      11.281      9.8874      8.2132      6.6742      5.4045      4.4473      3.7932    
  3.4156      3.2924      3.4156      3.7932      4.4473      5.4045      6.6742      8.2132      9.8874      11.281    
  11.588      10.226      7.2745      3.5994      3.3534     0.65686     -.51655E-01  1.5016      4.6360      8.0699    
  10.552      11.413      10.756      9.2516      7.6319      6.1909      5.0334      4.1855      3.6314      3.3448    
  3.3075      3.5159      3.9825      4.7317      5.7892      7.1559      8.7716      10.471      11.735      11.759    
  10.081      6.9480      7.1939      3.9651      1.7902      1.5516      3.3001      6.2357      9.1266      10.915    
  11.169      10.161      8.5983      7.0565      5.7292      4.6928      3.9578      3.5037      3.3065      3.3523    
  3.6420      4.1912      5.0258      6.1683      7.6104      9.2763      10.972      12.122      11.980      10.211    
  10.629      7.9829      5.3231      3.7421      3.8819      5.6029      8.0687      10.190      11.164      10.803    
  9.5122      7.9573      6.5127      5.3096      4.3973      3.7734      3.4155      3.3026      3.4256      3.7889    
  4.4103      5.3152      6.5214      8.0111      9.6961      11.365      12.440      12.266      12.587      11.260    
  9.1591      7.1652      6.1488      6.5143      7.9894      9.7856      11.027      11.190      10.304      8.8513    
  7.3543      6.0228      4.9488      4.1583      3.6396      3.3704      3.3339      3.5249      3.9507      4.6296    
  5.5846      6.8276      8.3319      10.001      11.624      12.669      12.774      12.869      11.962      10.480    
  9.1430      8.5844      9.0038      10.065      11.100      11.481      10.951      9.7065      8.2229      6.8128    
  5.6054      4.6600      3.9842      3.5612      3.3704      3.3994      3.6465      4.1203      4.8380      5.8184    
  7.0668      8.5495      10.167      11.725      11.648      12.712      13.022      12.560      11.677      10.906    
  10.659      10.984      11.550      11.849      11.508      10.489      9.0878      7.6543      6.3534      5.2752    
  4.4524      3.8805      3.5405      3.4154      3.4968      3.7853      4.2896      5.0238      6.0017      7.2221    
  8.6463      10.177      10.027      11.387      12.453      12.963      12.903      12.525      12.182      12.102    
  12.242      12.324      12.021      11.178      9.9130      8.5150      7.1709      5.9937      5.0428      4.3320    
  3.8497      3.5779      3.5036      3.6220      3.9349      4.4493      5.1756      6.1219      7.2811      8.6126    
  8.4492      9.7253      10.954      11.987      12.644      12.895      12.891      12.830      12.808      12.743    
  12.440      11.738      10.646      9.3494      8.0248      6.7965      5.7479      4.9156      4.3015      3.8917    
  3.6712      3.6312      3.7694      4.0876      4.5902      5.2834      6.1697      7.2380      7.0954      8.1673    
  9.2926      10.383      11.345      12.074      12.526      12.762      12.864      12.843      12.619      12.086    
  11.211      10.093      8.8657      7.6515      6.5517      5.6265      4.8975      4.3611      4.0045      3.8169    
  3.7930      3.9321      4.2350      4.7035      5.3393      6.1410      6.0375      6.8633      7.7877      8.7608    
  9.7164      10.587      11.318      11.870      12.237      12.425      12.404      12.115      11.523      10.666    
  9.6257      8.5097      7.4250      6.4524      5.6362      4.9899      4.5089      4.1843      4.0095      3.9823    
  4.1023      4.3691      4.7819      5.3394      5.2835      5.8666      6.5589      7.3381      8.1675      8.9996    
  9.7854      10.484      11.064      11.496      11.743      11.760      11.510      10.986      10.225      9.3036    
  8.3209      7.3676      6.5090      5.7800      5.1913      4.7413      4.4257      4.2424      4.1911      4.2715    
  4.4820      4.8203      4.8167      5.1758      5.6407      6.2038      6.8492      7.5515      8.2779      8.9933    
  9.6644      10.258      10.736      11.050      11.149      10.995      10.585      9.9536      9.1726      8.3264    
  7.4923      6.7255      6.0565      5.4977      5.0522      4.7215      4.5070      4.4103      4.4311      4.5675    
  4.6208      4.7717      5.0239      5.3753      5.8212      6.3514      6.9492      7.5927      8.2571      8.9155    
  9.5350      10.072      10.472      10.679      10.652      10.382      9.8979      9.2587      8.5374      7.8007    
  7.0982      6.4597      5.9016      5.4332      5.0618      4.7929      4.6297      4.5728      4.6886      4.6389    
  4.6886      4.8381      5.0872      5.4339      5.8720      6.3912      6.9779      7.6155      8.2827      8.9481    
  9.5654      10.075      10.413      10.532      10.413      10.075      9.5653      8.9481      8.2827      7.6155    
  6.9779      6.3912      5.8720      5.4339      5.0872      4.8381      5.0239      4.7717      4.6208      4.5728    
  4.6297      4.7929      5.0618      5.4332      5.9016      6.4597      7.0982      7.8007      8.5374      9.2587    
  9.8979      10.382      10.652      10.679      10.472      10.072      9.5350      8.9155      8.2571      7.5927    
  6.9492      6.3514      5.8212      5.3753      5.6407      5.1758      4.8167      4.5675      4.4311      4.4103    
  4.5071      4.7215      5.0522      5.4977      6.0565      6.7255      7.4922      8.3264      9.1726      9.9536    
  10.585      10.995      11.149      11.050      10.736      10.258      9.6644      8.9933      8.2779      7.5515    
  6.8492      6.2038      6.5589      5.8666      5.2835      4.8203      4.4820      4.2715      4.1911      4.2425    
  4.4257      4.7413      5.1913      5.7800      6.5090      7.3676      8.3209      9.3036      10.225      10.986    
  11.510      11.760      11.743      11.496      11.064      10.484      9.7854      8.9996      8.1675      7.3381    
  7.7877      6.8633      6.0375      5.3394      4.7819      4.3690      4.1023      3.9823      4.0096      4.1843    
  4.5089      4.9899      5.6362      6.4524      7.4250      8.5097      9.6257      10.666      11.523      12.115    
  12.404      12.425      12.237      11.870      11.318      10.587      9.7164      8.7608      9.2926      8.1673    
  7.0954      6.1410      5.3393      4.7035      4.2350      3.9321      3.7931      3.8169      4.0045      4.3611    
  4.8975      5.6265      6.5517      7.6516      8.8657      10.093      11.211      12.086      12.619      12.843    
  12.864      12.762      12.526      12.074      11.345      10.383      10.954      9.7253      8.4492      7.2380    
  6.1697      5.2834      4.5902      4.0875      3.7694      3.6312      3.6712      3.8917      4.3015      4.9156    
  5.7479      6.7965      8.0248      9.3494      10.646      11.738      12.440      12.743      12.808      12.830    
  12.891      12.895      12.644      11.987      12.453      11.387      10.027      8.6126      7.2810      6.1219    
  5.1756      4.4493      3.9349      3.6220      3.5036      3.5779      3.8497      4.3320      5.0428      5.9937    
  7.1709      8.5150      9.9130      11.178      12.021      12.324      12.242      12.102      12.182      12.525    
  12.903      12.963      13.022      12.712      11.648      10.177      8.6462      7.2221      6.0017      5.0238    
  4.2896      3.7853      3.4968      3.4154      3.5405      3.8805      4.4524      5.2752      6.3534      7.6543    
  9.0878      10.489      11.508      11.849      11.550      10.984      10.659      10.906      11.677      12.560    
  11.962      12.869      12.774      11.725      10.167      8.5495      7.0668      5.8184      4.8380      4.1203    
  3.6465      3.3994      3.3704      3.5612      3.9842      4.6600      5.6054      6.8128      8.2229      9.7065    
  10.951      11.481      11.100      10.065      9.0038      8.5844      9.1430      10.480      9.1591      11.260    
  12.587      12.669      11.624      10.001      8.3319      6.8275      5.5846      4.6296      3.9507      3.5249    
  3.3339      3.3704      3.6396      4.1583      4.9488      6.0228      7.3543      8.8513      10.304      11.190    
  11.027      9.7856      7.9894      6.5143      6.1488      7.1652      5.3231      7.9829      10.629      12.266    
  12.440      11.365      9.6961      8.0111      6.5214      5.3152      4.4103      3.7889      3.4256      3.3027    
  3.4155      3.7734      4.3973      5.3096      6.5127      7.9573      9.5122      10.803      11.164      10.190    
  8.0687      5.6029      3.8819      3.7421      1.7902      3.9651      7.1939      10.211      11.980      12.122    
  10.972      9.2763      7.6104      6.1683      5.0258      4.1912      3.6420      3.3523      3.3065      3.5037    
  3.9578      4.6928      5.7292      7.0565      8.5983      10.161      11.169      10.915      9.1266      6.2357    
  3.3001      1.5515      4.8955      5.3427      7.1939      9.6513      11.683      12.537      12.053      10.646    
  8.9710      7.3953      6.0559      5.0054      4.2425      3.7444      3.4891      3.4645      3.6713      4.1223    
  4.8396      5.8410      7.1163      8.5952      10.115      11.219      11.302      10.130      8.0698      5.9973    
  5.0821      4.1158      4.8424      6.9480      9.5049      11.455      12.121      11.465      9.9937      8.3591    
  6.8627      5.6214      4.6733      4.0096      3.6064      3.4434      3.5120      3.8169      4.3751      5.2101    
  6.3364      7.7304      9.2979      10.813      11.690      11.352      9.6994      7.2745      6.9480      4.8424    
  4.1159      5.0821      7.2745      9.6995      11.352      11.690      10.813      9.2978      7.7304      6.3365    
  5.2101      4.3751      3.8169      3.5120      3.4434      3.6064      4.0096      4.6733      5.6214      6.8627    
  8.3591      9.9937      11.465      12.121      11.455      9.5049      9.6512      7.1939      5.3428      4.8955    
  5.9973      8.0699      10.130      11.302      11.219      10.115      8.5952      7.1163      5.8410      4.8396    