unknown system                          
   1.00000000000000     
    -2.450000    2.450000    1.274000
     2.450000   -2.450000    1.274000
     2.450000    2.450000   -1.274000
   Si
     2
Direct
  0.250000  0.750000  0.500000
  0.000000  0.000000  0.000000
 
   28   28   28
 -.55831825015E+01 -.40498694313E+01 -.53927129878E-01 0.48943521363E+01 0.91042953865E+01
 0.11442443711E+02 0.11706065293E+02 0.10505981694E+02 0.87954709858E+01 0.71739605423E+01
 0.58195480744E+01 0.47923119454E+01 0.40887438663E+01 0.36823825240E+01 0.35498331368E+01
 0.36823799100E+01 0.40887591054E+01 0.47923453174E+01 0.58195749669E+01 0.71739709306E+01
 0.87954777465E+01 0.10505989648E+02 0.11706063207E+02 0.11442430120E+02 0.91042820038E+01
 0.48943392550E+01 -.53948622489E-01 -.40498908632E+01 -.40498908632E+01 -.48413420398E+01
 -.26904358390E+01 0.15497613438E+01 0.62899314508E+01 0.99586294603E+01 0.11662882644E+02
 0.11434476252E+02 0.10009814609E+02 0.83014617877E+01 0.67486091241E+01 0.54861266811E+01
 0.45529207686E+01 0.39362607880E+01 0.36087205348E+01 0.35498456121E+01 0.37548670710E+01
 0.42360812567E+01 0.50186101477E+01 0.61261065056E+01 0.75513262878E+01 0.92138748331E+01
 0.10886623524E+02 0.11855796086E+02 0.11206010931E+02 0.84871084266E+01 0.41144604673E+01
 -.62540972094E+00 -.53948622489E-01 -.26904485966E+01 -.27515634685E+01 -.22182879800E+00
 0.38808181800E+01 0.80148680188E+01 0.10839453421E+02 0.11755406033E+02 0.11016096616E+02
 0.94266565388E+01 0.77607525252E+01 0.63005573905E+01 0.51451904728E+01 0.43138066155E+01
 0.37868558620E+01 0.35377773789E+01 0.35498734492E+01 0.38222442168E+01 0.43699606377E+01
 0.52184833925E+01 0.63870976388E+01 0.78573889400E+01 0.95318188155E+01 0.11140275542E+02
 0.11922705661E+02 0.11057003392E+02 0.82623688202E+01 0.41144604673E+01 0.48943392550E+01
 0.15497522136E+01 -.22182760092E+00 0.31125246967E+00 0.29151822566E+01 0.65141277244E+01
 0.97325900875E+01 0.11537681389E+02 0.11635492980E+02 0.10456125048E+02 0.87964378281E+01
 0.72039989706E+01 0.58549536871E+01 0.48152310477E+01 0.40874697710E+01 0.36481489569E+01
 0.34731610538E+01 0.35499167361E+01 0.38808796104E+01 0.44827951396E+01 0.53799927769E+01
 0.65862668759E+01 0.80728996209E+01 0.97304221344E+01 0.11266070497E+02 0.11940602493E+02
 0.11057003392E+02 0.84871084266E+01 0.91042820038E+01 0.62899242545E+01 0.38808240462E+01
 0.29151975030E+01 0.38211624401E+01 0.61923948311E+01 0.90044923205E+01 0.11137866571E+02
 0.11900309978E+02 0.11273562965E+02 0.97968546057E+01 0.81543224081E+01 0.66611021926E+01
 0.54348020794E+01 0.45124915447E+01 0.38846501113E+01 0.35266405579E+01 0.34179535824E+01
 0.35499744795E+01 0.39276742477E+01 0.45681967502E+01 0.54933898346E+01 0.67110445479E+01
 0.81841897925E+01 0.97979473100E+01 0.11266070497E+02 0.11922705661E+02 0.11206010931E+02
 0.11442430120E+02 0.99586194061E+01 0.80148663867E+01 0.65141461247E+01 0.61924195132E+01
 0.72210884747E+01 0.91126049850E+01 0.10985820086E+02 0.12025649659E+02 0.11867179990E+02
 0.10705823534E+02 0.91078665418E+01 0.75342443771E+01 0.61590597865E+01 0.50595323820E+01
 0.42501165572E+01 0.37138480853E+01 0.34274461232E+01 0.33745761587E+01 0.35500352590E+01
 0.39602229421E+01 0.46213918768E+01 0.55518418737E+01 0.67535332506E+01 0.81841897925E+01
 0.97304221344E+01 0.11140275542E+02 0.11855796086E+02 0.11706063207E+02 0.11662880665E+02
 0.10839446929E+02 0.97325929710E+01 0.90045170533E+01 0.91126315299E+01 0.10042536252E+02
 0.11312291416E+02 0.12243706909E+02 0.12329738833E+02 0.11480864607E+02 0.10025790839E+02
 0.84410258135E+01 0.69676875171E+01 0.57205118974E+01 0.47442980518E+01 0.40378747872E+01
 0.35812327766E+01 0.33542525734E+01 0.33447568369E+01 0.35500806145E+01 0.39769019965E+01
 0.46394513944E+01 0.55518418737E+01 0.67110445479E+01 0.80728996209E+01 0.95318188155E+01
 0.10886623524E+02 0.10505989648E+02 0.11434489313E+02 0.11755414253E+02 0.11537679410E+02
 0.11137872498E+02 0.10985843432E+02 0.11312312006E+02 0.11994780266E+02 0.12623683718E+02
 0.12745019186E+02 0.12123696428E+02 0.10869011435E+02 0.93452578446E+01 0.78348370323E+01
 0.64818599439E+01 0.53631073153E+01 0.44999787981E+01 0.38823897354E+01 0.34908764208E+01
 0.33094578292E+01 0.33295857079E+01 0.35500975341E+01 0.39769019965E+01 0.46213918768E+01
 0.54933898346E+01 0.65862668759E+01 0.78573889400E+01 0.92138748331E+01 0.87954777465E+01
 0.10009827172E+02 0.11016119780E+02 0.11635508455E+02 0.11900313174E+02 0.12025656806E+02
 0.12243722349E+02 0.12623693181E+02 0.13003778902E+02 0.13084614538E+02 0.12621438937E+02
 0.11587614438E+02 0.10202444240E+02 0.87272978083E+01 0.73240932538E+01 0.60986550457E+01
 0.50995936076E+01 0.43337049527E+01 0.37877052750E+01 0.34451594308E+01 0.32943853303E+01
 0.33295857079E+01 0.35500806145E+01 0.39602229421E+01 0.45681967502E+01 0.53799927769E+01
 0.63870976388E+01 0.75513262878E+01 0.71739709306E+01 0.83014621196E+01 0.94266707758E+01
 0.10456151070E+02 0.11273581592E+02 0.11867188095E+02 0.12329745727E+02 0.12745023753E+02
 0.13084612002E+02 0.13196736266E+02 0.12899924287E+02 0.12116656057E+02 0.10951290246E+02
 0.95984636982E+01 0.82181464263E+01 0.69376505543E+01 0.58343137220E+01 0.49383634905E+01
 0.42496288678E+01 0.37559292580E+01 0.34451594308E+01 0.33094578292E+01 0.33447568369E+01
 0.35500352590E+01 0.39276742477E+01 0.44827951396E+01 0.52184833925E+01 0.61261065056E+01
 0.58195749669E+01 0.67486114733E+01 0.77607498473E+01 0.87964496449E+01 0.97968761843E+01
 0.10705841419E+02 0.11480876566E+02 0.12123702438E+02 0.12621433734E+02 0.12899912792E+02
 0.12843106154E+02 0.12370331237E+02 0.11512137941E+02 0.10382526410E+02 0.91186411004E+01
 0.78559915037E+01 0.66969696654E+01 0.56995050162E+01 0.48841170645E+01 0.42496288678E+01
 0.37877052750E+01 0.34908764208E+01 0.33542525734E+01 0.33745761587E+01 0.35499744795E+01
 0.38808796104E+01 0.43699606377E+01 0.50186101477E+01 0.47923453174E+01 0.54861441122E+01
 0.63005560462E+01 0.72039952193E+01 0.81543286015E+01 0.91078795134E+01 0.10025805418E+02
 0.10869025197E+02 0.11587619191E+02 0.12116644896E+02 0.12370315807E+02 0.12272321097E+02
 0.11800565999E+02 0.10996837627E+02 0.99587848587E+01 0.88105115359E+01 0.76679039510E+01
 0.66152570120E+01 0.56995050162E+01 0.49383634905E+01 0.43337049527E+01 0.38823897354E+01
 0.35812327766E+01 0.34274461232E+01 0.34179535824E+01 0.35499167361E+01 0.38222442168E+01
 0.42360812567E+01 0.40887591054E+01 0.45529365127E+01 0.51451967351E+01 0.58549502175E+01
 0.66610979746E+01 0.75342443457E+01 0.84410298947E+01 0.93452674595E+01 0.10202456565E+02
 0.10951293233E+02 0.11512125426E+02 0.11800551386E+02 0.11753895768E+02 0.11357238366E+02
 0.10653736452E+02 0.97330383439E+01 0.87043425584E+01 0.76679039510E+01 0.66969696654E+01
 0.58343137220E+01 0.50995936076E+01 0.44999787981E+01 0.40378747872E+01 0.37138480853E+01
 0.35266405579E+01 0.34731610538E+01 0.35498734492E+01 0.37548670710E+01 0.36823799100E+01
 0.39362550946E+01 0.43138011699E+01 0.48152248959E+01 0.54347958419E+01 0.61590543611E+01
 0.69676824822E+01 0.78348340221E+01 0.87273013346E+01 0.95984714890E+01 0.10382527659E+02
 0.10996827373E+02 0.11357227195E+02 0.11402440517E+02 0.11115919518E+02 0.10533557263E+02
 0.97330383439E+01 0.88105115359E+01 0.78559915037E+01 0.69376505543E+01 0.60986550457E+01
 0.53631073153E+01 0.47442980518E+01 0.42501165572E+01 0.38846501113E+01 0.36481489569E+01
 0.35377773789E+01 0.35498456121E+01 0.35498331368E+01 0.36087037469E+01 0.37868300097E+01
 0.40874443356E+01 0.45124724455E+01 0.50595197941E+01 0.57205029152E+01 0.64818515151E+01
 0.73240860072E+01 0.82181441133E+01 0.91186435813E+01 0.99587851998E+01 0.10653729623E+02
 0.11115911227E+02 0.11278365538E+02 0.11115919518E+02 0.10653736452E+02 0.99587848587E+01
 0.91186411004E+01 0.82181464263E+01 0.73240932538E+01 0.64818599439E+01 0.57205118974E+01
 0.50595323820E+01 0.45124915447E+01 0.40874697710E+01 0.37868558620E+01 0.36087205348E+01
 0.36823825240E+01 0.35498355557E+01 0.35377490576E+01 0.36481085846E+01 0.38846095032E+01
 0.42500830165E+01 0.47442738854E+01 0.53630921325E+01 0.60986455707E+01 0.69376424953E+01
 0.78559854798E+01 0.88105103288E+01 0.97330386109E+01 0.10533552045E+02 0.11115911227E+02
 0.11402440517E+02 0.11357238366E+02 0.10996837627E+02 0.10382526410E+02 0.95984636982E+01
 0.87272978083E+01 0.78348370323E+01 0.69676875171E+01 0.61590597865E+01 0.54348020794E+01
 0.48152310477E+01 0.43138066155E+01 0.39362607880E+01 0.40887438663E+01 0.37548548453E+01
 0.35498537026E+01 0.34731258010E+01 0.35265939517E+01 0.37137976871E+01 0.40378263279E+01
 0.44999401240E+01 0.50995722542E+01 0.58343057675E+01 0.66969632331E+01 0.76678965605E+01
 0.87043401284E+01 0.97330386109E+01 0.10653729623E+02 0.11357227195E+02 0.11753895768E+02
 0.11800565999E+02 0.11512137941E+02 0.10951290246E+02 0.10202444240E+02 0.93452578446E+01
 0.84410258135E+01 0.75342443771E+01 0.66611021926E+01 0.58549536871E+01 0.51451904728E+01
 0.45529207686E+01 0.47923119454E+01 0.42360490631E+01 0.38222186979E+01 0.35498878105E+01
 0.34179150700E+01 0.34273999061E+01 0.35811782016E+01 0.38823290767E+01 0.43336541764E+01
 0.49383385259E+01 0.56994992062E+01 0.66152517070E+01 0.76678965605E+01 0.88105103288E+01
 0.99587851998E+01 0.10996827373E+02 0.11800551386E+02 0.12272321097E+02 0.12370331237E+02
 0.12116656057E+02 0.11587614438E+02 0.10869011435E+02 0.10025790839E+02 0.91078665418E+01
 0.81543224081E+01 0.72039989706E+01 0.63005573905E+01 0.54861266811E+01 0.58195480744E+01
 0.50185656165E+01 0.43699179984E+01 0.38808421708E+01 0.35499355342E+01 0.33745366819E+01
 0.33542116023E+01 0.34908223889E+01 0.37876377091E+01 0.42495718259E+01 0.48840911000E+01
 0.56994992062E+01 0.66969632331E+01 0.78559854798E+01 0.91186435813E+01 0.10382527659E+02
 0.11512125426E+02 0.12370315807E+02 0.12843106154E+02 0.12899924287E+02 0.12621438937E+02
 0.12123696428E+02 0.11480864607E+02 0.10705823534E+02 0.97968546057E+01 0.87964378281E+01
 0.77607525252E+01 0.67486091241E+01 0.71739605423E+01 0.61260701986E+01 0.52184336386E+01
 0.44827472541E+01 0.39276263750E+01 0.35499877812E+01 0.33447189875E+01 0.33094236605E+01
 0.34451075093E+01 0.37558596920E+01 0.42495718259E+01 0.49383385259E+01 0.58343057675E+01
 0.69376424953E+01 0.82181441133E+01 0.95984714890E+01 0.10951293233E+02 0.12116644896E+02
 0.12899912792E+02 0.13196736266E+02 0.13084614538E+02 0.12745019186E+02 0.12329738833E+02
 0.11867179990E+02 0.11273562965E+02 0.10456125048E+02 0.94266565388E+01 0.83014617877E+01
 0.87954709858E+01 0.75513021773E+01 0.63870519789E+01 0.53799429286E+01 0.45681481680E+01
 0.39601685196E+01 0.35500284845E+01 0.33295502234E+01 0.32943543638E+01 0.34451075093E+01
 0.37876377091E+01 0.43336541764E+01 0.50995722542E+01 0.60986455707E+01 0.73240860072E+01
 0.87273013346E+01 0.10202456565E+02 0.11587619191E+02 0.12621433734E+02 0.13084612002E+02
 0.13003778902E+02 0.12623683718E+02 0.12243706909E+02 0.12025649659E+02 0.11900309978E+02
 0.11635492980E+02 0.11016096616E+02 0.10009814609E+02 0.10505981694E+02 0.92138583141E+01
 0.78573481360E+01 0.65862140188E+01 0.54933434525E+01 0.46213455043E+01 0.39768451768E+01
 0.35500441751E+01 0.33295502234E+01 0.33094236605E+01 0.34908223889E+01 0.38823290767E+01
 0.44999401240E+01 0.53630921325E+01 0.64818515151E+01 0.78348340221E+01 0.93452674595E+01
 0.10869025197E+02 0.12123702438E+02 0.12745023753E+02 0.12623693181E+02 0.11994780266E+02
 0.11312291416E+02 0.10985820086E+02 0.11137866571E+02 0.11537681389E+02 0.11755406033E+02
 0.11434476252E+02 0.11706065293E+02 0.10886622170E+02 0.95317925872E+01 0.80728449314E+01
 0.67109882384E+01 0.55517990896E+01 0.46394064899E+01 0.39768451768E+01 0.35500284845E+01
 0.33447189875E+01 0.33542116023E+01 0.35811782016E+01 0.40378263279E+01 0.47442738854E+01
 0.57205029152E+01 0.69676824822E+01 0.84410298947E+01 0.10025805418E+02 0.11480876566E+02
 0.12329745727E+02 0.12243722349E+02 0.11312312006E+02 0.10042536252E+02 0.91126049850E+01
 0.90044923205E+01 0.97325900875E+01 0.10839453421E+02 0.11662882644E+02 0.11442443711E+02
 0.11855815095E+02 0.11140281582E+02 0.97303896613E+01 0.81841278361E+01 0.67534761725E+01
 0.55517990896E+01 0.46213455043E+01 0.39601685196E+01 0.35499877812E+01 0.33745366819E+01
 0.34273999061E+01 0.37137976871E+01 0.42500830165E+01 0.50595197941E+01 0.61590543611E+01
 0.75342443457E+01 0.91078795134E+01 0.10705841419E+02 0.11867188095E+02 0.12025656806E+02
 0.10985843432E+02 0.91126315299E+01 0.72210884747E+01 0.61923948311E+01 0.65141277244E+01
 0.80148680188E+01 0.99586294603E+01 0.91042953865E+01 0.11206035650E+02 0.11922738720E+02
 0.11266081842E+02 0.97979128603E+01 0.81841278361E+01 0.67109882384E+01 0.54933434525E+01
 0.45681481680E+01 0.39276263750E+01 0.35499355342E+01 0.34179150700E+01 0.35265939517E+01
 0.38846095032E+01 0.45124724455E+01 0.54347958419E+01 0.66610979746E+01 0.81543286015E+01
 0.97968761843E+01 0.11273581592E+02 0.11900313174E+02 0.11137872498E+02 0.90045170533E+01
 0.61924195132E+01 0.38211624401E+01 0.29151822566E+01 0.38808181800E+01 0.62899314508E+01
 0.48943521363E+01 0.84871248451E+01 0.11057035302E+02 0.11940641142E+02 0.11266081842E+02
 0.97303896613E+01 0.80728449314E+01 0.65862140188E+01 0.53799429286E+01 0.44827472541E+01
 0.38808421708E+01 0.35498878105E+01 0.34731258010E+01 0.36481085846E+01 0.40874443356E+01
 0.48152248959E+01 0.58549502175E+01 0.72039952193E+01 0.87964496449E+01 0.10456151070E+02
 0.11635508455E+02 0.11537679410E+02 0.97325929710E+01 0.65141461247E+01 0.29151975030E+01
 0.31125246967E+00 -.22182879800E+00 0.15497613438E+01 -.53927129878E-01 0.41144772163E+01
 0.82623865632E+01 0.11057035302E+02 0.11922738720E+02 0.11140281582E+02 0.95317925872E+01
 0.78573481360E+01 0.63870519789E+01 0.52184336386E+01 0.43699179984E+01 0.38222186979E+01
 0.35498537026E+01 0.35377490576E+01 0.37868300097E+01 0.43138011699E+01 0.51451967351E+01
 0.63005560462E+01 0.77607498473E+01 0.94266707758E+01 0.11016119780E+02 0.11755414253E+02
 0.10839446929E+02 0.80148663867E+01 0.38808240462E+01 -.22182760092E+00 -.27515634685E+01
 -.26904358390E+01 -.40498694313E+01 -.62538340432E+00 0.41144772163E+01 0.84871248451E+01
 0.11206035650E+02 0.11855815095E+02 0.10886622170E+02 0.92138583141E+01 0.75513021773E+01
 0.61260701986E+01 0.50185656165E+01 0.42360490631E+01 0.37548548453E+01 0.35498355557E+01
 0.36087037469E+01 0.39362550946E+01 0.45529365127E+01 0.54861441122E+01 0.67486114733E+01
 0.83014621196E+01 0.10009827172E+02 0.11434489313E+02 0.11662880665E+02 0.99586194061E+01
 0.62899242545E+01 0.15497522136E+01 -.26904485966E+01 -.48413420398E+01 -.40498002391E+01
 -.29387592464E+01 0.55438086406E+00 0.50809636667E+01 0.90395828574E+01 0.11293224289E+02
 0.11571983372E+02 0.10407634084E+02 0.87073667191E+01 0.70804766942E+01 0.57109910354E+01
 0.46625022538E+01 0.39335385029E+01 0.34975227587E+01 0.33294583629E+01 0.34184400498E+01
 0.37710516842E+01 0.44093425879E+01 0.53610720001E+01 0.66368505459E+01 0.81928765224E+01
 0.98868570882E+01 0.11246660919E+02 0.11373894441E+02 0.96042323234E+01 0.59964320262E+01
 0.14997703742E+01 -.23399581511E+01 -.29387756094E+01 -.40498227575E+01 -.23399840869E+01
 0.14997439297E+01 0.59964258125E+01 0.96042622065E+01 0.11373939411E+02 0.11246687272E+02
 0.98868575967E+01 0.81928628535E+01 0.66368210287E+01 0.53610225299E+01 0.44092958213E+01
 0.37710364745E+01 0.34184535247E+01 0.33294805669E+01 0.34975573796E+01 0.39336039311E+01
 0.46625887074E+01 0.57110645635E+01 0.70805211842E+01 0.87073884447E+01 0.10407633287E+02
 0.11571957093E+02 0.11293190576E+02 0.90395681187E+01 0.50809670865E+01 0.55437870191E+00
 0.65478169195E+00 -.22329616133E+01 -.26904073975E+01 -.55252350015E+00 0.32987458416E+01
 0.73802205205E+01 0.10315223342E+02 0.11409238376E+02 0.10818740582E+02 0.92963227037E+01
 0.76444383523E+01 0.61813039693E+01 0.50141757854E+01 0.41675983095E+01 0.36237961626E+01
 0.33555474880E+01 0.33446942884E+01 0.35891520681E+01 0.41035603016E+01 0.49144757846E+01
 0.60454965693E+01 0.74878576221E+01 0.91597942388E+01 0.10834376869E+02 0.11818555546E+02
 0.11262292097E+02 0.87878600172E+01 0.48412215723E+01 0.53417428038E+01 0.17884620933E+01
 -.35185649299E+00 -.22180947935E+00 0.20905487936E+01 0.56023338952E+01 0.89362017169E+01
 0.10974429120E+02 0.11308232054E+02 0.10281541097E+02 0.86716616614E+01 0.70903711878E+01
 0.57374173448E+01 0.46877810975E+01 0.39490286924E+01 0.34987169447E+01 0.33118067840E+01
 0.33745711208E+01 0.36890382634E+01 0.42725287426E+01 0.51516333602E+01 0.63454708175E+01
 0.78349141803E+01 0.95235503004E+01 0.11152608293E+02 0.12010490842E+02 0.11347417324E+02
 0.89367473376E+01 0.94688942943E+01 0.64867729175E+01 0.37409928566E+01 0.23610272428E+01
 0.29152010481E+01 0.51187447406E+01 0.79895873502E+01 0.10354686541E+02 0.11407544422E+02
 0.11016231658E+02 0.96579732718E+01 0.80449230813E+01 0.65575470301E+01 0.53263403923E+01
 0.43968764121E+01 0.37633741968E+01 0.34014065512E+01 0.32893780614E+01 0.34180133156E+01
 0.37926530806E+01 0.44319477525E+01 0.53609083794E+01 0.65930604950E+01 0.80998857002E+01
 0.97754293290E+01 0.11351342955E+02 0.12156208641E+02 0.11561903906E+02 0.11859701319E+02
 0.10265654693E+02 0.80443945119E+01 0.61484760220E+01 0.54297283846E+01 0.61924171901E+01
 0.80335343469E+01 0.10066377046E+02 0.11387442795E+02 0.11510120095E+02 0.10534958776E+02
 0.90018218309E+01 0.74449057840E+01 0.60701488009E+01 0.49659404472E+01 0.41535625807E+01
 0.36181938162E+01 0.33359299057E+01 0.32893853487E+01 0.34732803980E+01 0.38951356420E+01
 0.45734275309E+01 0.55301024619E+01 0.67725416876E+01 0.82647897788E+01 0.98973675383E+01
 0.11418511691E+02 0.12240585724E+02 0.12227848464E+02 0.12148425740E+02 0.11139161533E+02
 0.97051879639E+01 0.85848782866E+01 0.83556949007E+01 0.91126295871E+01 0.10417843794E+02
 0.11551013019E+02 0.11902053329E+02 0.11272076867E+02 0.99250653273E+01 0.83665151653E+01
 0.68987965584E+01 0.56486884217E+01 0.46702271042E+01 0.39667320945E+01 0.35186732706E+01
 0.33046960588E+01 0.33118264842E+01 0.35379389222E+01 0.39914209677E+01 0.46891133200E+01
 0.56487382720E+01 0.68716518120E+01 0.83171719378E+01 0.98784487516E+01 0.11340767922E+02
 0.11108214069E+02 0.12074498433E+02 0.12317761814E+02 0.11883148912E+02 0.11158615150E+02
 0.10660193922E+02 0.10726302205E+02 0.11312313079E+02 0.12017526872E+02 0.12325412016E+02
 0.11902523817E+02 0.10774984165E+02 0.92874837612E+01 0.77857509915E+01 0.64309117220E+01
 0.53094891557E+01 0.44492760281E+01 0.38421595912E+01 0.34677252560E+01 0.33084966166E+01
 0.33555740576E+01 0.36088962423E+01 0.40764148822E+01 0.47721221124E+01 0.57088745041E+01
 0.68828176027E+01 0.82516756578E+01 0.97167371006E+01 0.94204438005E+01 0.10722200771E+02
 0.11747630826E+02 0.12274117194E+02 0.12327512449E+02 0.12165898600E+02 0.12103387198E+02
 0.12294437190E+02 0.12623695435E+02 0.12776432603E+02 0.12441717467E+02 0.11513772884E+02
 0.10164912024E+02 0.86964387482E+01 0.72908529411E+01 0.60617347831E+01 0.50646314113E+01
 0.43095552627E+01 0.37828922559E+01 0.34662839516E+01 0.33466749606E+01 0.34184786628E+01
 0.36825367490E+01 0.41452777478E+01 0.48170763416E+01 0.57059363801E+01 0.68042094643E+01
 0.80711707906E+01 0.77870413674E+01 0.90078886673E+01 0.10202750027E+02 0.11242049587E+02
 0.11970663628E+02 0.12381101551E+02 0.12610223847E+02 0.12809888623E+02 0.13011520699E+02
 0.13084608782E+02 0.12821212627E+02 0.12087641381E+02 0.10937872081E+02 0.95821546223E+01
 0.81957173432E+01 0.69097660101E+01 0.58073550879E+01 0.49222661665E+01 0.42545122656E+01
 0.37897954812E+01 0.35136716587E+01 0.34173450393E+01 0.34975323993E+01 0.37549527572E+01
 0.41938107416E+01 0.48206897917E+01 0.56394184363E+01 0.66403574406E+01 0.64020457874E+01
 0.74183467983E+01 0.85059755891E+01 0.95891234937E+01 0.10589964630E+02 0.11423690002E+02
 0.12051488149E+02 0.12512781596E+02 0.12844849840E+02 0.13010721281E+02 0.12899904319E+02
 0.12405959727E+02 0.11524376912E+02 0.10374370366E+02 0.90958717979E+01 0.78242891116E+01
 0.66652047436E+01 0.56792545638E+01 0.48870945094E+01 0.42852095076E+01 0.38620484042E+01
 0.36079032144E+01 0.35175739306E+01 0.35890599957E+01 0.38222385084E+01 0.42188962613E+01
 0.47822788272E+01 0.55132501757E+01 0.53356314230E+01 0.61053493795E+01 0.69898562464E+01
 0.79473468068E+01 0.89224460966E+01 0.98588217600E+01 0.10710756191E+02 0.11437825353E+02
 0.12013636564E+02 0.12406240481E+02 0.12550731376E+02 0.12370307342E+02 0.11834888677E+02
 0.10987621747E+02 0.99212262697E+01 0.87575923649E+01 0.76131956978E+01 0.65733195680E+01
 0.56842306670E+01 0.49607837685E+01 0.44007653055E+01 0.39974280858E+01 0.37458225318E+01
 0.36434830990E+01 0.36888891210E+01 0.38807832073E+01 0.42188718482E+01 0.47040300617E+01
 0.45909083869E+01 0.51182705370E+01 0.57699099615E+01 0.65292899909E+01 0.73668124470E+01
 0.82431187064E+01 0.91165355039E+01 0.99484405713E+01 0.10700632486E+02 0.11325924981E+02
 0.11761831187E+02 0.11938271735E+02 0.11800547716E+02 0.11335764445E+02 0.10586070626E+02
 0.96398241335E+01 0.86055683915E+01 0.75827961462E+01 0.66427164009E+01 0.58242866473E+01
 0.51421216753E+01 0.45984546251E+01 0.41922813271E+01 0.39230267515E+01 0.37902374022E+01
 0.37924697861E+01 0.39275063017E+01 0.41937407564E+01 0.41451719950E+01 0.44501737198E+01
 0.48751240031E+01 0.54167677279E+01 0.60643567360E+01 0.67978563342E+01 0.75898985044E+01
 0.84095214733E+01 0.92231590684E+01 0.99901005879E+01 0.10655646549E+02 0.11150327768E+02
 0.11401797019E+02 0.11357226435E+02 0.11005061725E+02 0.10383522528E+02 0.95706015160E+01
 0.86608856497E+01 0.77409265680E+01 0.68737568587E+01 0.60963927204E+01 0.54268169062E+01
 0.48733928793E+01 0.44411502700E+01 0.41335696001E+01 0.39519265904E+01 0.38949476717E+01
 0.39600137066E+01 0.39766836569E+01 0.40762881817E+01 0.42905902917E+01 0.46208928733E+01
 0.50662233566E+01 0.56202219138E+01 0.62699353557E+01 0.69969431795E+01 0.77786841556E+01
 0.85866648136E+01 0.93806712981E+01 0.10103096383E+02 0.10680557364E+02 0.11037130613E+02
 0.11115909698E+02 0.10898859585E+02 0.10414453865E+02 0.97288584254E+01 0.89252924685E+01
 0.80819474762E+01 0.72581315136E+01 0.64920902196E+01 0.58069159098E+01 0.52178256691E+01
 0.47361313904E+01 0.43695588524E+01 0.41214536005E+01 0.39912557394E+01 0.40762933805E+01
 0.39767031798E+01 0.39912878795E+01 0.41215014979E+01 0.43696125621E+01 0.47361748850E+01
 0.52178584211E+01 0.58069444803E+01 0.64921081999E+01 0.72581302737E+01 0.80819390991E+01
 0.89252969097E+01 0.97288727620E+01 0.10414459919E+02 0.10898855653E+02 0.11115908443E+02
 0.11037130710E+02 0.10680546255E+02 0.10103078923E+02 0.93806663596E+01 0.85866735857E+01
 0.77786872609E+01 0.69969302333E+01 0.62699130159E+01 0.56201942183E+01 0.50661877166E+01
 0.46208578324E+01 0.42905732641E+01 0.44501915050E+01 0.41452128866E+01 0.39600658237E+01
 0.38950080547E+01 0.39519927730E+01 0.41336257406E+01 0.44411842071E+01 0.48734149802E+01
 0.54268408942E+01 0.60964110262E+01 0.68737577884E+01 0.77409201047E+01 0.86608883971E+01
 0.95706077469E+01 0.10383517438E+02 0.11005050535E+02 0.11357223676E+02 0.11401797564E+02
 0.11150316136E+02 0.10655627141E+02 0.99900911645E+01 0.92231609437E+01 0.84095211089E+01
 0.75898920855E+01 0.67978494956E+01 0.60643478478E+01 0.54167537879E+01 0.48751175382E+01
 0.51182953400E+01 0.45909570969E+01 0.41938055777E+01 0.39275749669E+01 0.37925406720E+01
 0.37903040716E+01 0.39230691286E+01 0.41922919431E+01 0.45984556622E+01 0.51421328158E+01
 0.58242988518E+01 0.66427157761E+01 0.75827904444E+01 0.86055688681E+01 0.96398212378E+01
 0.10586053731E+02 0.11335745917E+02 0.11800542166E+02 0.11938268842E+02 0.11761813234E+02
 0.11325896183E+02 0.10700609041E+02 0.99484252563E+01 0.91165244079E+01 0.82431175686E+01
 0.73668252553E+01 0.65293066308E+01 0.57699239385E+01 0.61053887044E+01 0.53356828073E+01
 0.47040978134E+01 0.42189416084E+01 0.38808461871E+01 0.36889501439E+01 0.36435346838E+01
 0.37458413997E+01 0.39974119643E+01 0.44007444566E+01 0.49607790765E+01 0.56842314553E+01
 0.65733138751E+01 0.76131915364E+01 0.87575941624E+01 0.99212182876E+01 0.10987595541E+02
 0.11834860205E+02 0.12370288796E+02 0.12550709086E+02 0.12406200859E+02 0.12013587668E+02
 0.11437780649E+02 0.10710718291E+02 0.98587963472E+01 0.89224477779E+01 0.79473765522E+01
 0.69898954800E+01 0.74183977184E+01 0.64021001849E+01 0.55133156243E+01 0.47823481335E+01
 0.42189504723E+01 0.38222771484E+01 0.35890970518E+01 0.35176019362E+01 0.36078975190E+01
 0.38620108660E+01 0.42851724483E+01 0.48870750636E+01 0.56792423732E+01 0.66651947120E+01
 0.78242903397E+01 0.90958789165E+01 0.10374359034E+02 0.11524339327E+02 0.12405911971E+02
 0.12899856318E+02 0.13010663521E+02 0.12844779189E+02 0.12512711294E+02 0.12051425054E+02
 0.11423633146E+02 0.10589926980E+02 0.95891255062E+01 0.85060140427E+01 0.90079251822E+01
 0.77870892362E+01 0.66404114339E+01 0.56394809704E+01 0.48207433261E+01 0.41938353207E+01
 0.37549588603E+01 0.34975409908E+01 0.34173473255E+01 0.35136436643E+01 0.37897435302E+01
 0.42544659591E+01 0.49222364916E+01 0.58073342612E+01 0.69097566884E+01 0.81957259099E+01
 0.95821630103E+01 0.10937850128E+02 0.12087584325E+02 0.12821138679E+02 0.13084524367E+02
 0.13011425150E+02 0.12809793938E+02 0.12610143808E+02 0.12381031272E+02 0.11970596830E+02
 0.11242005104E+02 0.10202750254E+02 0.10722198862E+02 0.94204686461E+01 0.80712010853E+01
 0.68042462521E+01 0.57059793395E+01 0.48171014592E+01 0.41452687469E+01 0.36825122803E+01
 0.34184595152E+01 0.33466489404E+01 0.34662332051E+01 0.37828299760E+01 0.43095063327E+01
 0.50645993182E+01 0.60617137253E+01 0.72908482334E+01 0.86964483546E+01 0.10164907500E+02
 0.11513728533E+02 0.12441639370E+02 0.12776337949E+02 0.12623590550E+02 0.12294328380E+02
 0.12103293654E+02 0.12165828186E+02 0.12327447870E+02 0.12274051122E+02 0.11747587041E+02
 0.12074463814E+02 0.11108211285E+02 0.97167443378E+01 0.82516783159E+01 0.68828251029E+01
 0.57088859455E+01 0.47721129916E+01 0.40763751971E+01 0.36088465703E+01 0.33555269242E+01
 0.33084383836E+01 0.34676507765E+01 0.38420908981E+01 0.44492310005E+01 0.53094627662E+01
 0.64308966289E+01 0.77857490881E+01 0.92874816443E+01 0.10774952811E+02 0.11902454871E+02
 0.12325325271E+02 0.12017438829E+02 0.11312220868E+02 0.10726212389E+02 0.10660126034E+02
 0.11158567317E+02 0.11883097804E+02 0.12317705472E+02 0.12148385525E+02 0.12227829157E+02
 0.11340765975E+02 0.98784371316E+01 0.83171448037E+01 0.68716252516E+01 0.56487121185E+01
 0.46890681582E+01 0.39913549366E+01 0.35378679354E+01 0.33117514982E+01 0.33046062760E+01
 0.35185800842E+01 0.39666631717E+01 0.46701910900E+01 0.56486713284E+01 0.68987886941E+01
 0.83665108817E+01 0.99250427057E+01 0.11272017047E+02 0.11901971725E+02 0.11550942927E+02
 0.10417790374E+02 0.91125783006E+01 0.83556490458E+01 0.85848502766E+01 0.97051667578E+01
 0.11139126223E+02 0.10265634357E+02 0.11859679995E+02 0.12240583764E+02 0.11418511315E+02
 0.98973405459E+01 0.82647378849E+01 0.67724832678E+01 0.55300381804E+01 0.45733487772E+01
 0.38950491001E+01 0.34731939111E+01 0.32892889005E+01 0.33358196492E+01 0.36180947891E+01
 0.41535019791E+01 0.49659156792E+01 0.60701406566E+01 0.74449040057E+01 0.90018125303E+01
 0.10534916800E+02 0.11510042504E+02 0.11387368789E+02 0.10066341942E+02 0.80335301771E+01
 0.61924201304E+01 0.54297351244E+01 0.61484888256E+01 0.80443961593E+01 0.64867875000E+01
 0.94688855840E+01 0.11561900729E+02 0.12156221272E+02 0.11351343619E+02 0.97753931073E+01
 0.80998189637E+01 0.65929781709E+01 0.53608129716E+01 0.44318446569E+01 0.37925563984E+01
 0.34179215634E+01 0.32892744101E+01 0.34012956764E+01 0.37632881245E+01 0.43968341705E+01
 0.53263281303E+01 0.65575466453E+01 0.80449256576E+01 0.96579591332E+01 0.11016177074E+02
 0.11407464857E+02 0.10354633990E+02 0.79895910816E+01 0.51187856590E+01 0.29152495665E+01
 0.23610754433E+01 0.37410331029E+01 0.17885082350E+01 0.53417580492E+01 0.89367465936E+01
 0.11347428953E+02 0.12010512332E+02 0.11152608742E+02 0.95235125189E+01 0.78348451795E+01
 0.63453778810E+01 0.51515219884E+01 0.42724180281E+01 0.36889461424E+01 0.33744878487E+01
 0.33117150555E+01 0.34986298902E+01 0.39489765686E+01 0.46877668579E+01 0.57374192076E+01
 0.70903767421E+01 0.86716656446E+01 0.10281521804E+02 0.11308173412E+02 0.10974360577E+02
 0.89361753297E+01 0.56023666592E+01 0.20906130114E+01 -.22174055297E+00 -.35179220726E+00
 -.22329102629E+01 0.65481247684E+00 0.48412283402E+01 0.87878657206E+01 0.11262315197E+02
 0.11818580608E+02 0.10834377002E+02 0.91597624681E+01 0.74877978634E+01 0.60454075139E+01
 0.49143673260E+01 0.41034619380E+01 0.35890807638E+01 0.33446347460E+01 0.33554874527E+01
 0.36237550883E+01 0.41675947111E+01 0.50141944332E+01 0.61813199333E+01 0.76444476623E+01
 0.92963246299E+01 0.10818716435E+02 0.11409183679E+02 0.10315173425E+02 0.73802162134E+01
 0.32987867645E+01 -.55246584797E+00 -.26903492220E+01 -.53752317024E-01 0.65491224116E+00
 0.33520189438E+01 0.69472845934E+01 0.10081052122E+02 0.11759394636E+02 0.11734324043E+02
 0.10470278694E+02 0.87707909869E+01 0.71552313745E+01 0.57890368236E+01 0.47322780378E+01
 0.39836933006E+01 0.35176805447E+01 0.33094469508E+01 0.33467297014E+01 0.36330386596E+01
 0.41866727496E+01 0.50338739186E+01 0.61907025740E+01 0.76314160309E+01 0.92511337023E+01
 0.10756059716E+02 0.11413240451E+02 0.10552200837E+02 0.80694198812E+01 0.46349569465E+01
 0.14998768622E+01 0.55449595545E+00 -.62521553417E+00 0.55448767925E+00 0.35980534539E+01
 0.72739124240E+01 0.10226032290E+02 0.11588165834E+02 0.11280685005E+02 0.98868565899E+01
 0.82125299838E+01 0.66737729744E+01 0.54046781688E+01 0.44481411257E+01 0.37946646738E+01
 0.34174478175E+01 0.32943919500E+01 0.34174513814E+01 0.37946902752E+01 0.44481831156E+01
 0.54047056604E+01 0.66737732991E+01 0.82125169320E+01 0.98868334582E+01 0.11280638102E+02
 0.11588102457E+02 0.10225986466E+02 0.72739013284E+01 0.35980627619E+01 0.33520179762E+01
 0.65489952162E+00 -.53773208736E-01 0.14998517315E+01 0.46349450659E+01 0.80694510642E+01