   2   2   0   0
  0.1529437E+02  0.3691622E-09  0.3691622E-09  0.3691622E-09  0.5000000E-15
  1.000000000000000E-004
  CAR 
 unknown system                          
     23.07783822     -6.61450699  301      9.12854734      1.00000000
     -6.615  0.0000E+00  0.0000E+00
     -6.516  0.0000E+00  0.0000E+00
     -6.417  0.0000E+00  0.0000E+00
     -6.318  0.0000E+00  0.0000E+00
     -6.219  0.0000E+00  0.0000E+00
     -6.120  0.0000E+00  0.0000E+00
     -6.021  0.0000E+00  0.0000E+00
     -5.922  0.0000E+00  0.0000E+00
     -5.823  0.0000E+00  0.0000E+00
     -5.724  0.2191E-17  0.2169E-18
     -5.625  0.4672E-15  0.4646E-16
     -5.526  0.6043E-13  0.6028E-14
     -5.427  0.4867E-11  0.4877E-12
     -5.328  0.2453E-09  0.2477E-10
     -5.229  0.7796E-08  0.7964E-09
     -5.130  0.1579E-06  0.1643E-07
     -5.031  0.2070E-05  0.2213E-06
     -4.932  0.1791E-04  0.1994E-05
     -4.833  0.1050E-03  0.1239E-04
     -4.734  0.4301E-03  0.5495E-04
     -4.635  0.1270E-02  0.1806E-03
     -4.536  0.2787E-02  0.4565E-03
     -4.437  0.4757E-02  0.9273E-03
     -4.338  0.6805E-02  0.1601E-02
     -4.239  0.8735E-02  0.2465E-02
     -4.140  0.9922E-02  0.3447E-02
     -4.041  0.9860E-02  0.4423E-02
     -3.942  0.9992E-02  0.5412E-02
     -3.843  0.1213E-01  0.6613E-02
     -3.744  0.1529E-01  0.8127E-02
     -3.645  0.1688E-01  0.9798E-02
     -3.546  0.1621E-01  0.1140E-01
     -3.447  0.1490E-01  0.1288E-01
     -3.348  0.1446E-01  0.1431E-01
     -3.249  0.1513E-01  0.1580E-01
     -3.150  0.1683E-01  0.1747E-01
     -3.051  0.1938E-01  0.1939E-01
     -2.952  0.2134E-01  0.2150E-01
     -2.853  0.2117E-01  0.2360E-01
     -2.755  0.2023E-01  0.2560E-01
     -2.656  0.2047E-01  0.2762E-01
     -2.557  0.2074E-01  0.2968E-01
     -2.458  0.2049E-01  0.3170E-01
     -2.359  0.2210E-01  0.3389E-01
     -2.260  0.2589E-01  0.3645E-01
     -2.161  0.2818E-01  0.3924E-01
     -2.062  0.2627E-01  0.4184E-01
     -1.963  0.2246E-01  0.4407E-01
     -1.864  0.2041E-01  0.4609E-01
     -1.765  0.2031E-01  0.4810E-01
     -1.666  0.2124E-01  0.5020E-01
     -1.567  0.2441E-01  0.5262E-01
     -1.468  0.2981E-01  0.5557E-01
     -1.369  0.3438E-01  0.5897E-01
     -1.270  0.3541E-01  0.6247E-01
     -1.171  0.3288E-01  0.6573E-01
     -1.072  0.2932E-01  0.6863E-01
     -0.973  0.2764E-01  0.7137E-01
     -0.874  0.2826E-01  0.7416E-01
     -0.775  0.2926E-01  0.7706E-01
     -0.676  0.2870E-01  0.7990E-01
     -0.577  0.2722E-01  0.8259E-01
     -0.478  0.2772E-01  0.8534E-01
     -0.379  0.3025E-01  0.8833E-01
     -0.280  0.3127E-01  0.9142E-01
     -0.181  0.3111E-01  0.9450E-01
     -0.082  0.3413E-01  0.9788E-01
      0.017  0.4021E-01  0.1019E+00
      0.116  0.4500E-01  0.1063E+00
      0.215  0.4497E-01  0.1108E+00
      0.314  0.3912E-01  0.1146E+00
      0.413  0.3181E-01  0.1178E+00
      0.512  0.2903E-01  0.1207E+00
      0.611  0.3153E-01  0.1238E+00
      0.710  0.3619E-01  0.1274E+00
      0.809  0.3993E-01  0.1313E+00
      0.908  0.4189E-01  0.1355E+00
      1.007  0.4366E-01  0.1398E+00
      1.106  0.4519E-01  0.1443E+00
      1.204  0.4352E-01  0.1486E+00
      1.303  0.3839E-01  0.1524E+00
      1.402  0.3400E-01  0.1557E+00
      1.501  0.3344E-01  0.1590E+00
      1.600  0.3516E-01  0.1625E+00
      1.699  0.3512E-01  0.1660E+00
      1.798  0.3213E-01  0.1692E+00
      1.897  0.2959E-01  0.1721E+00
      1.996  0.3094E-01  0.1752E+00
      2.095  0.3536E-01  0.1787E+00
      2.194  0.3949E-01  0.1826E+00
      2.293  0.4225E-01  0.1868E+00
      2.392  0.4410E-01  0.1911E+00
      2.491  0.4381E-01  0.1955E+00
      2.590  0.4001E-01  0.1994E+00
      2.689  0.3543E-01  0.2029E+00
      2.788  0.3505E-01  0.2064E+00
      2.887  0.3940E-01  0.2103E+00
      2.986  0.4450E-01  0.2147E+00
      3.085  0.4536E-01  0.2192E+00
      3.184  0.4011E-01  0.2232E+00
      3.283  0.3347E-01  0.2265E+00
      3.382  0.3115E-01  0.2295E+00
      3.481  0.3361E-01  0.2329E+00
      3.580  0.3823E-01  0.2367E+00
      3.679  0.4330E-01  0.2409E+00
      3.778  0.4734E-01  0.2456E+00
      3.877  0.4807E-01  0.2504E+00
      3.976  0.4558E-01  0.2549E+00
      4.075  0.4329E-01  0.2592E+00
      4.174  0.4374E-01  0.2635E+00
      4.273  0.4696E-01  0.2682E+00
      4.372  0.5185E-01  0.2733E+00
      4.471  0.5544E-01  0.2788E+00
      4.570  0.5289E-01  0.2840E+00
      4.669  0.4432E-01  0.2884E+00
      4.768  0.3714E-01  0.2921E+00
      4.867  0.3680E-01  0.2957E+00
      4.966  0.4209E-01  0.2999E+00
      5.064  0.4868E-01  0.3047E+00
      5.163  0.5246E-01  0.3099E+00
      5.262  0.5402E-01  0.3152E+00
      5.361  0.5768E-01  0.3209E+00
      5.460  0.6364E-01  0.3272E+00
      5.559  0.6833E-01  0.3340E+00
      5.658  0.6755E-01  0.3407E+00
      5.757  0.5842E-01  0.3465E+00
      5.856  0.4541E-01  0.3510E+00
      5.955  0.3693E-01  0.3546E+00
      6.054  0.3531E-01  0.3581E+00
      6.153  0.3856E-01  0.3619E+00
      6.252  0.4556E-01  0.3664E+00
      6.351  0.5498E-01  0.3719E+00
      6.450  0.6511E-01  0.3783E+00
      6.549  0.7280E-01  0.3855E+00
      6.648  0.7206E-01  0.3927E+00
      6.747  0.6297E-01  0.3989E+00
      6.846  0.5644E-01  0.4045E+00
      6.945  0.5971E-01  0.4104E+00
      7.044  0.6590E-01  0.4169E+00
      7.143  0.6633E-01  0.4235E+00
      7.242  0.6264E-01  0.4297E+00
      7.341  0.6148E-01  0.4358E+00
      7.440  0.6325E-01  0.4420E+00
      7.539  0.6193E-01  0.4482E+00
      7.638  0.5780E-01  0.4539E+00
      7.737  0.5917E-01  0.4597E+00
      7.836  0.6769E-01  0.4664E+00
      7.935  0.7473E-01  0.4738E+00
      8.034  0.7219E-01  0.4810E+00
      8.133  0.6155E-01  0.4871E+00
      8.232  0.5146E-01  0.4922E+00
      8.331  0.4695E-01  0.4968E+00
      8.430  0.4590E-01  0.5014E+00
      8.529  0.4553E-01  0.5059E+00
      8.628  0.4485E-01  0.5103E+00
      8.727  0.4409E-01  0.5147E+00
      8.826  0.4434E-01  0.5191E+00
      8.924  0.4513E-01  0.5235E+00
      9.023  0.4638E-01  0.5281E+00
      9.122  0.4958E-01  0.5330E+00
      9.221  0.5354E-01  0.5383E+00
      9.320  0.5516E-01  0.5438E+00
      9.419  0.5347E-01  0.5491E+00
      9.518  0.5052E-01  0.5541E+00
      9.617  0.4857E-01  0.5589E+00
      9.716  0.4735E-01  0.5636E+00
      9.815  0.4581E-01  0.5681E+00
      9.914  0.4298E-01  0.5723E+00
     10.013  0.3775E-01  0.5761E+00
     10.112  0.3145E-01  0.5792E+00
     10.211  0.2816E-01  0.5820E+00
     10.310  0.3165E-01  0.5851E+00
     10.409  0.4145E-01  0.5892E+00
     10.508  0.5239E-01  0.5944E+00
     10.607  0.6036E-01  0.6004E+00
     10.706  0.6466E-01  0.6068E+00
     10.805  0.6515E-01  0.6132E+00
     10.904  0.6279E-01  0.6194E+00
     11.003  0.6034E-01  0.6254E+00
     11.102  0.5922E-01  0.6313E+00
     11.201  0.5916E-01  0.6371E+00
     11.300  0.6131E-01  0.6432E+00
     11.399  0.6687E-01  0.6498E+00
     11.498  0.7284E-01  0.6570E+00
     11.597  0.7287E-01  0.6642E+00
     11.696  0.6446E-01  0.6706E+00
     11.795  0.5316E-01  0.6759E+00
     11.894  0.4527E-01  0.6804E+00
     11.993  0.4187E-01  0.6845E+00
     12.092  0.4219E-01  0.6887E+00
     12.191  0.4542E-01  0.6932E+00
     12.290  0.5249E-01  0.6984E+00
     12.389  0.6541E-01  0.7048E+00
     12.488  0.7947E-01  0.7127E+00
     12.587  0.8444E-01  0.7211E+00
     12.686  0.7792E-01  0.7288E+00
     12.784  0.6894E-01  0.7356E+00
     12.883  0.6510E-01  0.7420E+00
     12.982  0.6603E-01  0.7486E+00
     13.081  0.6918E-01  0.7554E+00
     13.180  0.7201E-01  0.7626E+00
     13.279  0.7349E-01  0.7698E+00
     13.378  0.7406E-01  0.7772E+00
     13.477  0.7200E-01  0.7843E+00
     13.576  0.6631E-01  0.7908E+00
     13.675  0.6140E-01  0.7969E+00
     13.774  0.6301E-01  0.8032E+00
     13.873  0.7189E-01  0.8103E+00
     13.972  0.8352E-01  0.8185E+00
     14.071  0.9078E-01  0.8275E+00
     14.170  0.8815E-01  0.8363E+00
     14.269  0.7726E-01  0.8439E+00
     14.368  0.6582E-01  0.8504E+00
     14.467  0.5871E-01  0.8562E+00
     14.566  0.5485E-01  0.8617E+00
     14.665  0.5321E-01  0.8669E+00
     14.764  0.5464E-01  0.8723E+00
     14.863  0.5874E-01  0.8781E+00
     14.962  0.6327E-01  0.8844E+00
     15.061  0.6486E-01  0.8908E+00
     15.160  0.6328E-01  0.8971E+00
     15.259  0.6227E-01  0.9032E+00
     15.358  0.6184E-01  0.9094E+00
     15.457  0.5892E-01  0.9152E+00
     15.556  0.5555E-01  0.9207E+00
     15.655  0.5674E-01  0.9263E+00
     15.754  0.6254E-01  0.9325E+00
     15.853  0.6748E-01  0.9392E+00
     15.952  0.6470E-01  0.9456E+00
     16.051  0.5241E-01  0.9508E+00
     16.150  0.3933E-01  0.9547E+00
     16.249  0.3604E-01  0.9582E+00
     16.348  0.4263E-01  0.9625E+00
     16.447  0.5146E-01  0.9675E+00
     16.546  0.5578E-01  0.9731E+00
     16.644  0.5391E-01  0.9784E+00
     16.743  0.4895E-01  0.9832E+00
     16.842  0.4384E-01  0.9876E+00
     16.941  0.4001E-01  0.9915E+00
     17.040  0.3840E-01  0.9953E+00
     17.139  0.3699E-01  0.9990E+00
     17.238  0.3367E-01  0.1002E+01
     17.337  0.3020E-01  0.1005E+01
     17.436  0.2840E-01  0.1008E+01
     17.535  0.2791E-01  0.1011E+01
     17.634  0.2781E-01  0.1014E+01
     17.733  0.2792E-01  0.1016E+01
     17.832  0.2989E-01  0.1019E+01
     17.931  0.3378E-01  0.1023E+01
     18.030  0.3471E-01  0.1026E+01
     18.129  0.3011E-01  0.1029E+01
     18.228  0.2468E-01  0.1032E+01
     18.327  0.2297E-01  0.1034E+01
     18.426  0.2527E-01  0.1036E+01
     18.525  0.2936E-01  0.1039E+01
     18.624  0.3142E-01  0.1042E+01
     18.723  0.2918E-01  0.1045E+01
     18.822  0.2450E-01  0.1048E+01
     18.921  0.2022E-01  0.1050E+01
     19.020  0.1648E-01  0.1051E+01
     19.119  0.1246E-01  0.1053E+01
     19.218  0.9615E-02  0.1054E+01
     19.317  0.9982E-02  0.1054E+01
     19.416  0.1248E-01  0.1056E+01
     19.515  0.1419E-01  0.1057E+01
     19.614  0.1368E-01  0.1058E+01
     19.713  0.1189E-01  0.1060E+01
     19.812  0.1058E-01  0.1061E+01
     19.911  0.9799E-02  0.1062E+01
     20.010  0.8345E-02  0.1063E+01
     20.109  0.6757E-02  0.1063E+01
     20.208  0.6635E-02  0.1064E+01
     20.307  0.7308E-02  0.1065E+01
     20.406  0.6597E-02  0.1065E+01
     20.505  0.4228E-02  0.1066E+01
     20.603  0.1897E-02  0.1066E+01
     20.702  0.8131E-03  0.1066E+01
     20.801  0.8799E-03  0.1066E+01
     20.900  0.1443E-02  0.1066E+01
     20.999  0.1847E-02  0.1066E+01
     21.098  0.1731E-02  0.1066E+01
     21.197  0.1173E-02  0.1067E+01
     21.296  0.5532E-03  0.1067E+01
     21.395  0.1740E-03  0.1067E+01
     21.494  0.3542E-04  0.1067E+01
     21.593  0.4582E-05  0.1067E+01
     21.692  0.3731E-06  0.1067E+01
     21.791  0.1901E-07  0.1067E+01
     21.890  0.6041E-09  0.1067E+01
     21.989  0.1195E-10  0.1067E+01
     22.088  0.1467E-12  0.1067E+01
     22.187  0.1117E-14  0.1067E+01
     22.286  0.5394E-17  0.1067E+01
     22.385  0.0000E+00  0.1067E+01
     22.484  0.0000E+00  0.1067E+01
     22.583  0.0000E+00  0.1067E+01
     22.682  0.0000E+00  0.1067E+01
     22.781  0.0000E+00  0.1067E+01
     22.880  0.0000E+00  0.1067E+01
     22.979  0.0000E+00  0.1067E+01
     23.078  0.0000E+00  0.1067E+01
