    2    2   15    1
  0.2001288E+02  0.3839590E-09  0.3839590E-09  0.3839590E-09  0.5000000E-15
  1.000000000000000E-004
  CAR 
 unknown system                          
      8    182      8
 
  0.4166667E-01  0.4166667E-01  0.4166667E-01  0.1157407E-02
    1       -6.181025   1.000000
    2        5.401537   0.999982
    3        5.624438   0.994778
    4        5.624438   0.994778
    5        8.272585   0.000000
    6        8.289219   0.000000
    7        8.289219   0.000000
    8        8.925447   0.000000
 
  0.1250000E+00  0.4166667E-01  0.4166667E-01  0.3472222E-02
    1       -6.061846   1.000000
    2        4.505349   1.000000
    3        5.206213   1.000000
    4        5.570579   0.998367
    5        8.322535   0.000000
    6        8.406209   0.000000
    7        8.592165   0.000000
    8        9.800894   0.000000
 
  0.2083333E+00  0.4166667E-01  0.4166667E-01  0.3472222E-02
    1       -5.767763   1.000000
    2        3.006191   1.000000
    3        4.835072   1.000000
    4        5.300706   0.999999
    5        8.044897   0.000000
    6        8.796820   0.000000
    7        9.096503   0.000000
    8       11.159011   0.000000
 
  0.2916667E+00  0.4166667E-01  0.4166667E-01  0.3472222E-02
    1       -5.311653   1.000000
    2        1.502446   1.000000
    3        4.538829   1.000000
    4        4.981589   1.000000
    5        7.738768   0.000000
    6        9.098714   0.000000
    7        9.359214   0.000000
    8       12.351741   0.000000
 
  0.3750000E+00  0.4166667E-01  0.4166667E-01  0.3472222E-02
    1       -4.729146   1.000000
    2        0.152594   1.000000
    3        4.344938   1.000000
    4        4.708767   1.000000
    5        7.490559   0.000000
    6        9.162623   0.000000
    7        9.296699   0.000000
    8       13.276241   0.000000
 
  0.4583333E+00  0.4166667E-01  0.4166667E-01  0.3472222E-02
    1       -4.137583   1.000000
    2       -0.887614   1.000000
    3        4.261944   1.000000
    4        4.513978   1.000000
    5        7.331609   0.000000
    6        9.136063   0.000000
    7        9.140631   0.000000
    8       13.482701   0.000000
 
 -0.4583333E+00  0.4166667E-01  0.4166667E-01  0.3472222E-02
    1       -3.911507   1.000000
    2       -1.226678   1.000000
    3        4.288977   1.000000
    4        4.414249   1.000000
    5        7.295378   0.000000
    6        9.040610   0.000000
    7        9.171425   0.000000
    8       13.453274   0.000000
 
 -0.3750000E+00  0.4166667E-01  0.4166667E-01  0.3472222E-02
    1       -4.320370   1.000000
    2       -0.592477   1.000000
    3        4.420082   1.000000
    4        4.420985   1.000000
    5        7.372725   0.000000
    6        9.041085   0.000000
    7        9.299289   0.000000
    8       13.397781   0.000000
 
 -0.2916667E+00  0.4166667E-01  0.4166667E-01  0.3472222E-02
    1       -4.932933   1.000000
    2        0.578009   1.000000
    3        4.532363   1.000000
    4        4.647011   1.000000
    5        7.572400   0.000000
    6        9.070904   0.000000
    7        9.440994   0.000000
    8       12.680906   0.000000
 
 -0.2083333E+00  0.4166667E-01  0.4166667E-01  0.3472222E-02
    1       -5.480175   1.000000
    2        1.992436   1.000000
    3        4.753168   1.000000
    4        4.945341   1.000000
    5        7.841647   0.000000
    6        8.942359   0.000000
    7        9.417671   0.000000
    8       11.825244   0.000000
 
 -0.1250000E+00  0.4166667E-01  0.4166667E-01  0.3472222E-02
    1       -5.884614   1.000000
    2        3.523422   1.000000
    3        5.063759   1.000000
    4        5.273569   1.000000
    5        8.131123   0.000000
    6        8.585230   0.000000
    7        9.070764   0.000000
    8       10.673819   0.000000
 
 -0.4166667E-01  0.4166667E-01  0.4166667E-01  0.3472222E-02
    1       -6.121308   1.000000
    2        4.973884   1.000000
    3        5.400973   0.999983
    4        5.500984   0.999702
    5        8.151658   0.000000
    6        8.464973   0.000000
    7        8.585116   0.000000
    8        9.339452   0.000000
 
  0.1250000E+00  0.1250000E+00  0.4166667E-01  0.3472222E-02
    1       -6.002111   1.000000
    2        4.416692   1.000000
    3        5.057108   1.000000
    4        5.155674   1.000000
    5        7.915299   0.000000
    6        8.888749   0.000000
    7        9.072834   0.000000
    8        9.861720   0.000000
 
  0.2083333E+00  0.1250000E+00  0.4166667E-01  0.6944444E-02
    1       -5.765852   1.000000
    2        3.379755   1.000000
    3        4.469098   1.000000
    4        5.011026   1.000000
    5        7.933073   0.000000
    6        9.050205   0.000000
    7        9.580480   0.000000
    8       10.559480   0.000000
 
  0.2916667E+00  0.1250000E+00  0.4166667E-01  0.6944444E-02
    1       -5.362089   1.000000
    2        1.971098   1.000000
    3        4.087280   1.000000
    4        4.718521   1.000000
    5        8.125228   0.000000
    6        9.018896   0.000000
    7        9.971694   0.000000
    8       10.854268   0.000000
 
  0.3750000E+00  0.1250000E+00  0.4166667E-01  0.6944444E-02
    1       -4.815595   1.000000
    2        0.604132   1.000000
    3        3.825943   1.000000
    4        4.415602   1.000000
    5        8.057309   0.000000
    6        9.057507   0.000000
    7        9.987016   0.000000
    8       11.452917   0.000000
 
  0.4583333E+00  0.1250000E+00  0.4166667E-01  0.6944444E-02
    1       -4.202704   1.000000
    2       -0.544685   1.000000
    3        3.642440   1.000000
    4        4.223400   1.000000
    5        7.928139   0.000000
    6        8.992161   0.000000
    7        9.826541   0.000000
    8       12.560284   0.000000
 
 -0.4583333E+00  0.1250000E+00  0.4166667E-01  0.6944444E-02
    1       -3.792001   1.000000
    2       -1.172247   1.000000
    3        3.518403   1.000000
    4        4.198319   1.000000
    5        7.884776   0.000000
    6        8.952858   0.000000
    7        9.691907   0.000000
    8       13.642799   0.000000
 
 -0.3750000E+00  0.1250000E+00  0.4166667E-01  0.6944444E-02
    1       -4.020622   1.000000
    2       -0.833600   1.000000
    3        3.471577   1.000000
    4        4.333012   1.000000
    5        7.942827   0.000000
    6        9.003768   0.000000
    7        9.666026   0.000000
    8       13.370770   0.000000
 
 -0.2916667E+00  0.1250000E+00  0.4166667E-01  0.6944444E-02
    1       -4.613445   1.000000
    2        0.192148   1.000000
    3        3.535836   1.000000
    4        4.587522   1.000000
    5        8.104854   0.000000
    6        9.079238   0.000000
    7        9.736708   0.000000
    8       12.233653   0.000000
 
 -0.2083333E+00  0.1250000E+00  0.4166667E-01  0.6944444E-02
    1       -5.195105   1.000000
    2        1.500046   1.000000
    3        3.735911   1.000000
    4        4.914043   1.000000
    5        8.323541   0.000000
    6        8.997559   0.000000
    7        9.747104   0.000000
    8       11.389672   0.000000
 
 -0.1250000E+00  0.1250000E+00  0.4166667E-01  0.6944444E-02
    1       -5.650050   1.000000
    2        2.882925   1.000000
    3        4.119840   1.000000
    4        5.232720   1.000000
    5        8.415341   0.000000
    6        8.761603   0.000000
    7        9.408138   0.000000
    8       10.984091   0.000000
 
 -0.4166667E-01  0.1250000E+00  0.4166667E-01  0.6944444E-02
    1       -5.943221   1.000000
    2        3.957630   1.000000
    3        4.856715   1.000000
    4        5.387526   0.999989
    5        8.197873   0.000000
    6        8.612297   0.000000
    7        8.992506   0.000000
    8       10.330499   0.000000
 
  0.2083333E+00  0.2083333E+00  0.4166667E-01  0.3472222E-02
    1       -5.587441   1.000000
    2        3.113757   1.000000
    3        4.301394   1.000000
    4        4.314263   1.000000
    5        7.329886   0.000000
    6        9.686168   0.000000
    7       10.308929   0.000000
    8       10.323061   0.000000
 
  0.2916667E+00  0.2083333E+00  0.4166667E-01  0.6944444E-02
    1       -5.238478   1.000000
    2        2.159141   1.000000
    3        3.721695   1.000000
    4        4.131130   1.000000
    5        7.367365   0.000000
    6        9.366606   0.000000
    7       10.510349   0.000000
    8       10.933998   0.000000
 
  0.3750000E+00  0.2083333E+00  0.4166667E-01  0.6944444E-02
    1       -4.736058   1.000000
    2        0.968177   1.000000
    3        3.268658   1.000000
    4        3.868462   1.000000
    5        7.632581   0.000000
    6        9.582110   0.000000
    7       10.311558   0.000000
    8       11.150509   0.000000
 
  0.4583333E+00  0.2083333E+00  0.4166667E-01  0.6944444E-02
    1       -4.129681   1.000000
    2       -0.170774   1.000000
    3        2.875974   1.000000
    4        3.730422   1.000000
    5        7.703375   0.000000
    6       10.021548   0.000000
    7       10.578254   0.000000
    8       11.033419   0.000000
 
 -0.4583333E+00  0.2083333E+00  0.4166667E-01  0.6944444E-02
    1       -3.596764   1.000000
    2       -0.982445   1.000000
    3        2.567024   1.000000
    4        3.766550   1.000000
    5        7.776316   0.000000
    6        9.805530   0.000000
    7       10.835516   0.000000
    8       12.010606   0.000000
 
 -0.3750000E+00  0.2083333E+00  0.4166667E-01  0.6944444E-02
    1       -3.607307   1.000000
    2       -0.963840   1.000000
    3        2.388536   1.000000
    4        3.954388   1.000000
    5        7.964115   0.000000
    6        9.670934   0.000000
    7       10.698312   0.000000
    8       13.374789   0.000000
 
 -0.2916667E+00  0.2083333E+00  0.4166667E-01  0.6944444E-02
    1       -4.146641   1.000000
    2       -0.139514   1.000000
    3        2.383283   1.000000
    4        4.263772   1.000000
    5        8.267722   0.000000
    6        9.598383   0.000000
    7       10.604904   0.000000
    8       12.010871   0.000000
 
 -0.2083333E+00  0.2083333E+00  0.4166667E-01  0.6944444E-02
    1       -4.750265   1.000000
    2        0.942180   1.000000
    3        2.634042   1.000000
    4        4.640297   1.000000
    5        8.611378   0.000000
    6        9.366428   0.000000
    7       10.427296   0.000000
    8       11.074295   0.000000
 
 -0.1250000E+00  0.2083333E+00  0.4166667E-01  0.6944444E-02
    1       -5.248396   1.000000
    2        1.864716   1.000000
    3        3.351267   1.000000
    4        4.981494   1.000000
    5        8.687304   0.000000
    6        8.920348   0.000000
    7        9.875728   0.000000
    8       11.004153   0.000000
 
 -0.4166667E-01  0.2083333E+00  0.4166667E-01  0.6944444E-02
    1       -5.593279   1.000000
    2        2.483567   1.000000
    3        4.474796   1.000000
    4        5.105804   1.000000
    5        8.154090   0.000000
    6        8.782644   0.000000
    7        9.467653   0.000000
    8       11.295978   0.000000
 
  0.2916667E+00  0.2916667E+00  0.4166667E-01  0.3472222E-02
    1       -4.944014   1.000000
    2        1.695054   1.000000
    3        3.595518   1.000000
    4        3.647181   1.000000
    5        6.802832   0.000000
    6        8.612219   0.000000
    7       11.650726   0.000000
    8       11.728893   0.000000
 
  0.3750000E+00  0.2916667E+00  0.4166667E-01  0.6944444E-02
    1       -4.490251   1.000000
    2        0.857471   1.000000
    3        3.108062   1.000000
    4        3.419217   1.000000
    5        6.922443   0.000000
    6        8.281891   0.000000
    7       11.795024   0.000000
    8       12.407723   0.000000
 
  0.4583333E+00  0.2916667E+00  0.4166667E-01  0.6944444E-02
    1       -3.908876   1.000000
    2       -0.068313   1.000000
    3        2.484960   1.000000
    4        3.291083   1.000000
    5        7.165498   0.000000
    6        8.808954   0.000000
    7       11.570689   0.000000
    8       12.497885   0.000000
 
 -0.4583333E+00  0.2916667E+00  0.4166667E-01  0.6944444E-02
    1       -3.311246   1.000000
    2       -0.878484   1.000000
    3        1.944199   1.000000
    4        3.329259   1.000000
    5        7.280994   0.000000
    6       10.066025   0.000000
    7       11.301418   0.000000
    8       12.326746   0.000000
 
 -0.3750000E+00  0.2916667E+00  0.4166667E-01  0.6944444E-02
    1       -3.112342   1.000000
    2       -1.115428   1.000000
    3        1.609813   1.000000
    4        3.521788   1.000000
    5        7.493894   0.000000
    6       10.992329   0.000000
    7       11.721403   0.000000
    8       12.130040   0.000000
 
 -0.2916667E+00  0.2916667E+00  0.4166667E-01  0.6944444E-02
    1       -3.569260   1.000000
    2       -0.553157   1.000000
    3        1.577735   1.000000
    4        3.842026   1.000000
    5        7.848733   0.000000
    6       10.748185   0.000000
    7       11.775743   0.000000
    8       12.061341   0.000000
 
 -0.2083333E+00  0.2916667E+00  0.4166667E-01  0.6944444E-02
    1       -4.176951   1.000000
    2        0.133140   1.000000
    3        2.025007   1.000000
    4        4.246984   1.000000
    5        8.273319   0.000000
    6        9.996962   0.000000
    7       11.068805   0.000000
    8       11.440862   0.000000
 
 -0.1250000E+00  0.2916667E+00  0.4166667E-01  0.6944444E-02
    1       -4.704035   1.000000
    2        0.616622   1.000000
    3        3.015444   1.000000
    4        4.624143   1.000000
    5        8.450027   0.000000
    6        9.193449   0.000000
    7       10.081373   0.000000
    8       11.572518   0.000000
 
 -0.4166667E-01  0.2916667E+00  0.4166667E-01  0.6944444E-02
    1       -5.089350   1.000000
    2        1.037452   1.000000
    3        4.206237   1.000000
    4        4.785988   1.000000
    5        7.901552   0.000000
    6        9.018573   0.000000
    7        9.600747   0.000000
    8       11.979727   0.000000
 
  0.3750000E+00  0.3750000E+00  0.4166667E-01  0.3472222E-02
    1       -4.084456   1.000000
    2        0.254833   1.000000
    3        3.084229   1.000000
    4        3.171926   1.000000
    5        6.471241   0.000305
    6        7.548793   0.000000
    7       13.173394   0.000000
    8       13.203138   0.000000
 
  0.4583333E+00  0.3750000E+00  0.4166667E-01  0.6944444E-02
    1       -3.538387   1.000000
    2       -0.485076   1.000000
    3        2.691294   1.000000
    4        2.974869   1.000000
    5        6.681685   0.000000
    6        7.450883   0.000000
    7       13.213619   0.000000
    8       13.949565   0.000000
 
 -0.4583333E+00  0.3750000E+00  0.4166667E-01  0.6944444E-02
    1       -2.918948   1.000000
    2       -1.181506   1.000000
    3        1.993828   1.000000
    4        2.990184   1.000000
    5        6.875297   0.000000
    6        8.359386   0.000000
    7       12.951288   0.000000
    8       13.948879   0.000000
 
 -0.3750000E+00  0.3750000E+00  0.4166667E-01  0.6944444E-02
    1       -2.581870   1.000000
    2       -1.503226   1.000000
    3        1.458419   1.000000
    4        3.162454   1.000000
    5        7.077992   0.000000
    6        9.845502   0.000000
    7       12.618120   0.000000
    8       13.421387   0.000000
 
 -0.2916667E+00  0.3750000E+00  0.4166667E-01  0.6944444E-02
    1       -3.000500   1.000000
    2       -1.105035   1.000000
    3        1.360747   1.000000
    4        3.471621   1.000000
    5        7.428123   0.000000
    6       11.416723   0.000000
    7       11.827571   0.000000
    8       12.562225   0.000000
 
 -0.2083333E+00  0.3750000E+00  0.4166667E-01  0.6944444E-02
    1       -3.578273   1.000000
    2       -0.736086   1.000000
    3        1.892520   1.000000
    4        3.879929   1.000000
    5        7.890580   0.000000
    6       10.231342   0.000000
    7       11.292216   0.000000
    8       12.630939   0.000000
 
 -0.1250000E+00  0.3750000E+00  0.4166667E-01  0.6944444E-02
    1       -4.090874   1.000000
    2       -0.498766   1.000000
    3        2.907716   1.000000
    4        4.295649   1.000000
    5        8.194081   0.000000
    6        9.198672   0.000000
    7       10.100232   0.000000
    8       12.720474   0.000000
 
 -0.4166667E-01  0.3750000E+00  0.4166667E-01  0.6944444E-02
    1       -4.483294   1.000000
    2       -0.224827   1.000000
    3        4.046053   1.000000
    4        4.521876   1.000000
    5        7.682462   0.000000
    6        9.031537   0.000000
    7        9.479432   0.000000
    8       12.936008   0.000000
 
  0.4583333E+00  0.4583333E+00  0.4166667E-01  0.3472222E-02
    1       -3.027401   1.000000
    2       -1.140679   1.000000
    3        2.797360   1.000000
    4        2.902521   1.000000
    5        6.384406   0.002454
    6        6.840462   0.000000
    7       14.710528   0.000000
    8       14.714057   0.000000
 
 -0.4583333E+00  0.4583333E+00  0.4166667E-01  0.6944444E-02
    1       -2.411896   1.000000
    2       -1.790607   1.000000
    3        2.506642   1.000000
    4        2.788339   1.000000
    5        6.641376   0.000002
    6        7.022050   0.000000
    7       14.659156   0.000000
    8       15.159831   0.000000
 
 -0.3750000E+00  0.4583333E+00  0.4166667E-01  0.6944444E-02
    1       -2.406451   1.000000
    2       -1.721533   1.000000
    3        1.894073   1.000000
    4        2.930918   1.000000
    5        6.813549   0.000000
    6        8.269120   0.000000
    7       13.647698   0.000000
    8       14.330025   0.000000
 
 -0.2916667E+00  0.4583333E+00  0.4166667E-01  0.6944444E-02
    1       -2.900516   1.000000
    2       -1.224396   1.000000
    3        1.625880   1.000000
    4        3.217692   1.000000
    5        7.144878   0.000000
    6        9.916598   0.000000
    7       11.968072   0.000000
    8       13.017749   0.000000
 
 -0.2083333E+00  0.4583333E+00  0.4166667E-01  0.6944444E-02
    1       -3.321548   1.000000
    2       -1.085934   1.000000
    3        2.038726   1.000000
    4        3.620089   1.000000
    5        7.615302   0.000000
    6       10.393472   0.000000
    7       11.454520   0.000000
    8       11.843907   0.000000
 
 -0.1250000E+00  0.4583333E+00  0.4166667E-01  0.6944444E-02
    1       -3.674550   1.000000
    2       -1.126777   1.000000
    3        2.956651   1.000000
    4        4.061046   1.000000
    5        8.009531   0.000000
    6        9.194502   0.000000
    7       10.149301   0.000000
    8       13.662132   0.000000
 
 -0.4166667E-01  0.4583333E+00  0.4166667E-01  0.6944444E-02
    1       -3.953514   1.000000
    2       -1.088261   1.000000
    3        3.980494   1.000000
    4        4.369863   1.000000
    5        7.572862   0.000000
    6        8.990732   0.000000
    7        9.350758   0.000000
    8       13.555241   0.000000
 
 -0.4583333E+00 -0.4583333E+00  0.4166667E-01  0.3472222E-02
    1       -2.433911   1.000000
    2       -1.803245   1.000000
    3        2.739938   1.000000
    4        2.848132   1.000000
    5        6.433038   0.000797
    6        6.627462   0.000003
    7       15.361317   0.000000
    8       15.395120   0.000000
 
 -0.3750000E+00 -0.4583333E+00  0.4166667E-01  0.6944444E-02
    1       -2.994430   1.000000
    2       -1.147759   1.000000
    3        2.568210   1.000000
    4        2.850316   1.000000
    5        6.642766   0.000002
    6        7.178355   0.000000
    7       13.939816   0.000000
    8       14.700587   0.000000
 
 -0.2916667E+00 -0.4583333E+00  0.4166667E-01  0.6944444E-02
    1       -3.430592   1.000000
    2       -0.618630   1.000000
    3        2.192278   1.000000
    4        3.109118   1.000000
    5        6.993652   0.000000
    6        8.535275   0.000000
    7       12.249370   0.000000
    8       13.223501   0.000000
 
 -0.2083333E+00 -0.4583333E+00  0.4166667E-01  0.6944444E-02
    1       -3.730866   1.000000
    2       -0.527468   1.000000
    3        2.377448   1.000000
    4        3.498034   1.000000
    5        7.471871   0.000000
    6       10.279779   0.000000
    7       10.657646   0.000000
    8       11.648064   0.000000
 
 -0.1250000E+00 -0.4583333E+00  0.4166667E-01  0.6944444E-02
    1       -3.900389   1.000000
    2       -0.799771   1.000000
    3        3.125761   1.000000
    4        3.965360   1.000000
    5        7.928279   0.000000
    6        9.289281   0.000000
    7       10.283685   0.000000
    8       12.251246   0.000000
 
 -0.3750000E+00 -0.3750000E+00  0.4166667E-01  0.3472222E-02
    1       -3.578930   1.000000
    2       -0.451947   1.000000
    3        2.912488   1.000000
    4        3.010887   1.000000
    5        6.395073   0.001936
    6        7.150589   0.000000
    7       13.953179   0.000000
    8       13.962398   0.000000
 
 -0.2916667E+00 -0.3750000E+00  0.4166667E-01  0.6944444E-02
    1       -4.038412   1.000000
    2        0.186827   1.000000
    3        2.872546   1.000000
    4        3.163782   1.000000
    5        6.775536   0.000000
    6        7.819933   0.000000
    7       12.497751   0.000000
    8       13.176880   0.000000
 
 -0.2083333E+00 -0.3750000E+00  0.4166667E-01  0.6944444E-02
    1       -4.345966   1.000000
    2        0.459334   1.000000
    3        2.854371   1.000000
    4        3.540810   1.000000
    5        7.381200   0.000000
    6        9.165952   0.000000
    7       10.911620   0.000000
    8       11.803042   0.000000
 
 -0.1250000E+00 -0.3750000E+00  0.4166667E-01  0.6944444E-02
    1       -4.494005   1.000000
    2        0.203436   1.000000
    3        3.378985   1.000000
    4        4.037774   1.000000
    5        7.938612   0.000000
    6        9.453310   0.000000
    7       10.450918   0.000000
    8       10.991621   0.000000
 
 -0.2916667E+00 -0.2916667E+00  0.4166667E-01  0.3472222E-02
    1       -4.540437   1.000000
    2        0.972601   1.000000
    3        3.311704   1.000000
    4        3.384090   1.000000
    5        6.606423   0.000006
    6        8.034965   0.000000
    7       12.398535   0.000000
    8       12.451218   0.000000
 
 -0.2083333E+00 -0.2916667E+00  0.4166667E-01  0.6944444E-02
    1       -4.891178   1.000000
    2        1.517756   1.000000
    3        3.392464   1.000000
    4        3.743788   1.000000
    5        7.120236   0.000000
    6        8.822753   0.000000
    7       11.118271   0.000000
    8       11.659648   0.000000
 
 -0.1250000E+00 -0.2916667E+00  0.4166667E-01  0.6944444E-02
    1       -5.075668   1.000000
    2        1.468355   1.000000
    3        3.684723   1.000000
    4        4.275877   1.000000
    5        7.895235   0.000000
    6        9.508362   0.000000
    7       10.290635   0.000000
    8       10.557665   0.000000
 
 -0.2083333E+00 -0.2083333E+00  0.4166667E-01  0.3472222E-02
    1       -5.293753   1.000000
    2        2.411725   1.000000
    3        3.930251   1.000000
    4        3.953822   1.000000
    5        7.048130   0.000000
    6        9.203877   0.000000
    7       10.929792   0.000000
    8       11.013577   0.000000
 
 -0.1250000E+00 -0.2083333E+00  0.4166667E-01  0.6944444E-02
    1       -5.530593   1.000000
    2        2.779371   1.000000
    3        4.083439   1.000000
    4        4.566353   1.000000
    5        7.644128   0.000000
    6        9.507322   0.000000
    7       10.234362   0.000000
    8       10.320213   0.000000
 
 -0.1250000E+00 -0.1250000E+00  0.4166667E-01  0.3472222E-02
    1       -5.823897   1.000000
    2        3.788434   1.000000
    3        4.677317   1.000000
    4        4.734587   1.000000
    5        7.629237   0.000000
    6        9.436138   0.000000
    7        9.669960   0.000000
    8       10.171335   0.000000
 
  0.1250000E+00  0.1250000E+00  0.1250000E+00  0.1157407E-02
    1       -6.002684   1.000000
    2        4.054088   1.000000
    3        5.375185   0.999992
    4        5.375186   0.999992
    5        8.106203   0.000000
    6        8.654720   0.000000
    7        8.654720   0.000000
    8       10.172546   0.000000
 
  0.2083333E+00  0.1250000E+00  0.1250000E+00  0.3472222E-02
    1       -5.825667   1.000000
    2        3.428025   1.000000
    3        4.508365   1.000000
    4        5.446156   0.999934
    5        8.457861   0.000000
    6        8.640930   0.000000
    7        8.922942   0.000000
    8       10.834021   0.000000
 
  0.2916667E+00  0.1250000E+00  0.1250000E+00  0.3472222E-02
    1       -5.477191   1.000000
    2        2.372126   1.000000
    3        3.732268   1.000000
    4        5.232385   1.000000
    5        8.587781   0.000000
    6        9.000763   0.000000
    7        9.298796   0.000000
    8       11.295203   0.000000
 
  0.3750000E+00  0.1250000E+00  0.1250000E+00  0.3472222E-02
    1       -4.974949   1.000000
    2        1.045472   1.000000
    3        3.371288   1.000000
    4        4.885764   1.000000
    5        8.335462   0.000000
    6        9.365740   0.000000
    7        9.553456   0.000000
    8       11.915533   0.000000
 
  0.4583333E+00  0.1250000E+00  0.1250000E+00  0.3472222E-02
    1       -4.369389   1.000000
    2       -0.178765   1.000000
    3        3.224997   1.000000
    4        4.543697   1.000000
    5        8.085983   0.000000
    6        9.412398   0.000000
    7        9.538520   0.000000
    8       12.990635   0.000000
 
 -0.4583333E+00  0.1250000E+00  0.1250000E+00  0.3472222E-02
    1       -3.836668   1.000000
    2       -1.034661   1.000000
    3        3.237965   1.000000
    4        4.273464   1.000000
    5        7.912456   0.000000
    6        9.251623   0.000000
    7        9.656379   0.000000
    8       13.850499   0.000000
 
 -0.3750000E+00  0.1250000E+00  0.1250000E+00  0.3472222E-02
    1       -3.833745   1.000000
    2       -1.040376   1.000000
    3        3.388170   1.000000
    4        4.106489   1.000000
    5        7.842155   0.000000
    6        9.194770   0.000000
    7        9.832177   0.000000
    8       13.042908   0.000000
 
 -0.2916667E+00  0.1250000E+00  0.1250000E+00  0.3472222E-02
    1       -4.364307   1.000000
    2       -0.189821   1.000000
    3        3.661736   1.000000
    4        4.057015   1.000000
    5        7.877882   0.000000
    6        9.245125   0.000000
    7       10.062511   0.000000
    8       11.741828   0.000000
 
 -0.2083333E+00  0.1250000E+00  0.1250000E+00  0.3472222E-02
    1       -4.970737   1.000000
    2        1.041353   1.000000
    3        4.022028   1.000000
    4        4.142212   1.000000
    5        7.943365   0.000000
    6        9.308851   0.000000
    7       10.242579   0.000000
    8       10.781345   0.000000
 
 -0.1250000E+00  0.1250000E+00  0.1250000E+00  0.3472222E-02
    1       -5.474256   1.000000
    2        2.428817   1.000000
    3        4.353989   1.000000
    4        4.420551   1.000000
    5        7.830076   0.000000
    6        9.300965   0.000000
    7       10.139868   0.000000
    8       10.489518   0.000000
 
  0.2083333E+00  0.2083333E+00  0.1250000E+00  0.3472222E-02
    1       -5.708211   1.000000
    2        2.977127   1.000000
    3        4.707350   1.000000
    4        4.907105   1.000000
    5        8.075075   0.000000
    6        8.797812   0.000000
    7        9.582480   0.000000
    8       10.849584   0.000000
 
  0.2916667E+00  0.2083333E+00  0.1250000E+00  0.6944444E-02
    1       -5.417280   1.000000
    2        2.334496   1.000000
    3        3.735949   1.000000
    4        4.835543   1.000000
    5        8.168971   0.000000
    6        9.139241   0.000000
    7       10.076537   0.000000
    8       10.572759   0.000000
 
  0.3750000E+00  0.2083333E+00  0.1250000E+00  0.6944444E-02
    1       -4.965283   1.000000
    2        1.365392   1.000000
    3        3.000953   1.000000
    4        4.562316   1.000000
    5        8.570702   0.000000
    6        9.113806   0.000000
    7       10.407417   0.000000
    8       10.656617   0.000000
 
  0.4583333E+00  0.2083333E+00  0.1250000E+00  0.6944444E-02
    1       -4.385743   1.000000
    2        0.214180   1.000000
    3        2.682182   1.000000
    4        4.211631   1.000000
    5        8.644201   0.000000
    6        9.015605   0.000000
    7       10.738733   0.000000
    8       11.188465   0.000000
 
 -0.4583333E+00  0.2083333E+00  0.1250000E+00  0.6944444E-02
    1       -3.790285   1.000000
    2       -0.761305   1.000000
    3        2.585661   1.000000
    4        3.926393   1.000000
    5        8.453519   0.000000
    6        8.960571   0.000000
    7       10.811103   0.000000
    8       12.391231   0.000000
 
 -0.3750000E+00  0.2083333E+00  0.1250000E+00  0.6944444E-02
    1       -3.555525   1.000000
    2       -1.097214   1.000000
    3        2.626344   1.000000
    4        3.789718   1.000000
    5        8.273790   0.000000
    6        9.053099   0.000000
    7       10.843290   0.000000
    8       12.943465   0.000000
 
 -0.2916667E+00  0.2083333E+00  0.1250000E+00  0.6944444E-02
    1       -3.970076   1.000000
    2       -0.489046   1.000000
    3        2.760848   1.000000
    4        3.836611   1.000000
    5        8.184416   0.000000
    6        9.272640   0.000000
    7       10.905499   0.000000
    8       11.472789   0.000000
 
 -0.2083333E+00  0.2083333E+00  0.1250000E+00  0.6944444E-02
    1       -4.584032   1.000000
    2        0.590150   1.000000
    3        2.989226   1.000000
    4        4.061028   1.000000
    5        8.133522   0.000000
    6        9.534002   0.000000
    7       10.295484   0.000000
    8       11.021376   0.000000
 
 -0.1250000E+00  0.2083333E+00  0.1250000E+00  0.6944444E-02
    1       -5.128655   1.000000
    2        1.782862   1.000000
    3        3.379294   1.000000
    4        4.369534   1.000000
    5        7.906183   0.000000
    6        9.510492   0.000000
    7       10.109910   0.000000
    8       10.807176   0.000000
 