       N       E                     dE             d eps       ncg     rms          rms(c)
DAV:   1    -0.102472069647E+02   -0.10247E+02   -0.32665E-06   824   0.178E-02    0.507E-04
DAV:   2    -0.102472069892E+02   -0.24438E-07   -0.26024E-07   792   0.475E-03
   1 F= -.10247207E+02 E0= -.10241428E+02  d E =-.102472E+02
