<?xml version="1.0" encoding="ISO-8859-1"?>
<modeling>
 <generator>
  <i name="program" type="string">vasp </i>
  <i name="version" type="string">5.4.4.18Apr17-6-g9f103f2a35  </i>
  <i name="subversion" type="string">(build Dec 09 2018 21:25:21) complex            parallel </i>
  <i name="platform" type="string">IFC18.0.1.163_CrayMPICH7.7.0_MKL18.0.1.163 </i>
  <i name="date" type="string">2019 03 20 </i>
  <i name="time" type="string">09:39:36 </i>
 </generator>
 <incar>
  <i type="string" name="PREC">normal</i>
  <i type="int" name="IBRION">     2</i>
  <i name="EDIFF">      0.00040000</i>
  <i name="EDIFFG">     -0.01000000</i>
  <i type="int" name="NSW">    15</i>
  <i type="int" name="ISIF">     3</i>
  <i name="ENCUT">    350.00000000</i>
  <i type="int" name="NBANDS">     8</i>
  <i type="logical" name="LREAL"> F  </i>
  <i type="int" name="ISMEAR">     0</i>
  <i name="SIGMA">      0.20000000</i>
  <v type="int" name="KPOINT_BSE">    -1     0     0     0</v>
 </incar>
 <structure name="primitive_cell" >
  <crystal>
   <varray name="basis" >
    <v>      -2.45000000       2.45000000       1.27400000 </v>
    <v>       2.45000000      -2.45000000       1.27400000 </v>
    <v>       2.45000000       2.45000000      -1.27400000 </v>
   </varray>
   <i name="volume">     30.58874000 </i>
   <varray name="rec_basis" >
    <v>       0.00000000       0.20408163       0.39246468 </v>
    <v>       0.20408163       0.00000000       0.39246468 </v>
    <v>       0.20408163       0.20408163      -0.00000000 </v>
   </varray>
  </crystal>
  <varray name="positions" >
   <v>       0.25000000      -0.25000000      -0.50000000 </v>
   <v>       0.00000000       0.00000000       0.00000000 </v>
  </varray>
 </structure>
 <varray name="primitive_index" >
  <v type="int" >        1 </v>
  <v type="int" >        2 </v>
 </varray>
 <kpoints>
  <generation param="Monkhorst-Pack">
   <v type="int" name="divisions">       9        9        9 </v>
   <v name="usershift">      0.00000000       0.00000000       0.00000000 </v>
   <v name="genvec1">      0.11111111       0.00000000      -0.00000000 </v>
   <v name="genvec2">      0.00000000       0.11111111      -0.00000000 </v>
   <v name="genvec3">      0.00000000      -0.00000000       0.11111111 </v>
   <v name="shift">      0.00000000       0.00000000       0.00000000 </v>
  </generation>
  <varray name="kpointlist" >
   <v>       0.00000000       0.00000000       0.00000000 </v>
   <v>       0.11111111      -0.00000000       0.00000000 </v>
   <v>       0.22222222       0.00000000      -0.00000000 </v>
   <v>       0.33333333      -0.00000000       0.00000000 </v>
   <v>       0.44444444       0.00000000      -0.00000000 </v>
   <v>       0.11111111       0.11111111       0.00000000 </v>
   <v>       0.22222222       0.11111111      -0.00000000 </v>
   <v>       0.33333333       0.11111111       0.00000000 </v>
   <v>       0.44444444       0.11111111       0.00000000 </v>
   <v>      -0.44444444       0.11111111       0.00000000 </v>
   <v>      -0.33333333       0.11111111      -0.00000000 </v>
   <v>      -0.22222222       0.11111111       0.00000000 </v>
   <v>      -0.11111111       0.11111111       0.00000000 </v>
   <v>       0.22222222       0.22222222      -0.00000000 </v>
   <v>       0.33333333       0.22222222       0.00000000 </v>
   <v>       0.44444444       0.22222222       0.00000000 </v>
   <v>      -0.44444444       0.22222222       0.00000000 </v>
   <v>      -0.33333333       0.22222222      -0.00000000 </v>
   <v>      -0.22222222       0.22222222       0.00000000 </v>
   <v>       0.33333333       0.33333333       0.00000000 </v>
   <v>       0.44444444       0.33333333       0.00000000 </v>
   <v>      -0.44444444       0.33333333       0.00000000 </v>
   <v>      -0.33333333       0.33333333       0.00000000 </v>
   <v>       0.44444444       0.44444444      -0.00000000 </v>
   <v>      -0.44444444       0.44444444       0.00000000 </v>
   <v>       0.11111111       0.11111111       0.11111111 </v>
   <v>       0.22222222       0.11111111       0.11111111 </v>
   <v>       0.33333333       0.11111111       0.11111111 </v>
   <v>      -0.11111111       0.11111111       0.11111111 </v>
   <v>       0.22222222       0.22222222       0.11111111 </v>
   <v>       0.33333333       0.22222222       0.11111111 </v>
   <v>       0.44444444       0.22222222       0.11111111 </v>
   <v>      -0.44444444       0.22222222       0.11111111 </v>
   <v>      -0.22222222       0.22222222       0.11111111 </v>
   <v>      -0.11111111       0.22222222       0.11111111 </v>
   <v>       0.33333333       0.33333333       0.11111111 </v>
   <v>       0.44444444       0.33333333       0.11111111 </v>
   <v>      -0.33333333       0.33333333       0.11111111 </v>
   <v>      -0.22222222       0.33333333       0.11111111 </v>
   <v>      -0.11111111       0.33333333       0.11111111 </v>
   <v>      -0.44444444       0.44444444       0.11111111 </v>
   <v>      -0.33333333       0.44444444       0.11111111 </v>
   <v>      -0.22222222       0.44444444       0.11111111 </v>
   <v>      -0.11111111       0.44444444       0.11111111 </v>
   <v>      -0.44444444      -0.44444444       0.11111111 </v>
   <v>      -0.33333333      -0.44444444       0.11111111 </v>
   <v>      -0.22222222      -0.44444444       0.11111111 </v>
   <v>      -0.11111111      -0.44444444       0.11111111 </v>
   <v>      -0.33333333      -0.33333333       0.11111111 </v>
   <v>      -0.22222222      -0.33333333       0.11111111 </v>
   <v>      -0.11111111      -0.33333333       0.11111111 </v>
   <v>      -0.22222222      -0.22222222       0.11111111 </v>
   <v>      -0.11111111      -0.22222222       0.11111111 </v>
   <v>      -0.11111111      -0.11111111       0.11111111 </v>
   <v>       0.22222222       0.22222222       0.22222222 </v>
   <v>      -0.22222222       0.22222222       0.22222222 </v>
   <v>      -0.33333333       0.33333333       0.22222222 </v>
   <v>      -0.22222222       0.33333333       0.22222222 </v>
   <v>      -0.44444444       0.44444444       0.22222222 </v>
   <v>      -0.33333333       0.44444444       0.22222222 </v>
   <v>      -0.22222222       0.44444444       0.22222222 </v>
   <v>      -0.44444444      -0.44444444       0.22222222 </v>
   <v>      -0.33333333      -0.44444444       0.22222222 </v>
   <v>      -0.22222222      -0.44444444       0.22222222 </v>
   <v>      -0.33333333      -0.33333333       0.22222222 </v>
   <v>      -0.22222222      -0.33333333       0.22222222 </v>
   <v>      -0.22222222      -0.22222222       0.22222222 </v>
   <v>      -0.33333333       0.33333333       0.33333333 </v>
   <v>      -0.44444444       0.44444444       0.33333333 </v>
   <v>      -0.33333333       0.44444444       0.33333333 </v>
   <v>      -0.44444444      -0.44444444       0.33333333 </v>
   <v>      -0.33333333      -0.44444444       0.33333333 </v>
   <v>      -0.33333333      -0.33333333       0.33333333 </v>
   <v>      -0.44444444       0.44444444       0.44444444 </v>
   <v>      -0.44444444      -0.44444444       0.44444444 </v>
  </varray>
  <varray name="weights" >
   <v>       0.00137174 </v>
   <v>       0.01097394 </v>
   <v>       0.01097394 </v>
   <v>       0.01097394 </v>
   <v>       0.01097394 </v>
   <v>       0.01097394 </v>
   <v>       0.02194787 </v>
   <v>       0.02194787 </v>
   <v>       0.02194787 </v>
   <v>       0.02194787 </v>
   <v>       0.02194787 </v>
   <v>       0.02194787 </v>
   <v>       0.00548697 </v>
   <v>       0.01097394 </v>
   <v>       0.02194787 </v>
   <v>       0.02194787 </v>
   <v>       0.02194787 </v>
   <v>       0.02194787 </v>
   <v>       0.00548697 </v>
   <v>       0.01097394 </v>
   <v>       0.02194787 </v>
   <v>       0.02194787 </v>
   <v>       0.00548697 </v>
   <v>       0.01097394 </v>
   <v>       0.00548697 </v>
   <v>       0.01097394 </v>
   <v>       0.02194787 </v>
   <v>       0.02194787 </v>
   <v>       0.00548697 </v>
   <v>       0.01097394 </v>
   <v>       0.02194787 </v>
   <v>       0.02194787 </v>
   <v>       0.01097394 </v>
   <v>       0.01097394 </v>
   <v>       0.01097394 </v>
   <v>       0.01097394 </v>
   <v>       0.01097394 </v>
   <v>       0.01097394 </v>
   <v>       0.02194787 </v>
   <v>       0.01097394 </v>
   <v>       0.01097394 </v>
   <v>       0.02194787 </v>
   <v>       0.02194787 </v>
   <v>       0.01097394 </v>
   <v>       0.01097394 </v>
   <v>       0.02194787 </v>
   <v>       0.02194787 </v>
   <v>       0.01097394 </v>
   <v>       0.01097394 </v>
   <v>       0.02194787 </v>
   <v>       0.01097394 </v>
   <v>       0.01097394 </v>
   <v>       0.01097394 </v>
   <v>       0.00274348 </v>
   <v>       0.01097394 </v>
   <v>       0.00548697 </v>
   <v>       0.01097394 </v>
   <v>       0.01097394 </v>
   <v>       0.01097394 </v>
   <v>       0.02194787 </v>
   <v>       0.01097394 </v>
   <v>       0.01097394 </v>
   <v>       0.02194787 </v>
   <v>       0.01097394 </v>
   <v>       0.01097394 </v>
   <v>       0.01097394 </v>
   <v>       0.00274348 </v>
   <v>       0.00548697 </v>
   <v>       0.01097394 </v>
   <v>       0.01097394 </v>
   <v>       0.01097394 </v>
   <v>       0.01097394 </v>
   <v>       0.00274348 </v>
   <v>       0.00548697 </v>
   <v>       0.00274348 </v>
  </varray>
 </kpoints>
 <parameters>
  <separator name="general" >
   <i type="string" name="SYSTEM">unknown system</i>
   <i type="logical" name="LCOMPAT"> F  </i>
  </separator>
  <separator name="electronic" >
   <i type="string" name="PREC">normal</i>
   <i name="ENMAX">    350.00000000</i>
   <i name="ENAUG">    322.06900000</i>
   <i name="EDIFF">      0.00040000</i>
   <i type="int" name="IALGO">    38</i>
   <i type="int" name="IWAVPR">    11</i>
   <i type="int" name="NBANDS">     8</i>
   <i name="NELECT">      8.00000000</i>
   <i type="int" name="TURBO">     0</i>
   <i type="int" name="IRESTART">     0</i>
   <i type="int" name="NREBOOT">     0</i>
   <i type="int" name="NMIN">     0</i>
   <i name="EREF">      0.00000000</i>
   <separator name="electronic smearing" >
    <i type="int" name="ISMEAR">     0</i>
    <i name="SIGMA">      0.20000000</i>
    <i name="KSPACING">      0.50000000</i>
    <i type="logical" name="KGAMMA"> T  </i>
   </separator>
   <separator name="electronic projectors" >
    <i type="logical" name="LREAL"> F  </i>
    <v name="ROPT">      0.00000000</v>
    <i type="int" name="LMAXPAW">  -100</i>
    <i type="int" name="LMAXMIX">     2</i>
    <i type="logical" name="NLSPLINE"> F  </i>
   </separator>
   <separator name="electronic startup" >
    <i type="int" name="ISTART">     0</i>
    <i type="int" name="ICHARG">     2</i>
    <i type="int" name="INIWAV">     1</i>
   </separator>
   <separator name="electronic spin" >
    <i type="int" name="ISPIN">     1</i>
    <i type="logical" name="LNONCOLLINEAR"> F  </i>
    <v name="MAGMOM">      1.00000000      1.00000000</v>
    <i name="NUPDOWN">     -1.00000000</i>
    <i type="logical" name="LSORBIT"> F  </i>
    <v name="SAXIS">      0.00000000      0.00000000      1.00000000</v>
    <i type="logical" name="LSPIRAL"> F  </i>
    <v name="QSPIRAL">      0.00000000      0.00000000      0.00000000</v>
    <i type="logical" name="LZEROZ"> F  </i>
   </separator>
   <separator name="electronic exchange-correlation" >
    <i type="logical" name="LASPH"> F  </i>
    <i type="logical" name="LMETAGGA"> F  </i>
   </separator>
   <separator name="electronic convergence" >
    <i type="int" name="NELM">    60</i>
    <i type="int" name="NELMDL">    -5</i>
    <i type="int" name="NELMIN">     2</i>
    <i name="ENINI">    350.00000000</i>
    <separator name="electronic convergence detail" >
     <i type="logical" name="LDIAG"> T  </i>
     <i type="logical" name="LSUBROT"> F  </i>
     <i name="WEIMIN">      0.00100000</i>
     <i name="EBREAK">      0.00001250</i>
     <i name="DEPER">      0.30000000</i>
     <i type="int" name="NRMM">     4</i>
     <i name="TIME">      0.40000000</i>
    </separator>
   </separator>
   <separator name="electronic mixer" >
    <i name="AMIX">      0.40000000</i>
    <i name="BMIX">      1.00000000</i>
    <i name="AMIN">      0.10000000</i>
    <i name="AMIX_MAG">      1.60000000</i>
    <i name="BMIX_MAG">      1.00000000</i>
    <separator name="electronic mixer details" >
     <i type="int" name="IMIX">     4</i>
     <i type="logical" name="MIXFIRST"> F  </i>
     <i type="int" name="MAXMIX">   -45</i>
     <i name="WC">    100.00000000</i>
     <i type="int" name="INIMIX">     1</i>
     <i type="int" name="MIXPRE">     1</i>
     <i type="int" name="MREMOVE">     5</i>
    </separator>
   </separator>
   <separator name="electronic dipolcorrection" >
    <i type="logical" name="LDIPOL"> F  </i>
    <i type="logical" name="LMONO"> F  </i>
    <i type="int" name="IDIPOL">     0</i>
    <i name="EPSILON">      1.00000000</i>
    <v name="DIPOL">   -100.00000000   -100.00000000   -100.00000000</v>
    <i name="EFIELD">      0.00000000</i>
   </separator>
  </separator>
  <separator name="grids" >
   <i type="int" name="NGX">    18</i>
   <i type="int" name="NGY">    18</i>
   <i type="int" name="NGZ">    18</i>
   <i type="int" name="NGXF">    36</i>
   <i type="int" name="NGYF">    36</i>
   <i type="int" name="NGZF">    36</i>
   <i type="logical" name="ADDGRID"> F  </i>
  </separator>
  <separator name="ionic" >
   <i type="int" name="NSW">    15</i>
   <i type="int" name="IBRION">     2</i>
   <i type="int" name="MDALGO">     0</i>
   <i type="int" name="ISIF">     3</i>
   <i name="PSTRESS">      0.00000000</i>
   <i name="EDIFFG">     -0.01000000</i>
   <i type="int" name="NFREE">     1</i>
   <i name="POTIM">      0.50000000</i>
   <i name="SMASS">     -3.00000000</i>
   <i name="SCALEE">      1.00000000</i>
  </separator>
  <separator name="ionic md" >
   <i name="TEBEG">      0.00010000</i>
   <i name="TEEND">      0.00010000</i>
   <i type="int" name="NBLOCK">     1</i>
   <i type="int" name="KBLOCK">    15</i>
   <i type="int" name="NPACO">   256</i>
   <i name="APACO">     16.00000000</i>
  </separator>
  <separator name="symmetry" >
   <i type="int" name="ISYM">     2</i>
   <i name="SYMPREC">      0.00001000</i>
  </separator>
  <separator name="dos" >
   <i type="int" name="LORBIT">     0</i>
   <v name="RWIGS">     -1.00000000</v>
   <i type="int" name="NEDOS">   301</i>
   <i name="EMIN">     10.00000000</i>
   <i name="EMAX">    -10.00000000</i>
   <i name="EFERMI">      0.00000000</i>
  </separator>
  <separator name="writing" >
   <i type="int" name="NWRITE">     2</i>
   <i type="logical" name="LWAVE"> T  </i>
   <i type="logical" name="LDOWNSAMPLE"> F  </i>
   <i type="logical" name="LCHARG"> T  </i>
   <i type="logical" name="LPARD"> F  </i>
   <i type="logical" name="LVTOT"> F  </i>
   <i type="logical" name="LVHAR"> F  </i>
   <i type="logical" name="LELF"> F  </i>
   <i type="logical" name="LOPTICS"> F  </i>
   <v name="STM">      0.00000000      0.00000000      0.00000000      0.00000000      0.00000000      0.00000000      0.00000000</v>
  </separator>
  <separator name="performance" >
   <i type="int" name="NPAR">     8</i>
   <i type="int" name="NSIM">     4</i>
   <i type="int" name="NBLK">    -1</i>
   <i type="logical" name="LPLANE"> T  </i>
   <i type="logical" name="LSCALAPACK"> T  </i>
   <i type="logical" name="LSCAAWARE"> F  </i>
   <i type="logical" name="LSCALU"> F  </i>
   <i type="logical" name="LASYNC"> F  </i>
   <i type="logical" name="LORBITALREAL"> F  </i>
  </separator>
  <separator name="miscellaneous" >
   <i type="int" name="IDIOT">     3</i>
   <i type="int" name="ISPECIAL">     0</i>
   <i type="logical" name="LMUSIC"> F  </i>
   <v name="POMASS">     28.08500000</v>
   <v name="DARWINR">      0.00000000</v>
   <v name="DARWINV">      1.00000000</v>
   <i type="logical" name="LCORR"> T  </i>
  </separator>
  <i type="logical" name="GGA_COMPAT"> T  </i>
  <i type="logical" name="LBERRY"> F  </i>
  <i type="int" name="ICORELEVEL">     0</i>
  <i type="logical" name="LDAU"> F  </i>
  <i type="int" name="I_CONSTRAINED_M">     0</i>
  <separator name="electronic exchange-correlation" >
   <i type="string" name="GGA">--</i>
   <i type="int" name="VOSKOWN">     0</i>
   <i type="logical" name="LHFCALC"> F  </i>
   <i type="string" name="PRECFOCK"></i>
   <i type="logical" name="LSYMGRAD"> F  </i>
   <i type="logical" name="LHFONE"> F  </i>
   <i type="logical" name="LRHFCALC"> F  </i>
   <i type="logical" name="LTHOMAS"> F  </i>
   <i type="logical" name="LMODELHF"> F  </i>
   <i name="ENCUT4O">     -1.00000000</i>
   <i type="int" name="EXXOEP">     0</i>
   <i type="int" name="FOURORBIT">     0</i>
   <i name="AEXX">      0.00000000</i>
   <i name="HFALPHA">      0.00000000</i>
   <i name="MCALPHA">      0.00000000</i>
   <i name="ALDAX">      1.00000000</i>
   <i name="AGGAX">      1.00000000</i>
   <i name="ALDAC">      1.00000000</i>
   <i name="AGGAC">      1.00000000</i>
   <i type="int" name="NKREDX">     1</i>
   <i type="int" name="NKREDY">     1</i>
   <i type="int" name="NKREDZ">     1</i>
   <i type="logical" name="SHIFTRED"> F  </i>
   <i type="logical" name="ODDONLY"> F  </i>
   <i type="logical" name="EVENONLY"> F  </i>
   <i type="int" name="LMAXFOCK">     0</i>
   <i type="int" name="NMAXFOCKAE">     0</i>
   <i type="logical" name="LFOCKAEDFT"> F  </i>
   <i name="HFSCREEN">      0.00000000</i>
   <i name="HFSCREENC">      0.00000000</i>
   <i type="int" name="NBANDSGWLOW">     0</i>
  </separator>
  <separator name="vdW DFT" >
   <i type="logical" name="LUSE_VDW"> F  </i>
   <i name="Zab_VDW">     -0.84910000</i>
   <i name="PARAM1">      0.12340000</i>
   <i name="PARAM2">      1.00000000</i>
   <i name="PARAM3">      0.00000000</i>
  </separator>
  <separator name="model GW" >
   <i type="int" name="MODEL_GW">     0</i>
   <i name="MODEL_EPS0">      9.17662200</i>
   <i name="MODEL_ALPHA">      1.00000000</i>
  </separator>
  <separator name="linear response parameters" >
   <i type="logical" name="LEPSILON"> F  </i>
   <i type="logical" name="LRPA"> F  </i>
   <i type="logical" name="LNABLA"> F  </i>
   <i type="logical" name="LVEL"> F  </i>
   <i type="int" name="KINTER">     0</i>
   <i name="CSHIFT">      0.10000000</i>
   <i name="OMEGAMAX">     -1.00000000</i>
   <i name="DEG_THRESHOLD">      0.00200000</i>
   <i name="RTIME">     -0.10000000</i>
   <i name="WPLASMAI">      0.00000000</i>
   <v name="DFIELD">      0.00000000      0.00000000      0.00000000</v>
   <v name="WPLASMA">      0.00000000      0.00000000      0.00000000      0.00000000      0.00000000      0.00000000      0.00000000      0.00000000      0.00000000</v>
  </separator>
  <separator name="orbital magnetization" >
   <i type="logical" name="NUCIND"> F  </i>
   <v name="MAGPOS">      0.00000000      0.00000000      0.00000000</v>
   <i type="logical" name="LNICSALL"> T  </i>
   <i type="logical" name="ORBITALMAG"> F  </i>
   <i type="logical" name="LMAGBLOCH"> F  </i>
   <i type="logical" name="LCHIMAG"> F  </i>
   <i type="logical" name="LGAUGE"> T  </i>
   <i type="int" name="MAGATOM">     0</i>
   <v name="MAGDIPOL">      0.00000000      0.00000000      0.00000000</v>
   <v name="AVECCONST">      0.00000000      0.00000000      0.00000000</v>
  </separator>
  <separator name="response functions" >
   <i type="logical" name="LADDER"> F  </i>
   <i type="logical" name="LRPAFORCE"> F  </i>
   <i type="logical" name="LFXC"> F  </i>
   <i type="logical" name="LHARTREE"> T  </i>
   <i type="int" name="IBSE">     0</i>
   <v type="int" name="KPOINT">    -1     0     0     0</v>
   <i type="logical" name="LTCTE"> F  </i>
   <i type="logical" name="LTETE"> F  </i>
   <i type="logical" name="LTRIPLET"> F  </i>
   <i type="logical" name="LFXCEPS"> F  </i>
   <i type="logical" name="LFXHEG"> F  </i>
   <i type="int" name="NATURALO">     2</i>
   <i type="logical" name="L2ORDER"> F  </i>
   <i type="logical" name="LMP2LT"> F  </i>
   <i type="logical" name="LUSEW"> F  </i>
   <i name="ENCUTGW">     -2.00000000</i>
   <i name="ENCUTGWSOFT">     -2.00000000</i>
   <i name="ENCUTLF">     -1.00000000</i>
   <i type="int" name="LMAXMP2">    -1</i>
   <i name="SCISSOR">      0.00000000</i>
   <i type="int" name="NOMEGA">     0</i>
   <i type="int" name="NOMEGAR">     0</i>
   <i type="int" name="NBANDSGW">    -1</i>
   <i type="int" name="NBANDSO">    -1</i>
   <i type="int" name="NBANDSV">    -1</i>
   <i type="int" name="NELM">     1</i>
   <i type="int" name="NELMHF">     1</i>
   <i type="int" name="DIM">     3</i>
   <i type="int" name="ANTIRES">     0</i>
   <i name="OMEGAMAX">    -30.00000000</i>
   <i name="OMEGAMIN">    -30.00000000</i>
   <i name="OMEGATL">   -200.00000000</i>
   <i type="int" name="OMEGAGRID">   140</i>
   <i name="CSHIFT">     -0.10000000</i>
   <i type="logical" name="SELFENERGY"> F  </i>
   <i type="logical" name="LSPECTRAL"> F  </i>
   <i type="logical" name="LSPECTRALGW"> F  </i>
   <i type="logical" name="LSINGLES"> F  </i>
   <i type="logical" name="LFERMIGW"> F  </i>
   <i type="logical" name="ODDONLYGW"> F  </i>
   <i type="logical" name="EVENONLYGW"> F  </i>
   <i type="int" name="NKREDLFX">     1</i>
   <i type="int" name="NKREDLFY">     1</i>
   <i type="int" name="NKREDLFZ">     1</i>
   <i type="int" name="MAXMEM">  2800</i>
   <i type="int" name="TELESCOPE">     0</i>
   <i type="int" name="TAUPAR">     1</i>
   <i type="int" name="OMEGAPAR">    -1</i>
   <i name="LAMBDA">      1.00000000</i>
  </separator>
  <separator name="External order field" >
   <i name="OFIELD_KAPPA">      0.00000000</i>
   <v name="OFIELD_K">      0.00000000      0.00000000      0.00000000</v>
   <i name="OFIELD_Q6_NEAR">      0.00000000</i>
   <i name="OFIELD_Q6_FAR">      0.00000000</i>
   <i name="OFIELD_A">      0.00000000</i>
  </separator>
 </parameters>
 <atominfo>
  <atoms>       2 </atoms>
  <types>       1 </types>
  <array name="atoms" >
   <dimension dim="1">ion</dimension>
   <field type="string">element</field>
   <field type="int">atomtype</field>
   <set>
    <rc><c>Si</c><c>   1</c></rc>
    <rc><c>Si</c><c>   1</c></rc>
   </set>
  </array>
  <array name="atomtypes" >
   <dimension dim="1">type</dimension>
   <field type="int">atomspertype</field>
   <field type="string">element</field>
   <field>mass</field>
   <field>valence</field>
   <field type="string">pseudopotential</field>
   <set>
    <rc><c>   2</c><c>Si</c><c>     28.08500000</c><c>      4.00000000</c><c> PAW_PBE Si 05Jan2001                   </c></rc>
   </set>
  </array>
 </atominfo>
 <structure name="initialpos" >
  <crystal>
   <varray name="basis" >
    <v>      -2.45000000       2.45000000       1.27400000 </v>
    <v>       2.45000000      -2.45000000       1.27400000 </v>
    <v>       2.45000000       2.45000000      -1.27400000 </v>
   </varray>
   <i name="volume">     30.58874000 </i>
   <varray name="rec_basis" >
    <v>       0.00000000       0.20408163       0.39246468 </v>
    <v>       0.20408163       0.00000000       0.39246468 </v>
    <v>       0.20408163       0.20408163      -0.00000000 </v>
   </varray>
  </crystal>
  <varray name="positions" >
   <v>       0.25000000       0.75000000       0.50000000 </v>
   <v>       0.00000000       0.00000000       0.00000000 </v>
  </varray>
 </structure>
 <calculation>
  <scstep>
   <time name="dav">    0.79    0.79</time>
   <time name="total">    0.83    0.86</time>
   <energy>
    <i name="alphaZ">      4.40202223 </i>
    <i name="ewald">   -265.18101312 </i>
    <i name="hartreedc">     -2.30415367 </i>
    <i name="XCdc">    -17.81549222 </i>
    <i name="pawpsdc">     65.95520812 </i>
    <i name="pawaedc">    -30.76852678 </i>
    <i name="eentropy">     -0.01135683 </i>
    <i name="bandstr">     40.82595064 </i>
    <i name="atom">    206.13125414 </i>
    <i name="e_fr_energy">      1.23389251 </i>
    <i name="e_wo_entrp">      1.24524935 </i>
    <i name="e_0_energy">      1.23957093 </i>
   </energy>
  </scstep>
  <scstep>
   <time name="dav">    1.13    1.15</time>
   <time name="total">    1.13    1.15</time>
   <energy>
    <i name="e_fr_energy">    -10.11973631 </i>
    <i name="e_wo_entrp">    -10.10884665 </i>
    <i name="e_0_energy">    -10.11429148 </i>
   </energy>
  </scstep>
  <scstep>
   <time name="dav">    1.06    1.07</time>
   <time name="total">    1.06    1.07</time>
   <energy>
    <i name="e_fr_energy">    -10.25491524 </i>
    <i name="e_wo_entrp">    -10.24322762 </i>
    <i name="e_0_energy">    -10.24907143 </i>
   </energy>
  </scstep>
  <scstep>
   <time name="dav">    1.21    1.22</time>
   <time name="total">    1.21    1.22</time>
   <energy>
    <i name="e_fr_energy">    -10.25525772 </i>
    <i name="e_wo_entrp">    -10.24357010 </i>
    <i name="e_0_energy">    -10.24941391 </i>
   </energy>
  </scstep>
  <scstep>
   <time name="dav">    1.08    1.09</time>
   <time name="total">    1.14    1.15</time>
   <energy>
    <i name="e_fr_energy">    -10.25525802 </i>
    <i name="e_wo_entrp">    -10.24357039 </i>
    <i name="e_0_energy">    -10.24941421 </i>
   </energy>
  </scstep>
  <scstep>
   <time name="dav">    1.00    1.00</time>
   <time name="total">    1.10    1.11</time>
   <energy>
    <i name="e_fr_energy">    -10.25089969 </i>
    <i name="e_wo_entrp">    -10.23926494 </i>
    <i name="e_0_energy">    -10.24508232 </i>
   </energy>
  </scstep>
  <scstep>
   <time name="dav">    0.89    0.89</time>
   <time name="total">    0.98    1.00</time>
   <energy>
    <i name="e_fr_energy">    -10.24722062 </i>
    <i name="e_wo_entrp">    -10.23566889 </i>
    <i name="e_0_energy">    -10.24144476 </i>
   </energy>
  </scstep>
  <scstep>
   <time name="dav">    0.65    0.65</time>
   <time name="total">    0.69    0.70</time>
   <energy>
    <i name="alphaZ">      4.40202223 </i>
    <i name="ewald">   -265.18101312 </i>
    <i name="hartreedc">     -2.49724598 </i>
    <i name="XCdc">    -17.58346585 </i>
    <i name="pawpsdc">     70.21830367 </i>
    <i name="pawaedc">    -35.13079111 </i>
    <i name="eentropy">     -0.01155885 </i>
    <i name="bandstr">     29.40528842 </i>
    <i name="atom">    206.13125414 </i>
    <i name="e_fr_energy">    -10.24720643 </i>
    <i name="e_wo_entrp">    -10.23564758 </i>
    <i name="e_0_energy">    -10.24142701 </i>
   </energy>
  </scstep>
  <structure>
   <crystal>
    <varray name="basis" >
     <v>      -2.45000000       2.45000000       1.27400000 </v>
     <v>       2.45000000      -2.45000000       1.27400000 </v>
     <v>       2.45000000       2.45000000      -1.27400000 </v>
    </varray>
    <i name="volume">     30.58874000 </i>
    <varray name="rec_basis" >
     <v>       0.00000000       0.20408163       0.39246468 </v>
     <v>       0.20408163       0.00000000       0.39246468 </v>
     <v>       0.20408163       0.20408163      -0.00000000 </v>
    </varray>
   </crystal>
   <varray name="positions" >
    <v>       0.25000000       0.75000000       0.50000000 </v>
    <v>       0.00000000       0.00000000       0.00000000 </v>
   </varray>
  </structure>
  <varray name="forces" >
   <v>       0.00000000      -0.00000000      -0.00000000 </v>
   <v>      -0.00000000       0.00000000       0.00000000 </v>
  </varray>
  <varray name="stress" >
   <v>     -12.22873113       0.00000000       0.00000000 </v>
   <v>      -0.00000000     -12.22873113       0.00000000 </v>
   <v>       0.00000000       0.00000000      36.69949318 </v>
  </varray>
  <energy>
   <i name="e_fr_energy">    -10.24720643 </i>
   <i name="e_wo_entrp">    -10.24142701 </i>
   <i name="e_0_energy">     -0.01155885 </i>
  </energy>
  <time name="totalsc">    9.50   11.01</time>
 </calculation>
 <calculation>
  <scstep>
   <time name="dav">    1.12    1.12</time>
   <time name="total">    1.22    1.23</time>
   <energy>
    <i name="alphaZ">      4.37803220 </i>
    <i name="ewald">   -264.78453306 </i>
    <i name="hartreedc">     -2.48409406 </i>
    <i name="XCdc">    -17.61061601 </i>
    <i name="pawpsdc">     70.21276878 </i>
    <i name="pawaedc">    -35.12553607 </i>
    <i name="eentropy">     -0.01327959 </i>
    <i name="bandstr">     29.03064325 </i>
    <i name="atom">    206.13125414 </i>
    <i name="e_fr_energy">    -10.26536043 </i>
    <i name="e_wo_entrp">    -10.25208084 </i>
    <i name="e_0_energy">    -10.25872063 </i>
   </energy>
  </scstep>
  <scstep>
   <time name="dav">    1.02    1.01</time>
   <time name="total">    1.11    1.12</time>
   <energy>
    <i name="e_fr_energy">    -10.26137362 </i>
    <i name="e_wo_entrp">    -10.24793770 </i>
    <i name="e_0_energy">    -10.25465566 </i>
   </energy>
  </scstep>
  <scstep>
   <time name="dav">    1.07    1.06</time>
   <time name="total">    1.16    1.18</time>
   <energy>
    <i name="e_fr_energy">    -10.25945414 </i>
    <i name="e_wo_entrp">    -10.24583666 </i>
    <i name="e_0_energy">    -10.25264540 </i>
   </energy>
  </scstep>
  <scstep>
   <time name="dav">    0.36    0.36</time>
   <time name="total">    0.39    0.41</time>
   <energy>
    <i name="alphaZ">      4.37803220 </i>
    <i name="ewald">   -264.78453306 </i>
    <i name="hartreedc">     -2.48517080 </i>
    <i name="XCdc">    -17.61420734 </i>
    <i name="pawpsdc">     70.06617511 </i>
    <i name="pawaedc">    -34.97525952 </i>
    <i name="eentropy">     -0.01361252 </i>
    <i name="bandstr">     29.03785216 </i>
    <i name="atom">    206.13125414 </i>
    <i name="e_fr_energy">    -10.25946963 </i>
    <i name="e_wo_entrp">    -10.24585711 </i>
    <i name="e_0_energy">    -10.25266337 </i>
   </energy>
  </scstep>
  <structure>
   <crystal>
    <varray name="basis" >
     <v>      -2.43620252       2.43620252       1.29553187 </v>
     <v>       2.43620252      -2.43620252       1.29553187 </v>
     <v>       2.43620252       2.43620252      -1.29553187 </v>
    </varray>
    <i name="volume">     30.75635526 </i>
    <varray name="rec_basis" >
     <v>       0.00000000       0.20523745       0.38594188 </v>
     <v>       0.20523745       0.00000000       0.38594188 </v>
     <v>       0.20523745       0.20523745      -0.00000000 </v>
    </varray>
   </crystal>
   <varray name="positions" >
    <v>       0.25000000       0.75000000       0.50000000 </v>
    <v>       0.00000000       0.00000000       0.00000000 </v>
   </varray>
  </structure>
  <varray name="forces" >
   <v>       0.00000000       0.00000000       0.00000000 </v>
   <v>      -0.00000000      -0.00000000      -0.00000000 </v>
  </varray>
  <varray name="stress" >
   <v>     -17.85680642       0.00000000       0.00000000 </v>
   <v>       0.00000000     -17.85680642       0.00000000 </v>
   <v>       0.00000000      -0.00000000      22.82539049 </v>
  </varray>
  <energy>
   <i name="e_fr_energy">    -10.25946963 </i>
   <i name="e_wo_entrp">    -10.25266337 </i>
   <i name="e_0_energy">     -0.01361252 </i>
  </energy>
  <time name="totalsc">    4.27    4.70</time>
 </calculation>
 <calculation>
  <scstep>
   <time name="dav">    0.73    0.73</time>
   <time name="total">    0.79    0.80</time>
   <energy>
    <i name="alphaZ">      4.31550931 </i>
    <i name="ewald">   -263.45751206 </i>
    <i name="hartreedc">     -2.44798597 </i>
    <i name="XCdc">    -17.69151114 </i>
    <i name="pawpsdc">     70.04482816 </i>
    <i name="pawaedc">    -34.95300235 </i>
    <i name="eentropy">     -0.01037116 </i>
    <i name="bandstr">     27.75185729 </i>
    <i name="atom">    206.13125414 </i>
    <i name="e_fr_energy">    -10.31693377 </i>
    <i name="e_wo_entrp">    -10.30656261 </i>
    <i name="e_0_energy">    -10.31174819 </i>
   </energy>
  </scstep>
  <scstep>
   <time name="dav">    0.64    0.64</time>
   <time name="total">    0.70    0.72</time>
   <energy>
    <i name="e_fr_energy">    -10.28528407 </i>
    <i name="e_wo_entrp">    -10.27468555 </i>
    <i name="e_0_energy">    -10.27998481 </i>
   </energy>
  </scstep>
  <scstep>
   <time name="dav">    0.70    0.70</time>
   <time name="total">    0.76    0.77</time>
   <energy>
    <i name="e_fr_energy">    -10.26969938 </i>
    <i name="e_wo_entrp">    -10.25865186 </i>
    <i name="e_0_energy">    -10.26417562 </i>
   </energy>
  </scstep>
  <scstep>
   <time name="dav">    0.59    0.61</time>
   <time name="total">    0.61    0.64</time>
   <energy>
    <i name="alphaZ">      4.31550931 </i>
    <i name="ewald">   -263.45751206 </i>
    <i name="hartreedc">     -2.61388839 </i>
    <i name="XCdc">    -17.68102804 </i>
    <i name="pawpsdc">     70.04968095 </i>
    <i name="pawaedc">    -34.95973428 </i>
    <i name="eentropy">     -0.01103260 </i>
    <i name="bandstr">     27.95693199 </i>
    <i name="atom">    206.13125414 </i>
    <i name="e_fr_energy">    -10.26981897 </i>
    <i name="e_wo_entrp">    -10.25878637 </i>
    <i name="e_0_energy">    -10.26430267 </i>
   </energy>
  </scstep>
  <structure>
   <crystal>
    <varray name="basis" >
     <v>      -2.39481009       2.39481009       1.36012747 </v>
     <v>       2.39481009      -2.39481009       1.36012747 </v>
     <v>       2.39481009       2.39481009      -1.36012747 </v>
    </varray>
    <i name="volume">     31.20195185 </i>
    <varray name="rec_basis" >
     <v>      -0.00000000       0.20878482       0.36761260 </v>
     <v>       0.20878482      -0.00000000       0.36761260 </v>
     <v>       0.20878482       0.20878482      -0.00000000 </v>
    </varray>
   </crystal>
   <varray name="positions" >
    <v>       0.25000000       0.75000000       0.50000000 </v>
    <v>       0.00000000       0.00000000       0.00000000 </v>
   </varray>
  </structure>
  <varray name="forces" >
   <v>      -0.00000000       0.00000000      -0.00000000 </v>
   <v>       0.00000000      -0.00000000       0.00000000 </v>
  </varray>
  <varray name="stress" >
   <v>     -10.39756790       0.00000000       0.00000000 </v>
   <v>       0.00000000     -10.39756790       0.00000000 </v>
   <v>       0.00000000       0.00000000     -24.93498109 </v>
  </varray>
  <energy>
   <i name="e_fr_energy">    -10.26981897 </i>
   <i name="e_wo_entrp">    -10.26430267 </i>
   <i name="e_0_energy">     -0.01103260 </i>
  </energy>
  <time name="totalsc">    3.26    3.52</time>
 </calculation>
 <calculation>
  <scstep>
   <time name="dav">    0.71    0.71</time>
   <time name="total">    0.77    0.78</time>
   <energy>
    <i name="alphaZ">      4.33551801 </i>
    <i name="ewald">   -263.93491776 </i>
    <i name="hartreedc">     -2.60636151 </i>
    <i name="XCdc">    -17.65954169 </i>
    <i name="pawpsdc">     69.99460599 </i>
    <i name="pawaedc">    -34.90175539 </i>
    <i name="eentropy">     -0.01387180 </i>
    <i name="bandstr">     28.37859745 </i>
    <i name="atom">    206.13125414 </i>
    <i name="e_fr_energy">    -10.27647256 </i>
    <i name="e_wo_entrp">    -10.26260076 </i>
    <i name="e_0_energy">    -10.26953666 </i>
   </energy>
  </scstep>
  <scstep>
   <time name="dav">    0.64    0.65</time>
   <time name="total">    0.71    0.76</time>
   <energy>
    <i name="e_fr_energy">    -10.27319356 </i>
    <i name="e_wo_entrp">    -10.25951091 </i>
    <i name="e_0_energy">    -10.26635223 </i>
   </energy>
  </scstep>
  <scstep>
   <time name="dav">    0.70    0.71</time>
   <time name="total">    0.77    0.78</time>
   <energy>
    <i name="e_fr_energy">    -10.27152120 </i>
    <i name="e_wo_entrp">    -10.25810590 </i>
    <i name="e_0_energy">    -10.26481355 </i>
   </energy>
  </scstep>
  <scstep>
   <time name="dav">    0.32    0.32</time>
   <time name="total">    0.34    0.36</time>
   <energy>
    <i name="alphaZ">      4.33551801 </i>
    <i name="ewald">   -263.93491776 </i>
    <i name="hartreedc">     -2.53609103 </i>
    <i name="XCdc">    -17.66515491 </i>
    <i name="pawpsdc">     69.94657813 </i>
    <i name="pawaedc">    -34.85212549 </i>
    <i name="eentropy">     -0.01342214 </i>
    <i name="bandstr">     28.31682664 </i>
    <i name="atom">    206.13125414 </i>
    <i name="e_fr_energy">    -10.27153439 </i>
    <i name="e_wo_entrp">    -10.25811226 </i>
    <i name="e_0_energy">    -10.26482333 </i>
   </energy>
  </scstep>
  <structure>
   <crystal>
    <varray name="basis" >
     <v>      -2.40907823       2.40907823       1.33786110 </v>
     <v>       2.40907823      -2.40907823       1.33786110 </v>
     <v>       2.40907823       2.40907823      -1.33786110 </v>
    </varray>
    <i name="volume">     31.05795276 </i>
    <varray name="rec_basis" >
     <v>      -0.00000000       0.20754826       0.37373087 </v>
     <v>       0.20754826      -0.00000000       0.37373087 </v>
     <v>       0.20754826       0.20754826       0.00000000 </v>
    </varray>
   </crystal>
   <varray name="positions" >
    <v>       0.25000000       0.75000000       0.50000000 </v>
    <v>       0.00000000       0.00000000       0.00000000 </v>
   </varray>
  </structure>
  <varray name="forces" >
   <v>      -0.00000000      -0.00000000      -0.00000000 </v>
   <v>       0.00000000       0.00000000       0.00000000 </v>
  </varray>
  <varray name="stress" >
   <v>     -15.72714601       0.00000000       0.00000000 </v>
   <v>       0.00000000     -15.72714601      -0.00000000 </v>
   <v>       0.00000000      -0.00000000      -8.00563747 </v>
  </varray>
  <energy>
   <i name="e_fr_energy">    -10.27153439 </i>
   <i name="e_wo_entrp">    -10.26482333 </i>
   <i name="e_0_energy">     -0.01342214 </i>
  </energy>
  <time name="totalsc">    2.99    3.25</time>
 </calculation>
 <calculation>
  <scstep>
   <time name="dav">    0.72    0.72</time>
   <time name="total">    0.78    0.79</time>
   <energy>
    <i name="alphaZ">      4.43886263 </i>
    <i name="ewald">   -265.97578165 </i>
    <i name="hartreedc">     -2.55791280 </i>
    <i name="XCdc">    -17.54534422 </i>
    <i name="pawpsdc">     69.95725618 </i>
    <i name="pawaedc">    -34.86351280 </i>
    <i name="eentropy">     -0.01212223 </i>
    <i name="bandstr">     30.15233471 </i>
    <i name="atom">    206.13125414 </i>
    <i name="e_fr_energy">    -10.27496604 </i>
    <i name="e_wo_entrp">    -10.26284381 </i>
    <i name="e_0_energy">    -10.26890493 </i>
   </energy>
  </scstep>
  <scstep>
   <time name="dav">    0.65    0.65</time>
   <time name="total">    0.71    0.72</time>
   <energy>
    <i name="e_fr_energy">    -10.27262541 </i>
    <i name="e_wo_entrp">    -10.26041542 </i>
    <i name="e_0_energy">    -10.26652042 </i>
   </energy>
  </scstep>
  <scstep>
   <time name="dav">    0.66    0.66</time>
   <time name="total">    0.72    0.73</time>
   <energy>
    <i name="e_fr_energy">    -10.27125108 </i>
    <i name="e_wo_entrp">    -10.25892090 </i>
    <i name="e_0_energy">    -10.26508599 </i>
   </energy>
  </scstep>
  <scstep>
   <time name="dav">    0.32    0.32</time>
   <time name="total">    0.34    0.35</time>
   <energy>
    <i name="alphaZ">      4.43886263 </i>
    <i name="ewald">   -265.97578165 </i>
    <i name="hartreedc">     -2.45256571 </i>
    <i name="XCdc">    -17.53045242 </i>
    <i name="pawpsdc">     70.55219823 </i>
    <i name="pawaedc">    -35.47405376 </i>
    <i name="eentropy">     -0.01232038 </i>
    <i name="bandstr">     30.05160755 </i>
    <i name="atom">    206.13125414 </i>
    <i name="e_fr_energy">    -10.27125138 </i>
    <i name="e_wo_entrp">    -10.25893100 </i>
    <i name="e_0_energy">    -10.26509119 </i>
   </energy>
  </scstep>
  <structure>
   <crystal>
    <varray name="basis" >
     <v>      -2.37884085       2.37884085       1.34014363 </v>
     <v>       2.37884085      -2.37884085       1.34014363 </v>
     <v>       2.37884085       2.37884085      -1.34014363 </v>
    </varray>
    <i name="volume">     30.33486839 </i>
    <varray name="rec_basis" >
     <v>      -0.00000000       0.21018640       0.37309434 </v>
     <v>       0.21018640      -0.00000000       0.37309434 </v>
     <v>       0.21018640       0.21018640       0.00000000 </v>
    </varray>
   </crystal>
   <varray name="positions" >
    <v>       0.25000000       0.75000000       0.50000000 </v>
    <v>       0.00000000       0.00000000       0.00000000 </v>
   </varray>
  </structure>
  <varray name="forces" >
   <v>      -0.00000000       0.00000000       0.00000000 </v>
   <v>       0.00000000      -0.00000000      -0.00000000 </v>
  </varray>
  <varray name="stress" >
   <v>      18.05235105       0.00000000      -0.00000000 </v>
   <v>       0.00000000      18.05235105       0.00000000 </v>
   <v>      -0.00000000       0.00000000       7.35516046 </v>
  </varray>
  <energy>
   <i name="e_fr_energy">    -10.27125138 </i>
   <i name="e_wo_entrp">    -10.26509119 </i>
   <i name="e_0_energy">     -0.01232038 </i>
  </energy>
  <time name="totalsc">    2.95    3.18</time>
 </calculation>
 <calculation>
  <scstep>
   <time name="dav">    0.72    0.72</time>
   <time name="total">    0.78    0.79</time>
   <energy>
    <i name="alphaZ">      4.38357732 </i>
    <i name="ewald">   -264.89058689 </i>
    <i name="hartreedc">     -2.43857280 </i>
    <i name="XCdc">    -17.59389354 </i>
    <i name="pawpsdc">     70.58665889 </i>
    <i name="pawaedc">    -35.51021678 </i>
    <i name="eentropy">     -0.01327663 </i>
    <i name="bandstr">     29.07066468 </i>
    <i name="atom">    206.13125414 </i>
    <i name="e_fr_energy">    -10.27439161 </i>
    <i name="e_wo_entrp">    -10.26111498 </i>
    <i name="e_0_energy">    -10.26775330 </i>
   </energy>
  </scstep>
  <scstep>
   <time name="dav">    0.62    0.63</time>
   <time name="total">    0.69    0.70</time>
   <energy>
    <i name="e_fr_energy">    -10.27373714 </i>
    <i name="e_wo_entrp">    -10.26051827 </i>
    <i name="e_0_energy">    -10.26712770 </i>
   </energy>
  </scstep>
  <scstep>
   <time name="dav">    0.39    0.39</time>
   <time name="total">    0.41    0.42</time>
   <energy>
    <i name="alphaZ">      4.38357732 </i>
    <i name="ewald">   -264.89058689 </i>
    <i name="hartreedc">     -2.49330224 </i>
    <i name="XCdc">    -17.60114103 </i>
    <i name="pawpsdc">     70.27611932 </i>
    <i name="pawaedc">    -35.19207660 </i>
    <i name="eentropy">     -0.01314068 </i>
    <i name="bandstr">     29.12595238 </i>
    <i name="atom">    206.13125414 </i>
    <i name="e_fr_energy">    -10.27334428 </i>
    <i name="e_wo_entrp">    -10.26020360 </i>
    <i name="e_0_energy">    -10.26677394 </i>
   </energy>
  </scstep>
  <structure>
   <crystal>
    <varray name="basis" >
     <v>      -2.39487656       2.39487656       1.33893314 </v>
     <v>       2.39487656      -2.39487656       1.33893314 </v>
     <v>       2.39487656       2.39487656      -1.33893314 </v>
    </varray>
    <i name="volume">     30.71744921 </i>
    <varray name="rec_basis" >
     <v>       0.00000000       0.20877903       0.37343164 </v>
     <v>       0.20877903       0.00000000       0.37343164 </v>
     <v>       0.20877903       0.20877903      -0.00000000 </v>
    </varray>
   </crystal>
   <varray name="positions" >
    <v>       0.25000000       0.75000000       0.50000000 </v>
    <v>       0.00000000       0.00000000       0.00000000 </v>
   </varray>
  </structure>
  <varray name="forces" >
   <v>      -0.00000000      -0.00000000       0.00000000 </v>
   <v>       0.00000000       0.00000000      -0.00000000 </v>
  </varray>
  <varray name="stress" >
   <v>      -0.74459064      -0.00000000      -0.00000000 </v>
   <v>      -0.00000000      -0.74459064       0.00000000 </v>
   <v>       0.00000000       0.00000000       0.21961812 </v>
  </varray>
  <energy>
   <i name="e_fr_energy">    -10.27334428 </i>
   <i name="e_wo_entrp">    -10.26677394 </i>
   <i name="e_0_energy">     -0.01314068 </i>
  </energy>
  <time name="totalsc">    2.33    2.70</time>
  <eigenvalues>
   <array>
    <dimension dim="1">band</dimension>
    <dimension dim="2">kpoint</dimension>
    <dimension dim="3">spin</dimension>
    <field>eigene</field>
    <field>occ</field>
    <set>
     <set comment="spin 1">
      <set comment="kpoint 1">
       <r>   -4.6158    1.0000 </r>
       <r>    6.6495    1.0000 </r>
       <r>    6.6495    1.0000 </r>
       <r>    7.1735    1.0000 </r>
       <r>   10.7167    0.0000 </r>
       <r>   16.4955    0.0000 </r>
       <r>   17.9575    0.0000 </r>
       <r>   17.9575    0.0000 </r>
      </set>
      <set comment="kpoint 2">
       <r>   -4.2909    1.0000 </r>
       <r>    5.8710    1.0000 </r>
       <r>    6.5219    1.0000 </r>
       <r>    8.4975    1.0000 </r>
       <r>   11.4322    0.0000 </r>
       <r>   14.6876    0.0000 </r>
       <r>   15.2245    0.0000 </r>
       <r>   17.0591    0.0000 </r>
      </set>
      <set comment="kpoint 3">
       <r>   -3.3207    1.0000 </r>
       <r>    5.4545    1.0000 </r>
       <r>    6.4371    1.0000 </r>
       <r>    9.8716    0.0000 </r>
       <r>   11.6617    0.0000 </r>
       <r>   12.4055    0.0000 </r>
       <r>   13.0391    0.0000 </r>
       <r>   15.0772    0.0000 </r>
      </set>
      <set comment="kpoint 4">
       <r>   -1.7205    1.0000 </r>
       <r>    5.4888    1.0000 </r>
       <r>    6.6841    1.0000 </r>
       <r>    6.9919    1.0000 </r>
       <r>    9.9463    0.0000 </r>
       <r>   12.0179    0.0000 </r>
       <r>   13.3651    0.0000 </r>
       <r>   14.2679    0.0000 </r>
      </set>
      <set comment="kpoint 5">
       <r>    0.4539    1.0000 </r>
       <r>    3.3732    1.0000 </r>
       <r>    6.6015    1.0000 </r>
       <r>    7.1676    1.0000 </r>
       <r>    8.0500    1.0000 </r>
       <r>   10.4532    0.0000 </r>
       <r>   13.5941    0.0000 </r>
       <r>   14.5108    0.0000 </r>
      </set>
      <set comment="kpoint 6">
       <r>   -3.4741    1.0000 </r>
       <r>    5.7030    1.0000 </r>
       <r>    7.5264    1.0000 </r>
       <r>    9.1611    0.2550 </r>
       <r>   11.7885    0.0000 </r>
       <r>   11.9367    0.0000 </r>
       <r>   12.7707    0.0000 </r>
       <r>   15.0334    0.0000 </r>
      </set>
      <set comment="kpoint 7">
       <r>   -2.0234    1.0000 </r>
       <r>    5.7406    1.0000 </r>
       <r>    7.5055    1.0000 </r>
       <r>    8.1242    1.0000 </r>
       <r>    9.4658    0.0024 </r>
       <r>   11.6007    0.0000 </r>
       <r>   12.4889    0.0000 </r>
       <r>   13.7044    0.0000 </r>
      </set>
      <set comment="kpoint 8">
       <r>    0.0231    1.0000 </r>
       <r>    4.2117    1.0000 </r>
       <r>    6.3959    1.0000 </r>
       <r>    6.8073    1.0000 </r>
       <r>    8.8369    0.9488 </r>
       <r>   10.9563    0.0000 </r>
       <r>   12.4595    0.0000 </r>
       <r>   14.9070    0.0000 </r>
      </set>
      <set comment="kpoint 9">
       <r>    1.1421    1.0000 </r>
       <r>    2.8258    1.0000 </r>
       <r>    5.2198    1.0000 </r>
       <r>    7.2699    1.0000 </r>
       <r>    8.5414    0.9999 </r>
       <r>   11.2816    0.0000 </r>
       <r>   12.4612    0.0000 </r>
       <r>   15.8118    0.0000 </r>
      </set>
      <set comment="kpoint 10">
       <r>   -1.1172    1.0000 </r>
       <r>    4.0537    1.0000 </r>
       <r>    6.0685    1.0000 </r>
       <r>    6.9921    1.0000 </r>
       <r>    9.8074    0.0000 </r>
       <r>   12.4313    0.0000 </r>
       <r>   13.3484    0.0000 </r>
       <r>   14.7319    0.0000 </r>
      </set>
      <set comment="kpoint 11">
       <r>   -2.8616    1.0000 </r>
       <r>    3.7583    1.0000 </r>
       <r>    6.5163    1.0000 </r>
       <r>    9.6431    0.0000 </r>
       <r>   11.8362    0.0000 </r>
       <r>   12.2238    0.0000 </r>
       <r>   13.7658    0.0000 </r>
       <r>   15.0696    0.0000 </r>
      </set>
      <set comment="kpoint 12">
       <r>   -3.9826    1.0000 </r>
       <r>    4.0049    1.0000 </r>
       <r>    6.6191    1.0000 </r>
       <r>    9.5971    0.0001 </r>
       <r>   12.9737    0.0000 </r>
       <r>   13.6081    0.0000 </r>
       <r>   14.6150    0.0000 </r>
       <r>   16.1723    0.0000 </r>
      </set>
      <set comment="kpoint 13">
       <r>   -4.4612    1.0000 </r>
       <r>    4.8159    1.0000 </r>
       <r>    6.7892    1.0000 </r>
       <r>    8.3966    1.0000 </r>
       <r>   11.7169    0.0000 </r>
       <r>   15.1424    0.0000 </r>
       <r>   17.1027    0.0000 </r>
       <r>   17.8216    0.0000 </r>
      </set>
      <set comment="kpoint 14">
       <r>   -0.1222    1.0000 </r>
       <r>    5.1825    1.0000 </r>
       <r>    5.4163    1.0000 </r>
       <r>    6.5652    1.0000 </r>
       <r>    9.7708    0.0000 </r>
       <r>   11.3041    0.0000 </r>
       <r>   12.6249    0.0000 </r>
       <r>   13.0748    0.0000 </r>
      </set>
      <set comment="kpoint 15">
       <r>    1.8843    1.0000 </r>
       <r>    2.7260    1.0000 </r>
       <r>    3.7938    1.0000 </r>
       <r>    7.3298    1.0000 </r>
       <r>    9.1846    0.2047 </r>
       <r>   10.7403    0.0000 </r>
       <r>   13.5153    0.0000 </r>
       <r>   15.7914    0.0000 </r>
      </set>
      <set comment="kpoint 16">
       <r>   -0.2189    1.0000 </r>
       <r>    2.4111    1.0000 </r>
       <r>    5.6498    1.0000 </r>
       <r>    7.6358    1.0000 </r>
       <r>    9.3836    0.0128 </r>
       <r>   11.2246    0.0000 </r>
       <r>   14.8204    0.0000 </r>
       <r>   15.8631    0.0000 </r>
      </set>
      <set comment="kpoint 17">
       <r>   -2.0995    1.0000 </r>
       <r>    1.9224    1.0000 </r>
       <r>    7.1484    1.0000 </r>
       <r>    9.1977    0.1794 </r>
       <r>   10.8008    0.0000 </r>
       <r>   12.7615    0.0000 </r>
       <r>   12.9968    0.0000 </r>
       <r>   16.2340    0.0000 </r>
      </set>
      <set comment="kpoint 18">
       <r>   -3.3678    1.0000 </r>
       <r>    2.0257    1.0000 </r>
       <r>    7.1670    1.0000 </r>
       <r>   10.3797    0.0000 </r>
       <r>   11.9324    0.0000 </r>
       <r>   13.8155    0.0000 </r>
       <r>   15.0358    0.0000 </r>
       <r>   15.6749    0.0000 </r>
      </set>
      <set comment="kpoint 19">
       <r>   -3.9985    1.0000 </r>
       <r>    2.7337    1.0000 </r>
       <r>    7.2079    1.0000 </r>
       <r>    9.2274    0.1298 </r>
       <r>   13.2999    0.0000 </r>
       <r>   14.1014    0.0000 </r>
       <r>   15.5224    0.0000 </r>
       <r>   17.4755    0.0000 </r>
      </set>
      <set comment="kpoint 20">
       <r>    0.9374    1.0000 </r>
       <r>    0.9919    1.0000 </r>
       <r>    5.5085    1.0000 </r>
       <r>    8.1592    1.0000 </r>
       <r>    9.0368    0.5870 </r>
       <r>   10.6598    0.0000 </r>
       <r>   15.8488    0.0000 </r>
       <r>   16.6328    0.0000 </r>
      </set>
      <set comment="kpoint 21">
       <r>   -1.0403    1.0000 </r>
       <r>    0.3066    1.0000 </r>
       <r>    7.9907    1.0000 </r>
       <r>    8.8081    0.9669 </r>
       <r>    9.7866    0.0000 </r>
       <r>   12.3070    0.0000 </r>
       <r>   13.9239    0.0000 </r>
       <r>   15.2611    0.0000 </r>
      </set>
      <set comment="kpoint 22">
       <r>   -2.4504    1.0000 </r>
       <r>    0.2617    1.0000 </r>
       <r>    7.9975    1.0000 </r>
       <r>   10.4063    0.0000 </r>
       <r>   11.2737    0.0000 </r>
       <r>   13.1938    0.0000 </r>
       <r>   14.4987    0.0000 </r>
       <r>   14.8502    0.0000 </r>
      </set>
      <set comment="kpoint 23">
       <r>   -3.2303    1.0000 </r>
       <r>    0.8398    1.0000 </r>
       <r>    7.9034    1.0000 </r>
       <r>   10.0702    0.0000 </r>
       <r>   11.5933    0.0000 </r>
       <r>   13.8921    0.0000 </r>
       <r>   16.7747    0.0000 </r>
       <r>   17.1788    0.0000 </r>
      </set>
      <set comment="kpoint 24">
       <r>   -1.2382    1.0000 </r>
       <r>   -1.2358    1.0000 </r>
       <r>    9.0863    0.4483 </r>
       <r>    9.0932    0.4291 </r>
       <r>   12.0379    0.0000 </r>
       <r>   12.5448    0.0000 </r>
       <r>   14.0452    0.0000 </r>
       <r>   14.7007    0.0000 </r>
      </set>
      <set comment="kpoint 25">
       <r>   -2.1616    1.0000 </r>
       <r>   -0.8005    1.0000 </r>
       <r>    8.8725    0.9165 </r>
       <r>   10.1074    0.0000 </r>
       <r>   11.1199    0.0000 </r>
       <r>   12.4017    0.0000 </r>
       <r>   17.0494    0.0000 </r>
       <r>   17.1349    0.0000 </r>
      </set>
      <set comment="kpoint 26">
       <r>   -3.0141    1.0000 </r>
       <r>    3.6613    1.0000 </r>
       <r>    7.8801    1.0000 </r>
       <r>    9.8175    0.0000 </r>
       <r>   11.1845    0.0000 </r>
       <r>   11.4049    0.0000 </r>
       <r>   14.8413    0.0000 </r>
       <r>   15.3477    0.0000 </r>
      </set>
      <set comment="kpoint 27">
       <r>   -1.4173    1.0000 </r>
       <r>    3.8607    1.0000 </r>
       <r>    6.9785    1.0000 </r>
       <r>    7.9143    1.0000 </r>
       <r>    9.6233    0.0000 </r>
       <r>   12.3699    0.0000 </r>
       <r>   13.7958    0.0000 </r>
       <r>   14.5916    0.0000 </r>
      </set>
      <set comment="kpoint 28">
       <r>    0.7503    1.0000 </r>
       <r>    3.5763    1.0000 </r>
       <r>    4.8603    1.0000 </r>
       <r>    6.2724    1.0000 </r>
       <r>    9.9122    0.0000 </r>
       <r>   12.2149    0.0000 </r>
       <r>   13.9174    0.0000 </r>
       <r>   14.3758    0.0000 </r>
      </set>
      <set comment="kpoint 29">
       <r>   -4.3069    1.0000 </r>
       <r>    4.5572    1.0000 </r>
       <r>    5.5995    1.0000 </r>
       <r>    9.7453    0.0000 </r>
       <r>   12.3431    0.0000 </r>
       <r>   13.8183    0.0000 </r>
       <r>   17.4322    0.0000 </r>
       <r>   18.2098    0.0000 </r>
      </set>
      <set comment="kpoint 30">
       <r>    0.6127    1.0000 </r>
       <r>    4.1748    1.0000 </r>
       <r>    4.8925    1.0000 </r>
       <r>    5.2942    1.0000 </r>
       <r>   11.0301    0.0000 </r>
       <r>   13.0666    0.0000 </r>
       <r>   13.7648    0.0000 </r>
       <r>   13.7807    0.0000 </r>
      </set>
      <set comment="kpoint 31">
       <r>    1.7305    1.0000 </r>
       <r>    2.8689    1.0000 </r>
       <r>    3.7962    1.0000 </r>
       <r>    6.0068    1.0000 </r>
       <r>   10.9458    0.0000 </r>
       <r>   12.4875    0.0000 </r>
       <r>   14.3068    0.0000 </r>
       <r>   15.2644    0.0000 </r>
      </set>
      <set comment="kpoint 32">
       <r>   -0.5137    1.0000 </r>
       <r>    2.1472    1.0000 </r>
       <r>    6.6019    1.0000 </r>
       <r>    7.6887    1.0000 </r>
       <r>   10.2854    0.0000 </r>
       <r>   12.7564    0.0000 </r>
       <r>   13.2774    0.0000 </r>
       <r>   15.1778    0.0000 </r>
      </set>
      <set comment="kpoint 33">
       <r>   -2.2506    1.0000 </r>
       <r>    1.7891    1.0000 </r>
       <r>    8.4169    1.0000 </r>
       <r>    9.8999    0.0000 </r>
       <r>   11.1007    0.0000 </r>
       <r>   11.2326    0.0000 </r>
       <r>   13.4659    0.0000 </r>
       <r>   14.6598    0.0000 </r>
      </set>
      <set comment="kpoint 34">
       <r>   -3.8450    1.0000 </r>
       <r>    2.8321    1.0000 </r>
       <r>    5.6790    1.0000 </r>
       <r>   10.8844    0.0000 </r>
       <r>   11.9214    0.0000 </r>
       <r>   14.3846    0.0000 </r>
       <r>   16.4280    0.0000 </r>
       <r>   17.2212    0.0000 </r>
      </set>
      <set comment="kpoint 35">
       <r>   -3.6753    1.0000 </r>
       <r>    3.8249    1.0000 </r>
       <r>    5.0391    1.0000 </r>
       <r>   11.2311    0.0000 </r>
       <r>   12.0386    0.0000 </r>
       <r>   13.8898    0.0000 </r>
       <r>   14.0184    0.0000 </r>
       <r>   16.5510    0.0000 </r>
      </set>
      <set comment="kpoint 36">
       <r>    0.6709    1.0000 </r>
       <r>    0.6877    1.0000 </r>
       <r>    6.4716    1.0000 </r>
       <r>    7.5947    1.0000 </r>
       <r>   11.0740    0.0000 </r>
       <r>   11.7085    0.0000 </r>
       <r>   13.9802    0.0000 </r>
       <r>   14.6940    0.0000 </r>
      </set>
      <set comment="kpoint 37">
       <r>   -1.1888    1.0000 </r>
       <r>    0.1626    1.0000 </r>
       <r>    9.0146    0.6470 </r>
       <r>    9.5207    0.0007 </r>
       <r>   11.2214    0.0000 </r>
       <r>   11.6911    0.0000 </r>
       <r>   12.5534    0.0000 </r>
       <r>   13.4275    0.0000 </r>
      </set>
      <set comment="kpoint 38">
       <r>   -3.0782    1.0000 </r>
       <r>    0.9746    1.0000 </r>
       <r>    6.3611    1.0000 </r>
       <r>   10.1588    0.0000 </r>
       <r>   11.7654    0.0000 </r>
       <r>   15.1991    0.0000 </r>
       <r>   16.5334    0.0000 </r>
       <r>   17.1969    0.0000 </r>
      </set>
      <set comment="kpoint 39">
       <r>   -3.0628    1.0000 </r>
       <r>    2.2557    1.0000 </r>
       <r>    5.1883    1.0000 </r>
       <r>   10.1548    0.0000 </r>
       <r>   11.9890    0.0000 </r>
       <r>   13.7061    0.0000 </r>
       <r>   15.9627    0.0000 </r>
       <r>   16.7803    0.0000 </r>
      </set>
      <set comment="kpoint 40">
       <r>   -2.4049    1.0000 </r>
       <r>    3.6948    1.0000 </r>
       <r>    4.9901    1.0000 </r>
       <r>    8.9373    0.8221 </r>
       <r>   10.7845    0.0000 </r>
       <r>   13.8658    0.0000 </r>
       <r>   14.4650    0.0000 </r>
       <r>   14.8787    0.0000 </r>
      </set>
      <set comment="kpoint 41">
       <r>   -2.0120    1.0000 </r>
       <r>   -0.6554    1.0000 </r>
       <r>    7.3527    1.0000 </r>
       <r>    8.6250    0.9991 </r>
       <r>   12.7643    0.0000 </r>
       <r>   13.9300    0.0000 </r>
       <r>   16.6181    0.0000 </r>
       <r>   16.7649    0.0000 </r>
      </set>
      <set comment="kpoint 42">
       <r>   -2.1493    1.0000 </r>
       <r>    0.5407    1.0000 </r>
       <r>    6.0000    1.0000 </r>
       <r>    8.5280    0.9999 </r>
       <r>   11.9568    0.0000 </r>
       <r>   14.2406    0.0000 </r>
       <r>   16.0055    0.0000 </r>
       <r>   16.7211    0.0000 </r>
      </set>
      <set comment="kpoint 43">
       <r>   -1.6478    1.0000 </r>
       <r>    2.2906    1.0000 </r>
       <r>    5.2390    1.0000 </r>
       <r>    8.2887    1.0000 </r>
       <r>    9.2580    0.0895 </r>
       <r>   13.8665    0.0000 </r>
       <r>   15.4061    0.0000 </r>
       <r>   16.5515    0.0000 </r>
      </set>
      <set comment="kpoint 44">
       <r>   -0.5204    1.0000 </r>
       <r>    4.0302    1.0000 </r>
       <r>    5.4830    1.0000 </r>
       <r>    5.6132    1.0000 </r>
       <r>    9.6556    0.0000 </r>
       <r>   12.1177    0.0000 </r>
       <r>   12.9954    0.0000 </r>
       <r>   16.6200    0.0000 </r>
      </set>
      <set comment="kpoint 45">
       <r>   -0.9467    1.0000 </r>
       <r>   -0.9392    1.0000 </r>
       <r>    7.1197    1.0000 </r>
       <r>    7.1363    1.0000 </r>
       <r>   11.8929    0.0000 </r>
       <r>   14.8693    0.0000 </r>
       <r>   15.6944    0.0000 </r>
       <r>   16.0950    0.0000 </r>
      </set>
      <set comment="kpoint 46">
       <r>   -0.5975    1.0000 </r>
       <r>    0.7312    1.0000 </r>
       <r>    6.1540    1.0000 </r>
       <r>    7.3220    1.0000 </r>
       <r>    8.4713    1.0000 </r>
       <r>   13.6494    0.0000 </r>
       <r>   16.4262    0.0000 </r>
       <r>   17.6391    0.0000 </r>
      </set>
      <set comment="kpoint 47">
       <r>    0.3649    1.0000 </r>
       <r>    2.8833    1.0000 </r>
       <r>    4.9621    1.0000 </r>
       <r>    5.9913    1.0000 </r>
       <r>    8.3326    1.0000 </r>
       <r>   11.8646    0.0000 </r>
       <r>   14.4661    0.0000 </r>
       <r>   17.6390    0.0000 </r>
      </set>
      <set comment="kpoint 48">
       <r>    1.6041    1.0000 </r>
       <r>    2.5226    1.0000 </r>
       <r>    5.5128    1.0000 </r>
       <r>    6.4566    1.0000 </r>
       <r>    8.7827    0.9782 </r>
       <r>   11.1065    0.0000 </r>
       <r>   11.4044    0.0000 </r>
       <r>   16.8423    0.0000 </r>
      </set>
      <set comment="kpoint 49">
       <r>    1.4668    1.0000 </r>
       <r>    1.5765    1.0000 </r>
       <r>    4.8066    1.0000 </r>
       <r>    6.9034    1.0000 </r>
       <r>    7.1439    1.0000 </r>
       <r>   11.7302    0.0000 </r>
       <r>   16.1234    0.0000 </r>
       <r>   16.8144    0.0000 </r>
      </set>
      <set comment="kpoint 50">
       <r>    1.6459    1.0000 </r>
       <r>    3.1764    1.0000 </r>
       <r>    4.3917    1.0000 </r>
       <r>    7.0078    1.0000 </r>
       <r>    8.0802    1.0000 </r>
       <r>   10.5565    0.0000 </r>
       <r>   12.9219    0.0000 </r>
       <r>   15.3184    0.0000 </r>
      </set>
      <set comment="kpoint 51">
       <r>   -0.4190    1.0000 </r>
       <r>    5.0687    1.0000 </r>
       <r>    7.1374    1.0000 </r>
       <r>    7.5513    1.0000 </r>
       <r>    8.1174    1.0000 </r>
       <r>   10.7763    0.0000 </r>
       <r>   11.0540    0.0000 </r>
       <r>   13.9539    0.0000 </r>
      </set>
      <set comment="kpoint 52">
       <r>   -0.5672    1.0000 </r>
       <r>    6.0984    1.0000 </r>
       <r>    6.1958    1.0000 </r>
       <r>    7.7575    1.0000 </r>
       <r>    8.5099    1.0000 </r>
       <r>   10.3313    0.0000 </r>
       <r>   11.8974    0.0000 </r>
       <r>   12.4480    0.0000 </r>
      </set>
      <set comment="kpoint 53">
       <r>   -2.3275    1.0000 </r>
       <r>    7.3838    1.0000 </r>
       <r>    7.8429    1.0000 </r>
       <r>    8.5836    0.9997 </r>
       <r>    9.4879    0.0015 </r>
       <r>   10.5814    0.0000 </r>
       <r>   11.9050    0.0000 </r>
       <r>   12.6875    0.0000 </r>
      </set>
      <set comment="kpoint 54">
       <r>   -3.6278    1.0000 </r>
       <r>    7.4045    1.0000 </r>
       <r>    7.4045    1.0000 </r>
       <r>    8.0889    1.0000 </r>
       <r>   11.7087    0.0000 </r>
       <r>   12.2804    0.0000 </r>
       <r>   12.3574    0.0000 </r>
       <r>   14.5735    0.0000 </r>
      </set>
      <set comment="kpoint 55">
       <r>    1.6228    1.0000 </r>
       <r>    2.8664    1.0000 </r>
       <r>    4.6563    1.0000 </r>
       <r>    4.7440    1.0000 </r>
       <r>   12.3049    0.0000 </r>
       <r>   13.5489    0.0000 </r>
       <r>   14.7675    0.0000 </r>
       <r>   14.7934    0.0000 </r>
      </set>
      <set comment="kpoint 56">
       <r>   -3.3855    1.0000 </r>
       <r>    2.7666    1.0000 </r>
       <r>    4.0972    1.0000 </r>
       <r>    9.9624    0.0000 </r>
       <r>   12.8390    0.0000 </r>
       <r>   15.5542    0.0000 </r>
       <r>   16.1147    0.0000 </r>
       <r>   16.8267    0.0000 </r>
      </set>
      <set comment="kpoint 57">
       <r>   -2.6235    1.0000 </r>
       <r>    1.3467    1.0000 </r>
       <r>    4.3526    1.0000 </r>
       <r>    8.1555    1.0000 </r>
       <r>   13.9313    0.0000 </r>
       <r>   15.5422    0.0000 </r>
       <r>   16.5358    0.0000 </r>
       <r>   18.0434    0.0000 </r>
      </set>
      <set comment="kpoint 58">
       <r>   -2.4552    1.0000 </r>
       <r>    2.3225    1.0000 </r>
       <r>    3.7124    1.0000 </r>
       <r>    8.2872    1.0000 </r>
       <r>   11.7901    0.0000 </r>
       <r>   15.4599    0.0000 </r>
       <r>   17.3136    0.0000 </r>
       <r>   17.3408    0.0000 </r>
      </set>
      <set comment="kpoint 59">
       <r>   -1.5659    1.0000 </r>
       <r>   -0.2273    1.0000 </r>
       <r>    5.3091    1.0000 </r>
       <r>    6.5926    1.0000 </r>
       <r>   14.5913    0.0000 </r>
       <r>   15.0668    0.0000 </r>
       <r>   16.8019    0.0000 </r>
       <r>   17.5528    0.0000 </r>
      </set>
      <set comment="kpoint 60">
       <r>   -1.5512    1.0000 </r>
       <r>    1.0586    1.0000 </r>
       <r>    4.0916    1.0000 </r>
       <r>    6.6052    1.0000 </r>
       <r>   11.4506    0.0000 </r>
       <r>   16.6716    0.0000 </r>
       <r>   17.4830    0.0000 </r>
       <r>   18.9826    0.0000 </r>
      </set>
      <set comment="kpoint 61">
       <r>   -0.9007    1.0000 </r>
       <r>    2.4942    1.0000 </r>
       <r>    3.9120    1.0000 </r>
       <r>    7.0633    1.0000 </r>
       <r>    8.1647    1.0000 </r>
       <r>   15.1566    0.0000 </r>
       <r>   16.4226    0.0000 </r>
       <r>   17.7441    0.0000 </r>
      </set>
      <set comment="kpoint 62">
       <r>   -0.3713    1.0000 </r>
       <r>   -0.3580    1.0000 </r>
       <r>    5.1768    1.0000 </r>
       <r>    5.1959    1.0000 </r>
       <r>   11.3275    0.0000 </r>
       <r>   17.0434    0.0000 </r>
       <r>   17.9545    0.0000 </r>
       <r>   18.3630    0.0000 </r>
      </set>
      <set comment="kpoint 63">
       <r>    0.1281    1.0000 </r>
       <r>    1.3934    1.0000 </r>
       <r>    4.4139    1.0000 </r>
       <r>    5.6193    1.0000 </r>
       <r>    7.7940    1.0000 </r>
       <r>   15.3682    0.0000 </r>
       <r>   17.8344    0.0000 </r>
       <r>   18.8249    0.0000 </r>
      </set>
      <set comment="kpoint 64">
       <r>    1.2192    1.0000 </r>
       <r>    3.1425    1.0000 </r>
       <r>    4.6919    1.0000 </r>
       <r>    4.7546    1.0000 </r>
       <r>    6.7794    1.0000 </r>
       <r>   13.2883    0.0000 </r>
       <r>   14.4764    0.0000 </r>
       <r>   17.7466    0.0000 </r>
      </set>
      <set comment="kpoint 65">
       <r>    2.1779    1.0000 </r>
       <r>    2.4023    1.0000 </r>
       <r>    4.4118    1.0000 </r>
       <r>    5.3539    1.0000 </r>
       <r>    5.5651    1.0000 </r>
       <r>   13.5519    0.0000 </r>
       <r>   15.6988    0.0000 </r>
       <r>   16.5374    0.0000 </r>
      </set>
      <set comment="kpoint 66">
       <r>    1.4200    1.0000 </r>
       <r>    4.0819    1.0000 </r>
       <r>    4.9488    1.0000 </r>
       <r>    6.0006    1.0000 </r>
       <r>    6.8165    1.0000 </r>
       <r>   11.9698    0.0000 </r>
       <r>   12.8540    0.0000 </r>
       <r>   14.3505    0.0000 </r>
      </set>
      <set comment="kpoint 67">
       <r>   -0.7161    1.0000 </r>
       <r>    6.8306    1.0000 </r>
       <r>    6.9721    1.0000 </r>
       <r>    7.5599    1.0000 </r>
       <r>    7.5599    1.0000 </r>
       <r>   11.0239    0.0000 </r>
       <r>   11.6609    0.0000 </r>
       <r>   11.6609    0.0000 </r>
      </set>
      <set comment="kpoint 68">
       <r>   -1.8712    1.0000 </r>
       <r>    1.5519    1.0000 </r>
       <r>    2.9971    1.0000 </r>
       <r>    6.3232    1.0000 </r>
       <r>   14.6949    0.0000 </r>
       <r>   15.1298    0.0000 </r>
       <r>   17.7322    0.0000 </r>
       <r>   19.4070    0.0000 </r>
      </set>
      <set comment="kpoint 69">
       <r>   -0.8344    1.0000 </r>
       <r>    0.4407    1.0000 </r>
       <r>    3.5096    1.0000 </r>
       <r>    4.7527    1.0000 </r>
       <r>   14.7349    0.0000 </r>
       <r>   14.8401    0.0000 </r>
       <r>   18.9214    0.0000 </r>
       <r>   19.9100    0.0000 </r>
      </set>
      <set comment="kpoint 70">
       <r>   -0.6684    1.0000 </r>
       <r>    1.4088    1.0000 </r>
       <r>    2.8764    1.0000 </r>
       <r>    4.9075    1.0000 </r>
       <r>   11.0724    0.0000 </r>
       <r>   17.9625    0.0000 </r>
       <r>   19.0568    0.0000 </r>
       <r>   19.8454    0.0000 </r>
      </set>
      <set comment="kpoint 71">
       <r>    0.4425    1.0000 </r>
       <r>    0.4641    1.0000 </r>
       <r>    3.5197    1.0000 </r>
       <r>    3.5323    1.0000 </r>
       <r>   10.9414    0.0000 </r>
       <r>   18.0749    0.0000 </r>
       <r>   19.9649    0.0000 </r>
       <r>   20.2704    0.0000 </r>
      </set>
      <set comment="kpoint 72">
       <r>    1.0898    1.0000 </r>
       <r>    1.8886    1.0000 </r>
       <r>    3.3556    1.0000 </r>
       <r>    4.1344    1.0000 </r>
       <r>    7.4827    1.0000 </r>
       <r>   16.8999    0.0000 </r>
       <r>   17.9886    0.0000 </r>
       <r>   19.0321    0.0000 </r>
      </set>
      <set comment="kpoint 73">
       <r>    2.6439    1.0000 </r>
       <r>    3.0759    1.0000 </r>
       <r>    4.4208    1.0000 </r>
       <r>    4.4208    1.0000 </r>
       <r>    4.6664    1.0000 </r>
       <r>   15.2202    0.0000 </r>
       <r>   15.5541    0.0000 </r>
       <r>   15.5541    0.0000 </r>
      </set>
      <set comment="kpoint 74">
       <r>    0.1366    1.0000 </r>
       <r>    0.9387    1.0000 </r>
       <r>    2.4327    1.0000 </r>
       <r>    3.2242    1.0000 </r>
       <r>   14.5926    0.0000 </r>
       <r>   14.6181    0.0000 </r>
       <r>   20.9898    0.0000 </r>
       <r>   21.6325    0.0000 </r>
      </set>
      <set comment="kpoint 75">
       <r>    1.0851    1.0000 </r>
       <r>    1.1193    1.0000 </r>
       <r>    2.5935    1.0000 </r>
       <r>    2.5935    1.0000 </r>
       <r>   10.8087    0.0000 </r>
       <r>   18.2184    0.0000 </r>
       <r>   20.9293    0.0000 </r>
       <r>   21.0594    0.0000 </r>
      </set>
     </set>
    </set>
   </array>
  </eigenvalues>
  <separator name="orbital magnetization" >
   <v name="MAGDIPOLOUT">      0.00000000      0.00000000      0.00000000</v>
  </separator>
  <dos>
   <i name="efermi">      9.06792335 </i>
   <total>
    <array>
     <dimension dim="1">gridpoints</dimension>
     <dimension dim="2">spin</dimension>
     <field>energy</field>
     <field>total</field>
     <field>integrated</field>
     <set>
      <set comment="spin 1">
       <r>    -6.6158     0.0000     0.0000 </r>
       <r>    -6.5149     0.0000     0.0000 </r>
       <r>    -6.4141     0.0000     0.0000 </r>
       <r>    -6.3133     0.0000     0.0000 </r>
       <r>    -6.2125     0.0000     0.0000 </r>
       <r>    -6.1116     0.0000     0.0000 </r>
       <r>    -6.0108     0.0000     0.0000 </r>
       <r>    -5.9100     0.0000     0.0000 </r>
       <r>    -5.8091     0.0000     0.0000 </r>
       <r>    -5.7083     0.0000     0.0000 </r>
       <r>    -5.6075     0.0000     0.0000 </r>
       <r>    -5.5067     0.0000     0.0000 </r>
       <r>    -5.4058     0.0000     0.0000 </r>
       <r>    -5.3050     0.0000     0.0000 </r>
       <r>    -5.2042     0.0000     0.0000 </r>
       <r>    -5.1034     0.0000     0.0000 </r>
       <r>    -5.0025     0.0001     0.0000 </r>
       <r>    -4.9017     0.0006     0.0001 </r>
       <r>    -4.8009     0.0028     0.0004 </r>
       <r>    -4.7000     0.0096     0.0013 </r>
       <r>    -4.5992     0.0249     0.0038 </r>
       <r>    -4.4984     0.0519     0.0091 </r>
       <r>    -4.3976     0.0874     0.0179 </r>
       <r>    -4.2967     0.1157     0.0295 </r>
       <r>    -4.1959     0.1270     0.0424 </r>
       <r>    -4.0951     0.1451     0.0570 </r>
       <r>    -3.9943     0.1857     0.0757 </r>
       <r>    -3.8934     0.2104     0.0969 </r>
       <r>    -3.7926     0.1933     0.1164 </r>
       <r>    -3.6918     0.1667     0.1332 </r>
       <r>    -3.5909     0.1686     0.1502 </r>
       <r>    -3.4901     0.2136     0.1718 </r>
       <r>    -3.3893     0.2794     0.1999 </r>
       <r>    -3.2885     0.3127     0.2315 </r>
       <r>    -3.1876     0.3109     0.2628 </r>
       <r>    -3.0868     0.3204     0.2951 </r>
       <r>    -2.9860     0.3286     0.3282 </r>
       <r>    -2.8851     0.2919     0.3577 </r>
       <r>    -2.7843     0.2249     0.3804 </r>
       <r>    -2.6835     0.1823     0.3987 </r>
       <r>    -2.5827     0.2083     0.4197 </r>
       <r>    -2.4818     0.2937     0.4494 </r>
       <r>    -2.3810     0.3757     0.4872 </r>
       <r>    -2.2802     0.4237     0.5300 </r>
       <r>    -2.1794     0.4709     0.5774 </r>
       <r>    -2.0785     0.5036     0.6282 </r>
       <r>    -1.9777     0.4516     0.6737 </r>
       <r>    -1.8769     0.3353     0.7076 </r>
       <r>    -1.7760     0.2732     0.7351 </r>
       <r>    -1.6752     0.3172     0.7671 </r>
       <r>    -1.5744     0.3902     0.8064 </r>
       <r>    -1.4736     0.4035     0.8471 </r>
       <r>    -1.3727     0.3701     0.8844 </r>
       <r>    -1.2719     0.3664     0.9214 </r>
       <r>    -1.1711     0.4171     0.9634 </r>
       <r>    -1.0703     0.4721     1.0110 </r>
       <r>    -0.9694     0.4837     1.0598 </r>
       <r>    -0.8686     0.4543     1.1056 </r>
       <r>    -0.7678     0.4339     1.1494 </r>
       <r>    -0.6669     0.4769     1.1974 </r>
       <r>    -0.5661     0.5553     1.2534 </r>
       <r>    -0.4653     0.5767     1.3116 </r>
       <r>    -0.3645     0.5218     1.3642 </r>
       <r>    -0.2636     0.4498     1.4095 </r>
       <r>    -0.1628     0.3946     1.4493 </r>
       <r>    -0.0620     0.3663     1.4863 </r>
       <r>     0.0388     0.3936     1.5259 </r>
       <r>     0.1397     0.4778     1.5741 </r>
       <r>     0.2405     0.5787     1.6325 </r>
       <r>     0.3413     0.6606     1.6991 </r>
       <r>     0.4422     0.6967     1.7693 </r>
       <r>     0.5430     0.6810     1.8380 </r>
       <r>     0.6438     0.6460     1.9031 </r>
       <r>     0.7446     0.6078     1.9644 </r>
       <r>     0.8455     0.5605     2.0209 </r>
       <r>     0.9463     0.5431     2.0757 </r>
       <r>     1.0471     0.5681     2.1330 </r>
       <r>     1.1480     0.5661     2.1900 </r>
       <r>     1.2488     0.5210     2.2426 </r>
       <r>     1.3496     0.5087     2.2939 </r>
       <r>     1.4504     0.5514     2.3495 </r>
       <r>     1.5513     0.5978     2.4097 </r>
       <r>     1.6521     0.6206     2.4723 </r>
       <r>     1.7529     0.6200     2.5348 </r>
       <r>     1.8537     0.6080     2.5961 </r>
       <r>     1.9546     0.5873     2.6553 </r>
       <r>     2.0554     0.5599     2.7118 </r>
       <r>     2.1562     0.5652     2.7688 </r>
       <r>     2.2571     0.6142     2.8307 </r>
       <r>     2.3579     0.6426     2.8955 </r>
       <r>     2.4587     0.5956     2.9555 </r>
       <r>     2.5595     0.5113     3.0071 </r>
       <r>     2.6604     0.5015     3.0576 </r>
       <r>     2.7612     0.6177     3.1199 </r>
       <r>     2.8620     0.7303     3.1936 </r>
       <r>     2.9628     0.6750     3.2616 </r>
       <r>     3.0637     0.5048     3.3125 </r>
       <r>     3.1645     0.3842     3.3513 </r>
       <r>     3.2653     0.3454     3.3861 </r>
       <r>     3.3662     0.3550     3.4219 </r>
       <r>     3.4670     0.4230     3.4645 </r>
       <r>     3.5678     0.5497     3.5199 </r>
       <r>     3.6686     0.7050     3.5910 </r>
       <r>     3.7695     0.8430     3.6760 </r>
       <r>     3.8703     0.9046     3.7672 </r>
       <r>     3.9711     0.8986     3.8578 </r>
       <r>     4.0720     0.8770     3.9463 </r>
       <r>     4.1728     0.8129     4.0282 </r>
       <r>     4.2736     0.7015     4.0989 </r>
       <r>     4.3744     0.6104     4.1605 </r>
       <r>     4.4753     0.5382     4.2148 </r>
       <r>     4.5761     0.4784     4.2630 </r>
       <r>     4.6769     0.5101     4.3144 </r>
       <r>     4.7777     0.6427     4.3792 </r>
       <r>     4.8786     0.7698     4.4568 </r>
       <r>     4.9794     0.8194     4.5395 </r>
       <r>     5.0802     0.8346     4.6236 </r>
       <r>     5.1811     0.8772     4.7121 </r>
       <r>     5.2819     0.9009     4.8029 </r>
       <r>     5.3827     0.8654     4.8901 </r>
       <r>     5.4835     0.8506     4.9759 </r>
       <r>     5.5844     0.8808     5.0647 </r>
       <r>     5.6852     0.8518     5.1506 </r>
       <r>     5.7860     0.7318     5.2244 </r>
       <r>     5.8868     0.6612     5.2911 </r>
       <r>     5.9877     0.7322     5.3649 </r>
       <r>     6.0885     0.8152     5.4471 </r>
       <r>     6.1893     0.7865     5.5264 </r>
       <r>     6.2902     0.7345     5.6004 </r>
       <r>     6.3910     0.7958     5.6807 </r>
       <r>     6.4918     0.9609     5.7776 </r>
       <r>     6.5926     1.0818     5.8866 </r>
       <r>     6.6935     1.0375     5.9912 </r>
       <r>     6.7943     0.9063     6.0826 </r>
       <r>     6.8951     0.8690     6.1702 </r>
       <r>     6.9960     0.9756     6.2686 </r>
       <r>     7.0968     1.1167     6.3812 </r>
       <r>     7.1976     1.1641     6.4986 </r>
       <r>     7.2984     1.0896     6.6084 </r>
       <r>     7.3993     0.9633     6.7056 </r>
       <r>     7.5001     0.8634     6.7926 </r>
       <r>     7.6009     0.8074     6.8740 </r>
       <r>     7.7017     0.7729     6.9520 </r>
       <r>     7.8026     0.7697     7.0296 </r>
       <r>     7.9034     0.8272     7.1130 </r>
       <r>     8.0042     0.9233     7.2061 </r>
       <r>     8.1051     0.9777     7.3046 </r>
       <r>     8.2059     0.9368     7.3991 </r>
       <r>     8.3067     0.8580     7.4856 </r>
       <r>     8.4075     0.8329     7.5696 </r>
       <r>     8.5084     0.8361     7.6539 </r>
       <r>     8.6092     0.7643     7.7310 </r>
       <r>     8.7100     0.6327     7.7948 </r>
       <r>     8.8108     0.5554     7.8508 </r>
       <r>     8.9117     0.5495     7.9062 </r>
       <r>     9.0125     0.5819     7.9648 </r>
       <r>     9.1133     0.6525     8.0306 </r>
       <r>     9.2142     0.7083     8.1020 </r>
       <r>     9.3150     0.6909     8.1717 </r>
       <r>     9.4158     0.6618     8.2384 </r>
       <r>     9.5166     0.7085     8.3099 </r>
       <r>     9.6175     0.8090     8.3914 </r>
       <r>     9.7183     0.8879     8.4810 </r>
       <r>     9.8191     0.8987     8.5716 </r>
       <r>     9.9199     0.8124     8.6535 </r>
       <r>    10.0208     0.6561     8.7196 </r>
       <r>    10.1216     0.5387     8.7740 </r>
       <r>    10.2224     0.5268     8.8271 </r>
       <r>    10.3233     0.5789     8.8854 </r>
       <r>    10.4241     0.6141     8.9474 </r>
       <r>    10.5249     0.5988     9.0077 </r>
       <r>    10.6257     0.5877     9.0670 </r>
       <r>    10.7266     0.6436     9.1319 </r>
       <r>    10.8274     0.7501     9.2075 </r>
       <r>    10.9282     0.8578     9.2940 </r>
       <r>    11.0291     0.9530     9.3901 </r>
       <r>    11.1299     1.0425     9.4952 </r>
       <r>    11.2307     1.1034     9.6064 </r>
       <r>    11.3315     1.0648     9.7138 </r>
       <r>    11.4324     0.9103     9.8056 </r>
       <r>    11.5332     0.7652     9.8827 </r>
       <r>    11.6340     0.7748     9.9609 </r>
       <r>    11.7348     0.9570    10.0574 </r>
       <r>    11.8357     1.2047    10.1788 </r>
       <r>    11.9365     1.3459    10.3145 </r>
       <r>    12.0373     1.2531    10.4409 </r>
       <r>    12.1382     1.0350    10.5452 </r>
       <r>    12.2390     0.9549    10.6415 </r>
       <r>    12.3398     1.0905    10.7514 </r>
       <r>    12.4406     1.2497    10.8774 </r>
       <r>    12.5415     1.2135    10.9998 </r>
       <r>    12.6423     1.0153    11.1022 </r>
       <r>    12.7431     0.8691    11.1898 </r>
       <r>    12.8439     0.8441    11.2749 </r>
       <r>    12.9448     0.8540    11.3610 </r>
       <r>    13.0456     0.8214    11.4438 </r>
       <r>    13.1464     0.7443    11.5189 </r>
       <r>    13.2473     0.6993    11.5894 </r>
       <r>    13.3481     0.7244    11.6624 </r>
       <r>    13.4489     0.7958    11.7427 </r>
       <r>    13.5497     0.9265    11.8361 </r>
       <r>    13.6506     1.1337    11.9504 </r>
       <r>    13.7514     1.3649    12.0880 </r>
       <r>    13.8522     1.4913    12.2384 </r>
       <r>    13.9531     1.3734    12.3769 </r>
       <r>    14.0539     1.0363    12.4813 </r>
       <r>    14.1547     0.7289    12.5548 </r>
       <r>    14.2555     0.6690    12.6223 </r>
       <r>    14.3564     0.8225    12.7052 </r>
       <r>    14.4572     1.0293    12.8090 </r>
       <r>    14.5580     1.1997    12.9300 </r>
       <r>    14.6588     1.3186    13.0629 </r>
       <r>    14.7597     1.3689    13.2009 </r>
       <r>    14.8605     1.3169    13.3337 </r>
       <r>    14.9613     1.1924    13.4539 </r>
       <r>    15.0622     1.1124    13.5661 </r>
       <r>    15.1630     1.1250    13.6795 </r>
       <r>    15.2638     1.1374    13.7942 </r>
       <r>    15.3646     1.0475    13.8998 </r>
       <r>    15.4655     0.8620    13.9867 </r>
       <r>    15.5663     0.6971    14.0570 </r>
       <r>    15.6671     0.6563    14.1232 </r>
       <r>    15.7679     0.7148    14.1953 </r>
       <r>    15.8688     0.7595    14.2718 </r>
       <r>    15.9696     0.7307    14.3455 </r>
       <r>    16.0704     0.6647    14.4125 </r>
       <r>    16.1713     0.5992    14.4730 </r>
       <r>    16.2721     0.5494    14.5284 </r>
       <r>    16.3729     0.5774    14.5866 </r>
       <r>    16.4737     0.7299    14.6602 </r>
       <r>    16.5746     0.9237    14.7533 </r>
       <r>    16.6754     1.0279    14.8569 </r>
       <r>    16.7762     0.9846    14.9562 </r>
       <r>    16.8770     0.8099    15.0379 </r>
       <r>    16.9779     0.6007    15.0984 </r>
       <r>    17.0787     0.4744    15.1463 </r>
       <r>    17.1795     0.4366    15.1903 </r>
       <r>    17.2804     0.4244    15.2331 </r>
       <r>    17.3812     0.4264    15.2761 </r>
       <r>    17.4820     0.4683    15.3233 </r>
       <r>    17.5828     0.5411    15.3779 </r>
       <r>    17.6837     0.5961    15.4380 </r>
       <r>    17.7845     0.5971    15.4982 </r>
       <r>    17.8853     0.5565    15.5543 </r>
       <r>    17.9862     0.4949    15.6042 </r>
       <r>    18.0870     0.4011    15.6446 </r>
       <r>    18.1878     0.2813    15.6730 </r>
       <r>    18.2886     0.1808    15.6912 </r>
       <r>    18.3895     0.1179    15.7031 </r>
       <r>    18.4903     0.0745    15.7106 </r>
       <r>    18.5911     0.0532    15.7160 </r>
       <r>    18.6919     0.0834    15.7244 </r>
       <r>    18.7928     0.1772    15.7422 </r>
       <r>    18.8936     0.2951    15.7720 </r>
       <r>    18.9944     0.3584    15.8081 </r>
       <r>    19.0953     0.3128    15.8397 </r>
       <r>    19.1961     0.1932    15.8591 </r>
       <r>    19.2969     0.0915    15.8684 </r>
       <r>    19.3977     0.0476    15.8732 </r>
       <r>    19.4986     0.0342    15.8766 </r>
       <r>    19.5994     0.0300    15.8796 </r>
       <r>    19.7002     0.0492    15.8846 </r>
       <r>    19.8010     0.1039    15.8951 </r>
       <r>    19.9019     0.1621    15.9114 </r>
       <r>    20.0027     0.1700    15.9286 </r>
       <r>    20.1035     0.1285    15.9415 </r>
       <r>    20.2044     0.0903    15.9506 </r>
       <r>    20.3052     0.0730    15.9580 </r>
       <r>    20.4060     0.0532    15.9633 </r>
       <r>    20.5068     0.0268    15.9661 </r>
       <r>    20.6077     0.0094    15.9670 </r>
       <r>    20.7085     0.0067    15.9677 </r>
       <r>    20.8093     0.0179    15.9695 </r>
       <r>    20.9102     0.0395    15.9735 </r>
       <r>    21.0110     0.0565    15.9792 </r>
       <r>    21.1118     0.0520    15.9844 </r>
       <r>    21.2126     0.0309    15.9875 </r>
       <r>    21.3135     0.0129    15.9888 </r>
       <r>    21.4143     0.0082    15.9897 </r>
       <r>    21.5151     0.0159    15.9913 </r>
       <r>    21.6159     0.0273    15.9940 </r>
       <r>    21.7168     0.0295    15.9970 </r>
       <r>    21.8176     0.0196    15.9990 </r>
       <r>    21.9184     0.0080    15.9998 </r>
       <r>    22.0193     0.0020    16.0000 </r>
       <r>    22.1201     0.0003    16.0000 </r>
       <r>    22.2209     0.0000    16.0000 </r>
       <r>    22.3217     0.0000    16.0000 </r>
       <r>    22.4226     0.0000    16.0000 </r>
       <r>    22.5234     0.0000    16.0000 </r>
       <r>    22.6242     0.0000    16.0000 </r>
       <r>    22.7250     0.0000    16.0000 </r>
       <r>    22.8259     0.0000    16.0000 </r>
       <r>    22.9267     0.0000    16.0000 </r>
       <r>    23.0275     0.0000    16.0000 </r>
       <r>    23.1284     0.0000    16.0000 </r>
       <r>    23.2292     0.0000    16.0000 </r>
       <r>    23.3300     0.0000    16.0000 </r>
       <r>    23.4308     0.0000    16.0000 </r>
       <r>    23.5317     0.0000    16.0000 </r>
       <r>    23.6325     0.0000    16.0000 </r>
      </set>
     </set>
    </array>
   </total>
  </dos>
 </calculation>
 <structure name="finalpos" >
  <crystal>
   <varray name="basis" >
    <v>      -2.39487656       2.39487656       1.33893314 </v>
    <v>       2.39487656      -2.39487656       1.33893314 </v>
    <v>       2.39487656       2.39487656      -1.33893314 </v>
   </varray>
   <i name="volume">     30.71744921 </i>
   <varray name="rec_basis" >
    <v>       0.00000000       0.20877903       0.37343164 </v>
    <v>       0.20877903       0.00000000       0.37343164 </v>
    <v>       0.20877903       0.20877903      -0.00000000 </v>
   </varray>
  </crystal>
  <varray name="positions" >
   <v>       0.25000000       0.75000000       0.50000000 </v>
   <v>       0.00000000       0.00000000       0.00000000 </v>
  </varray>
 </structure>
</modeling>
