unknown system                          
   1.00000000000000     
    -2.395301    2.395301    1.338180
     2.395301   -2.395301    1.338180
     2.395301    2.395301   -1.338180
   Si
     2
Direct
  0.250000  0.750000  0.500000
  0.000000 -0.000000  0.000000
 
   28   28   28
 -.56170127630E+01 -.41124628580E+01 -.17220497761E+00 0.47603090223E+01 0.90432478659E+01
 0.11534421121E+02 0.11969472573E+02 0.10886606160E+02 0.92063811993E+01 0.75715400815E+01
 0.61818397271E+01 0.51126953397E+01 0.43727809437E+01 0.39426954373E+01 0.38020050046E+01
 0.39426890212E+01 0.43727874112E+01 0.51127126432E+01 0.61818432965E+01 0.75715254789E+01
 0.92063711772E+01 0.10886611373E+02 0.11969479523E+02 0.11534421642E+02 0.90432469412E+01
 0.47603021493E+01 -.17222761320E+00 -.41124877683E+01 -.41124877683E+01 -.48029201255E+01
 -.26227241323E+01 0.15864896457E+01 0.62945386420E+01 0.99849543780E+01 0.11773649141E+02
 0.11653154530E+02 0.10305612007E+02 0.86222639665E+01 0.70664344925E+01 0.57841711458E+01
 0.48264668795E+01 0.41903933372E+01 0.38546294049E+01 0.38020156553E+01 0.40294890010E+01
 0.45494866254E+01 0.53840460880E+01 0.65482368858E+01 0.80198845903E+01 0.97001763385E+01
 0.11324424162E+02 0.12130187068E+02 0.11253959237E+02 0.83407680473E+01 0.38868326268E+01
 -.80586933134E+00 -.17222761320E+00 -.26227410086E+01 -.25332262262E+01 0.39629758458E-01
 0.40847816267E+01 0.81278448839E+01 0.10899535317E+02 0.11829226348E+02 0.11147856698E+02
 0.96153187070E+01 0.79828421017E+01 0.65353785636E+01 0.53787748127E+01 0.45415019079E+01
 0.40121420101E+01 0.37699028558E+01 0.38020392118E+01 0.41103419713E+01 0.47105225475E+01
 0.56243522884E+01 0.68606452227E+01 0.83834056996E+01 0.10074421892E+02 0.11610139000E+02
 0.12192068284E+02 0.11071185317E+02 0.80812291367E+01 0.38868326268E+01 0.47603021493E+01
 0.15864764075E+01 0.39625853323E-01 0.72291350507E+00 0.33295066842E+01 0.68032035992E+01
 0.98545077391E+01 0.11539722870E+02 0.11605640740E+02 0.10465270485E+02 0.88681796700E+01
 0.73257995289E+01 0.60089835080E+01 0.49879050608E+01 0.42726553557E+01 0.38469939565E+01
 0.36927482288E+01 0.38020630177E+01 0.41808592769E+01 0.48466015997E+01 0.58189340465E+01
 0.70992441239E+01 0.86391696827E+01 0.10307406948E+02 0.11749394605E+02 0.12205973585E+02
 0.11071185317E+02 0.83407680473E+01 0.90432469412E+01 0.62945309709E+01 0.40847799376E+01
 0.33295159574E+01 0.43288816801E+01 0.66217111528E+01 0.92283606114E+01 0.11135191245E+02
 0.11747787382E+02 0.11086986269E+02 0.96676908842E+01 0.81096374241E+01 0.66879002406E+01
 0.55149752498E+01 0.46308107220E+01 0.40324977637E+01 0.37025316091E+01 0.36267865283E+01
 0.38020775055E+01 0.42372471516E+01 0.49498223220E+01 0.59557552926E+01 0.72487819017E+01
 0.87711502059E+01 0.10386348816E+02 0.11749394605E+02 0.12192068284E+02 0.11253959237E+02
 0.11534421642E+02 0.99849483266E+01 0.81278363469E+01 0.68032117324E+01 0.66217294035E+01
 0.76469828795E+01 0.93689610556E+01 0.10978830091E+02 0.11778188765E+02 0.11493171426E+02
 0.10342111678E+02 0.88455564980E+01 0.73820934013E+01 0.61017548127E+01 0.50762407968E+01
 0.43227038180E+01 0.38308086613E+01 0.35846944282E+01 0.35748963093E+01 0.38020809366E+01
 0.42765306598E+01 0.50142187577E+01 0.60263450329E+01 0.72997091746E+01 0.87711502059E+01
 0.10307406948E+02 0.11610139000E+02 0.12130187068E+02 0.11969479523E+02 0.11773654265E+02
 0.10899525345E+02 0.98544993134E+01 0.92283741098E+01 0.93689815293E+01 0.10189498005E+02
 0.11222300381E+02 0.11881040496E+02 0.11770403772E+02 0.10869332519E+02 0.95025134311E+01
 0.80592444476E+01 0.67234721218E+01 0.55936802500E+01 0.47099455423E+01 0.40745221060E+01
 0.36745614768E+01 0.34977742147E+01 0.35391794439E+01 0.38020783704E+01 0.42966832425E+01
 0.50360998162E+01 0.60263450329E+01 0.72487819017E+01 0.86391696827E+01 0.10074421892E+02
 0.11324424162E+02 0.10886611373E+02 0.11653173258E+02 0.11829235240E+02 0.11539712513E+02
 0.11135184713E+02 0.10978843578E+02 0.11222316384E+02 0.11712157721E+02 0.12083893904E+02
 0.11980058241E+02 0.11256095786E+02 0.10056144203E+02 0.86900777124E+01 0.73542858933E+01
 0.61646033234E+01 0.51829669769E+01 0.44277130150E+01 0.38933683189E+01 0.35682790969E+01
 0.34445841317E+01 0.35209911289E+01 0.38020765215E+01 0.42966832425E+01 0.50142187577E+01
 0.59557552926E+01 0.70992441239E+01 0.83834056996E+01 0.97001763385E+01 0.92063711772E+01
 0.10305623068E+02 0.11147881325E+02 0.11605652077E+02 0.11747780793E+02 0.11778185809E+02
 0.11881049651E+02 0.12083901245E+02 0.12231708663E+02 0.12087840717E+02 0.11492819176E+02
 0.10477801394E+02 0.92445584877E+01 0.79673678050E+01 0.67686440855E+01 0.57283222814E+01
 0.48824001772E+01 0.42365748845E+01 0.37833495964E+01 0.35145592887E+01 0.34266880113E+01
 0.35209911289E+01 0.38020783704E+01 0.42765306598E+01 0.49498223220E+01 0.58189340465E+01
 0.68606452227E+01 0.80198845903E+01 0.75715254789E+01 0.86222541060E+01 0.96153307250E+01
 0.10465293756E+02 0.11086998149E+02 0.11493171346E+02 0.11770405219E+02 0.11980061299E+02
 0.12087838983E+02 0.11975571820E+02 0.11527098275E+02 0.10726893885E+02 0.96856603504E+01
 0.85315897594E+01 0.73827387610E+01 0.63310632153E+01 0.54299855506E+01 0.46995492040E+01
 0.41402422738E+01 0.37464800422E+01 0.35145592887E+01 0.34445841317E+01 0.35391794439E+01
 0.38020809366E+01 0.42372471516E+01 0.48466015997E+01 0.56243522884E+01 0.65482368858E+01
 0.61818432965E+01 0.70664237768E+01 0.79828337857E+01 0.88681879038E+01 0.96677065510E+01
 0.10342121911E+02 0.10869339097E+02 0.11256101293E+02 0.11492817243E+02 0.11527090455E+02
 0.11289912874E+02 0.10755784536E+02 0.99681098117E+01 0.90079526816E+01 0.79777942739E+01
 0.69728719184E+01 0.60610893879E+01 0.52787256776E+01 0.46382204382E+01 0.41402422738E+01
 0.37833495964E+01 0.35682790969E+01 0.34977742147E+01 0.35748963093E+01 0.38020775055E+01
 0.41808592769E+01 0.47105225475E+01 0.53840460880E+01 0.51127126432E+01 0.57841794666E+01
 0.65353734411E+01 0.73257939158E+01 0.81096392410E+01 0.88455614965E+01 0.95025200160E+01
 0.10056154863E+02 0.10477809531E+02 0.10726890026E+02 0.10755775303E+02 0.10529571883E+02
 0.10047290221E+02 0.93508913574E+01 0.85155972083E+01 0.76276344175E+01 0.67619702060E+01
 0.59698930969E+01 0.52787256776E+01 0.46995492040E+01 0.42365748845E+01 0.38933683189E+01
 0.36745614768E+01 0.35846944282E+01 0.36267865283E+01 0.38020630177E+01 0.41103419713E+01
 0.45494866254E+01 0.43727874112E+01 0.48264796221E+01 0.53787831472E+01 0.60089847339E+01
 0.66878984058E+01 0.73820894127E+01 0.80592394779E+01 0.86900790497E+01 0.92445689581E+01
 0.96856692608E+01 0.99681075471E+01 0.10047283746E+02 0.98956480849E+01 0.95170733945E+01
 0.89499949422E+01 0.82571732550E+01 0.75079366713E+01 0.67619702060E+01 0.60610893879E+01
 0.54299855506E+01 0.48824001772E+01 0.44277130150E+01 0.40745221060E+01 0.38308086613E+01
 0.37025316091E+01 0.36927482288E+01 0.38020392118E+01 0.40294890010E+01 0.39426890212E+01
 0.41903891713E+01 0.45415040157E+01 0.49879117192E+01 0.55149827829E+01 0.61017575631E+01
 0.67234654714E+01 0.73542742988E+01 0.79673630596E+01 0.85315961686E+01 0.90079611078E+01
 0.93508931086E+01 0.95170715124E+01 0.94787188510E+01 0.92344090314E+01 0.88112406989E+01
 0.82571732550E+01 0.76276344175E+01 0.69728719184E+01 0.63310632153E+01 0.57283222814E+01
 0.51829669769E+01 0.47099455423E+01 0.43227038180E+01 0.40324977637E+01 0.38469939565E+01
 0.37699028558E+01 0.38020156553E+01 0.38020050046E+01 0.38546176517E+01 0.40121279482E+01
 0.42726498400E+01 0.46308174265E+01 0.50762535470E+01 0.55936876273E+01 0.61645980491E+01
 0.67686302604E+01 0.73827284836E+01 0.79777951070E+01 0.85156049392E+01 0.89500008105E+01
 0.92344105253E+01 0.93336064492E+01 0.92344090314E+01 0.89499949422E+01 0.85155972083E+01
 0.79777942739E+01 0.73827387610E+01 0.67686440855E+01 0.61646033234E+01 0.55936802500E+01
 0.50762407968E+01 0.46308107220E+01 0.42726553557E+01 0.40121420101E+01 0.38546294049E+01
 0.39426954373E+01 0.38020150161E+01 0.37698913625E+01 0.38469803828E+01 0.40324945362E+01
 0.43227139436E+01 0.47099615726E+01 0.51829785178E+01 0.57283218945E+01 0.63310510023E+01
 0.69728579650E+01 0.76276308585E+01 0.82571806421E+01 0.88112483031E+01 0.92344105253E+01
 0.94787188510E+01 0.95170733945E+01 0.93508913574E+01 0.90079526816E+01 0.85315897594E+01
 0.79673678050E+01 0.73542858933E+01 0.67234721218E+01 0.61017548127E+01 0.55149752498E+01
 0.49879050608E+01 0.45415019079E+01 0.41903933372E+01 0.43727809437E+01 0.40294921952E+01
 0.38020432112E+01 0.36927476792E+01 0.37025333008E+01 0.38308192459E+01 0.40745388402E+01
 0.44277307527E+01 0.48824155325E+01 0.54299915840E+01 0.60610803167E+01 0.67619546610E+01
 0.75079315046E+01 0.82571806421E+01 0.89500008105E+01 0.95170715124E+01 0.98956480849E+01
 0.10047290221E+02 0.99681098117E+01 0.96856603504E+01 0.92445584877E+01 0.86900777124E+01
 0.80592444476E+01 0.73820934013E+01 0.66879002406E+01 0.60089835080E+01 0.53787748127E+01
 0.48264668795E+01 0.51126953397E+01 0.45494785141E+01 0.41103497474E+01 0.38020789331E+01
 0.36268075250E+01 0.35847238045E+01 0.36745938800E+01 0.38933934475E+01 0.42365938098E+01
 0.46995677250E+01 0.52787363461E+01 0.59698855765E+01 0.67619546610E+01 0.76276308585E+01
 0.85156049392E+01 0.93508931086E+01 0.10047283746E+02 0.10529571883E+02 0.10755784536E+02
 0.10726893885E+02 0.10477801394E+02 0.10056144203E+02 0.95025134311E+01 0.88455564980E+01
 0.81096374241E+01 0.73257995289E+01 0.65353785636E+01 0.57841711458E+01 0.61818397271E+01
 0.53840365001E+01 0.47105264485E+01 0.41808805076E+01 0.38021110089E+01 0.35749448950E+01
 0.34978359757E+01 0.35683340740E+01 0.37833821540E+01 0.41402620824E+01 0.46382402678E+01
 0.52787363461E+01 0.60610803167E+01 0.69728579650E+01 0.79777951070E+01 0.90079611078E+01
 0.99681075471E+01 0.10755775303E+02 0.11289912874E+02 0.11527098275E+02 0.11492819176E+02
 0.11256095786E+02 0.10869332519E+02 0.10342111678E+02 0.96676908842E+01 0.88681796700E+01
 0.79828421017E+01 0.70664344925E+01 0.75715400815E+01 0.65482434604E+01 0.56243631156E+01
 0.48466293366E+01 0.42372877033E+01 0.38021337297E+01 0.35392541753E+01 0.34446721967E+01
 0.35146287572E+01 0.37465156297E+01 0.41402620824E+01 0.46995677250E+01 0.54299915840E+01
 0.63310510023E+01 0.73827284836E+01 0.85315961686E+01 0.96856692608E+01 0.10726890026E+02
 0.11527090455E+02 0.11975571820E+02 0.12087840717E+02 0.11980058241E+02 0.11770403772E+02
 0.11493171426E+02 0.11086986269E+02 0.10465270485E+02 0.96153187070E+01 0.86222639665E+01
 0.92063811993E+01 0.80199007362E+01 0.68606657616E+01 0.58189731128E+01 0.49498787615E+01
 0.42765905995E+01 0.38021465964E+01 0.35210819926E+01 0.34267862495E+01 0.35146287572E+01
 0.37833821540E+01 0.42365938098E+01 0.48824155325E+01 0.57283218945E+01 0.67686302604E+01
 0.79673630596E+01 0.92445689581E+01 0.10477809531E+02 0.11492817243E+02 0.12087838983E+02
 0.12231708663E+02 0.12083893904E+02 0.11881040496E+02 0.11778188765E+02 0.11747787382E+02
 0.11605640740E+02 0.11147856698E+02 0.10305612007E+02 0.10886606160E+02 0.97001854700E+01
 0.83834217289E+01 0.70992795889E+01 0.59558219494E+01 0.50142988338E+01 0.42967555155E+01
 0.38021507193E+01 0.35210819926E+01 0.34446721967E+01 0.35683340740E+01 0.38933934475E+01
 0.44277307527E+01 0.51829785178E+01 0.61645980491E+01 0.73542742988E+01 0.86900790497E+01
 0.10056154863E+02 0.11256101293E+02 0.11980061299E+02 0.12083901245E+02 0.11712157721E+02
 0.11222300381E+02 0.10978830091E+02 0.11135191245E+02 0.11539722870E+02 0.11829226348E+02
 0.11653154530E+02 0.11969472573E+02 0.11324428261E+02 0.10074430195E+02 0.86391853740E+01
 0.72488292629E+01 0.60264289145E+01 0.50361890900E+01 0.42967555155E+01 0.38021465964E+01
 0.35392541753E+01 0.34978359757E+01 0.36745938800E+01 0.40745388402E+01 0.47099615726E+01
 0.55936876273E+01 0.67234654714E+01 0.80592394779E+01 0.95025200160E+01 0.10869339097E+02
 0.11770405219E+02 0.11881049651E+02 0.11222316384E+02 0.10189498005E+02 0.93689610556E+01
 0.92283606114E+01 0.98545077391E+01 0.10899535317E+02 0.11773649141E+02 0.11534421121E+02
 0.12130194449E+02 0.11610153036E+02 0.10307415156E+02 0.87711659097E+01 0.72997611495E+01
 0.60264289145E+01 0.50142988338E+01 0.42765905995E+01 0.38021337297E+01 0.35749448950E+01
 0.35847238045E+01 0.38308192459E+01 0.43227139436E+01 0.50762535470E+01 0.61017575631E+01
 0.73820894127E+01 0.88455614965E+01 0.10342121911E+02 0.11493171346E+02 0.11778185809E+02
 0.10978843578E+02 0.93689815293E+01 0.76469828795E+01 0.66217111528E+01 0.68032035992E+01
 0.81278448839E+01 0.99849543780E+01 0.90432478659E+01 0.11253963375E+02 0.12192087662E+02
 0.11749415214E+02 0.10386357159E+02 0.87711659097E+01 0.72488292629E+01 0.59558219494E+01
 0.49498787615E+01 0.42372877033E+01 0.38021110089E+01 0.36268075250E+01 0.37025333008E+01
 0.40324945362E+01 0.46308174265E+01 0.55149827829E+01 0.66878984058E+01 0.81096392410E+01
 0.96677065510E+01 0.11086998149E+02 0.11747780793E+02 0.11135184713E+02 0.92283741098E+01
 0.66217294035E+01 0.43288816801E+01 0.33295066842E+01 0.40847816267E+01 0.62945386420E+01
 0.47603090223E+01 0.83407650698E+01 0.11071192567E+02 0.12205997685E+02 0.11749415214E+02
 0.10307415156E+02 0.86391853740E+01 0.70992795889E+01 0.58189731128E+01 0.48466293366E+01
 0.41808805076E+01 0.38020789331E+01 0.36927476792E+01 0.38469803828E+01 0.42726498400E+01
 0.49879117192E+01 0.60089847339E+01 0.73257939158E+01 0.88681879038E+01 0.10465293756E+02
 0.11605652077E+02 0.11539712513E+02 0.98544993134E+01 0.68032117324E+01 0.33295159574E+01
 0.72291350507E+00 0.39629758458E-01 0.15864896457E+01 -.17220497761E+00 0.38868391770E+01
 0.80812247619E+01 0.11071192567E+02 0.12192087662E+02 0.11610153036E+02 0.10074430195E+02
 0.83834217289E+01 0.68606657616E+01 0.56243631156E+01 0.47105264485E+01 0.41103497474E+01
 0.38020432112E+01 0.37698913625E+01 0.40121279482E+01 0.45415040157E+01 0.53787831472E+01
 0.65353734411E+01 0.79828337857E+01 0.96153307250E+01 0.11147881325E+02 0.11829235240E+02
 0.10899525345E+02 0.81278363469E+01 0.40847799376E+01 0.39625853323E-01 -.25332262262E+01
 -.26227241323E+01 -.41124628580E+01 -.80584306205E+00 0.38868391770E+01 0.83407650698E+01
 0.11253963375E+02 0.12130194449E+02 0.11324428261E+02 0.97001854700E+01 0.80199007362E+01
 0.65482434604E+01 0.53840365001E+01 0.45494785141E+01 0.40294921952E+01 0.38020150161E+01
 0.38546176517E+01 0.41903891713E+01 0.48264796221E+01 0.57841794666E+01 0.70664237768E+01
 0.86222541060E+01 0.10305623068E+02 0.11653173258E+02 0.11773654265E+02 0.99849483266E+01
 0.62945309709E+01 0.15864764075E+01 -.26227410086E+01 -.48029201255E+01 -.41124136491E+01
 -.30585256074E+01 0.36071304961E+00 0.48681435514E+01 0.89101518163E+01 0.11335117635E+02
 0.11803371425E+02 0.10767049347E+02 0.90967109684E+01 0.74509513598E+01 0.60396147883E+01
 0.49423448872E+01 0.41703481191E+01 0.37040804122E+01 0.35209895547E+01 0.36101822955E+01
 0.39771450507E+01 0.46412358435E+01 0.56243003065E+01 0.69267308106E+01 0.84917596978E+01
 0.10163263046E+02 0.11434615737E+02 0.11428961714E+02 0.95419653182E+01 0.58819776939E+01
 0.14009368564E+01 -.24021033803E+01 -.30585437184E+01 -.41124392887E+01 -.24021375678E+01
 0.14008819568E+01 0.58819079624E+01 0.95418981777E+01 0.11428901457E+02 0.11434562360E+02
 0.10163231892E+02 0.84917615914E+01 0.69267447138E+01 0.56242971477E+01 0.46412188716E+01
 0.39771366363E+01 0.36101838203E+01 0.35209872658E+01 0.37040786127E+01 0.41703606917E+01
 0.49423625486E+01 0.60396162616E+01 0.74509418517E+01 0.90967172846E+01 0.10767081466E+02
 0.11803417719E+02 0.11335170414E+02 0.89102073902E+01 0.48681844428E+01 0.36072100226E+00
 0.47932803671E+00 -.22760325859E+01 -.26227269339E+01 -.45517869379E+00 0.33533471229E+01
 0.73785922164E+01 0.10302074218E+02 0.11444944445E+02 0.10933084103E+02 0.94720196429E+01
 0.78476449402E+01 0.63900293424E+01 0.52142553133E+01 0.43549660455E+01 0.38027299244E+01
 0.35357412534E+01 0.35391753872E+01 0.38131889416E+01 0.43732193013E+01 0.52431472376E+01
 0.64379404939E+01 0.79335211199E+01 0.96293828788E+01 0.11257582438E+02 0.12075815085E+02
 0.11290539655E+02 0.86238448314E+01 0.46046925437E+01 0.51767293058E+01 0.17410532280E+01
 -.21968772821E+00 0.39604114745E-01 0.23632686948E+01 0.57817115208E+01 0.89900820674E+01
 0.10945830252E+02 0.11271431506E+02 0.10290838954E+02 0.87377757322E+01 0.71980602095E+01
 0.58687255738E+01 0.48298992534E+01 0.40970715785E+01 0.36550091456E+01 0.34841299277E+01
 0.35748933474E+01 0.39325812999E+01 0.45757195188E+01 0.55275032711E+01 0.67965393167E+01
 0.83459901231E+01 0.10058922592E+02 0.11623283524E+02 0.12290974672E+02 0.11387825106E+02
 0.88008052207E+01 0.94191688867E+01 0.64598421650E+01 0.38716326854E+01 0.26785744489E+01
 0.33294645627E+01 0.54808928377E+01 0.81829322946E+01 0.10354226816E+02 0.11276363666E+02
 0.10853785471E+02 0.95425543035E+01 0.80020632872E+01 0.65752701618E+01 0.53878120074E+01
 0.44886391738E+01 0.38786589059E+01 0.35402577504E+01 0.34577120170E+01 0.36267874592E+01
 0.40567746180E+01 0.47674683591E+01 0.57793864600E+01 0.70936789986E+01 0.86623431697E+01
 0.10358219183E+02 0.11856288622E+02 0.12465770518E+02 0.11647862822E+02 0.12008316803E+02
 0.10322068586E+02 0.81562985564E+01 0.64167189826E+01 0.58400989903E+01 0.66216605860E+01
 0.83245945633E+01 0.10120047757E+02 0.11211112620E+02 0.11200096140E+02 0.10215121011E+02
 0.87618457470E+01 0.73004507233E+01 0.60080839599E+01 0.49679854433E+01 0.42041578899E+01
 0.37081343506E+01 0.34629706159E+01 0.34577060093E+01 0.36927577852E+01 0.41798662348E+01
 0.49381474690E+01 0.59837528702E+01 0.73101185537E+01 0.88608729864E+01 0.10505857714E+02
 0.11943574636E+02 0.12580899076E+02 0.12584814621E+02 0.12343711885E+02 0.11266643625E+02
 0.98824529309E+01 0.88679813488E+01 0.86924432388E+01 0.93689102110E+01 0.10459165988E+02
 0.11323267263E+02 0.11460187908E+02 0.10745454917E+02 0.94497213110E+01 0.80123737593E+01
 0.66658322513E+01 0.55202957777E+01 0.46249611540E+01 0.39862008076E+01 0.35911526786E+01
 0.34258179390E+01 0.34841136197E+01 0.37699249365E+01 0.42956836947E+01 0.50780211056E+01
 0.61275644369E+01 0.74306422651E+01 0.89260956818E+01 0.10487839892E+02 0.11865655949E+02
 0.11604036988E+02 0.12414242831E+02 0.12509151980E+02 0.11999203299E+02 0.11276701690E+02
 0.10794909893E+02 0.10806612661E+02 0.11222255786E+02 0.11672882786E+02 0.11733353482E+02
 0.11166016570E+02 0.10043820031E+02 0.86823244278E+01 0.73342717488E+01 0.61262762610E+01
 0.51299378807E+01 0.43695009566E+01 0.38408609374E+01 0.35308601219E+01 0.34297431704E+01
 0.35357184261E+01 0.38546626131E+01 0.43980188582E+01 0.51785350109E+01 0.62008616763E+01
 0.74456115360E+01 0.88507183642E+01 0.10300055944E+02 0.99508072253E+01 0.11154222612E+02
 0.12022794066E+02 0.12391111191E+02 0.12330150355E+02 0.12092625645E+02 0.11942093616E+02
 0.11980072372E+02 0.12083859551E+02 0.11992859612E+02 0.11483370294E+02 0.10518652759E+02
 0.92798225571E+01 0.79843220651E+01 0.67629656783E+01 0.57038195989E+01 0.48494352127E+01
 0.42080614151E+01 0.37712148503E+01 0.35283031945E+01 0.34741413365E+01 0.36101572212E+01
 0.39427309491E+01 0.44809858455E+01 0.52330192713E+01 0.61978458403E+01 0.73523616802E+01
 0.86372892350E+01 0.82989354864E+01 0.94612147172E+01 0.10537957642E+02 0.11405838271E+02
 0.11946824543E+02 0.12184325760E+02 0.12250372011E+02 0.12267672515E+02 0.12249427385E+02
 0.12087818363E+02 0.11637525361E+02 0.10834388574E+02 0.97649241274E+01 0.85809705912E+01
 0.74027962025E+01 0.63275110002E+01 0.54143633355E+01 0.46864565430E+01 0.41437946950E+01
 0.37780841668E+01 0.35828568842E+01 0.35570500294E+01 0.37040500900E+01 0.40295171575E+01
 0.45394934748E+01 0.52374255667E+01 0.61177899096E+01 0.71560971802E+01 0.68698876593E+01
 0.78586397752E+01 0.88639023889E+01 0.98057473021E+01 0.10611635948E+02 0.11219339416E+02
 0.11613362510E+02 0.11836362621E+02 0.11920771486E+02 0.11840930141E+02 0.11527087669E+02
 0.10930699562E+02 0.10086398883E+02 0.90799961635E+01 0.80110337442E+01 0.69769094051E+01
 0.60496804778E+01 0.52683559769E+01 0.46450612407E+01 0.41775573070E+01 0.38606787839E+01
 0.36925326088E+01 0.36752900311E+01 0.38131620717E+01 0.41103537160E+01 0.45697611681E+01
 0.51909456337E+01 0.59655113227E+01 0.57511610022E+01 0.65135199194E+01 0.73468850021E+01
 0.81994368654E+01 0.90121608650E+01 0.97324244105E+01 0.10325083936E+02 0.10770846365E+02
 0.11059119666E+02 0.11174535056E+02 0.11083612762E+02 0.10755783021E+02 0.10191922717E+02
 0.94305022365E+01 0.85443203265E+01 0.76202714777E+01 0.67358118986E+01 0.59440569596E+01
 0.52717252192E+01 0.47266906771E+01 0.43085974369E+01 0.40169167704E+01 0.38540618171E+01
 0.38245089998E+01 0.39325639999E+01 0.41808587162E+01 0.45697659294E+01 0.50963228317E+01
 0.49597098939E+01 0.54892341482E+01 0.61112885138E+01 0.67980529369E+01 0.75113860509E+01
 0.82085937311E+01 0.88508381528E+01 0.94084762178E+01 0.98588429736E+01 0.10178239034E+02
 0.10336156809E+02 0.10299567424E+02 0.10047293411E+02 0.95855658994E+01 0.89538157976E+01
 0.82162578386E+01 0.74440858249E+01 0.66979464962E+01 0.60184334890E+01 0.54265288729E+01
 0.49306257189E+01 0.45346752545E+01 0.42432915317E+01 0.40627056881E+01 0.39991133554E+01
 0.40567726698E+01 0.42372398384E+01 0.45395051488E+01 0.44809990489E+01 0.47900408603E+01
 0.51969417488E+01 0.56891651304E+01 0.62464110902E+01 0.68412775483E+01 0.74431312716E+01
 0.80229824723E+01 0.85554860882E+01 0.90160432882E+01 0.93756500162E+01 0.95994981589E+01
 0.96535417866E+01 0.95170776194E+01 0.91940275040E+01 0.87156671982E+01 0.81328187693E+01
 0.75017374814E+01 0.68708503214E+01 0.62739299803E+01 0.57309465060E+01 0.52536745284E+01
 0.48515014868E+01 0.45342664717E+01 0.43118224169E+01 0.41921269090E+01 0.41798795340E+01
 0.42765199420E+01 0.42966704111E+01 0.43980292092E+01 0.45980342232E+01 0.48922930299E+01
 0.52719955475E+01 0.57226367080E+01 0.62246740726E+01 0.67561912744E+01 0.72956411309E+01
 0.78219846144E+01 0.83114341207E+01 0.87335139125E+01 0.90510614809E+01 0.92267991278E+01
 0.92344129279E+01 0.90684272871E+01 0.87473483434E+01 0.83082661392E+01 0.77957669182E+01
 0.72507949901E+01 0.67044815944E+01 0.61784403099E+01 0.56890497841E+01 0.52515617351E+01
 0.48813273318E+01 0.45923297178E+01 0.43950771921E+01 0.42957070234E+01 0.43980453656E+01
 0.42966688853E+01 0.42956884397E+01 0.43950583647E+01 0.45923226521E+01 0.48813332090E+01
 0.52515800337E+01 0.56890758127E+01 0.61784584773E+01 0.67044803443E+01 0.72507854632E+01
 0.77957688218E+01 0.83082793166E+01 0.87473570865E+01 0.90684273049E+01 0.92344123462E+01
 0.92267968535E+01 0.90510483976E+01 0.87334948223E+01 0.83114252752E+01 0.78219874047E+01
 0.72956388437E+01 0.67561745950E+01 0.62246517410E+01 0.57226195976E+01 0.52719874796E+01
 0.48922973143E+01 0.45980510327E+01 0.47900510682E+01 0.44810090724E+01 0.42765154705E+01
 0.41798634808E+01 0.41921135271E+01 0.43118178140E+01 0.45342700255E+01 0.48515166414E+01
 0.52536996327E+01 0.57309643269E+01 0.62739267329E+01 0.68708374968E+01 0.75017351799E+01
 0.81328258805E+01 0.87156687054E+01 0.91940221749E+01 0.95170750705E+01 0.96535390931E+01
 0.95994839203E+01 0.93756279359E+01 0.90160287412E+01 0.85554812150E+01 0.80229752004E+01
 0.74431170332E+01 0.68412631965E+01 0.62464001185E+01 0.56891568132E+01 0.51969410009E+01
 0.54892296154E+01 0.49597128863E+01 0.45395077129E+01 0.42372335257E+01 0.40567648544E+01
 0.39991136585E+01 0.40627097601E+01 0.42432944860E+01 0.45346854336E+01 0.49306467849E+01
 0.54265443191E+01 0.60184293300E+01 0.66979344323E+01 0.74440831768E+01 0.82162594377E+01
 0.89538077489E+01 0.95855528194E+01 0.10047288167E+02 0.10299565638E+02 0.10336145171E+02
 0.10178219578E+02 0.98588274679E+01 0.94084651969E+01 0.88508254171E+01 0.82085826980E+01
 0.75113827733E+01 0.67980519170E+01 0.61112828191E+01 0.65135192068E+01 0.57511569472E+01
 0.50963224864E+01 0.45697635352E+01 0.41808538175E+01 0.39325699174E+01 0.38245290544E+01
 0.38540792109E+01 0.40169222957E+01 0.43086042498E+01 0.47267068042E+01 0.52717358208E+01
 0.59440509712E+01 0.67358023630E+01 0.76202706599E+01 0.85443173937E+01 0.94304856252E+01
 0.10191903682E+02 0.10755776407E+02 0.11083612739E+02 0.11174528998E+02 0.11059109009E+02
 0.10770836595E+02 0.10325071348E+02 0.97324090801E+01 0.90121552600E+01 0.81994459484E+01
 0.73468947467E+01 0.78586572765E+01 0.68698931997E+01 0.59655140820E+01 0.51909494675E+01
 0.45697600265E+01 0.41103553806E+01 0.38131853397E+01 0.36753311187E+01 0.36925642054E+01
 0.38606897919E+01 0.41775639270E+01 0.46450721127E+01 0.52683583042E+01 0.60496699239E+01
 0.69769018885E+01 0.80110354958E+01 0.90799913112E+01 0.10086379397E+02 0.10930680825E+02
 0.11527082493E+02 0.11840932008E+02 0.11920773216E+02 0.11836367115E+02 0.11613366835E+02
 0.11219333522E+02 0.10611625048E+02 0.98057505353E+01 0.88639222157E+01 0.94612406907E+01
 0.82989553422E+01 0.71561094833E+01 0.61178057836E+01 0.52374416010E+01 0.45395010120E+01
 0.40295305058E+01 0.37040906040E+01 0.35571070568E+01 0.35828981425E+01 0.37781006557E+01
 0.41438028108E+01 0.46864613475E+01 0.54143549342E+01 0.63274944986E+01 0.74027901193E+01
 0.85809748246E+01 0.97649206495E+01 0.10834374142E+02 0.11637515117E+02 0.12087818805E+02
 0.12249433241E+02 0.12267686371E+02 0.12250398797E+02 0.12184352548E+02 0.11946834526E+02
 0.11405839925E+02 0.10537972090E+02 0.11154247877E+02 0.99508333914E+01 0.86373061392E+01
 0.73523803868E+01 0.61978778293E+01 0.52330517575E+01 0.44810070366E+01 0.39427583335E+01
 0.36102098249E+01 0.34742031418E+01 0.35283447213E+01 0.37712333394E+01 0.42080705392E+01
 0.48494338158E+01 0.57038017314E+01 0.67629453153E+01 0.79843171658E+01 0.92798275271E+01
 0.10518652831E+02 0.11483368777E+02 0.11992867088E+02 0.12083873160E+02 0.11980089520E+02
 0.11942127082E+02 0.12092680111E+02 0.12330203205E+02 0.12391141818E+02 0.12022813035E+02
 0.12414277941E+02 0.11604069490E+02 0.10300076840E+02 0.88507287423E+01 0.74456346902E+01
 0.62009069306E+01 0.51785815032E+01 0.43980533855E+01 0.38547016422E+01 0.35357736011E+01
 0.34297961820E+01 0.35308918947E+01 0.38408770627E+01 0.43695096506E+01 0.51299314672E+01
 0.61262535153E+01 0.73342517239E+01 0.86823202090E+01 0.10043823473E+02 0.11166022723E+02
 0.11733373074E+02 0.11672917995E+02 0.11222292916E+02 0.10806651473E+02 0.10794969248E+02
 0.11276782420E+02 0.11999276851E+02 0.12509200187E+02 0.12343767419E+02 0.12584858580E+02
 0.11865689176E+02 0.10487851545E+02 0.89260982458E+01 0.74306662078E+01 0.61276144225E+01
 0.50780727762E+01 0.42957257298E+01 0.37699690121E+01 0.34841609966E+01 0.34258521351E+01
 0.35911693088E+01 0.39862119364E+01 0.46249673799E+01 0.55202855015E+01 0.66658100178E+01
 0.80123588622E+01 0.94497188499E+01 0.10745458235E+02 0.11460205799E+02 0.11323315590E+02
 0.10459235735E+02 0.93689779866E+01 0.86925100359E+01 0.88680657429E+01 0.98825493282E+01
 0.11266724073E+02 0.10322138331E+02 0.12008365527E+02 0.12580940055E+02 0.11943600238E+02
 0.10505858352E+02 0.88608690037E+01 0.73101391938E+01 0.59837965714E+01 0.49381927680E+01
 0.41799071361E+01 0.36927989243E+01 0.34577385750E+01 0.34629837545E+01 0.37081373243E+01
 0.42041636383E+01 0.49679865874E+01 0.60080704300E+01 0.73004342355E+01 0.87618416789E+01
 0.10215125344E+02 0.11200106354E+02 0.11211149559E+02 0.10120126999E+02 0.83246960204E+01
 0.66217561263E+01 0.58401903060E+01 0.64168183566E+01 0.81563934714E+01 0.64599171929E+01
 0.94192121597E+01 0.11647890995E+02 0.12465795570E+02 0.11856299046E+02 0.10358210133E+02
 0.86623364784E+01 0.70936936629E+01 0.57794148439E+01 0.47674979131E+01 0.40568066419E+01
 0.36268192623E+01 0.34577282912E+01 0.35402555562E+01 0.38786552912E+01 0.44886411295E+01
 0.53878064312E+01 0.65752548980E+01 0.80020576496E+01 0.95425668788E+01 0.10853803918E+02
 0.11276389582E+02 0.10354286212E+02 0.81830344801E+01 0.54810109409E+01 0.33295735187E+01
 0.26786766969E+01 0.38717302397E+01 0.17411299111E+01 0.51767698236E+01 0.88008126598E+01
 0.11387823859E+02 0.12290974555E+02 0.11623275416E+02 0.10058908529E+02 0.83459859775E+01
 0.67965475032E+01 0.55275124131E+01 0.45757296506E+01 0.39326004657E+01 0.35749129934E+01
 0.34841337955E+01 0.36550023119E+01 0.40970706675E+01 0.48299003283E+01 0.58687141292E+01
 0.71980462905E+01 0.87377843211E+01 0.10290870723E+02 0.11271468583E+02 0.10945876276E+02
 0.89901591746E+01 0.57818189878E+01 0.23633801751E+01 0.39705047669E-01 -.21959439715E+00
 -.22759688588E+01 0.47936727786E+00 0.46046913360E+01 0.86238162199E+01 0.11290508449E+02
 0.12075788343E+02 0.11257558532E+02 0.96293701713E+01 0.79335235457E+01 0.64379430778E+01
 0.52431392247E+01 0.43732133859E+01 0.38131965745E+01 0.35391843790E+01 0.35357396902E+01
 0.38027288014E+01 0.43549744074E+01 0.52142576809E+01 0.63900148576E+01 0.78476357694E+01
 0.94720419225E+01 0.10933131481E+02 0.11444997893E+02 0.10302136640E+02 0.73786742527E+01
 0.33534379379E+01 -.45509751171E+00 -.26226557511E+01 -.17209482479E+00 0.47941632438E+00
 0.31220339212E+01 0.67274963464E+01 0.99711201004E+01 0.11834987866E+02 0.11998604025E+02
 0.10849804339E+02 0.91636294049E+01 0.75157098977E+01 0.60957272702E+01 0.49798862976E+01
 0.41794346068E+01 0.36753684577E+01 0.34446390790E+01 0.34742228424E+01 0.37660282966E+01
 0.43358315115E+01 0.52050641866E+01 0.63816018881E+01 0.78292013477E+01 0.94341385922E+01
 0.10882085228E+02 0.11443412609E+02 0.10491671105E+02 0.79614681114E+01 0.45257465264E+01
 0.14009923793E+01 0.36078811298E+00 -.80574512762E+00 0.36076806114E+00 0.33868573057E+01
 0.70874309441E+01 0.10135173083E+02 0.11646019703E+02 0.11483820997E+02 0.10173359048E+02
 0.85084357131E+01 0.69482187053E+01 0.56412018403E+01 0.46435892554E+01 0.39560246004E+01
 0.35571372097E+01 0.34267443933E+01 0.35571331994E+01 0.39560294508E+01 0.46435966129E+01
 0.56411899417E+01 0.69481904144E+01 0.85084218972E+01 0.10173376533E+02 0.11483856813E+02
 0.11646061067E+02 0.10135222573E+02 0.70874855000E+01 0.33868999255E+01 0.31220358380E+01
 0.47939451067E+00 -.17213471508E+00 0.14009317544E+01 0.45256696806E+01 0.79613978411E+01