    2    2   15    1
  0.1529437E+02  0.3691622E-09  0.3691622E-09  0.3691622E-09  0.5000000E-15
  1.000000000000000E-004
  CAR 
 unknown system                          
      8     75      8
 
  0.0000000E+00  0.0000000E+00  0.0000000E+00  0.1371742E-02
    1       -4.613338   1.000000
    2        6.653163   1.000000
    3        6.653175   1.000000
    4        7.190076   1.000000
    5       10.801303   0.000000
    6       16.638203   0.000000
    7       17.977722   0.000000
    8       17.977737   0.000000
 
  0.1111111E+00 -0.9377698E-17  0.9377698E-17  0.1097394E-01
    1       -4.288332   1.000000
    2        5.876641   1.000000
    3        6.529553   1.000000
    4        8.511060   0.999982
    5       11.512734   0.000000
    6       14.762663   0.000000
    7       15.296859   0.000000
    8       17.089010   0.000000
 
  0.2222222E+00  0.6918512E-17 -0.6918512E-17  0.1097394E-01
    1       -3.317105   1.000000
    2        5.460435   1.000000
    3        6.450535   1.000000
    4        9.904924   0.000000
    5       11.693898   0.000000
    6       12.452284   0.000000
    7       13.128720   0.000000
    8       15.157015   0.000000
 
  0.3333333E+00 -0.3591853E-16  0.3591853E-16  0.1097394E-01
    1       -1.714440   1.000000
    2        5.496861   1.000000
    3        6.699261   1.000000
    4        7.012857   1.000000
    5        9.976196   0.000000
    6       12.085310   0.000000
    7       13.385825   0.000000
    8       14.301729   0.000000
 
  0.4444444E+00  0.1383702E-16 -0.1383702E-16  0.1097394E-01
    1        0.464457   1.000000
    2        3.386146   1.000000
    3        6.610626   1.000000
    4        7.185211   1.000000
    5        8.067346   1.000000
    6       10.508476   0.000000
    7       13.610987   0.000000
    8       14.595520   0.000000
 
  0.1111111E+00  0.1111111E+00  0.1875540E-16  0.1097394E-01
    1       -3.470491   1.000000
    2        5.710745   1.000000
    3        7.535551   1.000000
    4        9.182115   0.268078
    5       11.842143   0.000000
    6       11.981778   0.000000
    7       12.842186   0.000000
    8       15.107566   0.000000
 
  0.2222222E+00  0.1111111E+00 -0.2719765E-16  0.2194787E-01
    1       -2.018043   1.000000
    2        5.749582   1.000000
    3        7.522141   1.000000
    4        8.144796   1.000000
    5        9.492091   0.002473
    6       11.626083   0.000000
    7       12.549085   0.000000
    8       13.769895   0.000000
 
  0.3333333E+00  0.1111111E+00  0.2951719E-16  0.2194787E-01
    1        0.033396   1.000000
    2        4.225878   1.000000
    3        6.409994   1.000000
    4        6.818441   1.000000
    5        8.857079   0.953493
    6       11.008450   0.000000
    7       12.491602   0.000000
    8       14.947303   0.000000
 
  0.4444444E+00  0.1111111E+00  0.7517205E-17  0.2194787E-01
    1        1.153863   1.000000
    2        2.838147   1.000000
    3        5.231003   1.000000
    4        7.282995   1.000000
    5        8.564738   0.999910
    6       11.335991   0.000000
    7       12.496084   0.000000
    8       15.882175   0.000000
 
 -0.4444444E+00  0.1111111E+00  0.4279628E-16  0.2194787E-01
    1       -1.111011   1.000000
    2        4.061337   1.000000
    3        6.087438   1.000000
    4        7.008046   1.000000
    5        9.838504   0.000000
    6       12.478558   0.000000
    7       13.399324   0.000000
    8       14.757877   0.000000
 
 -0.3333333E+00  0.1111111E+00 -0.1456430E-16  0.2194787E-01
    1       -2.858015   1.000000
    2        3.763094   1.000000
    3        6.527276   1.000000
    4        9.685860   0.000015
    5       11.885963   0.000000
    6       12.255878   0.000000
    7       13.818185   0.000000
    8       15.123278   0.000000
 
 -0.2222222E+00  0.1111111E+00  0.1629621E-16  0.2194787E-01
    1       -3.980107   1.000000
    2        4.007654   1.000000
    3        6.627801   1.000000
    4        9.621916   0.000096
    5       13.043433   0.000000
    6       13.669342   0.000000
    7       14.688785   0.000000
    8       16.208763   0.000000
 
 -0.1111111E+00  0.1111111E+00  0.7914115E-18  0.5486968E-02
    1       -4.458935   1.000000
    2        4.821542   1.000000
    3        6.793477   1.000000
    4        8.419789   0.999999
    5       11.793686   0.000000
    6       15.233073   0.000000
    7       17.152474   0.000000
    8       17.855432   0.000000
 
  0.2222222E+00  0.2222222E+00 -0.4159260E-16  0.1097394E-01
    1       -0.112245   1.000000
    2        5.199960   1.000000
    3        5.429151   1.000000
    4        6.575883   1.000000
    5        9.794395   0.000000
    6       11.342292   0.000000
    7       12.676487   0.000000
    8       13.110736   0.000000
 
  0.3333333E+00  0.2222222E+00  0.4287781E-16  0.2194787E-01
    1        1.899110   1.000000
    2        2.736535   1.000000
    3        3.803246   1.000000
    4        7.342711   1.000000
    5        9.209051   0.209229
    6       10.778602   0.000000
    7       13.570730   0.000000
    8       15.838305   0.000000
 
  0.4444444E+00  0.2222222E+00  0.2087783E-16  0.2194787E-01
    1       -0.212215   1.000000
    2        2.418218   1.000000
    3        5.668926   1.000000
    4        7.651800   1.000000
    5        9.409256   0.013048
    6       11.260717   0.000000
    7       14.884053   0.000000
    8       15.899509   0.000000
 
 -0.4444444E+00  0.2222222E+00  0.6918512E-17  0.2194787E-01
    1       -2.096117   1.000000
    2        1.926625   1.000000
    3        7.162338   1.000000
    4        9.235485   0.159621
    5       10.840945   0.000000
    6       12.809954   0.000000
    7       13.031808   0.000000
    8       16.278597   0.000000
 
 -0.3333333E+00  0.2222222E+00 -0.1251408E-16  0.2194787E-01
    1       -3.365356   1.000000
    2        2.028253   1.000000
    3        7.178875   1.000000
    4       10.413842   0.000000
    5       11.981400   0.000000
    6       13.889076   0.000000
    7       15.109050   0.000000
    8       15.723969   0.000000
 
 -0.2222222E+00  0.2222222E+00  0.1582823E-17  0.5486968E-02
    1       -3.996432   1.000000
    2        2.736248   1.000000
    3        7.214879   1.000000
    4        9.259725   0.121521
    5       13.361505   0.000000
    6       14.173589   0.000000
    7       15.575171   0.000000
    8       17.508934   0.000000
 
  0.3333333E+00  0.3333333E+00  0.7183707E-16  0.1097394E-01
    1        0.944529   1.000000
    2        0.998593   1.000000
    3        5.527843   1.000000
    4        8.176400   1.000000
    5        9.057229   0.604280
    6       10.696076   0.000000
    7       15.898259   0.000000
    8       16.683528   0.000000
 
  0.4444444E+00  0.3333333E+00  0.4983708E-16  0.2194787E-01
    1       -1.036659   1.000000
    2        0.310664   1.000000
    3        8.009087   1.000000
    4        8.837547   0.965455
    5        9.823735   0.000000
    6       12.352154   0.000000
    7       13.964790   0.000000
    8       15.305904   0.000000
 
 -0.4444444E+00  0.3333333E+00  0.6553460E-16  0.2194787E-01
    1       -2.448150   1.000000
    2        0.263943   1.000000
    3        8.012558   1.000000
    4       10.440401   0.000000
    5       11.311614   0.000000
    6       13.257263   0.000000
    7       14.534298   0.000000
    8       14.924980   0.000000
 
 -0.3333333E+00  0.3333333E+00  0.1438931E-16  0.5486968E-02
    1       -3.228177   1.000000
    2        0.841427   1.000000
    3        7.916263   1.000000
    4       10.104883   0.000000
    5       11.643330   0.000000
    6       13.940961   0.000000
    7       16.905944   0.000000
    8       17.210896   0.000000
 
  0.4444444E+00  0.4444444E+00 -0.8318520E-16  0.1097394E-01
    1       -1.236137   1.000000
    2       -1.233718   1.000000
    3        9.111086   0.453672
    4        9.116125   0.439588
    5       12.092888   0.000000
    6       12.579490   0.000000
    7       14.088962   0.000000
    8       14.771990   0.000000
 
 -0.4444444E+00  0.4444444E+00  0.3165646E-17  0.5486968E-02
    1       -2.159781   1.000000
    2       -0.798868   1.000000
    3        8.891249   0.924797
    4       10.137331   0.000000
    5       11.157007   0.000000
    6       12.442214   0.000000
    7       17.080001   0.000000
    8       17.164874   0.000000
 
  0.1111111E+00  0.1111111E+00  0.1111111E+00  0.1097394E-01
    1       -3.010561   1.000000
    2        3.665573   1.000000
    3        7.891999   1.000000
    4        9.853134   0.000000
    5       11.223010   0.000000
    6       11.454471   0.000000
    7       14.932681   0.000000
    8       15.386207   0.000000
 
  0.2222222E+00  0.1111111E+00  0.1111111E+00  0.2194787E-01
    1       -1.411166   1.000000
    2        3.868234   1.000000
    3        6.998235   1.000000
    4        7.933904   1.000000
    5        9.652058   0.000040
    6       12.404228   0.000000
    7       13.859098   0.000000
    8       14.619216   0.000000
 
  0.3333333E+00  0.1111111E+00  0.1111111E+00  0.2194787E-01
    1        0.760895   1.000000
    2        3.589889   1.000000
    3        4.871058   1.000000
    4        6.285934   1.000000
    5        9.938227   0.000000
    6       12.272483   0.000000
    7       13.933085   0.000000
    8       14.441534   0.000000
 
 -0.1111111E+00  0.1111111E+00  0.1111111E+00  0.5486968E-02
    1       -4.304776   1.000000
    2        4.561157   1.000000
    3        5.606268   1.000000
    4        9.765558   0.000001
    5       12.414020   0.000000
    6       13.879435   0.000000
    7       17.527473   0.000000
    8       18.231600   0.000000
 
  0.2222222E+00  0.2222222E+00  0.1111111E+00  0.1097394E-01
    1        0.623204   1.000000
    2        4.189389   1.000000
    3        4.905146   1.000000
    4        5.306802   1.000000
    5       11.062801   0.000000
    6       13.112598   0.000000
    7       13.814301   0.000000
    8       13.827582   0.000000
 
  0.3333333E+00  0.2222222E+00  0.1111111E+00  0.2194787E-01
    1        1.742082   1.000000
    2        2.881733   1.000000
    3        3.806202   1.000000
    4        6.020868   1.000000
    5       10.977181   0.000000
    6       12.537478   0.000000
    7       14.363507   0.000000
    8       15.313352   0.000000
 
  0.4444444E+00  0.2222222E+00  0.1111111E+00  0.2194787E-01
    1       -0.507178   1.000000
    2        2.154202   1.000000
    3        6.622156   1.000000
    4        7.709341   1.000000
    5       10.315895   0.000000
    6       12.803427   0.000000
    7       13.313552   0.000000
    8       15.216343   0.000000
 
 -0.4444444E+00  0.2222222E+00  0.1111111E+00  0.1097394E-01
    1       -2.247238   1.000000
    2        1.792934   1.000000
    3        8.432388   0.999999
    4        9.940282   0.000000
    5       11.147500   0.000000
    6       11.262006   0.000000
    7       13.527264   0.000000
    8       14.691005   0.000000
 
 -0.2222222E+00  0.2222222E+00  0.1111111E+00  0.1097394E-01
    1       -3.842785   1.000000
    2        2.834589   1.000000
    3        5.687430   1.000000
    4       10.916856   0.000000
    5       11.969228   0.000000
    6       14.465716   0.000000
    7       16.521270   0.000000
    8       17.261005   0.000000
 
 -0.1111111E+00  0.2222222E+00  0.1111111E+00  0.1097394E-01
    1       -3.672819   1.000000
    2        3.829304   1.000000
    3        5.048206   1.000000
    4       11.271340   0.000000
    5       12.082155   0.000000
    6       13.954277   0.000000
    7       14.100898   0.000000
    8       16.591139   0.000000
 
  0.3333333E+00  0.3333333E+00  0.1111111E+00  0.1097394E-01
    1        0.677867   1.000000
    2        0.694527   1.000000
    3        6.492348   1.000000
    4        7.615604   1.000000
    5       11.106729   0.000000
    6       11.755401   0.000000
    7       14.015348   0.000000
    8       14.733287   0.000000
 
  0.4444444E+00  0.3333333E+00  0.1111111E+00  0.1097394E-01
    1       -1.184913   1.000000
    2        0.166496   1.000000
    3        9.038088   0.655343
    4        9.555385   0.000561
    5       11.267079   0.000000
    6       11.731512   0.000000
    7       12.591200   0.000000
    8       13.457213   0.000000
 
 -0.3333333E+00  0.3333333E+00  0.1111111E+00  0.1097394E-01
    1       -3.076178   1.000000
    2        0.976291   1.000000
    3        6.371981   1.000000
    4       10.189533   0.000000
    5       11.804609   0.000000
    6       15.278969   0.000000
    7       16.620655   0.000000
    8       17.242702   0.000000
 
 -0.2222222E+00  0.3333333E+00  0.1111111E+00  0.2194787E-01
    1       -3.060319   1.000000
    2        2.258335   1.000000
    3        5.197330   1.000000
    4       10.184773   0.000000
    5       12.048784   0.000000
    6       13.750572   0.000000
    7       16.050696   0.000000
    8       16.832191   0.000000
 
 -0.1111111E+00  0.3333333E+00  0.1111111E+00  0.1097394E-01
    1       -2.401417   1.000000
    2        3.698428   1.000000
    3        5.000200   1.000000
    4        8.977992   0.795237
    5       10.821856   0.000000
    6       13.915893   0.000000
    7       14.476831   0.000000
    8       14.969725   0.000000
 
 -0.4444444E+00  0.4444444E+00  0.1111111E+00  0.1097394E-01
    1       -2.010169   1.000000
    2       -0.653725   1.000000
    3        7.368948   1.000000
    4        8.648719   0.999192
    5       12.812133   0.000000
    6       13.996559   0.000000
    7       16.674695   0.000000
    8       16.817930   0.000000
 
 -0.3333333E+00  0.4444444E+00  0.1111111E+00  0.2194787E-01
    1       -2.147008   1.000000
    2        0.543047   1.000000
    3        6.012125   1.000000
    4        8.551116   0.999939
    5       12.026841   0.000000
    6       14.283279   0.000000
    7       16.065587   0.000000
    8       16.790649   0.000000
 
 -0.2222222E+00  0.4444444E+00  0.1111111E+00  0.2194787E-01
    1       -1.643949   1.000000
    2        2.294888   1.000000
    3        5.250456   1.000000
    4        8.316193   1.000000
    5        9.287960   0.085801
    6       13.920625   0.000000
    7       15.461122   0.000000
    8       16.619637   0.000000
 
 -0.1111111E+00  0.4444444E+00  0.1111111E+00  0.1097394E-01
    1       -0.514026   1.000000
    2        4.038458   1.000000
    3        5.496414   1.000000
    4        5.630877   1.000000
    5        9.682683   0.000016
    6       12.149374   0.000000
    7       13.068645   0.000000
    8       16.659070   0.000000
 
 -0.4444444E+00 -0.4444444E+00  0.1111111E+00  0.1097394E-01
    1       -0.944548   1.000000
    2       -0.937171   1.000000
    3        7.134018   1.000000
    4        7.153016   1.000000
    5       11.964218   0.000000
    6       14.916835   0.000000
    7       15.734683   0.000000
    8       16.177972   0.000000
 
 -0.3333333E+00 -0.4444444E+00  0.1111111E+00  0.2194787E-01
    1       -0.593384   1.000000
    2        0.735503   1.000000
    3        6.167073   1.000000
    4        7.339306   1.000000
    5        8.502783   0.999986
    6       13.702045   0.000000
    7       16.490814   0.000000
    8       17.681962   0.000000
 
 -0.2222222E+00 -0.4444444E+00  0.1111111E+00  0.2194787E-01
    1        0.371838   1.000000
    2        2.891394   1.000000
    3        4.980322   1.000000
    4        6.006636   1.000000
    5        8.353808   1.000000
    6       11.907967   0.000000
    7       14.540562   0.000000
    8       17.682789   0.000000
 
 -0.1111111E+00 -0.4444444E+00  0.1111111E+00  0.1097394E-01
    1        1.618855   1.000000
    2        2.532156   1.000000
    3        5.521597   1.000000
    4        6.474858   1.000000
    5        8.800376   0.981268
    6       11.136976   0.000000
    7       11.462458   0.000000
    8       16.884277   0.000000
 
 -0.3333333E+00 -0.3333333E+00  0.1111111E+00  0.1097394E-01
    1        1.474543   1.000000
    2        1.583405   1.000000
    3        4.825082   1.000000
    4        6.920117   1.000000
    5        7.160808   1.000000
    6       11.776690   0.000000
    7       16.210580   0.000000
    8       16.868552   0.000000
 
 -0.2222222E+00 -0.3333333E+00  0.1111111E+00  0.2194787E-01
    1        1.661605   1.000000
    2        3.185598   1.000000
    3        4.402111   1.000000
    4        7.023999   1.000000
    5        8.098496   1.000000
    6       10.590067   0.000000
    7       12.979844   0.000000
    8       15.363639   0.000000
 
 -0.1111111E+00 -0.3333333E+00  0.1111111E+00  0.1097394E-01
    1       -0.409383   1.000000
    2        5.083901   1.000000
    3        7.150127   1.000000
    4        7.569470   1.000000
    5        8.130586   1.000000
    6       10.827289   0.000000
    7       11.083221   0.000000
    8       13.988631   0.000000
 
 -0.2222222E+00 -0.2222222E+00  0.1111111E+00  0.1097394E-01
    1       -0.557715   1.000000
    2        6.116432   1.000000
    3        6.208589   1.000000
    4        7.769794   1.000000
    5        8.528877   0.999968
    6       10.360674   0.000000
    7       11.950155   0.000000
    8       12.481791   0.000000
 
 -0.1111111E+00 -0.2222222E+00  0.1111111E+00  0.1097394E-01
    1       -2.322143   1.000000
    2        7.393439   1.000000
    3        7.856698   1.000000
    4        8.603369   0.999743
    5        9.508885   0.001699
    6       10.592739   0.000000
    7       11.959028   0.000000
    8       12.739377   0.000000
 
 -0.1111111E+00 -0.1111111E+00  0.1111111E+00  0.2743484E-02
    1       -3.624161   1.000000
    2        7.412853   1.000000
    3        7.412866   1.000000
    4        8.099750   1.000000
    5       11.778563   0.000000
    6       12.321768   0.000000
    7       12.401505   0.000000
    8       14.646711   0.000000
 
  0.2222222E+00  0.2222222E+00  0.2222222E+00  0.1097394E-01
    1        1.633781   1.000000
    2        2.878240   1.000000
    3        4.668844   1.000000
    4        4.756498   1.000000
    5       12.352578   0.000000
    6       13.602504   0.000000
    7       14.792135   0.000000
    8       14.829202   0.000000
 
 -0.2222222E+00  0.2222222E+00  0.2222222E+00  0.5486968E-02
    1       -3.383322   1.000000
    2        2.768810   1.000000
    3        4.101912   1.000000
    4        9.991765   0.000000
    5       12.889062   0.000000
    6       15.640057   0.000000
    7       16.213591   0.000000
    8       16.866232   0.000000
 
 -0.3333333E+00  0.3333333E+00  0.2222222E+00  0.1097394E-01
    1       -2.621374   1.000000
    2        1.349140   1.000000
    3        4.359577   1.000000
    4        8.177463   1.000000
    5       14.008539   0.000000
    6       15.641033   0.000000
    7       16.584978   0.000000
    8       18.145936   0.000000
 
 -0.2222222E+00  0.3333333E+00  0.2222222E+00  0.1097394E-01
    1       -2.452753   1.000000
    2        2.325042   1.000000
    3        3.718308   1.000000
    4        8.309327   1.000000
    5       11.862771   0.000000
    6       15.506533   0.000000
    7       17.353875   0.000000
    8       17.447671   0.000000
 
 -0.4444444E+00  0.4444444E+00  0.2222222E+00  0.1097394E-01
    1       -1.563948   1.000000
    2       -0.225428   1.000000
    3        5.319777   1.000000
    4        6.607808   1.000000
    5       14.686991   0.000000
    6       15.166182   0.000000
    7       16.841324   0.000000
    8       17.594537   0.000000
 
 -0.3333333E+00  0.4444444E+00  0.2222222E+00  0.2194787E-01
    1       -1.548812   1.000000
    2        1.061528   1.000000
    3        4.098072   1.000000
    4        6.621906   1.000000
    5       11.523299   0.000000
    6       16.736305   0.000000
    7       17.546458   0.000000
    8       19.041522   0.000000
 
 -0.2222222E+00  0.4444444E+00  0.2222222E+00  0.1097394E-01
    1       -0.896417   1.000000
    2        2.498707   1.000000
    3        3.921084   1.000000
    4        7.080327   1.000000
    5        8.195393   1.000000
    6       15.202349   0.000000
    7       16.529283   0.000000
    8       17.795472   0.000000
 
 -0.4444444E+00 -0.4444444E+00  0.2222222E+00  0.1097394E-01
    1       -0.368606   1.000000
    2       -0.355343   1.000000
    3        5.186186   1.000000
    4        5.207473   1.000000
    5       11.399815   0.000000
    6       17.097409   0.000000
    7       18.061085   0.000000
    8       18.413491   0.000000
 
 -0.3333333E+00 -0.4444444E+00  0.2222222E+00  0.2194787E-01
    1        0.132483   1.000000
    2        1.397929   1.000000
    3        4.423281   1.000000
    4        5.630122   1.000000
    5        7.823620   1.000000
    6       15.424876   0.000000
    7       17.927668   0.000000
    8       18.889762   0.000000
 
 -0.2222222E+00 -0.4444444E+00  0.2222222E+00  0.1097394E-01
    1        1.226673   1.000000
    2        3.151616   1.000000
    3        4.705387   1.000000
    4        4.771786   1.000000
    5        6.794930   1.000000
    6       13.324714   0.000000
    7       14.562239   0.000000
    8       17.798297   0.000000
 
 -0.3333333E+00 -0.3333333E+00  0.2222222E+00  0.1097394E-01
    1        2.186567   1.000000
    2        2.409322   1.000000
    3        4.428764   1.000000
    4        5.367837   1.000000
    5        5.579032   1.000000
    6       13.598343   0.000000
    7       15.787171   0.000000
    8       16.589394   0.000000
 
 -0.2222222E+00 -0.3333333E+00  0.2222222E+00  0.1097394E-01
    1        1.435356   1.000000
    2        4.093049   1.000000
    3        4.957555   1.000000
    4        6.019502   1.000000
    5        6.833873   1.000000
    6       11.997433   0.000000
    7       12.919527   0.000000
    8       14.393000   0.000000
 
 -0.2222222E+00 -0.2222222E+00  0.2222222E+00  0.2743484E-02
    1       -0.705962   1.000000
    2        6.847356   1.000000
    3        6.983113   1.000000
    4        7.580785   1.000000
    5        7.580792   1.000000
    6       11.027079   0.000000
    7       11.714913   0.000000
    8       11.714932   0.000000
 
 -0.3333333E+00  0.3333333E+00  0.3333333E+00  0.5486968E-02
    1       -1.869032   1.000000
    2        1.554646   1.000000
    3        3.001059   1.000000
    4        6.339258   1.000000
    5       14.797738   0.000000
    6       15.227458   0.000000
    7       17.763360   0.000000
    8       19.535320   0.000000
 
 -0.4444444E+00  0.4444444E+00  0.3333333E+00  0.1097394E-01
    1       -0.832362   1.000000
    2        0.442778   1.000000
    3        3.514407   1.000000
    4        4.760714   1.000000
    5       14.832949   0.000000
    6       14.935435   0.000000
    7       18.972947   0.000000
    8       19.965441   0.000000
 
 -0.3333333E+00  0.4444444E+00  0.3333333E+00  0.1097394E-01
    1       -0.666019   1.000000
    2        1.411932   1.000000
    3        2.881000   1.000000
    4        4.915864   1.000000
    5       11.142167   0.000000
    6       18.017326   0.000000
    7       19.165649   0.000000
    8       19.942348   0.000000
 
 -0.4444444E+00 -0.4444444E+00  0.3333333E+00  0.1097394E-01
    1        0.445548   1.000000
    2        0.467106   1.000000
    3        3.524689   1.000000
    4        3.537339   1.000000
    5       11.009256   0.000000
    6       18.135389   0.000000
    7       20.166897   0.000000
    8       20.353714   0.000000
 
 -0.3333333E+00 -0.4444444E+00  0.3333333E+00  0.1097394E-01
    1        1.094442   1.000000
    2        1.893110   1.000000
    3        3.363198   1.000000
    4        4.143120   1.000000
    5        7.511783   1.000000
    6       16.947738   0.000000
    7       18.098473   0.000000
    8       19.111003   0.000000
 
 -0.3333333E+00 -0.3333333E+00  0.3333333E+00  0.2743484E-02
    1        2.654083   1.000000
    2        3.084624   1.000000
    3        4.434532   1.000000
    4        4.434533   1.000000
    5        4.682492   1.000000
    6       15.229980   0.000000
    7       15.642662   0.000000
    8       15.642681   0.000000
 
 -0.4444444E+00  0.4444444E+00  0.4444444E+00  0.5486968E-02
    1        0.138780   1.000000
    2        0.941707   1.000000
    3        2.435910   1.000000
    4        3.228813   1.000000
    5       14.686423   0.000000
    6       14.711137   0.000000
    7       21.047712   0.000000
    8       21.664783   0.000000
 
 -0.4444444E+00 -0.4444444E+00  0.4444444E+00  0.2743484E-02
    1        1.088340   1.000000
    2        1.122704   1.000000
    3        2.597933   1.000000
    4        2.597933   1.000000
    5       10.875936   0.000000
    6       18.291506   0.000000
    7       21.138237   0.000000
    8       21.138564   0.000000
