unknown system                          
   1.00000000000000     
    -2.398299    2.398299    1.342018
     2.398299   -2.398299    1.342018
     2.398299    2.398299   -1.342018
   Si
     2
Direct
  0.250000  0.750000  0.500000
 -0.000000 -0.000000 -0.000000
 
   24   24   24
 -.56036819146E+01 -.36058091737E+01 0.13992353375E+01 0.70483670386E+01 0.10993902988E+02
 0.12148328106E+02 0.11013490737E+02 0.89981337978E+01 0.70886345128E+01 0.55853165634E+01
 0.45646337523E+01 0.39912471532E+01 0.38083442410E+01 0.39913189021E+01 0.45646384929E+01
 0.55852646024E+01 0.70886538503E+01 0.89981818482E+01 0.11013432736E+02 0.12148250505E+02
 0.10993985570E+02 0.70485031386E+01 0.13991745519E+01 -.36059918469E+01 -.36059918469E+01
 -.45204116686E+01 -.16811326417E+01 0.34848899626E+01 0.85627525770E+01 0.11550018005E+02
 0.11855530523E+02 0.10316834228E+02 0.83105488691E+01 0.65308313226E+01 0.51899510751E+01
 0.43216443020E+01 0.38778329413E+01 0.38083488256E+01 0.41029144642E+01 0.47984279413E+01
 0.59532816564E+01 0.75841147808E+01 0.95710876592E+01 0.11516153169E+02 0.12245055414E+02
 0.10491962065E+02 0.61337569922E+01 0.62591084366E+00 0.13991745519E+01 -.16812893958E+01
 -.15733496453E+01 0.16265762719E+01 0.62692224337E+01 0.10172196468E+02 0.11871735100E+02
 0.11291829810E+02 0.94814775777E+01 0.75629195189E+01 0.59554634320E+01 0.47976614607E+01
 0.40871366379E+01 0.37704866617E+01 0.38082993777E+01 0.42045316545E+01 0.50047331761E+01
 0.62631437250E+01 0.79744245742E+01 0.99821249423E+01 0.11811664464E+02 0.12254956835E+02
 0.10292179147E+02 0.61337569922E+01 0.70485031386E+01 0.34848453903E+01 0.16264660295E+01
 0.24395545757E+01 0.54313703377E+01 0.89858633590E+01 0.11377402269E+02 0.11755205538E+02
 0.10468993029E+02 0.85834372008E+01 0.68116596713E+01 0.54045696261E+01 0.44353835376E+01
 0.38763954466E+01 0.36761723154E+01 0.38082258031E+01 0.42885368555E+01 0.51664122205E+01
 0.64872461943E+01 0.82242217629E+01 0.10196773600E+02 0.11908151672E+02 0.12254956835E+02
 0.10491962065E+02 0.10993985570E+02 0.85628515990E+01 0.62692008159E+01 0.54313180797E+01
 0.65084334881E+01 0.88124781096E+01 0.10982750613E+02 0.11863013501E+02 0.11164565433E+02
 0.94978742137E+01 0.76892723023E+01 0.61093176051E+01 0.49135406237E+01 0.41245970581E+01
 0.37015557137E+01 0.36006022404E+01 0.38081381714E+01 0.43484362453E+01 0.52695054371E+01
 0.66048723087E+01 0.83102124042E+01 0.10196773600E+02 0.11811664464E+02 0.12245055414E+02
 0.12148250505E+02 0.11550060258E+02 0.10172248932E+02 0.89858664411E+01 0.88124840809E+01
 0.97476987821E+01 0.11107733878E+02 0.11921567407E+02 0.11590268922E+02 0.10241329776E+02
 0.85160339663E+01 0.68634705354E+01 0.55002040432E+01 0.45093031056E+01 0.38807633063E+01
 0.35712855144E+01 0.35479472760E+01 0.38080575175E+01 0.43796083026E+01 0.53049343094E+01
 0.66048723087E+01 0.82242217629E+01 0.99821249423E+01 0.11516153169E+02 0.11013432736E+02
 0.11855480659E+02 0.11871733666E+02 0.11377406794E+02 0.10982774581E+02 0.11107787918E+02
 0.11652899463E+02 0.12082490748E+02 0.11841893762E+02 0.10777105937E+02 0.92308550473E+01
 0.76123595056E+01 0.61630710546E+01 0.50180493189E+01 0.42101345036E+01 0.37137298732E+01
 0.34911309975E+01 0.35209637553E+01 0.38080374987E+01 0.43796083026E+01 0.52695054371E+01
 0.64872461943E+01 0.79744245742E+01 0.95710876592E+01 0.89981818482E+01 0.10316830712E+02
 0.11291809358E+02 0.11755165756E+02 0.11862976711E+02 0.11921604485E+02 0.12082575548E+02
 0.12193441482E+02 0.11929099533E+02 0.11085832425E+02 0.97841785051E+01 0.83024281820E+01
 0.68637152013E+01 0.56327836052E+01 0.46856578642E+01 0.40269898748E+01 0.36290361395E+01
 0.34641126037E+01 0.35209637553E+01 0.38080575175E+01 0.43484362453E+01 0.51664122205E+01
 0.62631437250E+01 0.75841147808E+01 0.70886538503E+01 0.83105896490E+01 0.94815208887E+01
 0.10468999940E+02 0.11164500732E+02 0.11590203537E+02 0.11841934015E+02 0.11929195200E+02
 0.11733335550E+02 0.11125790929E+02 0.10127903273E+02 0.88811814686E+01 0.75598571894E+01
 0.63310330776E+01 0.53031932166E+01 0.45164697658E+01 0.39654075308E+01 0.36290361395E+01
 0.34911309975E+01 0.35479472760E+01 0.38081381714E+01 0.42885368555E+01 0.50047331761E+01
 0.59532816564E+01 0.55852646024E+01 0.65308023099E+01 0.75629473503E+01 0.85835117228E+01
 0.94979043750E+01 0.10241257494E+02 0.10777026615E+02 0.11085866422E+02 0.11125880390E+02
 0.10839317962E+02 0.10211464777E+02 0.92935215854E+01 0.82024626696E+01 0.70823265302E+01
 0.60548427851E+01 0.51915204233E+01 0.45164697658E+01 0.40269898748E+01 0.37137298732E+01
 0.35712855144E+01 0.36006022404E+01 0.38082258031E+01 0.42045316545E+01 0.47984279413E+01
 0.45646384929E+01 0.51898953208E+01 0.59553990970E+01 0.68116693208E+01 0.76893580675E+01
 0.85160815584E+01 0.92307917807E+01 0.97840986641E+01 0.10127924891E+02 0.10211537817E+02
 0.99967494451E+01 0.94848548030E+01 0.87324746269E+01 0.78399042442E+01 0.69178732505E+01
 0.60548427851E+01 0.53031932166E+01 0.46856578642E+01 0.42101345036E+01 0.38807633063E+01
 0.37015557137E+01 0.36761723154E+01 0.38082993777E+01 0.41029144642E+01 0.39913189021E+01
 0.43216817458E+01 0.47976158557E+01 0.54044872075E+01 0.61093042637E+01 0.68635485740E+01
 0.76124193040E+01 0.83023859299E+01 0.88811098248E+01 0.92935290796E+01 0.94849099189E+01
 0.94165372939E+01 0.90859194926E+01 0.85353405783E+01 0.78399042442E+01 0.70823265302E+01
 0.63310330776E+01 0.56327836052E+01 0.50180493189E+01 0.45093031056E+01 0.41245970581E+01
 0.38763954466E+01 0.37704866617E+01 0.38083488256E+01 0.38083442410E+01 0.38779004404E+01
 0.40871967521E+01 0.44353612988E+01 0.49134569520E+01 0.55001660368E+01 0.61631290559E+01
 0.68637828690E+01 0.75598393076E+01 0.82024013664E+01 0.87324711905E+01 0.90859633252E+01
 0.92105755910E+01 0.90859194926E+01 0.87324746269E+01 0.82024626696E+01 0.75598571894E+01
 0.68637152013E+01 0.61630710546E+01 0.55002040432E+01 0.49135406237E+01 0.44353835376E+01
 0.40871366379E+01 0.38778329413E+01 0.39912471532E+01 0.38083188669E+01 0.37705310651E+01
 0.38764680435E+01 0.41246084020E+01 0.45092313785E+01 0.50179883926E+01 0.56328173867E+01
 0.63311049361E+01 0.70823277741E+01 0.78398499913E+01 0.85353331339E+01 0.90859633252E+01
 0.94165372939E+01 0.94848548030E+01 0.92935215854E+01 0.88811814686E+01 0.83024281820E+01
 0.76123595056E+01 0.68634705354E+01 0.61093176051E+01 0.54045696261E+01 0.47976614607E+01
 0.43216443020E+01 0.45646337523E+01 0.41028569308E+01 0.38082411668E+01 0.36761810307E+01
 0.37016337174E+01 0.38808114620E+01 0.42100796917E+01 0.46855787669E+01 0.53032079215E+01
 0.60549167087E+01 0.69178818636E+01 0.78398499913E+01 0.87324711905E+01 0.94849099189E+01
 0.99967494451E+01 0.10211464777E+02 0.10127903273E+02 0.97841785051E+01 0.92308550473E+01
 0.85160339663E+01 0.76892723023E+01 0.68116596713E+01 0.59554634320E+01 0.51899510751E+01
 0.55853165634E+01 0.47984630939E+01 0.42045030582E+01 0.38081439347E+01 0.36005715645E+01
 0.35713639985E+01 0.37138088302E+01 0.40269492872E+01 0.45163810362E+01 0.51915281742E+01
 0.60549167087E+01 0.70823277741E+01 0.82024013664E+01 0.92935290796E+01 0.10211537817E+02
 0.10839317962E+02 0.11125790929E+02 0.11085832425E+02 0.10777105937E+02 0.10241329776E+02
 0.94978742137E+01 0.85834372008E+01 0.75629195189E+01 0.65308313226E+01 0.70886345128E+01
 0.59533201587E+01 0.50048111794E+01 0.42885434909E+01 0.38080378914E+01 0.35478826934E+01
 0.34912083549E+01 0.36291331211E+01 0.39653727189E+01 0.45163810362E+01 0.53032079215E+01
 0.63311049361E+01 0.75598393076E+01 0.88811098248E+01 0.10127924891E+02 0.11125880390E+02
 0.11733335550E+02 0.11929099533E+02 0.11841893762E+02 0.11590268922E+02 0.11164565433E+02
 0.10468993029E+02 0.94814775777E+01 0.83105488691E+01 0.89981337978E+01 0.75840430528E+01
 0.62631647211E+01 0.51665281484E+01 0.43484735995E+01 0.38079456607E+01 0.35208801856E+01
 0.34641896526E+01 0.36291331211E+01 0.40269492872E+01 0.46855787669E+01 0.56328173867E+01
 0.68637828690E+01 0.83023859299E+01 0.97840986641E+01 0.11085866422E+02 0.11929195200E+02
 0.12193441482E+02 0.12082490748E+02 0.11921567407E+02 0.11863013501E+02 0.11755205538E+02
 0.11291829810E+02 0.10316834228E+02 0.11013490737E+02 0.95710367752E+01 0.79743054273E+01
 0.64872509516E+01 0.52696476497E+01 0.43796639813E+01 0.38079220217E+01 0.35208801856E+01
 0.34912083549E+01 0.37138088302E+01 0.42100796917E+01 0.50179883926E+01 0.61631290559E+01
 0.76124193040E+01 0.92307917807E+01 0.10777026615E+02 0.11841934015E+02 0.12082575548E+02
 0.11652899463E+02 0.11107733878E+02 0.10982750613E+02 0.11377402269E+02 0.11871735100E+02
 0.11855530523E+02 0.12148328106E+02 0.11516261473E+02 0.99820732835E+01 0.82240697448E+01
 0.66048679321E+01 0.53050862469E+01 0.43796639813E+01 0.38079456607E+01 0.35478826934E+01
 0.35713639985E+01 0.38808114620E+01 0.45092313785E+01 0.55001660368E+01 0.68635485740E+01
 0.85160815584E+01 0.10241257494E+02 0.11590203537E+02 0.11921604485E+02 0.11107787918E+02
 0.97476987821E+01 0.88124781096E+01 0.89858633590E+01 0.10172196468E+02 0.11550018005E+02
 0.10993902988E+02 0.12245154413E+02 0.11811808246E+02 0.10196722353E+02 0.83100489240E+01
 0.66048679321E+01 0.52696476497E+01 0.43484735995E+01 0.38080378914E+01 0.36005715645E+01
 0.37016337174E+01 0.41246084020E+01 0.49134569520E+01 0.61093042637E+01 0.76893580675E+01
 0.94979043750E+01 0.11164500732E+02 0.11862976711E+02 0.10982774581E+02 0.88124840809E+01
 0.65084334881E+01 0.54313703377E+01 0.62692224337E+01 0.85627525770E+01 0.70483670386E+01
 0.10491851245E+02 0.12255067833E+02 0.11908308469E+02 0.10196722353E+02 0.82240697448E+01
 0.64872509516E+01 0.51665281484E+01 0.42885434909E+01 0.38081439347E+01 0.36761810307E+01
 0.38764680435E+01 0.44353612988E+01 0.54044872075E+01 0.68116693208E+01 0.85835117228E+01
 0.10468999940E+02 0.11755165756E+02 0.11377406794E+02 0.89858664411E+01 0.54313180797E+01
 0.24395545757E+01 0.16265762719E+01 0.34848899626E+01 0.13992353375E+01 0.61336005655E+01
 0.10292058361E+02 0.12255067833E+02 0.11811808246E+02 0.99820732835E+01 0.79743054273E+01
 0.62631647211E+01 0.50048111794E+01 0.42045030582E+01 0.38082411668E+01 0.37705310651E+01
 0.40871967521E+01 0.47976158557E+01 0.59553990970E+01 0.75629473503E+01 0.94815208887E+01
 0.11291809358E+02 0.11871733666E+02 0.10172248932E+02 0.62692008159E+01 0.16264660295E+01
 -.15733496453E+01 -.16811326417E+01 -.36058091737E+01 0.62597755657E+00 0.61336005655E+01
 0.10491851245E+02 0.12245154413E+02 0.11516261473E+02 0.95710367752E+01 0.75840430528E+01
 0.59533201587E+01 0.47984630939E+01 0.41028569308E+01 0.38083188669E+01 0.38779004404E+01
 0.43216817458E+01 0.51898953208E+01 0.65308023099E+01 0.83105896490E+01 0.10316830712E+02
 0.11855480659E+02 0.11550060258E+02 0.85628515990E+01 0.34848453903E+01 -.16812893958E+01
 -.45204116686E+01 -.36056198532E+01 -.22299529985E+01 0.20482639257E+01 0.71527721566E+01
 0.10851371969E+02 0.11985974569E+02 0.10903691764E+02 0.89036718869E+01 0.69793037885E+01
 0.54427148367E+01 0.43794562739E+01 0.37585108194E+01 0.35210030028E+01 0.36357784718E+01
 0.41195097831E+01 0.50254582481E+01 0.63979683646E+01 0.81915039361E+01 0.10177657053E+02
 0.11605786289E+02 0.11141492778E+02 0.81066567803E+01 0.32503643362E+01 -.14012227798E+01
 -.22301500307E+01 -.36056441701E+01 -.14010528278E+01 0.32504618182E+01 0.81065700248E+01
 0.11141393296E+02 0.11605799306E+02 0.10177703201E+02 0.81915082317E+01 0.63979696573E+01
 0.50254708045E+01 0.41194904933E+01 0.36357493854E+01 0.35210219905E+01 0.37585401512E+01
 0.43794346183E+01 0.54426984480E+01 0.69793516002E+01 0.89036886432E+01 0.10903598842E+02
 0.11985915221E+02 0.10851491171E+02 0.71529148225E+01 0.20481906314E+01 0.22139593125E+01
 -.12215140602E+01 -.16810069129E+01 0.10121047120E+01 0.54258698687E+01 0.94155502784E+01
 0.11380090846E+02 0.11047086338E+02 0.93428610063E+01 0.74405451829E+01 0.58171997338E+01
 0.46301373837E+01 0.38888981418E+01 0.35425571115E+01 0.35479645566E+01 0.39035339097E+01
 0.46520020761E+01 0.58526121718E+01 0.75179855178E+01 0.95239528483E+01 0.11476427659E+02
 0.12260886198E+02 0.10751096795E+02 0.69320792459E+01 0.75685858324E+01 0.37229057612E+01
 0.13446039498E+01 0.16266151086E+01 0.43185761631E+01 0.79133318116E+01 0.10604041540E+02
 0.11339252573E+02 0.10286476920E+02 0.84668851509E+01 0.67017958164E+01 0.52756208380E+01
 0.42813409230E+01 0.37011725947E+01 0.34843856259E+01 0.36005500360E+01 0.40618491454E+01
 0.49181533991E+01 0.62234169042E+01 0.79694641148E+01 0.10001249392E+02 0.11874877500E+02
 0.12496537457E+02 0.10979849572E+02 0.11505221286E+02 0.88778511390E+01 0.61369446760E+01
 0.47571713114E+01 0.54313463591E+01 0.76413367981E+01 0.10029331032E+02 0.11282824300E+02
 0.10906784338E+02 0.93841858075E+01 0.76067939866E+01 0.60209522785E+01 0.48047805593E+01
 0.39980003395E+01 0.35662309615E+01 0.34646271116E+01 0.36760569911E+01 0.42232509487E+01
 0.51578609961E+01 0.65238414863E+01 0.82930105730E+01 0.10291718538E+02 0.12080967172E+02
 0.12700361688E+02 0.12805719978E+02 0.12130380677E+02 0.10436692376E+02 0.87681020447E+01
 0.81301243463E+01 0.88123920868E+01 0.10216787196E+02 0.11299536324E+02 0.11284476385E+02
 0.10134178890E+02 0.84611381762E+01 0.68149781410E+01 0.54363022011E+01 0.44283490005E+01
 0.37931622785E+01 0.34902551884E+01 0.34843985073E+01 0.37703155006E+01 0.43767520615E+01
 0.53518119812E+01 0.67265323553E+01 0.84566842944E+01 0.10364582758E+02 0.12068166058E+02
 0.11807167164E+02 0.12701175960E+02 0.12578075516E+02 0.11748305525E+02 0.10927132063E+02
 0.10702514933E+02 0.11107617074E+02 0.11623018060E+02 0.11588980770E+02 0.10699961571E+02
 0.92109405091E+01 0.76014946811E+01 0.61398278120E+01 0.49776423679E+01 0.41623117821E+01
 0.36745186936E+01 0.34760498152E+01 0.35425992010E+01 0.38776749635E+01 0.45111512077E+01
 0.54833557717E+01 0.68117869592E+01 0.84423806390E+01 0.10207446399E+02 0.98297698088E+01
 0.11287770438E+02 0.12290455897E+02 0.12610661361E+02 0.12428201739E+02 0.12152975179E+02
 0.12063973602E+02 0.12082382343E+02 0.11859613419E+02 0.11094725308E+02 0.98149740926E+01
 0.83270662051E+01 0.68719948913E+01 0.56222517713E+01 0.46662331314E+01 0.40162573254E+01
 0.36455400037E+01 0.35234524261E+01 0.36358326458E+01 0.39911354047E+01 0.46160397217E+01
 0.55406361649E+01 0.67705628816E+01 0.82491662167E+01 0.78943600229E+01 0.92632123235E+01
 0.10543285851E+02 0.11551781433E+02 0.12131215464E+02 0.12333620588E+02 0.12335880982E+02
 0.12229779887E+02 0.11928999607E+02 0.11272830652E+02 0.10225403577E+02 0.89385396455E+01
 0.75855767090E+01 0.63322005656E+01 0.52935470430E+01 0.45158886913E+01 0.39949021213E+01
 0.37063794681E+01 0.36296974667E+01 0.37586525530E+01 0.41028485231E+01 0.46828243186E+01
 0.55181903854E+01 0.66062237974E+01 0.63344553384E+01 0.74113616650E+01 0.85579890240E+01
 0.96498896125E+01 0.10566461198E+02 0.11222428698E+02 0.11589896192E+02 0.11701274632E+02
 0.11561292309E+02 0.11125738871E+02 0.10378052209E+02 0.93758486235E+01 0.82269658226E+01
 0.70701742054E+01 0.60280861098E+01 0.51748093859E+01 0.45341941245E+01 0.40992949003E+01
 0.38546050238E+01 0.37897093994E+01 0.39037206450E+01 0.42046184987E+01 0.47057881116E+01
 0.54180344111E+01 0.52494461756E+01 0.59809357391E+01 0.68448031348E+01 0.77761653593E+01
 0.86865666542E+01 0.94869350552E+01 0.10110069667E+02 0.10516397421E+02 0.10681886000E+02
 0.10585077918E+02 0.10211436459E+02 0.95744083611E+01 0.87329355327E+01 0.77856044757E+01
 0.68417597126E+01 0.59890367303E+01 0.52772790661E+01 0.47234332220E+01 0.43272613749E+01
 0.40850735160E+01 0.39958804578E+01 0.40620690492E+01 0.42887684761E+01 0.46829558636E+01
 0.46162786924E+01 0.50276859424E+01 0.55776070249E+01 0.62440330991E+01 0.69829761886E+01
 0.77332389550E+01 0.84297122256E+01 0.90159715519E+01 0.94476906245E+01 0.96881439687E+01
 0.97061778355E+01 0.94848610386E+01 0.90365591657E+01 0.84104642930E+01 0.76827363633E+01
 0.69337488040E+01 0.62271503165E+01 0.56023221443E+01 0.50800341413E+01 0.46724245600E+01
 0.43891078755E+01 0.42378494352E+01 0.42235088441E+01 0.43487955057E+01 0.43800105529E+01
 0.45114661447E+01 0.47718326910E+01 0.51580153918E+01 0.56564121771E+01 0.62386614913E+01
 0.68641500366E+01 0.74875117688E+01 0.80648554911E+01 0.85542609901E+01 0.89131554492E+01
 0.91002156943E+01 0.90859460320E+01 0.88664401977E+01 0.84691676170E+01 0.79448071742E+01
 0.73504839430E+01 0.67359213574E+01 0.61395913660E+01 0.55925285751E+01 0.51224209189E+01
 0.47532744949E+01 0.45020577827E+01 0.43769807772E+01 0.45113441050E+01 0.43799973004E+01
 0.43770854798E+01 0.45021503307E+01 0.47532482211E+01 0.51223202014E+01 0.55924850891E+01
 0.61396486265E+01 0.67359836613E+01 0.73504640293E+01 0.79447529855E+01 0.84691727126E+01
 0.88664861004E+01 0.90859403397E+01 0.91001613252E+01 0.89131551259E+01 0.85543372003E+01
 0.80648924592E+01 0.74874349098E+01 0.68640585587E+01 0.62386921769E+01 0.56565363544E+01
 0.51580728122E+01 0.47717480280E+01 0.50276606997E+01 0.46161685392E+01 0.43487250855E+01
 0.42235557667E+01 0.42379576827E+01 0.43891465490E+01 0.46723485702E+01 0.50799497305E+01
 0.56023412403E+01 0.62272283187E+01 0.69337611456E+01 0.76826788733E+01 0.84104470454E+01
 0.90366082903E+01 0.94848767996E+01 0.97061220397E+01 0.96881190035E+01 0.94477608292E+01
 0.90160368306E+01 0.84296609048E+01 0.77331309626E+01 0.69829602672E+01 0.62441342417E+01
 0.55776991987E+01 0.59810437167E+01 0.52494598379E+01 0.46828657472E+01 0.42886733779E+01
 0.40620782174E+01 0.39959836929E+01 0.40851352897E+01 0.43272001346E+01 0.47233477553E+01
 0.52772984321E+01 0.59891131839E+01 0.68417565207E+01 0.77855365621E+01 0.87329385570E+01
 0.95744865017E+01 0.10211445269E+02 0.10584984497E+02 0.10681843789E+02 0.10516491759E+02
 0.10110167192E+02 0.94868892824E+01 0.86864373797E+01 0.77761201662E+01 0.68448884966E+01
 0.74113750527E+01 0.63345415999E+01 0.54181140859E+01 0.47057624939E+01 0.42045013321E+01
 0.39036626470E+01 0.37897939546E+01 0.38547050641E+01 0.40992637076E+01 0.45341002612E+01
 0.51748108339E+01 0.60281598097E+01 0.70701768555E+01 0.82269021641E+01 0.93758532369E+01
 0.10378129138E+02 0.11125746781E+02 0.11561201257E+02 0.11701227093E+02 0.11589970460E+02
 0.11222519424E+02 0.10566450626E+02 0.96498004383E+01 0.85579204797E+01 0.92631122215E+01
 0.78943140244E+01 0.66063034222E+01 0.55183184884E+01 0.46828283568E+01 0.41027130195E+01
 0.37585751412E+01 0.36297886245E+01 0.37064812315E+01 0.39948550445E+01 0.45157964401E+01
 0.52935769927E+01 0.63322856255E+01 0.75855523439E+01 0.89384506965E+01 0.10225419301E+02
 0.11272935097E+02 0.11929017833E+02 0.12229676331E+02 0.12335807421E+02 0.12333671330E+02
 0.12131314599E+02 0.11551817841E+02 0.10543229872E+02 0.11287787876E+02 0.98296807313E+01
 0.82490567537E+01 0.67705947321E+01 0.55407848572E+01 0.46160902253E+01 0.39910181117E+01
 0.36357416872E+01 0.35235191785E+01 0.36456255412E+01 0.40162192515E+01 0.46661686706E+01
 0.56222905518E+01 0.68720550629E+01 0.83270229482E+01 0.98149006638E+01 0.11094756492E+02
 0.11859702648E+02 0.12082390491E+02 0.12063896404E+02 0.12152916935E+02 0.12428210554E+02
 0.12610716469E+02 0.12290524685E+02 0.12701299971E+02 0.11807251277E+02 0.10207346965E+02
 0.84422171041E+01 0.68118025279E+01 0.54835264817E+01 0.45112113757E+01 0.38775519316E+01
 0.35425156633E+01 0.34761276072E+01 0.36745931998E+01 0.41622552215E+01 0.49775800218E+01
 0.61398809184E+01 0.76015605244E+01 0.92108963416E+01 0.10699881920E+02 0.11588990731E+02
 0.11623091992E+02 0.11107655225E+02 0.10702488568E+02 0.10927066074E+02 0.11748242629E+02
 0.12578094766E+02 0.12130348697E+02 0.12805848504E+02 0.12068293587E+02 0.10364512229E+02
 0.84565181833E+01 0.67265234983E+01 0.53519503171E+01 0.43768023673E+01 0.37702262991E+01
 0.34843535918E+01 0.34903190777E+01 0.37931902498E+01 0.44282857789E+01 0.54362775896E+01
 0.68150458785E+01 0.84611777517E+01 0.10134123205E+02 0.11284416511E+02 0.11299545703E+02
 0.10216829808E+02 0.88124303030E+01 0.81301476262E+01 0.87680630418E+01 0.10436588778E+02
 0.88776874100E+01 0.11505131632E+02 0.12700502399E+02 0.12081137666E+02 0.10291665184E+02
 0.82928366860E+01 0.65238198949E+01 0.51579852895E+01 0.42232951232E+01 0.36759803925E+01
 0.34645951784E+01 0.35662869230E+01 0.39980186431E+01 0.48047278175E+01 0.60209321840E+01
 0.76068380517E+01 0.93842157452E+01 0.10906768163E+02 0.11282795442E+02 0.10029296966E+02
 0.76413157106E+01 0.54314042676E+01 0.47572788245E+01 0.61369350691E+01 0.37229222727E+01
 0.75684148059E+01 0.10979739486E+02 0.12496654423E+02 0.11875030101E+02 0.10001212367E+02
 0.79693367359E+01 0.62234107120E+01 0.49182329163E+01 0.40618519977E+01 0.36004955095E+01
 0.34843976889E+01 0.37012260033E+01 0.42813272757E+01 0.52755635088E+01 0.67017911309E+01
 0.84669249158E+01 0.10286498147E+02 0.11339257782E+02 0.10604035797E+02 0.79132753743E+01
 0.43185133270E+01 0.16266739238E+01 0.13447520659E+01 -.12213187544E+01 0.22140250118E+01
 0.69319111415E+01 0.10750954312E+02 0.12260967358E+02 0.11476570460E+02 0.95239439186E+01
 0.75178922989E+01 0.58525991907E+01 0.46520461132E+01 0.39035318851E+01 0.35479404460E+01
 0.35425746822E+01 0.38889200805E+01 0.46301189359E+01 0.58171818363E+01 0.74405509737E+01
 0.93428505823E+01 0.11047078474E+02 0.11380148505E+02 0.94156058353E+01 0.54257901848E+01
 0.10119677625E+01 -.16809711475E+01 0.13998493552E+01 0.22144664343E+01 0.53160621537E+01
 0.91071156963E+01 0.11764575548E+02 0.12306167338E+02 0.11016817875E+02 0.90057380878E+01
 0.70897768182E+01 0.55454133207E+01 0.44548018937E+01 0.37895822468E+01 0.34911211229E+01
 0.35233688790E+01 0.38941863214E+01 0.46490017713E+01 0.58357159673E+01 0.74392780856E+01
 0.93036727462E+01 0.10991965441E+02 0.11459019193E+02 0.99213738792E+01 0.66987421218E+01
 0.32506917673E+01 0.20485235040E+01 0.62661806999E+00 0.20487380210E+01 0.55477422081E+01
 0.93102775037E+01 0.11594492220E+02 0.11704759325E+02 0.10197848039E+02 0.82319009255E+01
 0.64530098834E+01 0.50762574957E+01 0.41488306318E+01 0.36295805666E+01 0.34641101449E+01
 0.36295863620E+01 0.41488225894E+01 0.50762616448E+01 0.64530396586E+01 0.82318842497E+01
 0.10197760818E+02 0.11704741032E+02 0.11594632757E+02 0.93103950676E+01 0.55476262325E+01
 0.53159810484E+01 0.22142456477E+01 0.13998027401E+01 0.32508568525E+01 0.66988613783E+01
 0.99213169976E+01 0.11458924422E+02 0.10991957661E+02 0.93037061976E+01 0.74392900903E+01
 0.58357222415E+01 0.46490084694E+01 0.38941718570E+01 0.35233560636E+01 0.34911368002E+01
 0.37895859801E+01 0.44547739307E+01 0.55454246219E+01 0.70898412711E+01 0.90057278054E+01
 0.11016689654E+02 0.12306112543E+02 0.11764729786E+02 0.91072804270E+01 0.94953870748E+01
 0.61387993196E+01 0.37230654199E+01 0.34852472012E+01 0.54261233064E+01 0.83385040364E+01
 0.10605071986E+02 0.11190891209E+02 0.10156828411E+02 0.83981328477E+01 0.66787955902E+01
 0.52754728830E+01 0.42872024861E+01 0.37035052801E+01 0.34760199976E+01 0.35712996431E+01
 0.39957962702E+01 0.47951812423E+01 0.60267420979E+01 0.77011211029E+01 0.97029139547E+01
 0.11704293073E+02 0.12820555440E+02 0.12096022871E+02 0.12599084407E+02 0.10418507392E+02
 0.77948615497E+01 0.61369602469E+01 0.62693412876E+01 0.79134165969E+01 0.99130343268E+01
 0.11021134881E+02 0.10675341976E+02 0.92389233276E+01 0.75319217422E+01 0.59924613639E+01
 0.48013432991E+01 0.40081644963E+01 0.35856897349E+01 0.34903032690E+01 0.37015733538E+01
 0.42378009177E+01 0.51490947722E+01 0.64854165912E+01 0.82371828457E+01 0.10262658475E+02
 0.12211700624E+02 0.13243364369E+02 0.13517815692E+02 0.13147847205E+02 0.11594721087E+02
 0.97882664138E+01 0.87679907797E+01 0.89857495291E+01 0.10029242685E+02 0.10954824931E+02
 0.10962362445E+02 0.99127005192E+01 0.83280999798E+01 0.67486342389E+01 0.54135066037E+01
 0.44343354219E+01 0.38234544424E+01 0.35458859245E+01 0.35663486271E+01 0.38764235711E+01
 0.45020551936E+01 0.54919592718E+01 0.68839183044E+01 0.86485761286E+01 0.10628477498E+02
 0.12488758186E+02 0.12487438461E+02 0.13548253149E+02 0.13527341476E+02 0.12626838356E+02
 0.11535392436E+02 0.10926920080E+02 0.10982459665E+02 0.11299348238E+02 0.11238802151E+02
 0.10427075259E+02 0.90260505741E+01 0.74909702892E+01 0.60869120879E+01 0.49670137382E+01
 0.41883020800E+01 0.37396226972E+01 0.35858182113E+01 0.37013789843E+01 0.40871703693E+01
 0.47717589670E+01 0.57971126541E+01 0.71859982273E+01 0.88928230614E+01 0.10757104377E+02
 0.10627344376E+02 0.12179545805E+02 0.13244511405E+02 0.13527450181E+02 0.13159310132E+02
 0.12575829430E+02 0.12152745002E+02 0.11921216042E+02 0.11588731015E+02 0.10830812168E+02
 0.96026880921E+01 0.81738021866E+01 0.67784560735E+01 0.55799648461E+01 0.46710095781E+01
 0.40714490255E+01 0.37591000440E+01 0.37037479613E+01 0.38891490062E+01 0.43216924415E+01
 0.50276426510E+01 0.60383714153E+01 0.73615475663E+01 0.89415310261E+01 0.87863381343E+01
 0.10245932886E+02 0.11579526284E+02 0.12575073760E+02 0.13038523429E+02 0.13012525323E+02
 0.12720297173E+02 0.12335659578E+02 0.11841537240E+02 0.11094495063E+02 0.10024026412E+02
 0.87536515789E+01 0.74431170145E+01 0.62398530512E+01 0.52549102639E+01 0.45377866872E+01
 0.40876233042E+01 0.38807413019E+01 0.38944450216E+01 0.41197867691E+01 0.45646958468E+01
 0.52493974033E+01 0.61932785905E+01 0.73916517089E+01 0.72722819026E+01 0.84413458295E+01
 0.96481293601E+01 0.10748380340E+02 0.11600966590E+02 0.12104576543E+02 0.12239810622E+02
 0.12084221300E+02 0.11701119782E+02 0.11085567110E+02 0.10225225278E+02 0.91764525934E+01
 0.80309547075E+01 0.69075195478E+01 0.59176163916E+01 0.51322279817E+01 0.45749187468E+01
 0.42372615139E+01 0.41002098805E+01 0.41490869269E+01 0.43797371780E+01 0.47985367115E+01
 0.54179783979E+01 0.62466632302E+01 0.61931333357E+01 0.70153588762E+01 0.79413748363E+01
 0.88926463930E+01 0.97662556244E+01 0.10462090732E+02 0.10912022675E+02 0.11091796257E+02
 0.11009131539E+02 0.10681804055E+02 0.10127734056E+02 0.93757335826E+01 0.84823597205E+01
 0.75341462819E+01 0.66280903602E+01 0.58436601646E+01 0.52256215290E+01 0.47858496948E+01
 0.45174947001E+01 0.44095574420E+01 0.44549307872E+01 0.46522619225E+01 0.50048945497E+01
 0.55181506976E+01 0.55406119283E+01 0.60381196544E+01 0.66469375934E+01 0.73360569594E+01
 0.80517936060E+01 0.87247052828E+01 0.92858441846E+01 0.96831245039E+01 0.98878149798E+01
 0.98895001735E+01 0.96881258751E+01 0.92934514659E+01 0.87328959134E+01 0.80579386343E+01
 0.73387001796E+01 0.66468458306E+01 0.60375186139E+01 0.55413735312E+01 0.51689526841E+01
 0.49209402850E+01 0.47963181336E+01 0.47951973644E+01 0.49183438656E+01 0.51666038721E+01
 0.52697109896E+01 0.54834030300E+01 0.57968690256E+01 0.62025858190E+01 0.66814888210E+01
 0.72000525175E+01 0.77142496709E+01 0.81787141250E+01 0.85552332819E+01 0.88156240373E+01
 0.89395968938E+01 0.89132018022E+01 0.87324861809E+01 0.84104518642E+01 0.79800843231E+01
 0.74883087650E+01 0.69834394547E+01 0.65041386364E+01 0.60759777503E+01 0.57150880279E+01
 0.54336071884E+01 0.52421795140E+01 0.51489405103E+01 0.51579359518E+01 0.53517763338E+01
 0.53051214684E+01 0.53519174586E+01 0.54917839530E+01 0.57217285160E+01 0.60319567930E+01
 0.64038436434E+01 0.68122530610E+01 0.72301974712E+01 0.76317283497E+01 0.79910015293E+01
 0.82799170742E+01 0.84692312732E+01 0.85353644026E+01 0.84691779089E+01 0.82799141980E+01
 0.79910695243E+01 0.76317537199E+01 0.72301167233E+01 0.68121729112E+01 0.64038931322E+01
 0.60320897285E+01 0.57217727902E+01 0.54916706448E+01 0.57967983984E+01 0.54832442352E+01
 0.52696511034E+01 0.51580389363E+01 0.51490780583E+01 0.52421904373E+01 0.54334950400E+01
 0.57150093657E+01 0.60760267422E+01 0.65042225395E+01 0.69834298307E+01 0.74882386080E+01
 0.79800795998E+01 0.84105144514E+01 0.87324958251E+01 0.89131337945E+01 0.89395753633E+01
 0.88157071064E+01 0.85552945840E+01 0.81786364511E+01 0.77141245436E+01 0.72000597736E+01
 0.66816349104E+01 0.62026883002E+01 0.66470655967E+01 0.60381122770E+01 0.55404846256E+01
 0.51665003734E+01 0.49183787564E+01 0.47953252751E+01 0.47963801615E+01 0.49208664341E+01
 0.51688598753E+01 0.55413926482E+01 0.60375973578E+01 0.66468461092E+01 0.73386326418E+01
 0.80579338164E+01 0.87329639639E+01 0.92934604140E+01 0.96880439609E+01 0.98894692379E+01
 0.98879103571E+01 0.96832102760E+01 0.92857780282E+01 0.87245627004E+01 0.80517620144E+01
 0.73361777779E+01 0.79414373447E+01 0.70154989678E+01 0.61932038703E+01 0.55180710772E+01
 0.50047514187E+01 0.46522311053E+01 0.44550501593E+01 0.44096569112E+01 0.45174389811E+01
 0.47857439829E+01 0.52256347348E+01 0.58437481436E+01 0.66280887793E+01 0.75340650540E+01
 0.84823563800E+01 0.93758201529E+01 0.10127749544E+02 0.10681703477E+02 0.11009077066E+02
 0.11091890202E+02 0.10912137520E+02 0.10462063405E+02 0.97661175212E+01 0.88925632265E+01
 0.96480167633E+01 0.84413342420E+01 0.72723983527E+01 0.62467908658E+01 0.54179580196E+01
 0.47983864836E+01 0.43796616992E+01 0.41491837364E+01 0.41003152817E+01 0.42372163628E+01
 0.45748232970E+01 0.51322505995E+01 0.59176991319E+01 0.69075006685E+01 0.80308707057E+01
 0.91764673143E+01 0.10225324441E+02 0.11085575908E+02 0.11701006922E+02 0.12084155108E+02
 0.12239890920E+02 0.12104697137E+02 0.11600982708E+02 0.10748280608E+02 0.11579499262E+02
 0.10245797825E+02 0.87862369878E+01 0.73917299793E+01 0.61934542889E+01 0.52494307042E+01
 0.45645444796E+01 0.41196837727E+01 0.38945294247E+01 0.38808461815E+01 0.40875780160E+01
 0.45376977378E+01 0.52549427935E+01 0.62399342107E+01 0.74430892877E+01 0.87535666700E+01
 0.10024044308E+02 0.11094594934E+02 0.11841557062E+02 0.12335563989E+02 0.12720214933E+02
 0.13012552600E+02 0.13038627092E+02 0.12575155730E+02 0.13244644193E+02 0.12179591411E+02
 0.10627211061E+02 0.89413713988E+01 0.73615861648E+01 0.60385543056E+01 0.50276986964E+01
 0.43215592346E+01 0.38890581234E+01 0.37038255720E+01 0.37591787514E+01 0.40713925442E+01
 0.46709424192E+01 0.55800175247E+01 0.67785264168E+01 0.81737567156E+01 0.96026047183E+01
 0.10830834332E+02 0.11588827190E+02 0.11921250264E+02 0.12152680013E+02 0.12575738476E+02