unknown system                          
   1.00000000000000     
     0.000000    2.953043    2.953043
     2.953043    0.000000    2.953043
     2.953043    2.953043    0.000000
   Si
     2
Direct
  0.000000  0.000000  0.000000
  0.250000  0.250000  0.250000
 
   40   40   40
 -8.6902     -7.0960     -2.7278      3.3189      9.6417      14.961      18.443      19.835      19.411      17.806    
  15.760      13.722      11.858      10.257      8.9503      7.9228      7.1402      6.5653      6.1695      5.9365    
  5.8594      5.9365      6.1695      6.5653      7.1403      7.9229      8.9503      10.257      11.858      13.722    
  15.760      17.806      19.411      19.834      18.443      14.961      9.6416      3.3189     -2.7277     -7.0959    
 -7.0960     -3.9552      1.4954      7.9008      13.840      18.235      20.568      20.903      19.745      17.820    
  15.755      13.796      12.061      10.607      9.4385      8.5299      7.8448      7.3514      7.0294      6.8695    
  6.8695      7.0293      7.3514      7.8449      8.5299      9.4385      10.607      12.061      13.796      15.755    
  17.820      19.745      20.903      20.568      18.235      13.840      7.9008      1.4954     -3.9553     -7.0960    
 -2.7278      1.4954      7.2643      13.174      17.997      20.989      21.989      21.331      19.654      17.646    
  15.672      13.870      12.320      11.045      10.034      9.2529      8.6703      8.2625      8.0190      7.9377    
  8.0189      8.2624      8.6703      9.2529      10.034      11.045      12.320      13.870      15.672      17.646    
  19.654      21.331      21.989      20.989      17.997      13.174      7.2643      1.4955     -2.7277     -4.2794    
  3.3189      7.9008      13.174      17.898      21.177      22.647      22.453      21.103      19.249      17.346    
  15.559      13.981      12.655      11.581      10.734      10.082      9.6003      9.2785      9.1161      9.1161    
  9.2785      9.6003      10.082      10.734      11.581      12.655      13.981      15.559      17.346      19.249    
  21.103      22.453      22.647      21.177      17.898      13.174      7.9009      3.3191     0.64841     0.64833    
  9.6417      13.840      17.997      21.177      22.867      23.034      22.032      20.420      18.676      16.990    
  15.467      14.158      13.077      12.207      11.518      10.986      10.599      10.361      10.280      10.361    
  10.599      10.986      11.518      12.207      13.077      14.158      15.467      16.990      18.676      20.420    
  22.032      23.034      22.867      21.177      17.997      13.840      9.6416      6.5094      5.3489      6.5095    
  14.961      18.235      20.989      22.647      23.034      22.352      21.039      19.534      18.034      16.646    
  15.432      14.410      13.572      12.892      12.343      11.915      11.614      11.457      11.457      11.614    
  11.915      12.343      12.892      13.572      14.410      15.432      16.646      18.034      19.534      21.038    
  22.352      23.034      22.647      20.989      18.235      14.961      12.023      10.283      10.283      12.023    
  18.443      20.568      21.989      22.453      22.032      21.039      19.830      18.585      17.406      16.359    
  15.467      14.724      14.105      13.585      13.150      12.807      12.584      12.505      12.584      12.807    
  13.150      13.585      14.105      14.724      15.467      16.359      17.406      18.584      19.830      21.038    
  22.032      22.453      21.989      20.568      18.443      16.163      14.409      13.751      14.409      16.163    
  19.835      20.903      21.331      21.103      20.420      19.534      18.585      17.669      16.848      16.146    
  15.559      15.060      14.620      14.221      13.869      13.597      13.447      13.447      13.597      13.869    
  14.221      14.620      15.060      15.559      16.146      16.848      17.669      18.584      19.534      20.420    
  21.103      21.331      20.903      19.835      18.389      17.012      16.174      16.174      17.012      18.389    
  19.411      19.745      19.654      19.249      18.676      18.034      17.406      16.848      16.381      15.998    
  15.672      15.365      15.052      14.734      14.444      14.236      14.160      14.236      14.444      14.734    
  15.052      15.365      15.672      15.998      16.381      16.848      17.406      18.034      18.676      19.249    
  19.654      19.745      19.411      18.705      17.849      17.153      16.885      17.153      17.849      18.705    
  17.806      17.820      17.646      17.346      16.990      16.646      16.359      16.146      15.998      15.882    
  15.755      15.580      15.345      15.079      14.837      14.691      14.691      14.837      15.079      15.345    
  15.580      15.755      15.882      15.998      16.146      16.359      16.646      16.990      17.346      17.646    
  17.820      17.806      17.564      17.147      16.709      16.430      16.430      16.709      17.147      17.564    
  15.760      15.755      15.672      15.559      15.467      15.432      15.467      15.559      15.672      15.755    
  15.760      15.661      15.470      15.231      15.030      14.952      15.030      15.231      15.470      15.662    
  15.760      15.755      15.672      15.559      15.467      15.432      15.467      15.559      15.672      15.755    
  15.760      15.662      15.470      15.231      15.030      14.952      15.030      15.231      15.470      15.661    
  13.722      13.796      13.870      13.981      14.158      14.410      14.724      15.060      15.365      15.580    
  15.661      15.601      15.423      15.208      15.063      15.063      15.208      15.423      15.601      15.662    
  15.580      15.365      15.060      14.724      14.410      14.158      13.981      13.870      13.796      13.723    
  13.618      13.472      13.300      13.144      13.051      13.051      13.144      13.300      13.472      13.618    
  11.858      12.061      12.320      12.655      13.077      13.572      14.105      14.620      15.052      15.345    
  15.470      15.423      15.261      15.094      15.025      15.094      15.261      15.423      15.470      15.345    
  15.052      14.620      14.105      13.572      13.077      12.655      12.320      12.061      11.858      11.682    
  11.513      11.348      11.201      11.096      11.058      11.096      11.201      11.348      11.513      11.682    
  10.257      10.607      11.045      11.581      12.207      12.892      13.585      14.221      14.734      15.079    
  15.231      15.208      15.094      15.000      15.000      15.094      15.208      15.231      15.079      14.734    
  14.221      13.585      12.892      12.207      11.581      11.045      10.607      10.257      9.9760      9.7426    
  9.5437      9.3781      9.2551      9.1887      9.1887      9.2551      9.3781      9.5437      9.7426      9.9760    
  8.9503      9.4385      10.034      10.734      11.518      12.343      13.150      13.869      14.444      14.837    
  15.030      15.063      15.025      15.000      15.025      15.063      15.030      14.837      14.444      13.869    
  13.150      12.343      11.518      10.734      10.034      9.4385      8.9503      8.5568      8.2402      7.9842    
  7.7800      7.6268      7.5304      7.4973      7.5304      7.6269      7.7800      7.9843      8.2401      8.5568    
  7.9228      8.5299      9.2529      10.082      10.986      11.915      12.807      13.597      14.236      14.691    
  14.952      15.063      15.094      15.094      15.063      14.952      14.691      14.236      13.597      12.807    
  11.915      10.986      10.082      9.2529      8.5299      7.9229      7.4266      7.0266      6.7068      6.4544    
  6.2633      6.1330      6.0666      6.0667      6.1331      6.2633      6.4545      6.7068      7.0266      7.4265    
  7.1402      7.8448      8.6703      9.6003      10.599      11.614      12.584      13.447      14.160      14.691    
  15.030      15.208      15.261      15.208      15.030      14.691      14.160      13.447      12.584      11.614    
  10.599      9.6003      8.6703      7.8448      7.1402      6.5563      6.0817      5.7012      5.4004      5.1696    
  5.0046      4.9048      4.8713      4.9048      5.0046      5.1696      5.4003      5.7011      6.0817      6.5562    
  6.5653      7.3514      8.2625      9.2785      10.361      11.457      12.505      13.447      14.236      14.837    
  15.231      15.423      15.423      15.231      14.837      14.236      13.447      12.505      11.457      10.361    
  9.2785      8.2625      7.3514      6.5653      5.9070      5.3678      4.9331      4.5877      4.3197      4.1217    
  3.9902      3.9245      3.9245      3.9902      4.1216      4.3196      4.5876      4.9331      5.3679      5.9071    
  6.1695      7.0294      8.0190      9.1161      10.280      11.457      12.584      13.597      14.444      15.079    
  15.470      15.601      15.470      15.079      14.444      13.597      12.584      11.457      10.280      9.1160    
  8.0189      7.0293      6.1695      5.4447      4.8474      4.3635      3.9771      3.6747      3.4464      3.2863    
  3.1911      3.1594      3.1910      3.2862      3.4464      3.6747      3.9771      4.3635      4.8474      5.4447    
  5.9365      6.8695      7.9377      9.1161      10.361      11.614      12.807      13.869      14.734      15.345    
  15.662      15.662      15.345      14.734      13.869      12.807      11.614      10.361      9.1160      7.9377    
  6.8695      5.9365      5.1461      4.4919      3.9599      3.5336      3.1979      2.9409      2.7543      2.6326    
  2.5725      2.5725      2.6326      2.7543      2.9410      3.1980      3.5337      3.9599      4.4919      5.1460    
  5.8594      6.8695      8.0189      9.2785      10.599      11.915      13.150      14.221      15.052      15.580    
  15.760      15.580      15.052      14.221      13.150      11.915      10.599      9.2785      8.0189      6.8695    
  5.8594      4.9990      4.2839      3.7005      3.2316      2.8609      2.5746      2.3621      2.2158      2.1301    
  2.1019      2.1301      2.2158      2.3621      2.5746      2.8609      3.2317      3.7005      4.2839      4.9990    
  5.9365      7.0293      8.2624      9.6003      10.986      12.343      13.585      14.620      15.365      15.755    
  15.755      15.365      14.620      13.585      12.343      10.986      9.6003      8.2625      7.0293      5.9365    
  4.9990      4.2153      3.5732      3.0556      2.6449      2.3259      2.0858      1.9148      1.8053      1.7519    
  1.7519      1.8053      1.9148      2.0858      2.3259      2.6449      3.0555      3.5732      4.2154      4.9990    
  6.1695      7.3514      8.6703      10.082      11.518      12.892      14.105      15.060      15.672      15.882    
  15.672      15.060      14.105      12.892      11.518      10.082      8.6703      7.3514      6.1695      5.1461    
  4.2839      3.5732      2.9976      2.5393      2.1814      1.9096      1.7117      1.5780      1.5010      1.4759    
  1.5010      1.5781      1.7117      1.9096      2.1814      2.5392      2.9976      3.5732      4.2839      5.1461    
  6.5653      7.8449      9.2529      10.734      12.207      13.572      14.724      15.559      15.998      15.998    
  15.559      14.724      13.572      12.207      10.734      9.2529      7.8448      6.5653      5.4447      4.4919    
  3.7005      3.0556      2.5393      2.1340      1.8237      1.5945      1.4343      1.3333      1.2847      1.2847    
  1.3333      1.4343      1.5945      1.8237      2.1340      2.5393      3.0555      3.7004      4.4919      5.4447    
  7.1403      8.5299      10.034      11.581      13.077      14.410      15.467      16.146      16.381      16.146    
  15.467      14.410      13.077      11.581      10.034      8.5299      7.1402      5.9070      4.8474      3.9599    
  3.2316      2.6449      2.1814      1.8237      1.5562      1.3647      1.2374      1.1650      1.1415      1.1650    
  1.2374      1.3647      1.5561      1.8237      2.1814      2.6449      3.2317      3.9599      4.8475      5.9070    
  7.9229      9.4385      11.045      12.655      14.158      15.432      16.359      16.848      16.848      16.359    
  15.432      14.158      12.655      11.045      9.4385      7.9229      6.5563      5.3678      4.3635      3.5336    
  2.8609      2.3259      1.9096      1.5945      1.3647      1.2062      1.1074      1.0602      1.0602      1.1074    
  1.2062      1.3647      1.5945      1.9096      2.3259      2.8609      3.5337      4.3636      5.3679      6.5563    
  8.9503      10.607      12.320      13.981      15.467      16.646      17.406      17.669      17.406      16.646    
  15.467      13.981      12.320      10.607      8.9503      7.4266      6.0817      4.9331      3.9771      3.1979    
  2.5746      2.0858      1.7117      1.4343      1.2374      1.1074      1.0339      1.0101      1.0339      1.1074    
  1.2374      1.4343      1.7117      2.0858      2.5746      3.1979      3.9771      4.9331      6.0817      7.4266    
  10.257      12.061      13.870      15.559      16.990      18.034      18.584      18.584      18.034      16.990    
  15.559      13.870      12.061      10.257      8.5568      7.0266      5.7012      4.5877      3.6747      2.9409    
  2.3621      1.9148      1.5780      1.3333      1.1650      1.0602      1.0101      1.0101      1.0602      1.1649    
  1.3333      1.5781      1.9148      2.3621      2.9410      3.6747      4.5876      5.7011      7.0266      8.5568    
  11.858      13.796      15.672      17.346      18.676      19.534      19.830      19.534      18.676      17.346    
  15.672      13.796      11.858      9.9760      8.2402      6.7068      5.4004      4.3197      3.4464      2.7543    
  2.2158      1.8053      1.5010      1.2847      1.1415      1.0602      1.0339      1.0602      1.1415      1.2847    
  1.5010      1.8053      2.2158      2.7543      3.4464      4.3196      5.4004      6.7068      8.2401      9.9760    
  13.722      15.755      17.646      19.249      20.420      21.038      21.038      20.420      19.249      17.646    
  15.755      13.723      11.682      9.7426      7.9842      6.4544      5.1696      4.1217      3.2863      2.6326    
  2.1301      1.7519      1.4759      1.2847      1.1650      1.1074      1.1074      1.1649      1.2847      1.4759    
  1.7519      2.1301      2.6326      3.2862      4.1216      5.1696      6.4545      7.9843      9.7426      11.682    
  15.760      17.820      19.654      21.103      22.032      22.352      22.032      21.103      19.654      17.820    
  15.760      13.618      11.513      9.5437      7.7800      6.2633      5.0046      3.9902      3.1911      2.5725    
  2.1019      1.7519      1.5010      1.3333      1.2374      1.2062      1.2374      1.3333      1.5010      1.7519    
  2.1019      2.5725      3.1911      3.9902      5.0046      6.2633      7.7800      9.5438      11.513      13.618    
  17.806      19.745      21.331      22.453      23.034      23.034      22.453      21.331      19.745      17.806    
  15.662      13.472      11.348      9.3781      7.6268      6.1330      4.9048      3.9245      3.1594      2.5725    
  2.1301      1.8053      1.5781      1.4343      1.3647      1.3647      1.4343      1.5781      1.8053      2.1301    
  2.5725      3.1594      3.9245      4.9048      6.1331      7.6269      9.3781      11.348      13.472      15.662    
  19.411      20.903      21.989      22.647      22.867      22.647      21.989      20.903      19.411      17.564    
  15.470      13.300      11.201      9.2551      7.5304      6.0666      4.8713      3.9245      3.1910      2.6326    
  2.2158      1.9148      1.7117      1.5945      1.5561      1.5945      1.7117      1.9148      2.2158      2.6326    
  3.1911      3.9245      4.8713      6.0667      7.5304      9.2552      11.201      13.300      15.470      17.564    
  19.834      20.568      20.989      21.177      21.177      20.989      20.568      19.835      18.705      17.147    
  15.231      13.144      11.096      9.1887      7.4973      6.0667      4.9048      3.9902      3.2862      2.7543    
  2.3621      2.0858      1.9096      1.8237      1.8237      1.9096      2.0858      2.3621      2.7543      3.2862    
  3.9902      4.9048      6.0667      7.4973      9.1887      11.096      13.144      15.231      17.147      18.705    
  18.443      18.235      17.997      17.898      17.997      18.235      18.443      18.389      17.849      16.709    
  15.030      13.051      11.058      9.1887      7.5304      6.1331      5.0046      4.1216      3.4464      2.9410    
  2.5746      2.3259      2.1814      2.1340      2.1814      2.3259      2.5746      2.9410      3.4464      4.1216    
  5.0046      6.1331      7.5304      9.1887      11.058      13.051      15.030      16.709      17.849      18.388    
  14.961      13.840      13.174      13.174      13.840      14.961      16.163      17.012      17.153      16.430    
  14.952      13.051      11.096      9.2551      7.6269      6.2633      5.1696      4.3196      3.6747      3.1980    
  2.8609      2.6449      2.5392      2.5393      2.6449      2.8609      3.1979      3.6747      4.3196      5.1696    
  6.2633      7.6269      9.2552      11.096      13.051      14.952      16.430      17.153      17.012      16.163    
  9.6416      7.9008      7.2643      7.9009      9.6416      12.023      14.409      16.174      16.885      16.430    
  15.030      13.144      11.201      9.3781      7.7800      6.4545      5.4003      4.5876      3.9771      3.5337    
  3.2317      3.0555      2.9976      3.0555      3.2317      3.5337      3.9771      4.5876      5.4004      6.4545    
  7.7800      9.3781      11.201      13.144      15.030      16.430      16.885      16.174      14.409      12.023    
  3.3189      1.4954      1.4955      3.3191      6.5094      10.283      13.751      16.174      17.153      16.709    
  15.231      13.300      11.348      9.5437      7.9843      6.7068      5.7011      4.9331      4.3635      3.9599    
  3.7005      3.5732      3.5732      3.7004      3.9599      4.3636      4.9331      5.7011      6.7068      7.9843    
  9.5438      11.348      13.300      15.231      16.709      17.153      16.174      13.751      10.283      6.5093    
 -2.7277     -3.9553     -2.7277     0.64841      5.3489      10.283      14.409      17.012      17.849      17.147    
  15.470      13.472      11.513      9.7426      8.2401      7.0266      6.0817      5.3679      4.8474      4.4919    
  4.2839      4.2154      4.2839      4.4919      4.8475      5.3679      6.0817      7.0266      8.2401      9.7426    
  11.513      13.472      15.470      17.147      17.849      17.012      14.409      10.283      5.3488     0.64836    
 -7.0959     -7.0960     -4.2794     0.64833      6.5095      12.023      16.163      18.389      18.705      17.564    
  15.661      13.618      11.682      9.9760      8.5568      7.4265      6.5562      5.9071      5.4447      5.1460    
  4.9990      4.9990      5.1461      5.4447      5.9070      6.5563      7.4266      8.5568      9.9760      11.682    
  13.618      15.662      17.564      18.705      18.388      16.163      12.023      6.5093     0.64836     -4.2792    
 -7.0960     -3.9552      1.4954      7.9008      13.840      18.235      20.568      20.903      19.745      17.820    
  15.755      13.796      12.061      10.607      9.4385      8.5299      7.8448      7.3514      7.0294      6.8695    
  6.8695      7.0293      7.3514      7.8449      8.5299      9.4385      10.607      12.061      13.796      15.755    
  17.820      19.745      20.903      20.568      18.235      13.840      7.9008      1.4954     -3.9553     -7.0960    
 -3.9552     0.46630      6.5121      12.720      17.812      21.013      22.151      21.564      19.902      17.879    
  15.882      14.058      12.487      11.194      10.168      9.3756      8.7845      8.3709      8.1241      8.0417    
  8.1240      8.3709      8.7845      9.3756      10.168      11.194      12.487      14.058      15.882      17.879    
  19.902      21.564      22.151      21.013      17.812      12.720      6.5120     0.46617     -3.9553     -5.5791    
  1.4954      6.5121      12.305      17.531      21.225      22.984      22.952      21.655      19.777      17.831    
  15.998      14.377      13.012      11.904      11.030      10.358      9.8614      9.5296      9.3621      9.3621    
  9.5296      9.8614      10.358      11.030      11.904      13.012      14.377      15.998      17.831      19.777    
  21.655      22.952      22.984      21.225      17.531      12.305      6.5121      1.4954     -1.4247     -1.4247    
  7.9008      12.720      17.531      21.285      23.401      23.824      22.921      21.290      19.486      17.734    
  16.146      14.778      13.645      12.731      12.007      11.447      11.040      10.789      10.704      10.789    
  11.040      11.447      12.007      12.731      13.645      14.778      16.146      17.734      19.486      21.290    
  22.921      23.824      23.401      21.285      17.531      12.720      7.9009      4.3194      2.9942      4.3194    
  13.840      17.812      21.225      23.401      24.121      23.586      22.270      20.694      19.115      17.648    
  16.359      15.270      14.373      13.641      13.050      12.588      12.262      12.092      12.092      12.262    
  12.588      13.050      13.641      14.373      15.270      16.359      17.648      19.115      20.694      22.270    
  23.586      24.121      23.401      21.225      17.812      13.840      10.310      8.2278      8.2279      10.310    
  18.235      21.013      22.984      23.824      23.586      22.609      21.333      20.006      18.744      17.615    
  16.646      15.834      15.153      14.576      14.091      13.707      13.455      13.367      13.455      13.707    
  14.091      14.576      15.153      15.834      16.646      17.615      18.744      20.006      21.333      22.609    
  23.586      23.824      22.984      21.013      18.235      15.322      13.106      12.277      13.106      15.322    
  20.568      22.151      22.952      22.921      22.270      21.333      20.315      19.322      18.424      17.648    
  16.990      16.425      15.919      15.454      15.042      14.721      14.543      14.543      14.721      15.042    
  15.454      15.919      16.425      16.990      17.648      18.424      19.322      20.315      21.333      22.270    
  22.921      22.952      22.151      20.568      18.557      16.691      15.567      15.567      16.691      18.557    
  20.903      21.564      21.655      21.290      20.694      20.006      19.322      18.704      18.177      17.734    
  17.346      16.972      16.585      16.187      15.822      15.555      15.457      15.555      15.822      16.187    
  16.585      16.972      17.346      17.734      18.177      18.704      19.322      20.006      20.694      21.290    
  21.654      21.564      20.903      19.776      18.496      17.483      17.099      17.483      18.496      19.776    
  19.745      19.902      19.777      19.486      19.115      18.744      18.424      18.177      17.991      17.831    
  17.646      17.396      17.067      16.687      16.334      16.120      16.120      16.334      16.687      17.067    
  17.396      17.646      17.831      17.991      18.177      18.424      18.744      19.115      19.486      19.777    
  19.902      19.745      19.257      18.543      17.836      17.396      17.396      17.836      18.543      19.257    
  17.820      17.879      17.831      17.734      17.648      17.615      17.648      17.734      17.831      17.879    
  17.820      17.619      17.272      16.857      16.518      16.387      16.518      16.857      17.272      17.619    
  17.820      17.879      17.831      17.734      17.648      17.615      17.648      17.734      17.831      17.879    
  17.820      17.619      17.272      16.857      16.518      16.387      16.518      16.857      17.272      17.619    
  15.755      15.882      15.998      16.146      16.359      16.646      16.990      17.346      17.646      17.820    
  17.806      17.564      17.147      16.709      16.430      16.430      16.709      17.147      17.564      17.806    
  17.820      17.646      17.346      16.990      16.646      16.359      16.146      15.998      15.882      15.755    
  15.580      15.345      15.079      14.837      14.691      14.691      14.837      15.079      15.345      15.580    
  13.796      14.058      14.377      14.778      15.270      15.834      16.425      16.972      17.396      17.619    
  17.564      17.239      16.775      16.375      16.218      16.375      16.775      17.239      17.564      17.619    
  17.396      16.972      16.425      15.834      15.270      14.778      14.377      14.058      13.796      13.558    
  13.322      13.084      12.869      12.716      12.660      12.716      12.869      13.084      13.322      13.558    
  12.061      12.487      13.012      13.645      14.373      15.153      15.919      16.585      17.067      17.272    
  17.147      16.775      16.341      16.055      16.056      16.341      16.775      17.147      17.272      17.067    
  16.585      15.919      15.153      14.373      13.645      13.012      12.487      12.061      11.713      11.417    
  11.158      10.937      10.770      10.678      10.679      10.770      10.937      11.158      11.417      11.713    
  10.607      11.194      11.904      12.731      13.641      14.576      15.454      16.187      16.687      16.857    
  16.709      16.375      16.055      15.926      16.056      16.375      16.709      16.857      16.687      16.187    
  15.454      14.576      13.641      12.731      11.904      11.194      10.607      10.131      9.7462      9.4316    
  9.1767      8.9825      8.8584      8.8155      8.8584      8.9825      9.1767      9.4316      9.7462      10.131    
  9.4385      10.168      11.030      12.007      13.050      14.091      15.042      15.822      16.334      16.518    
  16.430      16.218      16.056      16.056      16.218      16.430      16.518      16.334      15.822      15.042    
  14.091      13.050      12.007      11.030      10.168      9.4385      8.8411      8.3597      7.9745      7.6694    
  7.4364      7.2760      7.1936      7.1936      7.2761      7.4364      7.6694      7.9745      8.3597      8.8410    
  8.5299      9.3756      10.358      11.447      12.588      13.707      14.721      15.555      16.120      16.387    
  16.430      16.375      16.341      16.375      16.430      16.387      16.120      15.555      14.721      13.707    
  12.588      11.447      10.358      9.3756      8.5299      7.8271      7.2568      6.8009      6.4411      6.1645    
  5.9655      5.8443      5.8035      5.8444      5.9655      6.1645      6.4411      6.8009      7.2567      7.8270    
  7.8448      8.7845      9.8614      11.040      12.262      13.455      14.543      15.457      16.120      16.518    
  16.709      16.775      16.775      16.709      16.518      16.120      15.457      14.543      13.455      12.262    
  11.040      9.8614      8.7845      7.8448      7.0545      6.4077      5.8879      5.4764      5.1573      4.9208    
  4.7630      4.6838      4.6838      4.7630      4.9208      5.1572      5.4764      5.8879      6.4076      7.0545    
  7.3514      8.3709      9.5296      10.789      12.092      13.367      14.543      15.555      16.334      16.857    
  17.147      17.239      17.147      16.857      16.334      15.555      14.543      13.367      12.092      10.789    
  9.5296      8.3710      7.3514      6.4867      5.7737      5.1977      4.7395      4.3815      4.1108      3.9200    
  3.8060      3.7680      3.8060      3.9200      4.1108      4.3815      4.7396      5.1978      5.7738      6.4867    
  7.0294      8.1241      9.3621      10.704      12.092      13.455      14.721      15.822      16.687      17.272    
  17.564      17.564      17.272      16.687      15.822      14.721      13.455      12.092      10.704      9.3620    
  8.1240      7.0293      6.0957      5.3219      4.6939      4.1924      3.7983      3.4962      3.2760      3.1314    
  3.0597      3.0597      3.1314      3.2759      3.4962      3.7983      4.1924      4.6939      5.3219      6.0957    
  6.8695      8.0417      9.3621      10.789      12.262      13.707      15.042      16.187      17.067      17.619    
  17.806      17.619      17.067      16.187      15.042      13.707      12.262      10.789      9.3620      8.0416    
  6.8695      5.8654      5.0297      4.3492      3.8041      3.3739      3.0413      2.7936      2.6219      2.5208    
  2.4874      2.5207      2.6219      2.7936      3.0414      3.3739      3.8041      4.3492      5.0297      5.8654    
  6.8695      8.1240      9.5296      11.040      12.588      14.091      15.454      16.585      17.396      17.820    
  17.820      17.396      16.585      15.454      14.091      12.588      11.040      9.5296      8.1240      6.8695    
  5.7891      4.8857      4.1473      3.5541      3.0845      2.7194      2.4438      2.2462      2.1188      2.0564    
  2.0564      2.1188      2.2462      2.4438      2.7195      3.0845      3.5541      4.1473      4.8857      5.7891    
  7.0293      8.3709      9.8614      11.447      13.050      14.576      15.919      16.972      17.646      17.879    