unknown system                          
   1.00000000000000     
     0.000000    2.953043    2.953043
     2.953043    0.000000    2.953043
     2.953043    2.953043    0.000000
   Si
     2
Direct
  0.000000  0.000000  0.000000
  0.250000  0.250000  0.250000
 
   40   40   40
 -.86902188492E+01 -.70959614701E+01 -.27277799027E+01 0.33189157647E+01 0.96416629773E+01
 0.14961073249E+02 0.18443469226E+02 0.19834500553E+02 0.19411129980E+02 0.17806284006E+02
 0.15760345189E+02 0.13722462962E+02 0.11857820043E+02 0.10257332438E+02 0.89502896250E+01
 0.79228367434E+01 0.71402376839E+01 0.65652970623E+01 0.61695272955E+01 0.59365057411E+01
 0.58593659002E+01 0.59364939433E+01 0.61695178858E+01 0.65653029613E+01 0.71402568713E+01
 0.79228534592E+01 0.89502878102E+01 0.10257310921E+02 0.11857797568E+02 0.13722464653E+02
 0.15760376381E+02 0.17806315777E+02 0.19411115921E+02 0.19834413221E+02 0.18443324084E+02
 0.14960921223E+02 0.96415601110E+01 0.33188896776E+01 -.27277477794E+01 -.70959230485E+01
 -.70959614701E+01 -.39551899146E+01 0.14953867571E+01 0.79007951247E+01 0.13840487859E+02
 0.18235106971E+02 0.20568384075E+02 0.20903333550E+02 0.19745054787E+02 0.17819572234E+02
 0.15755096273E+02 0.13796009109E+02 0.12061343147E+02 0.10607134677E+02 0.94385402263E+01
 0.85298800893E+01 0.78448252339E+01 0.73514281499E+01 0.70293514286E+01 0.68695173261E+01
 0.68694784207E+01 0.70292958636E+01 0.73514399955E+01 0.78448783824E+01 0.85298876614E+01
 0.94384959269E+01 0.10607109923E+02 0.12061359173E+02 0.13796011141E+02 0.15755065778E+02
 0.17819565193E+02 0.19745087726E+02 0.20903322668E+02 0.20568269054E+02 0.18234968319E+02
 0.13840445285E+02 0.79008305744E+01 0.14953740758E+01 -.39552834763E+01 -.70960198435E+01
 -.27277799027E+01 0.14953867571E+01 0.72643053299E+01 0.13174448523E+02 0.17997148356E+02
 0.20989320655E+02 0.21989045051E+02 0.21330895269E+02 0.19653579021E+02 0.17646437474E+02
 0.15671711375E+02 0.13870020574E+02 0.12319610631E+02 0.11045165104E+02 0.10033536116E+02
 0.92529307887E+01 0.86702858064E+01 0.82624614174E+01 0.80189568514E+01 0.79377028416E+01
 0.80189413404E+01 0.82624453738E+01 0.86702824910E+01 0.92529384904E+01 0.10033541522E+02
 0.11045155886E+02 0.12319585623E+02 0.13869992398E+02 0.15671698757E+02 0.17646448641E+02
 0.19653599488E+02 0.21330895837E+02 0.21989007109E+02 0.20989254995E+02 0.17997090946E+02
 0.13174435913E+02 0.72643492627E+01 0.14954618179E+01 -.27277227913E+01 -.42793560476E+01
 0.33189157647E+01 0.79007951247E+01 0.13174448523E+02 0.17897831861E+02 0.21177117046E+02
 0.22646761840E+02 0.22452894094E+02 0.21102861628E+02 0.19249466875E+02 0.17346150950E+02
 0.15558731752E+02 0.13981368721E+02 0.12655421414E+02 0.11581036589E+02 0.10733673211E+02
 0.10081654341E+02 0.96003224524E+01 0.92785125789E+01 0.91160640385E+01 0.91160703804E+01
 0.92785150244E+01 0.96003039008E+01 0.10081635115E+02 0.10733681868E+02 0.11581057585E+02
 0.12655412998E+02 0.13981328588E+02 0.15558703731E+02 0.17346158880E+02 0.19249483672E+02
 0.21102861029E+02 0.22452890822E+02 0.22646770266E+02 0.21177109650E+02 0.17897790964E+02
 0.13174430673E+02 0.79008743822E+01 0.33190596696E+01 0.64840684233E+00 0.64833284990E+00
 0.96416629773E+01 0.13840487859E+02 0.17997148356E+02 0.21177117046E+02 0.22867053943E+02
 0.23034154662E+02 0.22031841536E+02 0.20419672375E+02 0.18676068580E+02 0.16990417390E+02
 0.15466616374E+02 0.14158314978E+02 0.13077225118E+02 0.12206639200E+02 0.11517824340E+02
 0.10985786294E+02 0.10599294281E+02 0.10361233932E+02 0.10280396136E+02 0.10361229260E+02
 0.10599288239E+02 0.10985781637E+02 0.11517822626E+02 0.12206642257E+02 0.13077232581E+02
 0.14158320281E+02 0.15466610595E+02 0.16990398884E+02 0.18676045873E+02 0.20419657406E+02
 0.22031843019E+02 0.23034173976E+02 0.22867082272E+02 0.21177135865E+02 0.17997140930E+02
 0.13840454106E+02 0.96416203915E+01 0.65094419921E+01 0.53488517238E+01 0.65094704803E+01
 0.14961073249E+02 0.18235106971E+02 0.20989320655E+02 0.22646761840E+02 0.23034154662E+02
 0.22351857223E+02 0.21038522975E+02 0.19533865718E+02 0.18033799180E+02 0.16646045759E+02
 0.15431583872E+02 0.14410445822E+02 0.13572472259E+02 0.12891834296E+02 0.12343306866E+02
 0.11915408009E+02 0.11614408203E+02 0.11457081077E+02 0.11457081919E+02 0.11614409531E+02
 0.11915406610E+02 0.12343301543E+02 0.12891831483E+02 0.13572482478E+02 0.14410469635E+02
 0.15431604580E+02 0.16646042888E+02 0.18033768678E+02 0.19533823703E+02 0.21038491207E+02
 0.22351849921E+02 0.23034171427E+02 0.22646784732E+02 0.20989316114E+02 0.18235045663E+02
 0.14960961233E+02 0.12022917969E+02 0.10282729051E+02 0.10282776352E+02 0.12023030238E+02
 0.18443469226E+02 0.20568384075E+02 0.21989045051E+02 0.22452894094E+02 0.22031841536E+02
 0.21038522975E+02 0.19830493643E+02 0.18584509093E+02 0.17406119051E+02 0.16358690709E+02
 0.15466615332E+02 0.14723637869E+02 0.14105346684E+02 0.13585115335E+02 0.13149678289E+02
 0.12807353681E+02 0.12583521232E+02 0.12505104990E+02 0.12583524673E+02 0.12807356570E+02
 0.13149677186E+02 0.13585112968E+02 0.14105351401E+02 0.14723655699E+02 0.15466641045E+02
 0.16358708184E+02 0.17406112532E+02 0.18584475432E+02 0.19830446129E+02 0.21038481726E+02
 0.22031820053E+02 0.22452887453E+02 0.21989032176E+02 0.20568343931E+02 0.18443398650E+02
 0.16162655951E+02 0.14409359716E+02 0.13751351504E+02 0.14409411924E+02 0.16162734644E+02
 0.19834500553E+02 0.20903333550E+02 0.21330895269E+02 0.21102861628E+02 0.20419672375E+02
 0.19533865718E+02 0.18584509093E+02 0.17668766993E+02 0.16847662351E+02 0.16146112125E+02
 0.15558730760E+02 0.15060176557E+02 0.14620195223E+02 0.14220904559E+02 0.13869364568E+02
 0.13597468882E+02 0.13446959374E+02 0.13446957760E+02 0.13597469740E+02 0.13869373601E+02
 0.14220915134E+02 0.14620198626E+02 0.15060179084E+02 0.15558745412E+02 0.16146137292E+02
 0.16847680318E+02 0.17668764648E+02 0.18584487524E+02 0.19533831107E+02 0.20419629705E+02
 0.21102826115E+02 0.21330888692E+02 0.20903353894E+02 0.19834510064E+02 0.18388525421E+02
 0.17012121993E+02 0.16174163469E+02 0.16174197167E+02 0.17012188286E+02 0.18388562881E+02
 0.19411129980E+02 0.19745054787E+02 0.19653579021E+02 0.19249466875E+02 0.18676068580E+02
 0.18033799180E+02 0.17406119051E+02 0.16847662351E+02 0.16380711493E+02 0.15998200102E+02
 0.15671710707E+02 0.15365027701E+02 0.15052187693E+02 0.14734032213E+02 0.14443827920E+02
 0.14235724864E+02 0.14159574662E+02 0.14235734841E+02 0.14443843331E+02 0.14734047179E+02
 0.15052198589E+02 0.15365035262E+02 0.15671720242E+02 0.15998216570E+02 0.16380735362E+02
 0.16847688619E+02 0.17406138805E+02 0.18033804480E+02 0.18676058731E+02 0.19249449604E+02
 0.19653565571E+02 0.19745055928E+02 0.19411148274E+02 0.18705146030E+02 0.17848789746E+02
 0.17152540212E+02 0.16885123579E+02 0.17152518504E+02 0.17848756464E+02 0.18705114820E+02
 0.17806284006E+02 0.17819572234E+02 0.17646437474E+02 0.17346150950E+02 0.16990417390E+02
 0.16646045759E+02 0.16358690709E+02 0.16146112125E+02 0.15998200102E+02 0.15882374629E+02
 0.15755095316E+02 0.15579550651E+02 0.15345088354E+02 0.15078673869E+02 0.14836987706E+02
 0.14690578545E+02 0.14690589852E+02 0.14837014356E+02 0.15078701761E+02 0.15345109655E+02
 0.15579565415E+02 0.15755105740E+02 0.15882385628E+02 0.15998218511E+02 0.16146141044E+02
 0.16358726265E+02 0.16646081391E+02 0.16990450079E+02 0.17346174407E+02 0.17646436679E+02
 0.17819539048E+02 0.17806249169E+02 0.17564050429E+02 0.17147481164E+02 0.16709189063E+02
 0.16429752897E+02 0.16429689361E+02 0.16709050685E+02 0.17147371818E+02 0.17564026314E+02
 0.15760345189E+02 0.15755096273E+02 0.15671711375E+02 0.15558731752E+02 0.15466616374E+02
 0.15431583872E+02 0.15466615332E+02 0.15558730760E+02 0.15671710707E+02 0.15755095316E+02
 0.15760344205E+02 0.15661477057E+02 0.15469661702E+02 0.15230999591E+02 0.15030380513E+02
 0.14951939074E+02 0.15030406944E+02 0.15231041439E+02 0.15469703010E+02 0.15661505553E+02
 0.15760356131E+02 0.15755096211E+02 0.15671713627E+02 0.15558746269E+02 0.15466643496E+02
 0.15431616637E+02 0.15466643075E+02 0.15558746367E+02 0.15671714255E+02 0.15755096441E+02
 0.15760355947E+02 0.15661505844E+02 0.15469703691E+02 0.15231041471E+02 0.15030406232E+02
 0.14951938524E+02 0.15030380215E+02 0.15230998821E+02 0.15469660725E+02 0.15661477024E+02
 0.13722462962E+02 0.13796009109E+02 0.13870020574E+02 0.13981368721E+02 0.14158314978E+02
 0.14410445822E+02 0.14723637869E+02 0.15060176557E+02 0.15365027701E+02 0.15579550651E+02
 0.15661477057E+02 0.15601179733E+02 0.15422715737E+02 0.15207769206E+02 0.15063417822E+02
 0.15063437924E+02 0.15207818319E+02 0.15422770562E+02 0.15601222389E+02 0.15661500235E+02
 0.15579553562E+02 0.15365017404E+02 0.15060171257E+02 0.14723649760E+02 0.14410464170E+02
 0.14158315455E+02 0.13981344047E+02 0.13869998052E+02 0.13796024420E+02 0.13722518625E+02
 0.13618165303E+02 0.13471772293E+02 0.13300283141E+02 0.13144256473E+02 0.13050668597E+02
 0.13050707868E+02 0.13144342686E+02 0.13300348836E+02 0.13471771977E+02 0.13618111279E+02
 0.11857820043E+02 0.12061343147E+02 0.12319610631E+02 0.12655421414E+02 0.13077225118E+02
 0.13572472259E+02 0.14105346684E+02 0.14620195223E+02 0.15052187693E+02 0.15345088354E+02
 0.15469661702E+02 0.15422715737E+02 0.15261217972E+02 0.15094226508E+02 0.15024660501E+02
 0.15094268616E+02 0.15261280847E+02 0.15422772229E+02 0.15469695203E+02 0.15345098984E+02
 0.15052185842E+02 0.14620192927E+02 0.14105349837E+02 0.13572474471E+02 0.13077216626E+02
 0.12655400541E+02 0.12319585549E+02 0.12061323589E+02 0.11857807557E+02 0.11681886333E+02
 0.11513453526E+02 0.11348409841E+02 0.11200791205E+02 0.11096012034E+02 0.11057877632E+02
 0.11096037153E+02 0.11200828005E+02 0.11348442574E+02 0.11513474691E+02 0.11681898763E+02
 0.10257332438E+02 0.10607134677E+02 0.11045165104E+02 0.11581036589E+02 0.12206639200E+02
 0.12891834296E+02 0.13585115335E+02 0.14220904559E+02 0.14734032213E+02 0.15078673869E+02
 0.15230999591E+02 0.15207769206E+02 0.15094226508E+02 0.15000022272E+02 0.15000043718E+02
 0.15094280557E+02 0.15207830808E+02 0.15231044070E+02 0.15078693962E+02 0.14734040682E+02
 0.14220914951E+02 0.13585128017E+02 0.12891840670E+02 0.12206638181E+02 0.11581035668E+02
 0.11045160112E+02 0.10607105306E+02 0.10257269944E+02 0.99759684897E+01 0.97425569985E+01
 0.95437237093E+01 0.93780987329E+01 0.92551445200E+01 0.91887381889E+01 0.91887365739E+01
 0.92551338381E+01 0.93780791595E+01 0.95437193472E+01 0.97425938043E+01 0.99760375955E+01
 0.89502896250E+01 0.94385402263E+01 0.10033536116E+02 0.10733673211E+02 0.11517824340E+02
 0.12343306866E+02 0.13149678289E+02 0.13869364568E+02 0.14443827920E+02 0.14836987706E+02
 0.15030380513E+02 0.15063417822E+02 0.15024660501E+02 0.15000043718E+02 0.15024694915E+02
 0.15063468352E+02 0.15030425861E+02 0.14837016725E+02 0.14443843371E+02 0.13869376192E+02
 0.13149694596E+02 0.12343328654E+02 0.11517840393E+02 0.10733672846E+02 0.10033521422E+02
 0.94385264112E+01 0.89502896464E+01 0.85567910195E+01 0.82401594125E+01 0.79842493139E+01
 0.77799741704E+01 0.76268381348E+01 0.75304215479E+01 0.74973421143E+01 0.75304494036E+01
 0.76268747361E+01 0.77799978693E+01 0.79842514577E+01 0.82401467342E+01 0.85567782037E+01
 0.79228367434E+01 0.85298800893E+01 0.92529307887E+01 0.10081654341E+02 0.10985786294E+02
 0.11915408009E+02 0.12807353681E+02 0.13597468882E+02 0.14235724864E+02 0.14690578545E+02
 0.14951939074E+02 0.15063437924E+02 0.15094268616E+02 0.15094280557E+02 0.15063468352E+02
 0.14951975543E+02 0.14690608412E+02 0.14235742152E+02 0.13597478368E+02 0.12807367559E+02
 0.11915433752E+02 0.10985810318E+02 0.10081653703E+02 0.92529077830E+01 0.85298731445E+01
 0.79228833543E+01 0.74265804832E+01 0.70266328711E+01 0.67067855949E+01 0.64544127273E+01
 0.62632644677E+01 0.61330463004E+01 0.60666404928E+01 0.60666503232E+01 0.61330799426E+01
 0.62633183134E+01 0.64544547456E+01 0.67067731936E+01 0.70265592152E+01 0.74264919491E+01
 0.71402376839E+01 0.78448252339E+01 0.86702858064E+01 0.96003224524E+01 0.10599294281E+02
 0.11614408203E+02 0.12583521232E+02 0.13446959374E+02 0.14159574662E+02 0.14690589852E+02
 0.15030406944E+02 0.15207818319E+02 0.15261280847E+02 0.15207830808E+02 0.15030425861E+02
 0.14690608412E+02 0.14159590420E+02 0.13446973743E+02 0.12583535445E+02 0.11614423808E+02
 0.10599310631E+02 0.96003361711E+01 0.86702938648E+01 0.78448291482E+01 0.71402436333E+01
 0.65562509206E+01 0.60817130903E+01 0.57011712241E+01 0.54003786552E+01 0.51696487816E+01
 0.50046014726E+01 0.49047808948E+01 0.48712950218E+01 0.49047748307E+01 0.50045870894E+01
 0.51696254026E+01 0.54003495106E+01 0.57011422201E+01 0.60816901496E+01 0.65562371890E+01
 0.65652970623E+01 0.73514281499E+01 0.82624614174E+01 0.92785125789E+01 0.10361233932E+02
 0.11457081077E+02 0.12505104990E+02 0.13446957760E+02 0.14235734841E+02 0.14837014356E+02
 0.15231041439E+02 0.15422770562E+02 0.15422772229E+02 0.15231044070E+02 0.14837016725E+02
 0.14235742152E+02 0.13446973743E+02 0.12505121220E+02 0.11457086833E+02 0.10361233578E+02
 0.92785233743E+01 0.82624871830E+01 0.73514422341E+01 0.65652677954E+01 0.59070115989E+01
 0.53678280289E+01 0.49330679677E+01 0.45876606260E+01 0.43196687611E+01 0.41216624832E+01
 0.39902393589E+01 0.39245107790E+01 0.39245066203E+01 0.39902171394E+01 0.41216085015E+01
 0.43195939521E+01 0.45876060133E+01 0.49330723025E+01 0.53678876562E+01 0.59070795040E+01
 0.61695272955E+01 0.70293514286E+01 0.80189568514E+01 0.91160640385E+01 0.10280396136E+02
 0.11457081919E+02 0.12583524673E+02 0.13597469740E+02 0.14443843331E+02 0.15078701761E+02
 0.15469703010E+02 0.15601222389E+02 0.15469695203E+02 0.15078693962E+02 0.14443843371E+02
 0.13597478368E+02 0.12583535445E+02 0.11457086833E+02 0.10280389987E+02 0.91160481000E+01
 0.80189381656E+01 0.70293367725E+01 0.61695163255E+01 0.54446928375E+01 0.48474250671E+01
 0.43634641373E+01 0.39770796105E+01 0.36746764631E+01 0.34464244186E+01 0.32862752980E+01
 0.31910690761E+01 0.31594450416E+01 0.31910487347E+01 0.32862482410E+01 0.34464079110E+01
 0.36746801701E+01 0.39771009925E+01 0.43634919703E+01 0.48474480421E+01 0.54447071926E+01
 0.59365057411E+01 0.68695173261E+01 0.79377028416E+01 0.91160703804E+01 0.10361229260E+02
 0.11614409531E+02 0.12807356570E+02 0.13869373601E+02 0.14734047179E+02 0.15345109655E+02
 0.15661505553E+02 0.15661500235E+02 0.15345098984E+02 0.14734040682E+02 0.13869376192E+02
 0.12807367559E+02 0.11614423808E+02 0.10361233578E+02 0.91160481000E+01 0.79376546932E+01
 0.68694748798E+01 0.59365085323E+01 0.51460792117E+01 0.44919170898E+01 0.39599157230E+01
 0.35335902787E+01 0.31978774215E+01 0.29409275359E+01 0.27543441963E+01 0.26326363326E+01
 0.25725359783E+01 0.25725228638E+01 0.26326115002E+01 0.27543415207E+01 0.29409727387E+01
 0.31979579761E+01 0.35336557060E+01 0.39599205214E+01 0.44918673094E+01 0.51460290014E+01
 0.58593659002E+01 0.68694784207E+01 0.80189413404E+01 0.92785150244E+01 0.10599288239E+02
 0.11915406610E+02 0.13149677186E+02 0.14220915134E+02 0.15052198589E+02 0.15579565415E+02
 0.15760356131E+02 0.15579553562E+02 0.15052185842E+02 0.14220914951E+02 0.13149694596E+02
 0.11915433752E+02 0.10599310631E+02 0.92785233743E+01 0.80189381656E+01 0.68694748798E+01
 0.58593713073E+01 0.49990116893E+01 0.42839210931E+01 0.37004946117E+01 0.32316396265E+01
 0.28609055088E+01 0.25745765340E+01 0.23621087072E+01 0.22157527819E+01 0.21301066407E+01
 0.21019205241E+01 0.21301042076E+01 0.22157554283E+01 0.23621245038E+01 0.25746056848E+01
 0.28609377580E+01 0.32316607498E+01 0.37004969402E+01 0.42839092235E+01 0.49989978834E+01
 0.59364939433E+01 0.70292958636E+01 0.82624453738E+01 0.96003039008E+01 0.10985781637E+02
 0.12343301543E+02 0.13585112968E+02 0.14620198626E+02 0.15365035262E+02 0.15755105740E+02
 0.15755096211E+02 0.15365017404E+02 0.14620192927E+02 0.13585128017E+02 0.12343328654E+02
 0.10985810318E+02 0.96003361711E+01 0.82624871830E+01 0.70293367725E+01 0.59365085323E+01
 0.49990116893E+01 0.42153144041E+01 0.35731906058E+01 0.30555591076E+01 0.26449301940E+01
 0.23258830189E+01 0.20858272843E+01 0.19148236235E+01 0.18052684238E+01 0.17518690928E+01
 0.17518734730E+01 0.18052825997E+01 0.19148427742E+01 0.20858332593E+01 0.23258598172E+01
 0.26448884226E+01 0.30555335864E+01 0.35732050279E+01 0.42153531594E+01 0.49990352428E+01
 0.61695178858E+01 0.73514399955E+01 0.86702824910E+01 0.10081635115E+02 0.11517822626E+02
 0.12891831483E+02 0.14105351401E+02 0.15060179084E+02 0.15671720242E+02 0.15882385628E+02
 0.15671713627E+02 0.15060171257E+02 0.14105349837E+02 0.12891840670E+02 0.11517840393E+02
 0.10081653703E+02 0.86702938648E+01 0.73514422341E+01 0.61695163255E+01 0.51460792117E+01
 0.42839210931E+01 0.35731906058E+01 0.29976054770E+01 0.25392504337E+01 0.21813921141E+01
 0.19095770972E+01 0.17117353189E+01 0.15780455079E+01 0.15010263105E+01 0.14759060231E+01
 0.15010338730E+01 0.15780561785E+01 0.17117414571E+01 0.19095711813E+01 0.21813711385E+01
 0.25392182080E+01 0.29975708618E+01 0.35731629200E+01 0.42839059983E+01 0.51460757993E+01
 0.65653029613E+01 0.78448783824E+01 0.92529384904E+01 0.10733681868E+02 0.12206642257E+02
 0.13572482478E+02 0.14723655699E+02 0.15558745412E+02 0.15998216570E+02 0.15998218511E+02
 0.15558746269E+02 0.14723649760E+02 0.13572474471E+02 0.12206638181E+02 0.10733672846E+02
 0.92529077830E+01 0.78448291482E+01 0.65652677954E+01 0.54446928375E+01 0.44919170898E+01
 0.37004946117E+01 0.30555591076E+01 0.25392504337E+01 0.21339624971E+01 0.18237160384E+01
 0.15944865615E+01 0.14342724900E+01 0.13333408362E+01 0.12847143470E+01 0.12847193448E+01
 0.13333483514E+01 0.14342695986E+01 0.15944725207E+01 0.18237049541E+01 0.21339643742E+01
 0.25392525606E+01 0.30555363649E+01 0.37004425111E+01 0.44918663952E+01 0.54446822453E+01
 0.71402568713E+01 0.85298876614E+01 0.10033541522E+02 0.11581057585E+02 0.13077232581E+02
 0.14410469635E+02 0.15466641045E+02 0.16146137292E+02 0.16380735362E+02 0.16146141044E+02
 0.15466643496E+02 0.14410464170E+02 0.13077216626E+02 0.11581035668E+02 0.10033521422E+02
 0.85298731445E+01 0.71402436333E+01 0.59070115989E+01 0.48474250671E+01 0.39599157230E+01
 0.32316396265E+01 0.26449301940E+01 0.21813921141E+01 0.18237160384E+01 0.15561601667E+01
 0.13647006224E+01 0.12373866516E+01 0.11649517593E+01 0.11414878333E+01 0.11649584805E+01
 0.12373918427E+01 0.13646946812E+01 0.15561408090E+01 0.18236917180E+01 0.21813769100E+01
 0.26449341321E+01 0.32316622674E+01 0.39599472414E+01 0.48474537716E+01 0.59070312292E+01
 0.79228534592E+01 0.94384959269E+01 0.11045155886E+02 0.12655412998E+02 0.14158320281E+02
 0.15431604580E+02 0.16358708184E+02 0.16847680318E+02 0.16847688619E+02 0.16358726265E+02
 0.15431616637E+02 0.14158315455E+02 0.12655400541E+02 0.11045160112E+02 0.94385264112E+01
 0.79228833543E+01 0.65562509206E+01 0.53678280289E+01 0.43634641373E+01 0.35335902787E+01
 0.28609055088E+01 0.23258830189E+01 0.19095770972E+01 0.15944865615E+01 0.13647006224E+01
 0.12061879588E+01 0.11074321076E+01 0.10602035074E+01 0.10602060591E+01 0.11074372885E+01
 0.12061915067E+01 0.13646993015E+01 0.15944765647E+01 0.19095568704E+01 0.23258650929E+01
 0.28609180542E+01 0.35336522090E+01 0.43635557986E+01 0.53678985379E+01 0.65562647058E+01
 0.89502878102E+01 0.10607109923E+02 0.12319585623E+02 0.13981328588E+02 0.15466610595E+02
 0.16646042888E+02 0.17406112532E+02 0.17668764648E+02 0.17406138805E+02 0.16646081391E+02
 0.15466643075E+02 0.13981344047E+02 0.12319585549E+02 0.10607105306E+02 0.89502896464E+01
 0.74265804832E+01 0.60817130903E+01 0.49330679677E+01 0.39770796105E+01 0.31978774215E+01
 0.25745765340E+01 0.20858272843E+01 0.17117353189E+01 0.14342724900E+01 0.12373866516E+01
 0.11074321076E+01 0.10338990488E+01 0.10101462405E+01 0.10339009648E+01 0.11074335752E+01
 0.12373870410E+01 0.14342755031E+01 0.17117465095E+01 0.20858490960E+01 0.25746051708E+01
 0.31979036223E+01 0.39770935351E+01 0.49330657520E+01 0.60817008645E+01 0.74265696393E+01
 0.10257310921E+02 0.12061359173E+02 0.13869992398E+02 0.15558703731E+02 0.16990398884E+02
 0.18033768678E+02 0.18584475432E+02 0.18584487524E+02 0.18033804480E+02 0.16990450079E+02
 0.15558746367E+02 0.13869998052E+02 0.12061323589E+02 0.10257269944E+02 0.85567910195E+01
 0.70266328711E+01 0.57011712241E+01 0.45876606260E+01 0.36746764631E+01 0.29409275359E+01
 0.23621087072E+01 0.19148236235E+01 0.15780455079E+01 0.13333408362E+01 0.11649517593E+01
 0.10602035074E+01 0.10101462405E+01 0.10101432798E+01 0.10601982569E+01 0.11649496273E+01
 0.13333430505E+01 0.15780538612E+01 0.19148464658E+01 0.23621499324E+01 0.29409676289E+01
 0.36746768906E+01 0.45876004192E+01 0.57010779162E+01 0.70265651492E+01 0.85567862751E+01
 0.11857797568E+02 0.13796011141E+02 0.15671698757E+02 0.17346158880E+02 0.18676045873E+02
 0.19533823703E+02 0.19830446129E+02 0.19533831107E+02 0.18676058731E+02 0.17346174407E+02
 0.15671714255E+02 0.13796024420E+02 0.11857807557E+02 0.99759684897E+01 0.82401594125E+01
 0.67067855949E+01 0.54003786552E+01 0.43196687611E+01 0.34464244186E+01 0.27543441963E+01
 0.22157527819E+01 0.18052684238E+01 0.15010263105E+01 0.12847143470E+01 0.11414878333E+01
 0.10602060591E+01 0.10339009648E+01 0.10601982569E+01 0.11414785622E+01 0.12847110728E+01
 0.15010316165E+01 0.18052778856E+01 0.22157577530E+01 0.27543372662E+01 0.34464040327E+01
 0.43196402046E+01 0.54003508014E+01 0.67067649493E+01 0.82401469791E+01 0.99759598274E+01
 0.13722464653E+02 0.15755065778E+02 0.17646448641E+02 0.19249483672E+02 0.20419657406E+02
 0.21038491207E+02 0.21038481726E+02 0.20419629705E+02 0.19249449604E+02 0.17646436679E+02
 0.15755096441E+02 0.13722518625E+02 0.11681886333E+02 0.97425569985E+01 0.79842493139E+01
 0.64544127273E+01 0.51696487816E+01 0.41216624832E+01 0.32862752980E+01 0.26326363326E+01
 0.21301066407E+01 0.17518690928E+01 0.14759060231E+01 0.12847193448E+01 0.11649584805E+01
 0.11074372885E+01 0.11074335752E+01 0.11649496273E+01 0.12847110728E+01 0.14759038463E+01
 0.17518730199E+01 0.21301058554E+01 0.26326135145E+01 0.32862255201E+01 0.41216110339E+01
 0.51696384382E+01 0.64544610191E+01 0.79843213900E+01 0.97425928529E+01 0.11681860819E+02
 0.15760376381E+02 0.17819565193E+02 0.19653599488E+02 0.21102861029E+02 0.22031843019E+02
 0.22351849921E+02 0.22031820053E+02 0.21102826115E+02 0.19653565571E+02 0.17819539048E+02
 0.15760355947E+02 0.13618165303E+02 0.11513453526E+02 0.95437237093E+01 0.77799741704E+01
 0.62632644677E+01 0.50046014726E+01 0.39902393589E+01 0.31910690761E+01 0.25725359783E+01
 0.21019205241E+01 0.17518734730E+01 0.15010338730E+01 0.13333483514E+01 0.12373918427E+01
 0.12061915067E+01 0.12373870410E+01 0.13333430505E+01 0.15010316165E+01 0.17518730199E+01
 0.21019169449E+01 0.25725252142E+01 0.31910520391E+01 0.39902231267E+01 0.50045960262E+01
 0.62632759360E+01 0.77800001072E+01 0.95437545949E+01 0.11513481213E+02 0.13618187312E+02
 0.17806315777E+02 0.19745087726E+02 0.21330895837E+02 0.22452890822E+02 0.23034173976E+02
 0.23034171427E+02 0.22452887453E+02 0.21330888692E+02 0.19745055928E+02 0.17806249169E+02
 0.15661505844E+02 0.13471772293E+02 0.11348409841E+02 0.93780987329E+01 0.76268381348E+01
 0.61330463004E+01 0.49047808948E+01 0.39245107790E+01 0.31594450416E+01 0.25725228638E+01
 0.21301042076E+01 0.18052825997E+01 0.15780561785E+01 0.14342695986E+01 0.13646946812E+01
 0.13646993015E+01 0.14342755031E+01 0.15780538612E+01 0.18052778856E+01 0.21301058554E+01
 0.25725252142E+01 0.31594410799E+01 0.39245145291E+01 0.49048112299E+01 0.61330889752E+01
 0.76268514379E+01 0.93780690934E+01 0.11348380095E+02 0.13471792311E+02 0.15661573441E+02
 0.19411115921E+02 0.20903322668E+02 0.21989007109E+02 0.22646770266E+02 0.22867082272E+02
 0.22646784732E+02 0.21989032176E+02 0.20903353894E+02 0.19411148274E+02 0.17564050429E+02
 0.15469703691E+02 0.13300283141E+02 0.11200791205E+02 0.92551445200E+01 0.75304215479E+01
 0.60666404928E+01 0.48712950218E+01 0.39245066203E+01 0.31910487347E+01 0.26326115002E+01
 0.22157554283E+01 0.19148427742E+01 0.17117414571E+01 0.15944725207E+01 0.15561408090E+01
 0.15944765647E+01 0.17117465095E+01 0.19148464658E+01 0.22157577530E+01 0.26326135145E+01
 0.31910520391E+01 0.39245145291E+01 0.48713108368E+01 0.60666641694E+01 0.75304486683E+01
 0.92551692144E+01 0.11200807703E+02 0.13300285957E+02 0.15469690878E+02 0.17564023858E+02
 0.19834413221E+02 0.20568269054E+02 0.20989254995E+02 0.21177109650E+02 0.21177135865E+02
 0.20989316114E+02 0.20568343931E+02 0.19834510064E+02 0.18705146030E+02 0.17147481164E+02
 0.15231041471E+02 0.13144256473E+02 0.11096012034E+02 0.91887381889E+01 0.74973421143E+01
 0.60666503232E+01 0.49047748307E+01 0.39902171394E+01 0.32862482410E+01 0.27543415207E+01
 0.23621245038E+01 0.20858332593E+01 0.19095711813E+01 0.18237049541E+01 0.18236917180E+01
 0.19095568704E+01 0.20858490960E+01 0.23621499324E+01 0.27543372662E+01 0.32862255201E+01
 0.39902231267E+01 0.49048112299E+01 0.60666641694E+01 0.74973123944E+01 0.91887208090E+01
 0.11096058425E+02 0.13144327147E+02 0.15231047793E+02 0.17147397275E+02 0.18705028954E+02
 0.18443324084E+02 0.18234968319E+02 0.17997090946E+02 0.17897790964E+02 0.17997140930E+02
 0.18235045663E+02 0.18443398650E+02 0.18388525421E+02 0.17848789746E+02 0.16709189063E+02
 0.15030406232E+02 0.13050668597E+02 0.11057877632E+02 0.91887365739E+01 0.75304494036E+01
 0.61330799426E+01 0.50045870894E+01 0.41216085015E+01 0.34464079110E+01 0.29409727387E+01
 0.25746056848E+01 0.23258598172E+01 0.21813711385E+01 0.21339643742E+01 0.21813769100E+01
 0.23258650929E+01 0.25746051708E+01 0.29409676289E+01 0.34464040327E+01 0.41216110339E+01
 0.50045960262E+01 0.61330889752E+01 0.75304486683E+01 0.91887208090E+01 0.11057851471E+02
 0.13050643403E+02 0.15030388176E+02 0.16709172750E+02 0.17848761310E+02 0.18388472897E+02
 0.14960921223E+02 0.13840445285E+02 0.13174435913E+02 0.13174430673E+02 0.13840454106E+02
 0.14960961233E+02 0.16162655951E+02 0.17012121993E+02 0.17152540212E+02 0.16429752897E+02
 0.14951938524E+02 0.13050707868E+02 0.11096037153E+02 0.92551338381E+01 0.76268747361E+01
 0.62633183134E+01 0.51696254026E+01 0.43195939521E+01 0.36746801701E+01 0.31979579761E+01
 0.28609377580E+01 0.26448884226E+01 0.25392182080E+01 0.25392525606E+01 0.26449341321E+01
 0.28609180542E+01 0.31979036223E+01 0.36746768906E+01 0.43196402046E+01 0.51696384382E+01
 0.62632759360E+01 0.76268514379E+01 0.92551692144E+01 0.11096058425E+02 0.13050643403E+02
 0.14951840395E+02 0.16429728259E+02 0.17152596015E+02 0.17012165042E+02 0.16162634500E+02
 0.96415601110E+01 0.79008305744E+01 0.72643492627E+01 0.79008743822E+01 0.96416203915E+01
 0.12022917969E+02 0.14409359716E+02 0.16174163469E+02 0.16885123579E+02 0.16429689361E+02
 0.15030380215E+02 0.13144342686E+02 0.11200828005E+02 0.93780791595E+01 0.77799978693E+01
 0.64544547456E+01 0.54003495106E+01 0.45876060133E+01 0.39771009925E+01 0.35336557060E+01
 0.32316607498E+01 0.30555335864E+01 0.29975708618E+01 0.30555363649E+01 0.32316622674E+01
 0.35336522090E+01 0.39770935351E+01 0.45876004192E+01 0.54003508014E+01 0.64544610191E+01
 0.77800001072E+01 0.93780690934E+01 0.11200807703E+02 0.13144327147E+02 0.15030388176E+02
 0.16429728259E+02 0.16885179545E+02 0.16174206899E+02 0.14409363923E+02 0.12022878252E+02
 0.33188896776E+01 0.14953740758E+01 0.14954618179E+01 0.33190596696E+01 0.65094419921E+01
 0.10282729051E+02 0.13751351504E+02 0.16174197167E+02 0.17152518504E+02 0.16709050685E+02
 0.15230998821E+02 0.13300348836E+02 0.11348442574E+02 0.95437193472E+01 0.79842514577E+01
 0.67067731936E+01 0.57011422201E+01 0.49330723025E+01 0.43634919703E+01 0.39599205214E+01
 0.37004969402E+01 0.35732050279E+01 0.35731629200E+01 0.37004425111E+01 0.39599472414E+01
 0.43635557986E+01 0.49330657520E+01 0.57010779162E+01 0.67067649493E+01 0.79843213900E+01
 0.95437545949E+01 0.11348380095E+02 0.13300285957E+02 0.15231047793E+02 0.16709172750E+02
 0.17152596015E+02 0.16174206899E+02 0.13751352472E+02 0.10282715113E+02 0.65093397855E+01
 -.27277477794E+01 -.39552834763E+01 -.27277227913E+01 0.64840684233E+00 0.53488517238E+01
 0.10282776352E+02 0.14409411924E+02 0.17012188286E+02 0.17848756464E+02 0.17147371818E+02
 0.15469660725E+02 0.13471771977E+02 0.11513474691E+02 0.97425938043E+01 0.82401467342E+01
 0.70265592152E+01 0.60816901496E+01 0.53678876562E+01 0.48474480421E+01 0.44918673094E+01
 0.42839092235E+01 0.42153531594E+01 0.42839059983E+01 0.44918663952E+01 0.48474537716E+01
 0.53678985379E+01 0.60817008645E+01 0.70265651492E+01 0.82401469791E+01 0.97425928529E+01
 0.11513481213E+02 0.13471792311E+02 0.15469690878E+02 0.17147397275E+02 0.17848761310E+02
 0.17012165042E+02 0.14409363923E+02 0.10282715113E+02 0.53487913112E+01 0.64836006326E+00
 -.70959230485E+01 -.70960198435E+01 -.42793560476E+01 0.64833284990E+00 0.65094704803E+01
 0.12023030238E+02 0.16162734644E+02 0.18388562881E+02 0.18705114820E+02 0.17564026314E+02
 0.15661477024E+02 0.13618111279E+02 0.11681898763E+02 0.99760375955E+01 0.85567782037E+01
 0.74264919491E+01 0.65562371890E+01 0.59070795040E+01 0.54447071926E+01 0.51460290014E+01
 0.49989978834E+01 0.49990352428E+01 0.51460757993E+01 0.54446822453E+01 0.59070312292E+01
 0.65562647058E+01 0.74265696393E+01 0.85567862751E+01 0.99759598274E+01 0.11681860819E+02
 0.13618187312E+02 0.15661573441E+02 0.17564023858E+02 0.18705028954E+02 0.18388472897E+02
 0.16162634500E+02 0.12022878252E+02 0.65093397855E+01 0.64836006326E+00 -.42791917570E+01
 -.70959611175E+01 -.39551904514E+01 0.14953859066E+01 0.79007945271E+01 0.13840487235E+02
 0.18235106149E+02 0.20568383706E+02 0.20903334053E+02 0.19745055561E+02 0.17819572712E+02
 0.15755096747E+02 0.13796009781E+02 0.12061343421E+02 0.10607134205E+02 0.94385396550E+01
 0.85298799680E+01 0.78448251744E+01 0.73514278156E+01 0.70293513132E+01 0.68695177601E+01
 0.68694788301E+01 0.70292958144E+01 0.73514399739E+01 0.78448787666E+01 0.85298879399E+01
 0.94384957156E+01 0.10607109734E+02 0.12061359384E+02 0.13796011227E+02 0.15755065335E+02