   2   2   0   0
  0.2575190E+02  0.4176234E-09  0.4176234E-09  0.4176234E-09  0.5000000E-15
  1.000000000000000E-004
  CAR 
 unknown system                          
     13.33903499     -8.81662333  301      3.89965471      1.00000000
     -8.817  0.0000E+00  0.0000E+00
     -8.743  0.0000E+00  0.0000E+00
     -8.669  0.0000E+00  0.0000E+00
     -8.595  0.0000E+00  0.0000E+00
     -8.521  0.0000E+00  0.0000E+00
     -8.447  0.0000E+00  0.0000E+00
     -8.374  0.0000E+00  0.0000E+00
     -8.300  0.0000E+00  0.0000E+00
     -8.226  0.0000E+00  0.0000E+00
     -8.152  0.0000E+00  0.0000E+00
     -8.078  0.0000E+00  0.0000E+00
     -8.004  0.0000E+00  0.0000E+00
     -7.930  0.1214E-16  0.8963E-18
     -7.857  0.6741E-15  0.5068E-16
     -7.783  0.2933E-13  0.2217E-14
     -7.709  0.9763E-12  0.7432E-13
     -7.635  0.2489E-10  0.1913E-11
     -7.561  0.4869E-09  0.3787E-10
     -7.487  0.7319E-08  0.5784E-09
     -7.413  0.8480E-07  0.6841E-08
     -7.340  0.7599E-06  0.6296E-07
     -7.266  0.5292E-05  0.4538E-06
     -7.192  0.2883E-04  0.2583E-05
     -7.118  0.1239E-03  0.1173E-04
     -7.044  0.4242E-03  0.4306E-04
     -6.970  0.1171E-02  0.1296E-03
     -6.896  0.2645E-02  0.3249E-03
     -6.823  0.4974E-02  0.6922E-03
     -6.749  0.7966E-02  0.1281E-02
     -6.675  0.1121E-01  0.2108E-02
     -6.601  0.1435E-01  0.3168E-02
     -6.527  0.1726E-01  0.4442E-02
     -6.453  0.1981E-01  0.5905E-02
     -6.380  0.2187E-01  0.7520E-02
     -6.306  0.2364E-01  0.9266E-02
     -6.232  0.2569E-01  0.1116E-01
     -6.158  0.2815E-01  0.1324E-01
     -6.084  0.3037E-01  0.1549E-01
     -6.010  0.3175E-01  0.1783E-01
     -5.936  0.3270E-01  0.2025E-01
     -5.863  0.3416E-01  0.2277E-01
     -5.789  0.3653E-01  0.2547E-01
     -5.715  0.3949E-01  0.2838E-01
     -5.641  0.4247E-01  0.3152E-01
     -5.567  0.4478E-01  0.3483E-01
     -5.493  0.4596E-01  0.3822E-01
     -5.419  0.4661E-01  0.4166E-01
     -5.346  0.4860E-01  0.4525E-01
     -5.272  0.5352E-01  0.4920E-01
     -5.198  0.6061E-01  0.5368E-01
     -5.124  0.6704E-01  0.5863E-01
     -5.050  0.7071E-01  0.6385E-01
     -4.976  0.7154E-01  0.6914E-01
     -4.902  0.6996E-01  0.7430E-01
     -4.829  0.6610E-01  0.7918E-01
     -4.755  0.6138E-01  0.8372E-01
     -4.681  0.5906E-01  0.8808E-01
     -4.607  0.6109E-01  0.9259E-01
     -4.533  0.6500E-01  0.9739E-01
     -4.459  0.6552E-01  0.1022E+00
     -4.385  0.5976E-01  0.1066E+00
     -4.312  0.4974E-01  0.1103E+00
     -4.238  0.4003E-01  0.1133E+00
     -4.164  0.3415E-01  0.1158E+00
     -4.090  0.3328E-01  0.1183E+00
     -4.016  0.3648E-01  0.1209E+00
     -3.942  0.4063E-01  0.1239E+00
     -3.869  0.4137E-01  0.1270E+00
     -3.795  0.3589E-01  0.1297E+00
     -3.721  0.2553E-01  0.1315E+00
     -3.647  0.1460E-01  0.1326E+00
     -3.573  0.6809E-02  0.1331E+00
     -3.499  0.3372E-02  0.1334E+00
     -3.425  0.4217E-02  0.1337E+00
     -3.352  0.9610E-02  0.1344E+00
     -3.278  0.1948E-01  0.1358E+00
     -3.204  0.3120E-01  0.1381E+00
     -3.130  0.3958E-01  0.1411E+00
     -3.056  0.4094E-01  0.1441E+00
     -2.982  0.3662E-01  0.1468E+00
     -2.908  0.3163E-01  0.1491E+00
     -2.835  0.3042E-01  0.1514E+00
     -2.761  0.3496E-01  0.1539E+00
     -2.687  0.4533E-01  0.1573E+00
     -2.613  0.5999E-01  0.1617E+00
     -2.539  0.7519E-01  0.1673E+00
     -2.465  0.8567E-01  0.1736E+00
     -2.391  0.8764E-01  0.1801E+00
     -2.318  0.8150E-01  0.1861E+00
     -2.244  0.7099E-01  0.1913E+00
     -2.170  0.6015E-01  0.1958E+00
     -2.096  0.5163E-01  0.1996E+00
     -2.022  0.4664E-01  0.2030E+00
     -1.948  0.4465E-01  0.2063E+00
     -1.875  0.4353E-01  0.2096E+00
     -1.801  0.4161E-01  0.2126E+00
     -1.727  0.3945E-01  0.2155E+00
     -1.653  0.3852E-01  0.2184E+00
     -1.579  0.3842E-01  0.2212E+00
     -1.505  0.3690E-01  0.2239E+00
     -1.431  0.3264E-01  0.2264E+00
     -1.358  0.2709E-01  0.2284E+00
     -1.284  0.2306E-01  0.2301E+00
     -1.210  0.2188E-01  0.2317E+00
     -1.136  0.2256E-01  0.2333E+00
     -1.062  0.2348E-01  0.2351E+00
     -0.988  0.2382E-01  0.2368E+00
     -0.914  0.2320E-01  0.2385E+00
     -0.841  0.2147E-01  0.2401E+00
     -0.767  0.1935E-01  0.2416E+00
     -0.693  0.1827E-01  0.2429E+00
     -0.619  0.1874E-01  0.2443E+00
     -0.545  0.1944E-01  0.2457E+00
     -0.471  0.1864E-01  0.2471E+00
     -0.397  0.1593E-01  0.2483E+00
     -0.324  0.1248E-01  0.2492E+00
     -0.250  0.1003E-01  0.2499E+00
     -0.176  0.9737E-02  0.2507E+00
     -0.102  0.1138E-01  0.2515E+00
     -0.028  0.1383E-01  0.2525E+00
      0.046  0.1678E-01  0.2538E+00
      0.119  0.2175E-01  0.2554E+00
      0.193  0.3069E-01  0.2576E+00
      0.267  0.4368E-01  0.2609E+00
      0.341  0.5860E-01  0.2652E+00
      0.415  0.7293E-01  0.2706E+00
      0.489  0.8502E-01  0.2769E+00
      0.563  0.9338E-01  0.2838E+00
      0.636  0.9678E-01  0.2909E+00
      0.710  0.9559E-01  0.2980E+00
      0.784  0.9221E-01  0.3048E+00
      0.858  0.8935E-01  0.3114E+00
      0.932  0.8848E-01  0.3179E+00
      1.006  0.9029E-01  0.3246E+00
      1.080  0.9525E-01  0.3316E+00
      1.153  0.1026E+00  0.3392E+00
      1.227  0.1097E+00  0.3473E+00
      1.301  0.1143E+00  0.3557E+00
      1.375  0.1173E+00  0.3644E+00
      1.449  0.1206E+00  0.3733E+00
      1.523  0.1239E+00  0.3824E+00
      1.597  0.1242E+00  0.3916E+00
      1.670  0.1206E+00  0.4005E+00
      1.744  0.1166E+00  0.4091E+00
      1.818  0.1160E+00  0.4177E+00
      1.892  0.1176E+00  0.4264E+00
      1.966  0.1168E+00  0.4350E+00
      2.040  0.1114E+00  0.4432E+00
      2.114  0.1052E+00  0.4510E+00
      2.187  0.1034E+00  0.4587E+00
      2.261  0.1064E+00  0.4665E+00
      2.335  0.1090E+00  0.4746E+00
      2.409  0.1058E+00  0.4824E+00
      2.483  0.9610E-01  0.4895E+00
      2.557  0.8414E-01  0.4957E+00
      2.630  0.7504E-01  0.5012E+00
      2.704  0.6986E-01  0.5064E+00
      2.778  0.6495E-01  0.5112E+00
      2.852  0.5696E-01  0.5154E+00
      2.926  0.4696E-01  0.5189E+00
      3.000  0.3865E-01  0.5217E+00
      3.074  0.3362E-01  0.5242E+00
      3.147  0.3016E-01  0.5264E+00
      3.221  0.2606E-01  0.5283E+00
      3.295  0.2099E-01  0.5299E+00
      3.369  0.1598E-01  0.5311E+00
      3.443  0.1180E-01  0.5319E+00
      3.517  0.8342E-02  0.5326E+00
      3.591  0.5370E-02  0.5330E+00
      3.664  0.2975E-02  0.5332E+00
      3.738  0.1362E-02  0.5333E+00
      3.812  0.5043E-03  0.5333E+00
      3.886  0.1639E-03  0.5333E+00
      3.960  0.1066E-03  0.5333E+00
      4.034  0.2356E-03  0.5334E+00
      4.108  0.5633E-03  0.5334E+00
      4.181  0.1112E-02  0.5335E+00
      4.255  0.1919E-02  0.5336E+00
      4.329  0.3294E-02  0.5339E+00
      4.403  0.6074E-02  0.5343E+00
      4.477  0.1123E-01  0.5351E+00
      4.551  0.1869E-01  0.5365E+00
      4.624  0.2677E-01  0.5385E+00
      4.698  0.3356E-01  0.5410E+00
      4.772  0.3919E-01  0.5439E+00
      4.846  0.4582E-01  0.5473E+00
      4.920  0.5514E-01  0.5513E+00
      4.994  0.6690E-01  0.5563E+00
      5.068  0.7975E-01  0.5622E+00
      5.141  0.9222E-01  0.5690E+00
      5.215  0.1025E+00  0.5765E+00
      5.289  0.1091E+00  0.5846E+00
      5.363  0.1132E+00  0.5930E+00
      5.437  0.1179E+00  0.6017E+00
      5.511  0.1242E+00  0.6108E+00
      5.585  0.1277E+00  0.6203E+00
      5.658  0.1235E+00  0.6294E+00
      5.732  0.1123E+00  0.6377E+00
      5.806  0.9975E-01  0.6451E+00
      5.880  0.9083E-01  0.6518E+00
      5.954  0.8684E-01  0.6582E+00
      6.028  0.8536E-01  0.6645E+00
      6.102  0.8243E-01  0.6706E+00
      6.175  0.7667E-01  0.6762E+00
      6.249  0.7158E-01  0.6815E+00
      6.323  0.7224E-01  0.6868E+00
      6.397  0.7987E-01  0.6927E+00
      6.471  0.9133E-01  0.6995E+00
      6.545  0.1035E+00  0.7071E+00
      6.618  0.1161E+00  0.7157E+00
      6.692  0.1297E+00  0.7253E+00
      6.766  0.1405E+00  0.7357E+00
      6.840  0.1424E+00  0.7462E+00
      6.914  0.1338E+00  0.7561E+00
      6.988  0.1201E+00  0.7649E+00
      7.062  0.1090E+00  0.7730E+00
      7.135  0.1040E+00  0.7807E+00
      7.209  0.1041E+00  0.7884E+00
      7.283  0.1058E+00  0.7962E+00
      7.357  0.1054E+00  0.8040E+00
      7.431  0.1001E+00  0.8113E+00
      7.505  0.9112E-01  0.8181E+00
      7.579  0.8388E-01  0.8243E+00
      7.652  0.8367E-01  0.8305E+00
      7.726  0.9176E-01  0.8372E+00
      7.800  0.1054E+00  0.8450E+00
      7.874  0.1197E+00  0.8539E+00
      7.948  0.1289E+00  0.8634E+00
      8.022  0.1285E+00  0.8729E+00
      8.096  0.1191E+00  0.8817E+00
      8.169  0.1059E+00  0.8895E+00
      8.243  0.9393E-01  0.8964E+00
      8.317  0.8516E-01  0.9027E+00
      8.391  0.8076E-01  0.9087E+00
      8.465  0.8249E-01  0.9148E+00
      8.539  0.9019E-01  0.9214E+00
      8.612  0.9996E-01  0.9288E+00
      8.686  0.1065E+00  0.9367E+00
      8.760  0.1066E+00  0.9445E+00
      8.834  0.1001E+00  0.9519E+00
      8.908  0.8859E-01  0.9585E+00
      8.982  0.7518E-01  0.9640E+00
      9.056  0.6470E-01  0.9688E+00
      9.129  0.6016E-01  0.9733E+00
      9.203  0.6021E-01  0.9777E+00
      9.277  0.6197E-01  0.9823E+00
      9.351  0.6508E-01  0.9871E+00
      9.425  0.7076E-01  0.9923E+00
      9.499  0.7816E-01  0.9981E+00
      9.573  0.8379E-01  0.1004E+01
      9.646  0.8401E-01  0.1010E+01
      9.720  0.7738E-01  0.1016E+01
      9.794  0.6572E-01  0.1021E+01
      9.868  0.5337E-01  0.1025E+01
      9.942  0.4403E-01  0.1028E+01
     10.016  0.3813E-01  0.1031E+01
     10.090  0.3437E-01  0.1034E+01
     10.163  0.3303E-01  0.1036E+01
     10.237  0.3550E-01  0.1039E+01
     10.311  0.4103E-01  0.1042E+01
     10.385  0.4598E-01  0.1045E+01
     10.459  0.4666E-01  0.1049E+01
     10.533  0.4234E-01  0.1052E+01
     10.607  0.3517E-01  0.1054E+01
     10.680  0.2792E-01  0.1056E+01
     10.754  0.2221E-01  0.1058E+01
     10.828  0.1837E-01  0.1059E+01
     10.902  0.1593E-01  0.1060E+01
     10.976  0.1413E-01  0.1062E+01
     11.050  0.1226E-01  0.1062E+01
     11.123  0.1041E-01  0.1063E+01
     11.197  0.9381E-02  0.1064E+01
     11.271  0.9406E-02  0.1065E+01
     11.345  0.9409E-02  0.1065E+01
     11.419  0.8142E-02  0.1066E+01
     11.493  0.5648E-02  0.1066E+01
     11.567  0.3053E-02  0.1067E+01
     11.640  0.1274E-02  0.1067E+01
     11.714  0.4094E-03  0.1067E+01
     11.788  0.1011E-03  0.1067E+01
     11.862  0.1918E-04  0.1067E+01
     11.936  0.2795E-05  0.1067E+01
     12.010  0.3126E-06  0.1067E+01
     12.084  0.2683E-07  0.1067E+01
     12.157  0.1766E-08  0.1067E+01
     12.231  0.8909E-10  0.1067E+01
     12.305  0.3444E-11  0.1067E+01
     12.379  0.1020E-12  0.1067E+01
     12.453  0.2307E-14  0.1067E+01
     12.527  0.4228E-16  0.1067E+01
     12.601  0.0000E+00  0.1067E+01
     12.674  0.0000E+00  0.1067E+01
     12.748  0.0000E+00  0.1067E+01
     12.822  0.0000E+00  0.1067E+01
     12.896  0.0000E+00  0.1067E+01
     12.970  0.0000E+00  0.1067E+01
     13.044  0.0000E+00  0.1067E+01
     13.117  0.0000E+00  0.1067E+01
     13.191  0.0000E+00  0.1067E+01
     13.265  0.0000E+00  0.1067E+01
     13.339  0.0000E+00  0.1067E+01
