unknown system                          
   1.00000000000000     
     0.000000    2.715000    2.715000
     2.715000    0.000000    2.715000
     2.715000    2.715000    0.000000
   Si
     2
Direct
  0.500000  0.500000  0.500000
  0.750000  0.750000  0.750000
 
   24   24   24
 0.87221     0.90952      1.0266      1.2379      1.5647      2.0297      2.6482      3.4154      4.2920      5.1934    
  5.9937      6.5511      6.7516      6.5512      5.9938      5.1934      4.2919      3.4152      2.6479      2.0295    
  1.5646      1.2379      1.0267     0.90961     0.90952     0.97027      1.0996      1.3116      1.6230      2.0473    
  2.5870      3.2236      3.9090      4.5630      5.0837      5.3741      5.3742      5.0838      4.5630      3.9090    
  3.2235      2.5867      2.0470      1.6228      1.3116      1.0998     0.97042     0.90959      1.0266      1.0996    
  1.2313      1.4338      1.7184      2.0903      2.5423      3.0485      3.5600      4.0082      4.3177      4.4285    
  4.3177      4.0083      3.5600      3.0484      2.5422      2.0902      1.7183      1.4339      1.2315      1.0998    
  1.0267      1.0034      1.2379      1.3116      1.4338      1.6140      1.8587      2.1669      2.5260      2.9079    
  3.2688      3.5543      3.7129      3.7129      3.5543      3.2687      2.9078      2.5259      2.1669      1.8588    
  1.6142      1.4340      1.3117      1.2380      1.2037      1.2037      1.5647      1.6230      1.7184      1.8587    
  2.0473      2.2800      2.5423      2.8082      3.0414      3.2024      3.2601      3.2023      3.0412      2.8081    
  2.5423      2.2800      2.0474      1.8589      1.7185      1.6230      1.5647      1.5345      1.5253      1.5345    
  2.0297      2.0473      2.0903      2.1669      2.2800      2.4245      2.5869      2.7452      2.8726      2.9438    
  2.9437      2.8724      2.7451      2.5869      2.4246      2.2801      2.1670      2.0903      2.0472      2.0296    
  2.0266      2.0282      2.0283      2.0267      2.6482      2.5870      2.5423      2.5260      2.5423      2.5869    
  2.6482      2.7097      2.7549      2.7714      2.7548      2.7095      2.6480      2.5869      2.5423      2.5261    
  2.5423      2.5868      2.6480      2.7095      2.7548      2.7714      2.7549      2.7097      3.4154      3.2236    
  3.0485      2.9079      2.8082      2.7452      2.7097      2.6918      2.6844      2.6843      2.6916      2.7095    
  2.7451      2.8081      2.9079      3.0485      3.2235      3.4153      3.5970      3.7393      3.8176      3.8177    
  3.7396      3.5972      4.2920      3.9090      3.5600      3.2688      3.0414      2.8726      2.7549      2.6844    
  2.6606      2.6842      2.7547      2.8724      3.0413      3.2688      3.5601      3.9090      4.2919      4.6677    
  4.9861      5.1994      5.2746      5.1995      4.9862      4.6678      5.1934      4.5630      4.0082      3.5543    
  3.2024      2.9438      2.7714      2.6843      2.6842      2.7713      2.9437      3.2024      3.5543      4.0084    
  4.5631      5.1935      5.8449      6.4399      6.8952      7.1421      7.1421      6.8952      6.4399      5.8449    
  5.9937      5.0837      4.3177      3.7129      3.2601      2.9437      2.7548      2.6916      2.7547      2.9437    
  3.2601      3.7129      4.3178      5.0839      5.9939      6.9880      7.9631      8.7909      9.3475      9.5437    
  9.3474      8.7908      7.9630      6.9879      6.5511      5.3741      4.4285      3.7129      3.2023      2.8724    
  2.7095      2.7095      2.8724      3.2024      3.7129      4.4286      5.3742      6.5513      7.9102      9.3363    
  10.659      11.687      12.249      12.249      11.686      10.659      9.3362      7.9100      6.7516      5.3742    
  4.3177      3.5543      3.0412      2.7451      2.6480      2.7451      3.0413      3.5543      4.3178      5.3742    
  6.7517      8.4285      10.303      12.185      13.818      14.936      15.333      14.936      13.818      12.185    
  10.303      8.4285      6.5512      5.0838      4.0083      3.2687      2.8081      2.5869      2.5869      2.8081    
  3.2688      4.0084      5.0839      6.5513      8.4285      10.653      13.049      15.331      17.125      18.101    
  18.101      17.125      15.331      13.049      10.653      8.4285      5.9938      4.5630      3.5600      2.9078    
  2.5423      2.4246      2.5423      2.9079      3.5601      4.5631      5.9939      7.9102      10.303      13.049    
  15.879      18.348      19.996      20.570      19.996      18.348      15.879      13.049      10.303      7.9101    
  5.1934      3.9090      3.0484      2.5259      2.2800      2.2801      2.5261      3.0485      3.9090      5.1935    
  6.9880      9.3363      12.185      15.331      18.348      20.667      21.907      21.907      20.667      18.348    
  15.331      12.185      9.3363      6.9879      4.2919      3.2235      2.5422      2.1669      2.0474      2.1670    
  2.5423      3.2235      4.2919      5.8449      7.9631      10.659      13.818      17.125      19.996      21.907    
  22.572      21.907      19.996      17.125      13.818      10.659      7.9631      5.8448      3.4152      2.5867    
  2.0902      1.8588      1.8589      2.0903      2.5868      3.4153      4.6677      6.4399      8.7909      11.687    
  14.936      18.101      20.570      21.907      21.907      20.570      18.100      14.935      11.686      8.7909    
  6.4399      4.6676      2.6479      2.0470      1.7183      1.6142      1.7185      2.0472      2.6480      3.5970    
  4.9861      6.8952      9.3475      12.249      15.333      18.101      19.996      20.667      19.996      18.100    
  15.332      12.249      9.3474      6.8952      4.9860      3.5970      2.0295      1.6228      1.4339      1.4340    
  1.6230      2.0296      2.7095      3.7393      5.1994      7.1421      9.5437      12.249      14.936      17.125    
  18.348      18.348      17.125      14.935      12.249      9.5438      7.1421      5.1994      3.7393      2.7095    
  1.5646      1.3116      1.2315      1.3117      1.5647      2.0266      2.7548      3.8176      5.2746      7.1421    
  9.3474      11.686      13.818      15.331      15.879      15.331      13.818      11.686      9.3474      7.1421    
  5.2745      3.8174      2.7546      2.0265      1.2379      1.0998      1.0998      1.2380      1.5345      2.0282    
  2.7714      3.8177      5.1995      6.8952      8.7908      10.659      12.185      13.049      13.049      12.185    
  10.659      8.7909      6.8952      5.1994      3.8174      2.7712      2.0281      1.5344      1.0267     0.97042    
  1.0267      1.2037      1.5253      2.0283      2.7549      3.7396      4.9862      6.4399      7.9630      9.3362    
  10.303      10.653      10.303      9.3363      7.9631      6.4399      4.9860      3.7393      2.7546      2.0281    
  1.5253      1.2037     0.90961     0.90959      1.0034      1.2037      1.5345      2.0267      2.7097      3.5972    
  4.6678      5.8449      6.9879      7.9100      8.4285      8.4285      7.9101      6.9879      5.8448      4.6676    
  3.5970      2.7095      2.0265      1.5344      1.2037      1.0034     0.90952     0.97027      1.0996      1.3116    
  1.6230      2.0473      2.5870      3.2236      3.9090      4.5630      5.0837      5.3741      5.3741      5.0838    
  4.5630      3.9090      3.2235      2.5867      2.0470      1.6228      1.3117      1.0998     0.97043     0.90959    
 0.97027      1.0384      1.1625      1.3552      1.6282      1.9871      2.4245      2.9148      3.4100      3.8432    
  4.1419      4.2488      4.1420      3.8433      3.4101      2.9148      2.4244      1.9869      1.6281      1.3552    
  1.1627      1.0386     0.97037     0.94871      1.0996      1.1625      1.2699      1.4324      1.6573      1.9440    
  2.2800      2.6379      2.9758      3.2427      3.3907      3.3907      3.2427      2.9758      2.6379      2.2799    
  1.9440      1.6573      1.4325      1.2700      1.1626      1.0997      1.0712      1.0712      1.3116      1.3552    
  1.4324      1.5524      1.7190      1.9285      2.1669      2.4096      2.6227      2.7700      2.8227      2.7699    
  2.6226      2.4095      2.1668      1.9285      1.7191      1.5525      1.4326      1.3553      1.3116      1.2912    
  1.2854      1.2912      1.6230      1.6282      1.6573      1.7190      1.8160      1.9440      2.0903      2.2345    
  2.3514      2.4172      2.4171      2.3513      2.2343      2.0902      1.9440      1.8161      1.7191      1.6575    
  1.6283      1.6229      1.6296      1.6365      1.6365      1.6296      2.0473      1.9871      1.9440      1.9285    
  1.9440      1.9871      2.0473      2.1092      2.1555      2.1727      2.1554      2.1090      2.0472      1.9870    
  1.9441      1.9286      1.9441      1.9870      2.0472      2.1090      2.1554      2.1727      2.1555      2.1092    
  2.5870      2.4245      2.2800      2.1669      2.0903      2.0473      2.0297      2.0267      2.0283      2.0282    
  2.0266      2.0296      2.0472      2.0903      2.1670      2.2801      2.4246      2.5868      2.7450      2.8723    
  2.9437      2.9438      2.8726      2.7453      3.2236      2.9148      2.6379      2.4096      2.2345      2.1092    
  2.0267      1.9804      1.9655      1.9804      2.0267      2.1091      2.2344      2.4096      2.6380      2.9150    
  3.2236      3.5335      3.8030      3.9881      4.0542      3.9882      3.8032      3.5336      3.9090      3.4100    
  2.9758      2.6227      2.3514      2.1555      2.0283      1.9655      1.9655      2.0282      2.1554      2.3513    
  2.6228      2.9760      3.4102      3.9092      4.4350      4.9279      5.3153      5.5295      5.5295      5.3153    
  4.9280      4.4350      4.5630      3.8432      3.2427      2.7700      2.4172      2.1727      2.0282      1.9804    
  2.0282      2.1726      2.4171      2.7701      3.2430      3.8436      4.5632      5.3636      6.1694      6.8733    
  7.3582      7.5316      7.3581      6.8732      6.1693      5.3635      5.0837      4.1419      3.3907      2.8227    
  2.4171      2.1554      2.0266      2.0267      2.1554      2.4171      2.8228      3.3910      4.1424      5.0841    
  6.1898      7.3805      8.5186      9.4270      9.9344      9.9343      9.4268      8.5185      7.3803      6.1896    
  5.3741      4.2488      3.3907      2.7699      2.3513      2.1090      2.0296      2.1091      2.3513      2.7701    
  3.3910      4.2492      5.3744      6.7661      8.3617      10.013      11.489      12.524      12.897      12.523    
  11.489      10.013      8.3616      6.7660      5.3741      4.1420      3.2427      2.6226      2.2343      2.0472    
  2.0472      2.2344      2.6228      3.2430      4.1424      5.3744      6.9735      8.9148      11.071      13.189    
  14.915      15.892      15.892      14.915      13.189      11.071      8.9148      6.9734      5.0838      3.8433    
  2.9758      2.4095      2.0902      1.9870      2.0903      2.4096      2.9760      3.8436      5.0841      6.7661    
  8.9148      11.455      14.157      16.628      18.386      19.026      18.386      16.627      14.157      11.455    
  8.9147      6.7659      4.5630      3.4101      2.6379      2.1668      1.9440      1.9441      2.1670      2.6380    
  3.4102      4.5632      6.1898      8.3617      11.071      14.157      17.253      19.817      21.279      21.279    
  19.817      17.252      14.157      11.071      8.3616      6.1896      3.9090      2.9148      2.2799      1.9285    
  1.8161      1.9286      2.2801      2.9150      3.9092      5.3636      7.3805      10.013      13.189      16.628    
  19.817      22.100      22.929      22.100      19.817      16.627      13.188      10.013      7.3804      5.3635    
  3.2235      2.4244      1.9440      1.7191      1.7191      1.9441      2.4246      3.2236      4.4350      6.1694    
  8.5186      11.489      14.915      18.386      21.279      22.929      22.929      21.279      18.386      14.914    
  11.489      8.5185      6.1694      4.4349      2.5867      1.9869      1.6573      1.5525      1.6575      1.9870    
  2.5868      3.5335      4.9279      6.8733      9.4270      12.524      15.892      19.026      21.279      22.100    
  21.279      19.026      15.891      12.523      9.4266      6.8732      4.9279      3.5334      2.0470      1.6281    
  1.4325      1.4326      1.6283      2.0472      2.7450      3.8030      5.3153      7.3582      9.9344      12.897    
  15.892      18.386      19.817      19.817      18.386      15.891      12.896      9.9339      7.3580      5.3152    
  3.8030      2.7450      1.6228      1.3552      1.2700      1.3553      1.6229      2.1090      2.8723      3.9881    
  5.5295      7.5316      9.9343      12.523      14.915      16.627      17.252      16.627      14.914      12.523    
  9.9339      7.5314      5.5294      3.9880      2.8722      2.1089      1.3117      1.1627      1.1626      1.3116    
  1.6296      2.1554      2.9437      4.0542      5.5295      7.3581      9.4268      11.489      13.189      14.157    
  14.157      13.188      11.489      9.4266      7.3580      5.5294      4.0540      2.9435      2.1552      1.6295    
  1.0998      1.0386      1.0997      1.2912      1.6365      2.1727      2.9438      3.9882      5.3153      6.8732    
  8.5185      10.013      11.071      11.455      11.071      10.013      8.5185      6.8732      5.3152      3.9880    
  2.9435      2.1724      1.6364      1.2912     0.97043     0.97037      1.0712      1.2854      1.6365      2.1555    
  2.8726      3.8032      4.9280      6.1693      7.3803      8.3616      8.9148      8.9147      8.3616      7.3804    
  6.1694      4.9279      3.8030      2.8722      2.1552      1.6364      1.2855      1.0713     0.90959     0.94871    
  1.0712      1.2912      1.6296      2.1092      2.7453      3.5336      4.4350      5.3635      6.1896      6.7660    
  6.9734      6.7659      6.1896      5.3635      4.4349      3.5334      2.7450      2.1089      1.6295      1.2912    
  1.0713     0.94885      1.0266      1.0996      1.2313      1.4338      1.7184      2.0903      2.5423      3.0485    
  3.5600      4.0082      4.3177      4.4285      4.3177      4.0082      3.5600      3.0484      2.5422      2.0902    
  1.7184      1.4339      1.2315      1.0998      1.0267      1.0034      1.0996      1.1625      1.2699      1.4324    
  1.6573      1.9440      2.2800      2.6379      2.9758      3.2427      3.3907      3.3907      3.2427      2.9758    
  2.6379      2.2799      1.9440      1.6574      1.4325      1.2700      1.1626      1.0997      1.0712      1.0712    
  1.2313      1.2699      1.3409      1.4541      1.6137      1.8160      2.0473      2.2830      2.4899      2.6328    
  2.6840      2.6328      2.4899      2.2829      2.0473      1.8161      1.6138      1.4542      1.3410      1.2699    
  1.2314      1.2142      1.2096      1.2142      1.4338      1.4324      1.4541      1.5082      1.5979      1.7190    
  1.8587      1.9970      2.1093      2.1725      2.1724      2.1092      1.9969      1.8587      1.7190      1.5980    
  1.5083      1.4542      1.4325      1.4338      1.4454      1.4551      1.4551      1.4455      1.7184      1.6573    
  1.6137      1.5979      1.6137      1.6573      1.7184      1.7812      1.8282      1.8456      1.8281      1.7810    
  1.7183      1.6573      1.6138      1.5981      1.6138      1.6574      1.7184      1.7811      1.8281      1.8456    
  1.8282      1.7811      2.0903      1.9440      1.8160      1.7190      1.6573      1.6282      1.6230      1.6296    
  1.6365      1.6365      1.6295      1.6229      1.6282      1.6575      1.7191      1.8162      1.9440      2.0902    
  2.2344      2.3513      2.4171      2.4171      2.3514      2.2345      2.5423      2.2800      2.0473      1.8587    
  1.7184      1.6230      1.5647      1.5345      1.5253      1.5345      1.5647      1.6230      1.7185      1.8589    
  2.0474      2.2800      2.5423      2.8081      3.0412      3.2023      3.2601      3.2024      3.0414      2.8082    
  3.0485      2.6379      2.2830      1.9970      1.7812      1.6296      1.5345      1.4889      1.4889      1.5346    
  1.6297      1.7813      1.9971      2.2831      2.6380      3.0485      3.4840      3.8954      4.2211      4.4021    
  4.4022      4.2211      3.8955      3.4841      3.5600      2.9758      2.4899      2.1093      1.8282      1.6365    
  1.5253      1.4889      1.5254      1.6367      1.8283      2.1094      2.4900      2.9759      3.5601      4.2130    
  4.8748      5.4573      5.8613      6.0063      5.8612      5.4572      4.8746      4.2129      4.0082      3.2427    
  2.6328      2.1725      1.8456      1.6365      1.5345      1.5346      1.6367      1.8458      2.1727      2.6330    
  3.2428      4.0084      4.9106      5.8886      6.8312      7.5894      8.0152      8.0151      7.5892      6.8309    
  5.8883      4.9104      4.3177      3.3907      2.6840      2.1724      1.8281      1.6295      1.5647      1.6297    
  1.8283      2.1727      2.6842      3.3909      4.3178      5.4679      6.7954      8.1818      9.4325      10.315    
  10.634      10.315      9.4323      8.1815      6.7952      5.4677      4.4285      3.3907      2.6328      2.1092    
  1.7810      1.6229      1.6230      1.7813      2.1094      2.6330      3.3909      4.4286      5.7794      7.4309    
  9.2836      11.122      12.633      13.492      13.492      12.632      11.121      9.2833      7.4308      5.7793    
  4.3177      3.2427      2.4899      1.9969      1.7183      1.6282      1.7185      1.9971      2.4900      3.2428    
  4.3178      5.7794      7.6602      9.9076      12.326      14.559      16.159      16.743      16.159      14.558    
  12.325      9.9074      7.6602      5.7793      4.0082      2.9758      2.2829      1.8587      1.6573      1.6575    
  1.8589      2.2831      2.9759      4.0084      5.4679      7.4309      9.9076      12.764      15.662      18.083    
  19.474      19.474      18.083      15.662      12.764      9.9075      7.4309      5.4677      3.5600      2.6379    
  2.0473      1.7190      1.6138      1.7191      2.0474      2.6380      3.5601      4.9106      6.7954      9.2836    
  12.326      15.662      18.787      21.048      21.877      21.048      18.787      15.662      12.326      9.2835    
  6.7953      4.9104      3.0484      2.2799      1.8161      1.5980      1.5981      1.8162      2.2800      3.0485    
  4.2130      5.8886      8.1818      11.122      14.559      18.083      21.048      22.759      22.759      21.048    
  18.082      14.558      11.122      8.1817      5.8884      4.2128      2.5422      1.9440      1.6138      1.5083    
  1.6138      1.9440      2.5423      3.4840      4.8748      6.8312      9.4325      12.633      16.159      19.474    
  21.877      22.759      21.877      19.474      16.159      12.632      9.4323      6.8310      4.8746      3.4839    
  2.0902      1.6574      1.4542      1.4542      1.6574      2.0902      2.8081      3.8954      5.4573      7.5894    
  10.315      13.492      16.743      19.474      21.048      21.048      19.474      16.743      13.492      10.314    
  7.5891      5.4571      3.8953      2.8080      1.7184      1.4325      1.3410      1.4325      1.7184      2.2344    
  3.0412      4.2211      5.8613      8.0152      10.634      13.492      16.159      18.083      18.787      18.082    
  16.159      13.492      10.634      8.0149      5.8610      4.2209      3.0411      2.2344      1.4339      1.2700    
  1.2699      1.4338      1.7811      2.3513      3.2023      4.4021      6.0063      8.0151      10.315      12.632    
  14.558      15.662      15.662      14.558      12.632      10.314      8.0149      6.0060      4.4019      3.2022    
  2.3512      1.7811      1.2315      1.1626      1.2314      1.4454      1.8281      2.4171      3.2601      4.4022    
  5.8612      7.5892      9.4323      11.121      12.325      12.764      12.326      11.122      9.4323      7.5891    
  5.8610      4.4019      3.2599      2.4170      1.8281      1.4456      1.0998      1.0997      1.2142      1.4551    
  1.8456      2.4171      3.2024      4.2211      5.4572      6.8309      8.1815      9.2833      9.9074      9.9075    
  9.2835      8.1817      6.8310      5.4571      4.2209      3.2022      2.4170      1.8456      1.4552      1.2143    
  1.0267      1.0712      1.2096      1.4551      1.8282      2.3514      3.0414      3.8955      4.8746      5.8883    
  6.7952      7.4308      7.6602      7.4309      6.7953      5.8884      4.8746      3.8953      3.0411      2.3512    
  1.8281      1.4552      1.2097      1.0714      1.0034      1.0712      1.2142      1.4455      1.7811      2.2345    
  2.8082      3.4841      4.2129      4.9104      5.4677      5.7793      5.7793      5.4677      4.9104      4.2128    
  3.4839      2.8080      2.2344      1.7811      1.4456      1.2143      1.0714      1.0035      1.2379      1.3116    
  1.4338      1.6140      1.8587      2.1669      2.5260      2.9079      3.2688      3.5543      3.7129      3.7129    
  3.5542      3.2687      2.9078      2.5259      2.1670      1.8589      1.6142      1.4340      1.3117      1.2380    
  1.2037      1.2037      1.3116      1.3552      1.4324      1.5524      1.7190      1.9285      2.1669      2.4096    
  2.6227      2.7699      2.8226      2.7699      2.6226      2.4095      2.1669      1.9285      1.7191      1.5525    
  1.4326      1.3552      1.3116      1.2911      1.2854      1.2912      1.4338      1.4324      1.4541      1.5082    
  1.5979      1.7190      1.8587      1.9970      2.1093      2.1725      2.1724      2.1092      1.9969      1.8587    
  1.7191      1.5981      1.5083      1.4542      1.4324      1.4338      1.4454      1.4551      1.4551      1.4455    
  1.6140      1.5524      1.5082      1.4922      1.5082      1.5524      1.6140      1.6773      1.7247      1.7422    
  1.7246      1.6772      1.6140      1.5524      1.5083      1.4924      1.5083      1.5524      1.6140      1.6772    
  1.7246      1.7422      1.7247      1.6773      1.8587      1.7190      1.5979      1.5082      1.4541      1.4324    
  1.4338      1.4455      1.4551      1.4551      1.4454      1.4338      1.4324      1.4542      1.5083      1.5981    
  1.7191      1.8587      1.9969      2.1092      2.1724      2.1725      2.1093      1.9970      2.1669      1.9285    
  1.7190      1.5524      1.4324      1.3552      1.3116      1.2912      1.2854      1.2911      1.3116      1.3552    
  1.4326      1.5525      1.7191      1.9285      2.1669      2.4095      2.6226      2.7699      2.8226      2.7699    
  2.6227      2.4096      2.5260      2.1669      1.8587      1.6140      1.4338      1.3116      1.2379      1.2037    
  1.2037      1.2380      1.3117      1.4340      1.6142      1.8589      2.1670      2.5259      2.9078      3.2687    
  3.5542      3.7129      3.7129      3.5543      3.2688      2.9079      2.9079      2.4096      1.9970      1.6773    
  1.4455      1.2912      1.2037      1.1755      1.2038      1.2913      1.4457      1.6775      1.9971      2.4096    
  2.9078      3.4652      4.0297      4.5259      4.8695      4.9928      4.8695      4.5259      4.0297      3.4653    
  3.2688      2.6227      2.1093      1.7247      1.4551      1.2854      1.2037      1.2038      1.2856      1.4554    
  1.7249      2.1094      2.6227      3.2686      4.0296      4.8530      5.6448      6.2804      6.6369      6.6368    
  6.2802      5.6446      4.8529      4.0297      3.5543      2.7699      2.1725      1.7422      1.4551      1.2911    
  1.2380      1.2913      1.4554      1.7425      2.1726      2.7699      3.5541      4.5257      5.6447      6.8104    
  7.8597      8.5987      8.8660      8.5985      7.8593      6.8101      5.6446      4.5259      3.7129      2.8226    
  2.1724      1.7246      1.4454      1.3116      1.3117      1.4457      1.7249      2.1726      2.8226      3.7127    
  4.8693      6.2802      7.8596      9.4237      10.708      11.438      11.437      10.707      9.4234      7.8593    
  6.2802      4.8695      3.7129      2.7699      2.1092      1.6772      1.4338      1.3552      1.4340      1.6775    
  2.1094      2.7699      3.7127      4.9925      6.6367      8.5986      10.708      12.653      14.047      14.556    
  14.047      12.653      10.707      8.5985      6.6368      4.9928      3.5542      2.6226      1.9969      1.6140    
  1.4324      1.4326      1.6142      1.9971      2.6227      3.5541      4.8693      6.6367      8.8660      11.438    
  14.047      16.228      17.481      17.481      16.228      14.047      11.437      8.8660      6.6369      4.8695    
  3.2687      2.4095      1.8587      1.5524      1.4542      1.5525      1.8589      2.4096      3.2686      4.5257    
  6.2802      8.5986      11.438      14.556      17.481      19.598      20.375      19.598      17.481      14.556    
  11.438      8.5987      6.2804      4.5259      2.9078      2.1669      1.7191      1.5083      1.5083      1.7191    
  2.1670      2.9078      4.0296      5.6447      7.8596      10.708      14.047      17.481      20.375      22.047    
  22.047      20.375      17.481      14.047      10.708      7.8597      5.6448      4.0297      2.5259      1.9285    
  1.5981      1.4924      1.5981      1.9285      2.5259      3.4652      4.8530      6.8104      9.4237      12.653    
  16.228      19.598      22.047      22.947      22.047      19.598      16.228      12.653      9.4237      6.8104    
  4.8530      3.4652      2.1670      1.7191      1.5083      1.5083      1.7191      2.1669      2.9078      4.0297    
  5.6448      7.8597      10.708      14.047      17.481      20.375      22.047      22.047      20.375      17.481    
  14.047      10.708      7.8596      5.6447      4.0296      2.9078      1.8589      1.5525      1.4542      1.5524    
  1.8587      2.4095      3.2687      4.5259      6.2804      8.5987      11.438      14.556      17.481      19.598    
  20.375      19.598      17.481      14.556      11.438      8.5986      6.2802      4.5257      3.2686      2.4096    
  1.6142      1.4326      1.4324      1.6140      1.9969      2.6226      3.5542      4.8695      6.6369      8.8660    
  11.437      14.047      16.228      17.481      17.481      16.228      14.047      11.438      8.8660      6.6367    
  4.8693      3.5541      2.6227      1.9971      1.4340      1.3552      1.4338      1.6772      2.1092      2.7699    
  3.7129      4.9928      6.6368      8.5985      10.707      12.653      14.047      14.556      14.047      12.653    
  10.708      8.5986      6.6367      4.9925      3.7127      2.7699      2.1094      1.6775      1.3117      1.3116    
  1.4454      1.7246      2.1724      2.8226      3.7129      4.8695      6.2802      7.8593      9.4234      10.707    
  11.437      11.438      10.708      9.4237      7.8596      6.2802      4.8693      3.7127      2.8226      2.1726    
  1.7249      1.4457      1.2380      1.2911      1.4551      1.7422      2.1725      2.7699      3.5543      4.5259    
  5.6446      6.8101      7.8593      8.5985      8.8660      8.5987      7.8597      6.8104      5.6447      4.5257    
  3.5541      2.7699      2.1726      1.7425      1.4554      1.2913      1.2037      1.2854      1.4551      1.7247    
  2.1093      2.6227      3.2688      4.0297      4.8529      5.6446      6.2802      6.6368      6.6369      6.2804    
  5.6448      4.8530      4.0296      3.2686      2.6227      2.1094      1.7249      1.4554      1.2856      1.2038    
  1.2037      1.2912      1.4455      1.6773      1.9970      2.4096      2.9079      3.4653      4.0297      4.5259    
  4.8695      4.9928      4.8695      4.5259      4.0297      3.4652      2.9078      2.4096      1.9971      1.6775    
  1.4457      1.2913      1.2038      1.1755      1.5647      1.6230      1.7184      1.8587      2.0473      2.2800    
  2.5423      2.8082      3.0414      3.2024      3.2601      3.2023      3.0412      2.8081      2.5423      2.2800    
  2.0474      1.8589      1.7185      1.6230      1.5647      1.5345      1.5253      1.5345      1.6230      1.6282    
  1.6573      1.7190      1.8160      1.9440      2.0903      2.2345      2.3514      2.4171      2.4171      2.3513    
  2.2344      2.0902      1.9440      1.8162      1.7191      1.6575      1.6282      1.6229      1.6295      1.6365    
  1.6365      1.6296      1.7184      1.6573      1.6137      1.5979      1.6137      1.6573      1.7184      1.7811    
  1.8282      1.8456      1.8281      1.7811      1.7184      1.6574      1.6138      1.5981      1.6138      1.6573    
  1.7183      1.7810      1.8281      1.8456      1.8282      1.7812      1.8587      1.7190      1.5979      1.5082    
  1.4541      1.4324      1.4338      1.4455      1.4551      1.4551      1.4454      1.4338      1.4325      1.4542    
  1.5083      1.5980      1.7190      1.8587      1.9969      2.1092      2.1724      2.1725      2.1093      1.9970    
  2.0473      1.8160      1.6137      1.4541      1.3409      1.2699      1.2313      1.2142      1.2096      1.2142    
  1.2314      1.2699      1.3410      1.4542      1.6138      1.8161      2.0473      2.2829      2.4899      2.6328    
  2.6840      2.6328      2.4899      2.2830      2.2800      1.9440      1.6573      1.4324      1.2699      1.1625    
  1.0996      1.0712      1.0712      1.0997      1.1626      1.2700      1.4325      1.6574      1.9440      2.2799    
  2.6379      2.9758      3.2427      3.3907      3.3907      3.2427      2.9758      2.6379      2.5423      2.0903    