unknown system                          
   1.00000000000000     
     0.000000    2.715000    2.715000
     2.715000    0.000000    2.715000
     2.715000    2.715000    0.000000
   Si
     2
Direct
  0.500000  0.500000  0.500000
  0.750000  0.750000  0.750000
 
   24   24   24
 0.87221324446E+00 0.90952380845E+00 0.10266064014E+01 0.12379035581E+01 0.15646927734E+01
 0.20297066912E+01 0.26482085763E+01 0.34154194138E+01 0.42919842806E+01 0.51934204546E+01
 0.59937380582E+01 0.65511421436E+01 0.67516115002E+01 0.65512281341E+01 0.59938378193E+01
 0.51934374556E+01 0.42918591571E+01 0.34151651749E+01 0.26479046034E+01 0.20294580402E+01
 0.15645757016E+01 0.12379260977E+01 0.10267062593E+01 0.90960740277E+00 0.90952380845E+00
 0.97026790454E+00 0.10996248933E+01 0.13116185666E+01 0.16229713594E+01 0.20472779942E+01
 0.25869523292E+01 0.32235694782E+01 0.39090057654E+01 0.45629592877E+01 0.50837266327E+01
 0.53741414606E+01 0.53741651775E+01 0.50837960701E+01 0.45630466719E+01 0.39090364986E+01
 0.32234670566E+01 0.25867196757E+01 0.20470190460E+01 0.16228186103E+01 0.13116351984E+01
 0.10997669069E+01 0.97042438593E+00 0.90958987136E+00 0.10266064014E+01 0.10996248933E+01
 0.12313230972E+01 0.14338046087E+01 0.17183906740E+01 0.20902845198E+01 0.25422954325E+01
 0.30484621240E+01 0.35600277993E+01 0.40082349393E+01 0.43177007327E+01 0.44285216441E+01
 0.43177305633E+01 0.40082650550E+01 0.35600177788E+01 0.30483903696E+01 0.25421802858E+01
 0.20901778299E+01 0.17183486784E+01 0.14338572102E+01 0.12314566111E+01 0.10997831738E+01
 0.10267132878E+01 0.10033849746E+01 0.12379035581E+01 0.13116185666E+01 0.14338046087E+01
 0.16140422993E+01 0.18587393687E+01 0.21669380321E+01 0.25259954950E+01 0.29079396846E+01
 0.32688093191E+01 0.35542844147E+01 0.37129030866E+01 0.37129068987E+01 0.35542700170E+01
 0.32687348782E+01 0.29078115413E+01 0.25258834128E+01 0.21669203741E+01 0.18588372287E+01
 0.16142086203E+01 0.14339696746E+01 0.13117382816E+01 0.12379694665E+01 0.12037315676E+01
 0.12037112814E+01 0.15646927734E+01 0.16229713594E+01 0.17183906740E+01 0.18587393687E+01
 0.20473276582E+01 0.22799747354E+01 0.25423016577E+01 0.28081754495E+01 0.30413665222E+01
 0.32024265383E+01 0.32600715598E+01 0.32023311091E+01 0.30412223458E+01 0.28080502778E+01
 0.25422516682E+01 0.22800213449E+01 0.20474497960E+01 0.18588840677E+01 0.17185023233E+01
 0.16230232612E+01 0.15646968398E+01 0.15345025358E+01 0.15253396002E+01 0.15345133709E+01
 0.20297066912E+01 0.20472779942E+01 0.20902845198E+01 0.21669380321E+01 0.22799747354E+01
 0.24245339200E+01 0.25869494102E+01 0.27452445348E+01 0.28725538938E+01 0.29438041012E+01
 0.29437176073E+01 0.28723511594E+01 0.27450537354E+01 0.25868807121E+01 0.24246110753E+01
 0.22801265628E+01 0.21670492361E+01 0.20902772025E+01 0.20471645823E+01 0.20295655169E+01
 0.20266312878E+01 0.20282297969E+01 0.20282624958E+01 0.20267297374E+01 0.26482085763E+01
 0.25869523292E+01 0.25422954325E+01 0.25259954950E+01 0.25423016577E+01 0.25869494102E+01
 0.26481947331E+01 0.27097210032E+01 0.27549078434E+01 0.27714258919E+01 0.27547633523E+01
 0.27095149505E+01 0.26480267537E+01 0.25868781598E+01 0.25423279462E+01 0.25260609355E+01
 0.25423014642E+01 0.25868253801E+01 0.26479681383E+01 0.27094805800E+01 0.27547582290E+01
 0.27714306370E+01 0.27549127116E+01 0.27097320659E+01 0.34154194138E+01 0.32235694782E+01
 0.30484621240E+01 0.29079396846E+01 0.28081754495E+01 0.27452445348E+01 0.27097210032E+01
 0.26917595200E+01 0.26843782152E+01 0.26843048622E+01 0.26915854907E+01 0.27095299890E+01
 0.27450825355E+01 0.28080586884E+01 0.29078856050E+01 0.30484567996E+01 0.32235356293E+01
 0.34152789518E+01 0.35970030875E+01 0.37393443407E+01 0.38175746808E+01 0.38176620206E+01
 0.37395608829E+01 0.35972352475E+01 0.42919842806E+01 0.39090057654E+01 0.35600277993E+01
 0.32688093191E+01 0.30413665222E+01 0.28725538938E+01 0.27549078434E+01 0.26843782152E+01
 0.26606499162E+01 0.26842344323E+01 0.27547089394E+01 0.28723857496E+01 0.30412651153E+01
 0.32687861064E+01 0.35600690434E+01 0.39090451984E+01 0.42919459697E+01 0.46677266544E+01
 0.49860576389E+01 0.51994421928E+01 0.52745577336E+01 0.51995102002E+01 0.49861804798E+01
 0.46678435540E+01 0.51934204546E+01 0.45629592877E+01 0.40082349393E+01 0.35542844147E+01
 0.32024265383E+01 0.29438041012E+01 0.27714258919E+01 0.26843048622E+01 0.26842344323E+01
 0.27712692474E+01 0.29436638954E+01 0.32023654490E+01 0.35543197341E+01 0.40083597179E+01
 0.45631213216E+01 0.51935313152E+01 0.58449361784E+01 0.64398742027E+01 0.68951808412E+01
 0.71420762730E+01 0.71420778907E+01 0.68951991991E+01 0.64399046597E+01 0.58449187077E+01
 0.59937380582E+01 0.50837266327E+01 0.43177007327E+01 0.37129030866E+01 0.32600715598E+01
 0.29437176073E+01 0.27547633523E+01 0.26915854907E+01 0.27547089394E+01 0.29436638954E+01
 0.32600595218E+01 0.37129376209E+01 0.43177888069E+01 0.50838792747E+01 0.59939273675E+01
 0.69880275233E+01 0.79631321240E+01 0.87909251910E+01 0.93474738792E+01 0.95437325709E+01
 0.93474223860E+01 0.87908404579E+01 0.79630119208E+01 0.69878592970E+01 0.65511421436E+01
 0.53741414606E+01 0.44285216441E+01 0.37129068987E+01 0.32023311091E+01 0.28723511594E+01
 0.27095149505E+01 0.27095299890E+01 0.28723857496E+01 0.32023654490E+01 0.37129376209E+01
 0.44285694529E+01 0.53742269352E+01 0.65512600913E+01 0.79101683043E+01 0.93363138905E+01
 0.10659399550E+02 0.11686542598E+02 0.12249256364E+02 0.12249177479E+02 0.11686357007E+02
 0.10659201852E+02 0.93361513485E+01 0.79100324061E+01 0.67516115002E+01 0.53741651775E+01
 0.43177305633E+01 0.35542700170E+01 0.30412223458E+01 0.27450537354E+01 0.26480267537E+01
 0.27450825355E+01 0.30412651153E+01 0.35543197341E+01 0.43177888069E+01 0.53742269352E+01
 0.67516741972E+01 0.84285355394E+01 0.10303074427E+02 0.12184852266E+02 0.13817981503E+02
 0.14935577675E+02 0.15332695711E+02 0.14935513801E+02 0.13817859980E+02 0.12184706717E+02
 0.10302952456E+02 0.84284537346E+01 0.65512281341E+01 0.50837960701E+01 0.40082650550E+01
 0.32687348782E+01 0.28080502778E+01 0.25868807121E+01 0.25868781598E+01 0.28080586884E+01
 0.32687861064E+01 0.40083597179E+01 0.50838792747E+01 0.65512600913E+01 0.84285355394E+01
 0.10652721739E+02 0.13049066986E+02 0.15330673965E+02 0.17124976789E+02 0.18100558925E+02
 0.18100631812E+02 0.17125084673E+02 0.15330651315E+02 0.13048927837E+02 0.10652609134E+02
 0.84285012859E+01 0.59938378193E+01 0.45630466719E+01 0.35600177788E+01 0.29078115413E+01
 0.25422516682E+01 0.24246110753E+01 0.25423279462E+01 0.29078856050E+01 0.35600690434E+01
 0.45631213216E+01 0.59939273675E+01 0.79101683043E+01 0.10303074427E+02 0.13049066986E+02
 0.15879171273E+02 0.18347823975E+02 0.19996276833E+02 0.20570365842E+02 0.19996316159E+02
 0.18347824620E+02 0.15879123164E+02 0.13049036758E+02 0.10303070802E+02 0.79101254272E+01
 0.51934374556E+01 0.39090364986E+01 0.30483903696E+01 0.25258834128E+01 0.22800213449E+01
 0.22801265628E+01 0.25260609355E+01 0.30484567996E+01 0.39090451984E+01 0.51935313152E+01
 0.69880275233E+01 0.93363138905E+01 0.12184852266E+02 0.15330673965E+02 0.18347823975E+02
 0.20666833843E+02 0.21907076993E+02 0.21907008514E+02 0.20666676007E+02 0.18347705944E+02
 0.15330695030E+02 0.12184940383E+02 0.93363016018E+01 0.69878975724E+01 0.42918591571E+01
 0.32234670566E+01 0.25421802858E+01 0.21669203741E+01 0.20474497960E+01 0.21670492361E+01
 0.25423014642E+01 0.32235356293E+01 0.42919459697E+01 0.58449361784E+01 0.79631321240E+01
 0.10659399550E+02 0.13817981503E+02 0.17124976789E+02 0.19996276833E+02 0.21907076993E+02
 0.22571919427E+02 0.21907045161E+02 0.19996140544E+02 0.17124786722E+02 0.13817880950E+02
 0.10659396839E+02 0.79630996169E+01 0.58448360884E+01 0.34151651749E+01 0.25867196757E+01
 0.20901778299E+01 0.18588372287E+01 0.18588840677E+01 0.20902772025E+01 0.25868253801E+01
 0.34152789518E+01 0.46677266544E+01 0.64398742027E+01 0.87909251910E+01 0.11686542598E+02
 0.14935577675E+02 0.18100558925E+02 0.20570365842E+02 0.21907008514E+02 0.21907045161E+02
 0.20570326829E+02 0.18100278048E+02 0.14935205039E+02 0.11686348946E+02 0.87909257025E+01
 0.64398752927E+01 0.46676403939E+01 0.26479046034E+01 0.20470190460E+01 0.17183486784E+01
 0.16142086203E+01 0.17185023233E+01 0.20471645823E+01 0.26479681383E+01 0.35970030875E+01
 0.49860576389E+01 0.68951808412E+01 0.93474738792E+01 0.12249256364E+02 0.15332695711E+02
 0.18100631812E+02 0.19996316159E+02 0.20666676007E+02 0.19996140544E+02 0.18100278048E+02
 0.15332304554E+02 0.12249031474E+02 0.93474387591E+01 0.68951822081E+01 0.49860158960E+01
 0.35969586410E+01 0.20294580402E+01 0.16228186103E+01 0.14338572102E+01 0.14339696746E+01
 0.16230232612E+01 0.20295655169E+01 0.27094805800E+01 0.37393443407E+01 0.51994421928E+01
 0.71420762730E+01 0.95437325709E+01 0.12249177479E+02 0.14935513801E+02 0.17125084673E+02
 0.18347824620E+02 0.18347705944E+02 0.17124786722E+02 0.14935205039E+02 0.12249031474E+02
 0.95437517123E+01 0.71421010520E+01 0.51993893205E+01 0.37392903328E+01 0.27094532752E+01
 0.15645757016E+01 0.13116351984E+01 0.12314566111E+01 0.13117382816E+01 0.15646968398E+01
 0.20266312878E+01 0.27547582290E+01 0.38175746808E+01 0.52745577336E+01 0.71420778907E+01
 0.93474223860E+01 0.11686357007E+02 0.13817859980E+02 0.15330651315E+02 0.15879123164E+02
 0.15330695030E+02 0.13817880950E+02 0.11686348946E+02 0.93474387591E+01 0.71421010520E+01
 0.52745073162E+01 0.38174472268E+01 0.27546288277E+01 0.20265230907E+01 0.12379260977E+01
 0.10997669069E+01 0.10997831738E+01 0.12379694665E+01 0.15345025358E+01 0.20282297969E+01
 0.27714306370E+01 0.38176620206E+01 0.51995102002E+01 0.68951991991E+01 0.87908404579E+01
 0.10659201852E+02 0.12184706717E+02 0.13048927837E+02 0.13049036758E+02 0.12184940383E+02
 0.10659396839E+02 0.87909257025E+01 0.68951822081E+01 0.51993893205E+01 0.38174472268E+01
 0.27711986075E+01 0.20280671535E+01 0.15344189127E+01 0.10267062593E+01 0.97042438593E+00
 0.10267132878E+01 0.12037315676E+01 0.15253396002E+01 0.20282624958E+01 0.27549127116E+01
 0.37395608829E+01 0.49861804798E+01 0.64399046597E+01 0.79630119208E+01 0.93361513485E+01
 0.10302952456E+02 0.10652609134E+02 0.10303070802E+02 0.93363016018E+01 0.79630996169E+01
 0.64398752927E+01 0.49860158960E+01 0.37392903328E+01 0.27546288277E+01 0.20280671535E+01
 0.15252567903E+01 0.12037097935E+01 0.90960740277E+00 0.90958987136E+00 0.10033849746E+01
 0.12037112814E+01 0.15345133709E+01 0.20267297374E+01 0.27097320659E+01 0.35972352475E+01
 0.46678435540E+01 0.58449187077E+01 0.69878592970E+01 0.79100324061E+01 0.84284537346E+01
 0.84285012859E+01 0.79101254272E+01 0.69878975724E+01 0.58448360884E+01 0.46676403939E+01
 0.35969586410E+01 0.27094532752E+01 0.20265230907E+01 0.15344189127E+01 0.12037097935E+01
 0.10034187489E+01 0.90951829225E+00 0.97026534453E+00 0.10996260816E+01 0.13116188268E+01
 0.16229694210E+01 0.20472783792E+01 0.25869576513E+01 0.32235779619E+01 0.39090172254E+01
 0.45629746483E+01 0.50837394395E+01 0.53741387776E+01 0.53741407754E+01 0.50837569258E+01
 0.45630054927E+01 0.39090048202E+01 0.32234552069E+01 0.25867328524E+01 0.20470495689E+01
 0.16228496616E+01 0.13116556331E+01 0.10997770376E+01 0.97042753661E+00 0.90958708881E+00
 0.97026534453E+00 0.10384277332E+01 0.11625090666E+01 0.13551711830E+01 0.16282107517E+01
 0.19870572581E+01 0.24245340648E+01 0.29148238847E+01 0.34100025206E+01 0.38432401534E+01
 0.41419401141E+01 0.42488018879E+01 0.41419583502E+01 0.38432948372E+01 0.34100666972E+01
 0.29148174375E+01 0.24244111640E+01 0.19868778208E+01 0.16280966757E+01 0.13551975645E+01
 0.11626504206E+01 0.10385950821E+01 0.97037235035E+00 0.94871267791E+00 0.10996260816E+01
 0.11625090666E+01 0.12698728535E+01 0.14324144005E+01 0.16573340003E+01 0.19440114298E+01
 0.22799695345E+01 0.26379230543E+01 0.29758429836E+01 0.32426956852E+01 0.33907373514E+01
 0.33907359556E+01 0.32426924209E+01 0.29758336446E+01 0.26378945059E+01 0.22799170708E+01
 0.19439579093E+01 0.16573201235E+01 0.14324659003E+01 0.12699797438E+01 0.11626333377E+01
 0.10997230911E+01 0.10712293264E+01 0.10711929393E+01 0.13116188268E+01 0.13551711830E+01
 0.14324144005E+01 0.15523585695E+01 0.17189957462E+01 0.19284751213E+01 0.21669382266E+01
 0.24096065058E+01 0.26227202083E+01 0.27699503223E+01 0.28226614871E+01 0.27699061721E+01
 0.26226308504E+01 0.24094890775E+01 0.21668395799E+01 0.19284518222E+01 0.17190720826E+01
 0.15525021188E+01 0.14325575311E+01 0.13552605998E+01 0.13116479755E+01 0.12911743370E+01
 0.12854238851E+01 0.12911749709E+01 0.16229694210E+01 0.16282107517E+01 0.16573340003E+01
 0.17189957462E+01 0.18160446384E+01 0.19440145609E+01 0.20902886795E+01 0.22344839110E+01
 0.23513908441E+01 0.24171638917E+01 0.24171139902E+01 0.23512659323E+01 0.22343420627E+01
 0.20901899421E+01 0.19439998101E+01 0.18161236861E+01 0.17191369719E+01 0.16574702077E+01
 0.16282766402E+01 0.16229493526E+01 0.16295643317E+01 0.16365035281E+01 0.16365340184E+01
 0.16296238981E+01 0.20472783792E+01 0.19870572581E+01 0.19440114298E+01 0.19284751213E+01
 0.19440145609E+01 0.19870572430E+01 0.20472751940E+01 0.21091553372E+01 0.21555076819E+01
 0.21726630801E+01 0.21554069162E+01 0.21090150001E+01 0.20471748064E+01 0.19870492258E+01
 0.19441011811E+01 0.19286058241E+01 0.19441044572E+01 0.19870494906E+01 0.20471720170E+01
 0.21090153674E+01 0.21554103902E+01 0.21726633600E+01 0.21555047486E+01 0.21091554547E+01
 0.25869576513E+01 0.24245340648E+01 0.22799695345E+01 0.21669382266E+01 0.20902886795E+01
 0.20472751940E+01 0.20296978602E+01 0.20267268127E+01 0.20282685660E+01 0.20282397135E+01
 0.20266485532E+01 0.20295967059E+01 0.20471984200E+01 0.20902906238E+01 0.21670346647E+01
 0.22800953784E+01 0.24245734082E+01 0.25868418124E+01 0.27450264143E+01 0.28723486142E+01
 0.29437334786E+01 0.29438192478E+01 0.28725620396E+01 0.27452528763E+01 0.32235779619E+01
 0.29148238847E+01 0.26379230543E+01 0.24096065058E+01 0.22344839110E+01 0.21091553372E+01
 0.20267268127E+01 0.19803805698E+01 0.19654671208E+01 0.19803622825E+01 0.20266712829E+01
 0.21090623102E+01 0.22344055413E+01 0.24096206919E+01 0.26380485062E+01 0.29149709654E+01
 0.32236135574E+01 0.35334710780E+01 0.38030263496E+01 0.39880817355E+01 0.40541903980E+01
 0.39882412392E+01 0.38032419934E+01 0.35335998894E+01 0.39090172254E+01 0.34100025206E+01
 0.29758429836E+01 0.26227202083E+01 0.23513908441E+01 0.21555076819E+01 0.20282685660E+01
 0.19654671208E+01 0.19654607643E+01 0.20282361721E+01 0.21554425798E+01 0.23513413535E+01
 0.26227681137E+01 0.29760161047E+01 0.34102264555E+01 0.39091750756E+01 0.44349925806E+01
 0.49279148424E+01 0.53152647369E+01 0.55294981812E+01 0.55295203871E+01 0.53153206336E+01
 0.49279606223E+01 0.44349559645E+01 0.45629746483E+01 0.38432401534E+01 0.32426956852E+01
 0.27699503223E+01 0.24171638917E+01 0.21726630801E+01 0.20282397135E+01 0.19803622825E+01
 0.20282361721E+01 0.21726330993E+01 0.24171498257E+01 0.27700620589E+01 0.32429787405E+01
 0.38435914894E+01 0.45632400257E+01 0.53636404951E+01 0.61693986508E+01 0.68732843690E+01
 0.73581899112E+01 0.75315729063E+01 0.73581139169E+01 0.68731967473E+01 0.61693242219E+01
 0.53635084000E+01 0.50837394395E+01 0.41419401141E+01 0.33907373514E+01 0.28226614871E+01
 0.24171139902E+01 0.21554069162E+01 0.20266485532E+01 0.20266712829E+01 0.21554425798E+01
 0.24171498257E+01 0.28227897567E+01 0.33910440711E+01 0.41423512601E+01 0.50840793349E+01
 0.61898022485E+01 0.73804599928E+01 0.85186030621E+01 0.94269662104E+01 0.99343536060E+01
 0.99342823738E+01 0.94268058004E+01 0.85184512494E+01 0.73803353816E+01 0.61896101711E+01
 0.53741387776E+01 0.42488018879E+01 0.33907359556E+01 0.27699061721E+01 0.23512659323E+01
 0.21090150001E+01 0.20295967059E+01 0.21090623102E+01 0.23513413535E+01 0.27700620589E+01
 0.33910440711E+01 0.42491959346E+01 0.53744436393E+01 0.67661104265E+01 0.83616779498E+01
 0.10013017074E+02 0.11489379896E+02 0.12523617638E+02 0.12896703395E+02 0.12523472201E+02
 0.11489162948E+02 0.10012839729E+02 0.83615707635E+01 0.67659609554E+01 0.53741407754E+01
 0.41419583502E+01 0.32426924209E+01 0.26226308504E+01 0.22343420627E+01 0.20471748064E+01
 0.20471984200E+01 0.22344055413E+01 0.26227681137E+01 0.32429787405E+01 0.41423512601E+01
 0.53744436393E+01 0.69735004774E+01 0.89147848759E+01 0.11071093995E+02 0.13188729791E+02
 0.14914722850E+02 0.15891787060E+02 0.15891726375E+02 0.14914543027E+02 0.13188500829E+02
 0.11070953677E+02 0.89147514444E+01 0.69733986662E+01 0.50837569258E+01 0.38432948372E+01
 0.29758336446E+01 0.24094890775E+01 0.20901899421E+01 0.19870492258E+01 0.20902906238E+01
 0.24096206919E+01 0.29760161047E+01 0.38435914894E+01 0.50840793349E+01 0.67661104265E+01
 0.89147848759E+01 0.11454840150E+02 0.14156930328E+02 0.16627681212E+02 0.18386241893E+02
 0.19025897267E+02 0.18386155790E+02 0.16627487349E+02 0.14156721960E+02 0.11454744292E+02
 0.89147398822E+01 0.67659339758E+01 0.45630054927E+01 0.34100666972E+01 0.26378945059E+01
 0.21668395799E+01 0.19439998101E+01 0.19441011811E+01 0.21670346647E+01 0.26380485062E+01
 0.34102264555E+01 0.45632400257E+01 0.61898022485E+01 0.83616779498E+01 0.11071093995E+02
 0.14156930328E+02 0.17252750013E+02 0.19816860024E+02 0.21279221053E+02 0.21279187599E+02
 0.19816715741E+02 0.17252493678E+02 0.14156704711E+02 0.11070983339E+02 0.83615661136E+01
 0.61895858959E+01 0.39090048202E+01 0.29148174375E+01 0.22799170708E+01 0.19284518222E+01
 0.18161236861E+01 0.19286058241E+01 0.22800953784E+01 0.29149709654E+01 0.39091750756E+01
 0.53636404951E+01 0.73804599928E+01 0.10013017074E+02 0.13188729791E+02 0.16627681212E+02
 0.19816860024E+02 0.22099908894E+02 0.22928882447E+02 0.22099878725E+02 0.19816639578E+02
 0.16627293403E+02 0.13188416968E+02 0.10012886677E+02 0.73803717450E+01 0.53634857832E+01
 0.32234552069E+01 0.24244111640E+01 0.19439579093E+01 0.17190720826E+01 0.17191369719E+01
 0.19441044572E+01 0.24245734082E+01 0.32236135574E+01 0.44349925806E+01 0.61693986508E+01
 0.85186030621E+01 0.11489379896E+02 0.14914722850E+02 0.18386241893E+02 0.21279221053E+02
 0.22928882447E+02 0.22928943432E+02 0.21279196078E+02 0.18385868766E+02 0.14914154863E+02
 0.11488991464E+02 0.85184879174E+01 0.61693551997E+01 0.44348788979E+01 0.25867328524E+01
 0.19868778208E+01 0.16573201235E+01 0.15525021188E+01 0.16574702077E+01 0.19870494906E+01
 0.25868418124E+01 0.35334710780E+01 0.49279148424E+01 0.68732843690E+01 0.94269662104E+01
 0.12523617638E+02 0.15891787060E+02 0.19025897267E+02 0.21279187599E+02 0.22099878725E+02
 0.21279196078E+02 0.19025643020E+02 0.15891203879E+02 0.12523008699E+02 0.94266175564E+01
 0.68731733562E+01 0.49278766713E+01 0.35334145955E+01 0.20470495689E+01 0.16280966757E+01
 0.14324659003E+01 0.14325575311E+01 0.16282766402E+01 0.20471720170E+01 0.27450264143E+01
 0.38030263496E+01 0.53152647369E+01 0.73581899112E+01 0.99343536060E+01 0.12896703395E+02
 0.15891726375E+02 0.18386155790E+02 0.19816715741E+02 0.19816639578E+02 0.18385868766E+02
 0.15891203879E+02 0.12896122531E+02 0.99339400861E+01 0.73579869775E+01 0.53151786727E+01
 0.38029846817E+01 0.27449780533E+01 0.16228496616E+01 0.13551975645E+01 0.12699797438E+01
 0.13552605998E+01 0.16229493526E+01 0.21090153674E+01 0.28723486142E+01 0.39880817355E+01
 0.55294981812E+01 0.75315729063E+01 0.99342823738E+01 0.12523472201E+02 0.14914543027E+02
 0.16627487349E+02 0.17252493678E+02 0.16627293403E+02 0.14914154863E+02 0.12523008699E+02
 0.99339400861E+01 0.75314185141E+01 0.55294206885E+01 0.39879687314E+01 0.28722046555E+01
 0.21088878531E+01 0.13116556331E+01 0.11626504206E+01 0.11626333377E+01 0.13116479755E+01
 0.16295643317E+01 0.21554103902E+01 0.29437334786E+01 0.40541903980E+01 0.55295203871E+01
 0.73581139169E+01 0.94268058004E+01 0.11489162948E+02 0.13188500829E+02 0.14156721960E+02
 0.14156704711E+02 0.13188416968E+02 0.11488991464E+02 0.94266175564E+01 0.73579869775E+01
 0.55294206885E+01 0.40540235141E+01 0.29434948509E+01 0.21552054408E+01 0.16294778314E+01
 0.10997770376E+01 0.10385950821E+01 0.10997230911E+01 0.12911743370E+01 0.16365035281E+01
 0.21726633600E+01 0.29438192478E+01 0.39882412392E+01 0.53153206336E+01 0.68731967473E+01
 0.85184512494E+01 0.10012839729E+02 0.11070953677E+02 0.11454744292E+02 0.11070983339E+02
 0.10012886677E+02 0.85184879174E+01 0.68731733562E+01 0.53151786727E+01 0.39879687314E+01
 0.29434948509E+01 0.21724163903E+01 0.16364107907E+01 0.12912040946E+01 0.97042753661E+00
 0.97037235035E+00 0.10712293264E+01 0.12854238851E+01 0.16365340184E+01 0.21555047486E+01
 0.28725620396E+01 0.38032419934E+01 0.49279606223E+01 0.61693242219E+01 0.73803353816E+01
 0.83615707635E+01 0.89147514444E+01 0.89147398822E+01 0.83615661136E+01 0.73803717450E+01
 0.61693551997E+01 0.49278766713E+01 0.38029846817E+01 0.28722046555E+01 0.21552054408E+01
 0.16364107907E+01 0.12854725298E+01 0.10713426273E+01 0.90958708881E+00 0.94871267791E+00
 0.10711929393E+01 0.12911749709E+01 0.16296238981E+01 0.21091554547E+01 0.27452528763E+01
 0.35335998894E+01 0.44349559645E+01 0.53635084000E+01 0.61896101711E+01 0.67659609554E+01
 0.69733986662E+01 0.67659339758E+01 0.61895858959E+01 0.53634857832E+01 0.44348788979E+01
 0.35334145955E+01 0.27449780533E+01 0.21088878531E+01 0.16294778314E+01 0.12912040946E+01
 0.10713426273E+01 0.94884625956E+00 0.10265966293E+01 0.10996219532E+01 0.12313254534E+01
 0.14338048328E+01 0.17183885430E+01 0.20902874950E+01 0.25423055462E+01 0.30484735897E+01
 0.35600369326E+01 0.40082398439E+01 0.43176918601E+01 0.44284874998E+01 0.43176758783E+01
 0.40082119779E+01 0.35599870349E+01 0.30483901107E+01 0.25422103219E+01 0.20902301055E+01
 0.17184030218E+01 0.14338914962E+01 0.12314656000E+01 0.10997783039E+01 0.10267045208E+01
 0.10033741335E+01 0.10996219532E+01 0.11625088506E+01 0.12698741713E+01 0.14324144865E+01
 0.16573339334E+01 0.19440141585E+01 0.22799744537E+01 0.26379261560E+01 0.29758407996E+01
 0.32426853888E+01 0.33907157978E+01 0.33907045601E+01 0.32426621534E+01 0.29758196645E+01
 0.26379047947E+01 0.22799482515E+01 0.19439995197E+01 0.16573589472E+01 0.14324894502E+01
 0.12699827422E+01 0.11626217457E+01 0.10997080477E+01 0.10712174325E+01 0.10711849518E+01
 0.12313254534E+01 0.12698741713E+01 0.13409409258E+01 0.14540877772E+01 0.16136908096E+01
 0.18160426689E+01 0.20473235675E+01 0.22829885863E+01 0.24899336870E+01 0.26328244243E+01
 0.26839565245E+01 0.26327768677E+01 0.24898655762E+01 0.22829358649E+01 0.20473123206E+01
 0.18160809709E+01 0.16137680851E+01 0.14541794713E+01 0.13410209970E+01 0.12699288135E+01
 0.12313556376E+01 0.12141727108E+01 0.12095586919E+01 0.12141599492E+01 0.14338048328E+01
 0.14324144865E+01 0.14540877772E+01 0.15081751173E+01 0.15979354059E+01 0.17189957126E+01
 0.18587394473E+01 0.19970312895E+01 0.21092956120E+01 0.21724825297E+01 0.21724433885E+01
 0.21091926865E+01 0.19969082492E+01 0.18586595025E+01 0.17190102427E+01 0.15980460629E+01
 0.15083261645E+01 0.14542042230E+01 0.14324547389E+01 0.14337816080E+01 0.14454398277E+01
 0.14550966956E+01 0.14551157651E+01 0.14454815379E+01 0.17183885430E+01 0.16573339334E+01
 0.16136908096E+01 0.15979354059E+01 0.16136925938E+01 0.16573369299E+01 0.17183945393E+01
 0.17811508642E+01 0.18281809395E+01 0.18455981174E+01 0.18280912265E+01 0.17810249099E+01
 0.17183058420E+01 0.16573379203E+01 0.16137892410E+01 0.15980851487E+01 0.16138235853E+01
 0.16573904933E+01 0.17183562087E+01 0.17810589697E+01 0.18281040110E+01 0.18455930881E+01
 0.18281678611E+01 0.17811396201E+01 0.20902874950E+01 0.19440141585E+01 0.18160426689E+01
 0.17189957126E+01 0.16573369299E+01 0.16282132940E+01 0.16229710004E+01 0.16296268038E+01
 0.16365347790E+01 0.16364930713E+01 0.16295395838E+01 0.16229180411E+01 0.16282497125E+01
 0.16574565260E+01 0.17191445141E+01 0.18161553070E+01 0.19440449577E+01 0.20902290642E+01
 0.22343626686E+01 0.23512690146E+01 0.24171054876E+01 0.24171486880E+01 0.23513756109E+01
 0.22344757275E+01 0.25423055462E+01 0.22799744537E+01 0.20473235675E+01 0.18587394473E+01
 0.17183945393E+01 0.16229710004E+01 0.15646885433E+01 0.15345132706E+01 0.15253432947E+01
 0.15345020735E+01 0.15646926296E+01 0.16230233378E+01 0.17185063525E+01 0.18588840622E+01
 0.20474460984E+01 0.22800219065E+01 0.25422560737E+01 0.28080504791E+01 0.30412186582E+01
 0.32023314964E+01 0.32600756537E+01 0.32024263603E+01 0.30413624615E+01 0.28081755306E+01
 0.30484735897E+01 0.26379261560E+01 0.22829885863E+01 0.19970312895E+01 0.17811508642E+01
 0.16296268038E+01 0.15345132706E+01 0.14889156452E+01 0.14889444494E+01 0.15345880700E+01
 0.16297262279E+01 0.17812612553E+01 0.19971424559E+01 0.22830858007E+01 0.26379969828E+01
 0.30485109823E+01 0.34840459774E+01 0.38954320992E+01 0.42210734959E+01 0.44021423862E+01
 0.44021763663E+01 0.42211453258E+01 0.38954854622E+01 0.34840519148E+01 0.35600369326E+01
 0.29758407996E+01 0.24899336870E+01 0.21092956120E+01 0.18281809395E+01 0.16365347790E+01
 0.15253432947E+01 0.14889444494E+01 0.15254461435E+01 0.16366881869E+01 0.18283387400E+01
 0.21094393638E+01 0.24900479579E+01 0.29759199850E+01 0.35601141184E+01 0.42130008431E+01
 0.48747825178E+01 0.54573444625E+01 0.58613091910E+01 0.60063032149E+01 0.58612496582E+01
 0.54572229025E+01 0.48746344086E+01 0.42128829904E+01 0.40082398439E+01 0.32426853888E+01
 0.26328244243E+01 0.21724825297E+01 0.18455981174E+01 0.16364930713E+01 0.15345020735E+01
 0.15345880700E+01 0.16366881869E+01 0.18458019858E+01 0.21726686600E+01 0.26330039048E+01
 0.32428371515E+01 0.40083582030E+01 0.49105572237E+01 0.58885717104E+01 0.68312217640E+01
 0.75894180866E+01 0.80152196522E+01 0.80151409692E+01 0.75891993357E+01 0.68309358472E+01
 0.58883298861E+01 0.49104065524E+01 0.43176918601E+01 0.33907157978E+01 0.26839565245E+01
 0.21724433885E+01 0.18280912265E+01 0.16295395838E+01 0.15646926296E+01 0.16297262279E+01
 0.18283387400E+01 0.21726686600E+01 0.26841663253E+01 0.33909041905E+01 0.43178336392E+01
 0.54678794440E+01 0.67954219752E+01 0.81818239196E+01 0.94325092508E+01 0.10314796770E+02
 0.10634282151E+02 0.10314679399E+02 0.94322552673E+01 0.81815075986E+01 0.67951762463E+01
 0.54677308572E+01 0.44284874998E+01 0.33907045601E+01 0.26327768677E+01 0.21091926865E+01
 0.17810249099E+01 0.16229180411E+01 0.16230233378E+01 0.17812612553E+01 0.21094393638E+01
 0.26330039048E+01 0.33909041905E+01 0.44286110752E+01 0.57793670772E+01 0.74309374183E+01
 0.92836260535E+01 0.11121710542E+02 0.12632513013E+02 0.13492411433E+02 0.13492394947E+02
 0.12632396316E+02 0.11121445716E+02 0.92833428457E+01 0.74307813916E+01 0.57792942894E+01
 0.43176758783E+01 0.32426621534E+01 0.24898655762E+01 0.19969082492E+01 0.17183058420E+01
 0.16282497125E+01 0.17185063525E+01 0.19971424559E+01 0.24900479579E+01 0.32428371515E+01
 0.43178336392E+01 0.57793670772E+01 0.76602156208E+01 0.99075684744E+01 0.12325727872E+02
 0.14558678175E+02 0.16158987846E+02 0.16743123692E+02 0.16158910738E+02 0.14558476341E+02
 0.12325477550E+02 0.99074243711E+01 0.76601795646E+01 0.57792965854E+01 0.40082119779E+01
 0.29758196645E+01 0.22829358649E+01 0.18586595025E+01 0.16573379203E+01 0.16574565260E+01
 0.18588840622E+01 0.22830858007E+01 0.29759199850E+01 0.40083582030E+01 0.54678794440E+01
 0.74309374183E+01 0.99075684744E+01 0.12763919107E+02 0.15661950245E+02 0.18082694726E+02
 0.19473784003E+02 0.19473732233E+02 0.18082523922E+02 0.15661702630E+02 0.12763735259E+02
 0.99075041908E+01 0.74308763447E+01 0.54677375001E+01 0.35599870349E+01 0.26379047947E+01
 0.20473123206E+01 0.17190102427E+01 0.16137892410E+01 0.17191445141E+01 0.20474460984E+01
 0.26379969828E+01 0.35601141184E+01 0.49105572237E+01 0.67954219752E+01 0.92836260535E+01
 0.12325727872E+02 0.15661950245E+02 0.18787082797E+02 0.21047972515E+02 0.21877061210E+02
 0.21047896016E+02 0.18786875169E+02 0.15661679368E+02 0.12325545702E+02 0.92835430300E+01
 0.67953156127E+01 0.49103981668E+01 0.30483901107E+01 0.22799482515E+01 0.18160809709E+01
 0.15980460629E+01 0.15980851487E+01 0.18161553070E+01 0.22800219065E+01 0.30485109823E+01
 0.42130008431E+01 0.58885717104E+01 0.81818239196E+01 0.11121710542E+02 0.14558678175E+02
 0.18082694726E+02 0.21047972515E+02 0.22759279928E+02 0.22759265322E+02 0.21047863137E+02
 0.18082442559E+02 0.14558402028E+02 0.11121537597E+02 0.81817070507E+01 0.58884078446E+01
 0.42128171860E+01 0.25422103219E+01 0.19439995197E+01 0.16137680851E+01 0.15083261645E+01
 0.16138235853E+01 0.19440449577E+01 0.25422560737E+01 0.34840459774E+01 0.48747825178E+01
 0.68312217640E+01 0.94325092508E+01 0.12632513013E+02 0.16158987846E+02 0.19473784003E+02
 0.21877061210E+02 0.22759265322E+02 0.21877002011E+02 0.19473614106E+02 0.16158730539E+02
 0.12632258124E+02 0.94322804254E+01 0.68309813917E+01 0.48745576315E+01 0.34839151553E+01
 0.20902301055E+01 0.16573589472E+01 0.14541794713E+01 0.14542042230E+01 0.16573904933E+01
 0.20902290642E+01 0.28080504791E+01 0.38954320992E+01 0.54573444625E+01 0.75894180866E+01
 0.10314796770E+02 0.13492411433E+02 0.16743123692E+02 0.19473732233E+02 0.21047896016E+02
 0.21047863137E+02 0.19473614106E+02 0.16742903995E+02 0.13492119042E+02 0.10314469226E+02
 0.75890806648E+01 0.54570545608E+01 0.38952693604E+01 0.28080176577E+01 0.17184030218E+01
 0.14324894502E+01 0.13410209970E+01 0.14324547389E+01 0.17183562087E+01 0.22343626686E+01
 0.30412186582E+01 0.42210734959E+01 0.58613091910E+01 0.80152196522E+01 0.10634282151E+02
 0.13492394947E+02 0.16158910738E+02 0.18082523922E+02 0.18786875169E+02 0.18082442559E+02
 0.16158730539E+02 0.13492119042E+02 0.10633948263E+02 0.80148768490E+01 0.58610060259E+01
 0.42208586881E+01 0.30411231203E+01 0.22343680714E+01 0.14338914962E+01 0.12699827422E+01
 0.12699288135E+01 0.14337816080E+01 0.17810589697E+01 0.23512690146E+01 0.32023314964E+01
 0.44021423862E+01 0.60063032149E+01 0.80151409692E+01 0.10314679399E+02 0.12632396316E+02
 0.14558476341E+02 0.15661702630E+02 0.15661679368E+02 0.14558402028E+02 0.12632258124E+02
 0.10314469226E+02 0.80148768490E+01 0.60060313990E+01 0.44019113435E+01 0.32021786506E+01