    2    2   15    1
  0.2001288E+02  0.3839590E-09  0.3839590E-09  0.3839590E-09  0.5000000E-15
  1.000000000000000E-004
  CAR 
 unknown system                          
      8     60      8
 
  0.6250000E-01  0.6250000E-01  0.6250000E-01  0.3906250E-02
    1       -6.153035   1.000000
    2        5.124015   1.000000
    3        5.578910   0.998513
    4        5.578910   0.998513
    5        8.266205   0.000000
    6        8.355701   0.000000
    7        8.355701   0.000000
    8        9.162202   0.000000
 
  0.1875000E+00  0.6250000E-01  0.6250000E-01  0.1171875E-01
    1       -5.886372   1.000000
    2        3.611169   1.000000
    3        4.765006   1.000000
    4        5.458626   0.999934
    5        8.320002   0.000000
    6        8.601056   0.000000
    7        8.896546   0.000000
    8       10.660026   0.000000
 
  0.3125000E+00  0.6250000E-01  0.6250000E-01  0.1171875E-01
    1       -5.242839   1.000000
    2        1.385659   1.000000
    3        4.274382   1.000000
    4        4.989444   1.000000
    5        7.878454   0.000000
    6        9.108564   0.000000
    7        9.406786   0.000000
    8       12.245520   0.000000
 
  0.4375000E+00  0.6250000E-01  0.6250000E-01  0.1171875E-01
    1       -4.345694   1.000000
    2       -0.497475   1.000000
    3        4.053784   1.000000
    4        4.578499   1.000000
    5        7.549169   0.000000
    6        9.196689   0.000000
    7        9.208103   0.000000
    8       13.466203   0.000000
 
 -0.4375000E+00  0.6250000E-01  0.6250000E-01  0.1171875E-01
    1       -3.899803   1.000000
    2       -1.195598   1.000000
    3        4.103605   1.000000
    4        4.359512   1.000000
    5        7.469143   0.000000
    6        9.006795   0.000000
    7        9.281064   0.000000
    8       13.529093   0.000000
 
 -0.3125000E+00  0.6250000E-01  0.6250000E-01  0.1171875E-01
    1       -4.652767   1.000000
    2        0.059463   1.000000
    3        4.380474   1.000000
    4        4.394067   1.000000
    5        7.643485   0.000000
    6        9.000620   0.000000
    7        9.529299   0.000000
    8       12.667283   0.000000
 
 -0.1875000E+00  0.6250000E-01  0.6250000E-01  0.1171875E-01
    1       -5.495163   1.000000
    2        2.114136   1.000000
    3        4.660794   1.000000
    4        4.860877   1.000000
    5        8.007421   0.000000
    6        8.838025   0.000000
    7        9.568994   0.000000
    8       11.456524   0.000000
 
 -0.6250000E-01  0.6250000E-01  0.6250000E-01  0.1171875E-01
    1       -6.018999   1.000000
    2        4.366092   1.000000
    3        5.149217   1.000000
    4        5.308769   0.999999
    5        8.069695   0.000000
    6        8.632979   0.000000
    7        8.941067   0.000000
    8        9.914412   0.000000
 
  0.1875000E+00  0.1875000E+00  0.6250000E-01  0.1171875E-01
    1       -5.752183   1.000000
    2        3.467643   1.000000
    3        4.585846   1.000000
    4        4.670407   1.000000
    5        7.653010   0.000000
    6        9.395559   0.000000
    7        9.811247   0.000000
    8       10.321664   0.000000
 
  0.3125000E+00  0.1875000E+00  0.6250000E-01  0.2343750E-01
    1       -5.230329   1.000000
    2        1.965631   1.000000
    3        3.615091   1.000000
    4        4.408181   1.000000
    5        7.827526   0.000000
    6        9.508401   0.000000
    7       10.194077   0.000000
    8       10.620946   0.000000
 
  0.4375000E+00  0.1875000E+00  0.6250000E-01  0.2343750E-01
    1       -4.389732   1.000000
    2        0.111241   1.000000
    3        3.119033   1.000000
    4        3.996900   1.000000
    5        8.027700   0.000000
    6        9.455243   0.000000
    7       10.640365   0.000000
    8       10.948040   0.000000
 
 -0.4375000E+00  0.1875000E+00  0.6250000E-01  0.2343750E-01
    1       -3.632295   1.000000
    2       -1.094955   1.000000
    3        2.827992   1.000000
    4        3.902145   1.000000
    5        8.090868   0.000000
    6        9.154608   0.000000
    7       10.505995   0.000000
    8       12.954604   0.000000
 
 -0.3125000E+00  0.1875000E+00  0.6250000E-01  0.2343750E-01
    1       -4.087746   1.000000
    2       -0.406599   1.000000
    3        2.756278   1.000000
    4        4.188852   1.000000
    5        8.366405   0.000000
    6        9.078167   0.000000
    7       10.443932   0.000000
    8       12.216092   0.000000
 
 -0.1875000E+00  0.1875000E+00  0.6250000E-01  0.2343750E-01
    1       -4.983726   1.000000
    2        1.316065   1.000000
    3        3.059889   1.000000
    4        4.698591   1.000000
    5        8.685144   0.000000
    6        8.992603   0.000000
    7       10.314234   0.000000
    8       10.813500   0.000000
 
 -0.6250000E-01  0.1875000E+00  0.6250000E-01  0.2343750E-01
    1       -5.622496   1.000000
    2        2.792937   1.000000
    3        4.186791   1.000000
    4        5.075333   1.000000
    5        8.220588   0.000000
    6        8.872868   0.000000
    7        9.625668   0.000000
    8       10.864165   0.000000
 
  0.3125000E+00  0.3125000E+00  0.6250000E-01  0.1171875E-01
    1       -4.831806   1.000000
    2        1.460239   1.000000
    3        3.469268   1.000000
    4        3.589326   1.000000
    5        6.847419   0.000000
    6        8.537057   0.000000
    7       11.681847   0.000000
    8       11.837223   0.000000
 
  0.4375000E+00  0.3125000E+00  0.6250000E-01  0.2343750E-01
    1       -4.083799   1.000000
    2        0.225954   1.000000
    3        2.684162   1.000000
    4        3.242192   1.000000
    5        7.168517   0.000000
    6        8.358371   0.000000
    7       11.649356   0.000000
    8       12.833804   0.000000
 
 -0.4375000E+00  0.3125000E+00  0.6250000E-01  0.2343750E-01
    1       -3.190269   1.000000
    2       -0.968110   1.000000
    3        1.847144   1.000000
    4        3.210052   1.000000
    5        7.406799   0.000000
    6       10.034769   0.000000
    7       11.210107   0.000000
    8       12.742661   0.000000
 
 -0.3125000E+00  0.3125000E+00  0.6250000E-01  0.2343750E-01
    1       -3.261690   1.000000
    2       -0.875351   1.000000
    3        1.495365   1.000000
    4        3.554467   1.000000
    5        7.810754   0.000000
    6       10.765737   0.000000
    7       12.050387   0.000000
    8       12.424456   0.000000
 
 -0.1875000E+00  0.3125000E+00  0.6250000E-01  0.2343750E-01
    1       -4.153192   1.000000
    2        0.075938   1.000000
    3        2.098859   1.000000
    4        4.143649   1.000000
    5        8.439398   0.000000
    6        9.654641   0.000000
    7       11.073183   0.000000
    8       11.400346   0.000000
 
 -0.6250000E-01  0.3125000E+00  0.6250000E-01  0.2343750E-01
    1       -4.871059   1.000000
    2        0.713057   1.000000
    3        3.730421   1.000000
    4        4.598560   1.000000
    5        8.142600   0.000000
    6        9.016867   0.000000
    7        9.883743   0.000000
    8       11.599240   0.000000
 
  0.4375000E+00  0.4375000E+00  0.6250000E-01  0.1171875E-01
    1       -3.433025   1.000000
    2       -0.634255   1.000000
    3        2.778538   1.000000
    4        2.993315   1.000000
    5        6.466241   0.000477
    6        7.171980   0.000000
    7       13.999653   0.000000
    8       14.012784   0.000000
 
 -0.4375000E+00  0.4375000E+00  0.6250000E-01  0.2343750E-01
    1       -2.527454   1.000000
    2       -1.620480   1.000000
    3        2.224051   1.000000
    4        2.751433   1.000000
    5        6.894666   0.000000
    6        7.622255   0.000000
    7       13.735352   0.000000
    8       14.719343   0.000000
 
 -0.3125000E+00  0.4375000E+00  0.6250000E-01  0.2343750E-01
    1       -2.624841   1.000000
    2       -1.455930   1.000000
    3        1.498545   1.000000
    4        3.065894   1.000000
    5        7.256999   0.000000
    6        9.869301   0.000000
    7       12.200689   0.000000
    8       13.329170   0.000000
 
 -0.1875000E+00  0.4375000E+00  0.6250000E-01  0.2343750E-01
    1       -3.377767   1.000000
    2       -1.050262   1.000000
    3        2.049709   1.000000
    4        3.668782   1.000000
    5        7.927975   0.000000
    6        9.902375   0.000000
    7       11.458554   0.000000
    8       12.714346   0.000000
 
 -0.6250000E-01  0.4375000E+00  0.6250000E-01  0.2343750E-01
    1       -3.983936   1.000000
    2       -0.899578   1.000000
    3        3.552631   1.000000
    4        4.260264   1.000000
    5        7.928731   0.000000
    6        8.931991   0.000000
    7        9.715399   0.000000
    8       13.262152   0.000000
 
 -0.4375000E+00 -0.4375000E+00  0.6250000E-01  0.1171875E-01
    1       -2.578325   1.000000
    2       -1.637887   1.000000
    3        2.640176   1.000000
    4        2.871278   1.000000
    5        6.459186   0.000569
    6        6.815803   0.000000
    7       15.055090   0.000000
    8       15.115645   0.000000
 
 -0.3125000E+00 -0.4375000E+00  0.6250000E-01  0.2343750E-01
    1       -3.348369   1.000000
    2       -0.698052   1.000000
    3        2.381239   1.000000
    4        2.911347   1.000000
    5        6.981870   0.000000
    6        7.872857   0.000000
    7       12.663740   0.000000
    8       13.995183   0.000000
 
 -0.1875000E+00 -0.4375000E+00  0.6250000E-01  0.2343750E-01
    1       -3.817166   1.000000
    2       -0.437973   1.000000
    3        2.445922   1.000000
    4        3.511285   1.000000
    5        7.683085   0.000000
    6       10.228202   0.000000
    7       10.412564   0.000000
    8       11.675868   0.000000
 
 -0.3125000E+00 -0.3125000E+00  0.6250000E-01  0.1171875E-01
    1       -4.188497   1.000000
    2        0.408100   1.000000
    3        3.054794   1.000000
    4        3.234094   1.000000
    5        6.594027   0.000013
    6        7.749754   0.000000
    7       12.829540   0.000000
    8       12.908669   0.000000
 
 -0.1875000E+00 -0.3125000E+00  0.6250000E-01  0.2343750E-01
    1       -4.714929   1.000000
    2        1.116849   1.000000
    3        3.104272   1.000000
    4        3.754174   1.000000
    5        7.456673   0.000000
    6        9.047978   0.000000
    7       10.702444   0.000000
    8       11.700666   0.000000
 
 -0.1875000E+00 -0.1875000E+00  0.6250000E-01  0.1171875E-01
    1       -5.355107   1.000000
    2        2.489973   1.000000
    3        4.016803   1.000000
    4        4.046882   1.000000
    5        7.217180   0.000000
    6        9.392682   0.000000
    7       10.634931   0.000000
    8       10.795577   0.000000
 
  0.1875000E+00  0.1875000E+00  0.1875000E+00  0.3906250E-02
    1       -5.755413   1.000000
    2        2.884825   1.000000
    3        5.129851   1.000000
    4        5.129851   1.000000
    5        7.872366   0.000000
    6        8.980820   0.000000
    7        8.980820   0.000000
    8       11.304719   0.000000
 
  0.3125000E+00  0.1875000E+00  0.1875000E+00  0.1171875E-01
    1       -5.364983   1.000000
    2        2.044726   1.000000
    3        3.613978   1.000000
    4        5.149457   1.000000
    5        8.530466   0.000000
    6        9.106195   0.000000
    7        9.415457   0.000000
    8       11.398505   0.000000
 
  0.4375000E+00  0.1875000E+00  0.1875000E+00  0.1171875E-01
    1       -4.621121   1.000000
    2        0.675673   1.000000
    3        2.531091   1.000000
    4        4.639223   1.000000
    5        8.390909   0.000000
    6        9.870149   0.000000
    7       10.094244   0.000000
    8       11.676295   0.000000
 
 -0.4375000E+00  0.1875000E+00  0.1875000E+00  0.1171875E-01
    1       -3.730496   1.000000
    2       -0.810108   1.000000
    3        2.377828   1.000000
    4        4.106013   1.000000
    5        7.892704   0.000000
    6       10.050313   0.000000
    7       10.285652   0.000000
    8       13.561805   0.000000
 
 -0.3125000E+00  0.1875000E+00  0.1875000E+00  0.1171875E-01
    1       -3.714976   1.000000
    2       -0.838552   1.000000
    3        2.676428   1.000000
    4        3.784769   1.000000
    5        7.614980   0.000000
    6       10.115765   0.000000
    7       10.636009   0.000000
    8       11.615315   0.000000
 
 -0.1875000E+00  0.1875000E+00  0.1875000E+00  0.1171875E-01
    1       -4.604325   1.000000
    2        0.672541   1.000000
    3        3.291925   1.000000
    4        3.760033   1.000000
    5        7.549385   0.000000
    6        9.746703   0.000000
    7       10.417077   0.000000
    8       11.005213   0.000000
 
  0.3125000E+00  0.3125000E+00  0.1875000E+00  0.1171875E-01
    1       -5.109312   1.000000
    2        1.379201   1.000000
    3        4.121009   1.000000
    4        4.183423   1.000000
    5        7.937838   0.000000
    6        9.304564   0.000000
    7       10.253175   0.000000
    8       10.647187   0.000000
 
  0.4375000E+00  0.3125000E+00  0.1875000E+00  0.2343750E-01
    1       -4.485446   1.000000
    2        0.611040   1.000000
    3        2.587402   1.000000
    4        3.987770   1.000000
    5        8.437229   0.000000
    6        9.481668   0.000000
    7        9.996623   0.000000
    8       11.522155   0.000000
 
 -0.4375000E+00  0.3125000E+00  0.1875000E+00  0.2343750E-01
    1       -3.597725   1.000000
    2       -0.489881   1.000000
    3        1.798259   1.000000
    4        3.417206   1.000000
    5        8.896303   0.000000
    6        9.385572   0.000000
    7       10.667089   0.000000
    8       12.631842   0.000000
 
 -0.3125000E+00  0.3125000E+00  0.1875000E+00  0.2343750E-01
    1       -3.112231   1.000000
    2       -1.102863   1.000000
    3        1.801680   1.000000
    4        3.104343   1.000000
    5        8.422304   0.000000
    6        9.713643   0.000000
    7       11.456094   0.000000
    8       12.742896   0.000000
 
 -0.1875000E+00  0.3125000E+00  0.1875000E+00  0.2343750E-01
    1       -3.881549   1.000000
    2       -0.098150   1.000000
    3        2.223085   1.000000
    4        3.282860   1.000000
    5        8.149714   0.000000
    6        9.377403   0.000000
    7       10.242776   0.000000
    8       12.751376   0.000000
 
  0.4375000E+00  0.4375000E+00  0.1875000E+00  0.1171875E-01
    1       -3.990565   1.000000
    2       -0.041346   1.000000
    3        2.558036   1.000000
    4        3.428348   1.000000
    5        7.168789   0.000000
    6        9.208814   0.000000
    7       11.478453   0.000000
    8       11.839607   0.000000
 
 -0.4375000E+00  0.4375000E+00  0.1875000E+00  0.2343750E-01
    1       -3.189887   1.000000
    2       -0.837895   1.000000
    3        1.979013   1.000000
    4        2.746126   1.000000
    5        7.946127   0.000000
    6        8.963442   0.000000
    7       11.141526   0.000000
    8       13.953847   0.000000
 
 -0.3125000E+00  0.4375000E+00  0.1875000E+00  0.2343750E-01
    1       -2.384717   1.000000
    2       -1.591461   1.000000
    3        1.661154   1.000000
    4        2.247074   1.000000
    5        9.076631   0.000000
    6       10.013597   0.000000
    7       10.683921   0.000000
    8       11.697790   0.000000
 
 -0.1875000E+00  0.4375000E+00  0.1875000E+00  0.2343750E-01
    1       -2.985109   1.000000
    2       -1.045253   1.000000
    3        1.654556   1.000000
    4        2.722157   1.000000
    5        9.174670   0.000000
    6        9.604309   0.000000
    7       10.362533   0.000000
    8       12.868262   0.000000
 
 -0.4375000E+00 -0.4375000E+00  0.1875000E+00  0.1171875E-01
    1       -2.548114   1.000000
    2       -1.570494   1.000000
    3        1.764752   1.000000
    4        3.083120   1.000000
    5        6.735218   0.000000
    6        8.641349   0.000000
    7       13.651347   0.000000
    8       13.838659   0.000000
 
 -0.3125000E+00 -0.4375000E+00  0.1875000E+00  0.2343750E-01
    1       -2.447865   1.000000
    2       -1.599971   1.000000
    3        1.859052   1.000000
    4        2.459900   1.000000
    5        7.839940   0.000000
    6        8.759041   0.000000
    7       12.149172   0.000000
    8       13.264721   0.000000
 
 -0.3125000E+00 -0.3125000E+00  0.1875000E+00  0.1171875E-01
    1       -3.287327   1.000000
    2       -0.800578   1.000000
    3        2.031420   1.000000
    4        3.199090   1.000000
    5        6.885733   0.000000
    6        8.827377   0.000000
    7       12.645211   0.000000
    8       12.744841   0.000000
 
  0.3125000E+00  0.3125000E+00  0.3125000E+00  0.3906250E-02
    1       -5.002336   1.000000
    2        0.683128   1.000000
    3        4.712566   1.000000
    4        4.712566   1.000000
    5        7.427108   0.000000
    6        9.232857   0.000000
    7        9.232857   0.000000
    8       13.293968   0.000000
 
  0.4375000E+00  0.3125000E+00  0.3125000E+00  0.1171875E-01
    1       -4.524659   1.000000
    2        0.105237   1.000000
    3        3.245793   1.000000
    4        4.623579   1.000000
    5        8.147791   0.000000
    6        9.460311   0.000000
    7        9.507854   0.000000
    8       12.697848   0.000000
 
 -0.4375000E+00  0.3125000E+00  0.3125000E+00  0.1171875E-01
    1       -3.735870   1.000000
    2       -0.426611   1.000000
    3        1.717775   1.000000
    4        4.038692   1.000000
    5        7.819531   0.000000
    6       10.902933   0.000000
    7       11.080863   0.000000
    8       12.447032   0.000000
 
 -0.3125000E+00  0.3125000E+00  0.3125000E+00  0.1171875E-01
    1       -2.917652   1.000000
    2       -1.206254   1.000000
    3        1.379517   1.000000
    4        3.487521   1.000000
    5        7.200984   0.000000
    6       11.130837   0.000000
    7       12.182559   0.000000
    8       12.427823   0.000000
 
  0.4375000E+00  0.4375000E+00  0.3125000E+00  0.1171875E-01
    1       -4.211855   1.000000
    2       -0.452617   1.000000
    3        3.582001   1.000000
    4        4.056416   1.000000
    5        7.858233   0.000000
    6        9.223494   0.000000
    7       10.000949   0.000000
    8       12.051197   0.000000
 
 -0.4375000E+00  0.4375000E+00  0.3125000E+00  0.2343750E-01
    1       -3.594221   1.000000
    2       -0.810965   1.000000
    3        2.271616   1.000000
    4        3.580868   1.000000
    5        8.639399   0.000000
    6        8.994485   0.000000
    7       11.530991   0.000000
    8       11.810047   0.000000
 
 -0.3125000E+00  0.4375000E+00  0.3125000E+00  0.2343750E-01
    1       -2.779725   1.000000
    2       -1.271095   1.000000
    3        1.471685   1.000000
    4        2.868140   1.000000
    5        8.292892   0.000000
    6       10.558240   0.000000
    7       11.339225   0.000000
    8       11.866019   0.000000
 
 -0.4375000E+00 -0.4375000E+00  0.3125000E+00  0.1171875E-01
    1       -3.237174   1.000000
    2       -1.090400   1.000000
    3        1.877917   1.000000
    4        3.588050   1.000000
    5        7.349536   0.000000
    6       11.096947   0.000000
    7       11.399805   0.000000
    8       11.440789   0.000000
 
  0.4375000E+00  0.4375000E+00  0.4375000E+00  0.3906250E-02
    1       -4.116566   1.000000
    2       -0.960420   1.000000
    3        4.489477   1.000000
    4        4.489477   1.000000
    5        7.156855   0.000000
    6        9.110650   0.000000
    7        9.110650   0.000000
    8       13.413453   0.000000
 
 -0.4375000E+00  0.4375000E+00  0.4375000E+00  0.1171875E-01
    1       -3.766837   1.000000
    2       -1.135705   1.000000
    3        3.262947   1.000000
    4        4.221081   1.000000
    5        7.884249   0.000000
    6        9.224651   0.000000
    7        9.692822   0.000000
    8       13.819711   0.000000
