<?xml version="1.0" encoding="ISO-8859-1"?>
<modeling>
 <generator>
  <i name="program" type="string">vasp </i>
  <i name="version" type="string">5.4.4.18Apr17-6-g9f103f2a35  </i>
  <i name="subversion" type="string">(build Dec 09 2018 21:25:21) complex            parallel </i>
  <i name="platform" type="string">IFC18.0.1.163_CrayMPICH7.7.0_MKL18.0.1.163 </i>
  <i name="date" type="string">2019 03 18 </i>
  <i name="time" type="string">04:51:14 </i>
 </generator>
 <incar>
  <i type="string" name="PREC">normal</i>
  <i type="int" name="IBRION">     2</i>
  <i name="EDIFF">      0.00040000</i>
  <i name="EDIFFG">     -0.01000000</i>
  <i type="int" name="NSW">    15</i>
  <i type="int" name="ISIF">     2</i>
  <i name="ENCUT">    150.00000000</i>
  <i type="int" name="NBANDS">     8</i>
  <i type="logical" name="LREAL"> F  </i>
  <i type="int" name="ISMEAR">     0</i>
  <i name="SIGMA">      0.20000000</i>
  <v type="int" name="KPOINT_BSE">    -1     0     0     0</v>
 </incar>
 <structure name="primitive_cell" >
  <crystal>
   <varray name="basis" >
    <v>       0.00000000       2.71500000       2.71500000 </v>
    <v>       2.71500000       0.00000000       2.71500000 </v>
    <v>       2.71500000       2.71500000       0.00000000 </v>
   </varray>
   <i name="volume">     40.02575175 </i>
   <varray name="rec_basis" >
    <v>      -0.18416206       0.18416206       0.18416206 </v>
    <v>       0.18416206      -0.18416206       0.18416206 </v>
    <v>       0.18416206       0.18416206      -0.18416206 </v>
   </varray>
  </crystal>
  <varray name="positions" >
   <v>      -0.50000000      -0.50000000      -0.50000000 </v>
   <v>      -0.25000000      -0.25000000      -0.25000000 </v>
  </varray>
 </structure>
 <varray name="primitive_index" >
  <v type="int" >        1 </v>
  <v type="int" >        2 </v>
 </varray>
 <kpoints>
  <generation param="Monkhorst-Pack">
   <v type="int" name="divisions">       8        8        8 </v>
   <v name="usershift">      0.00000000       0.00000000       0.00000000 </v>
   <v name="genvec1">      0.12500000       0.00000000      -0.00000000 </v>
   <v name="genvec2">      0.00000000       0.12500000       0.00000000 </v>
   <v name="genvec3">     -0.00000000      -0.00000000       0.12500000 </v>
   <v name="shift">      0.50000000       0.50000000       0.50000000 </v>
  </generation>
  <varray name="kpointlist" >
   <v>       0.06250000       0.06250000       0.06250000 </v>
   <v>       0.18750000       0.06250000       0.06250000 </v>
   <v>       0.31250000       0.06250000       0.06250000 </v>
   <v>       0.43750000       0.06250000       0.06250000 </v>
   <v>      -0.43750000       0.06250000       0.06250000 </v>
   <v>      -0.31250000       0.06250000       0.06250000 </v>
   <v>      -0.18750000       0.06250000       0.06250000 </v>
   <v>      -0.06250000       0.06250000       0.06250000 </v>
   <v>       0.18750000       0.18750000       0.06250000 </v>
   <v>       0.31250000       0.18750000       0.06250000 </v>
   <v>       0.43750000       0.18750000       0.06250000 </v>
   <v>      -0.43750000       0.18750000       0.06250000 </v>
   <v>      -0.31250000       0.18750000       0.06250000 </v>
   <v>      -0.18750000       0.18750000       0.06250000 </v>
   <v>      -0.06250000       0.18750000       0.06250000 </v>
   <v>       0.31250000       0.31250000       0.06250000 </v>
   <v>       0.43750000       0.31250000       0.06250000 </v>
   <v>      -0.43750000       0.31250000       0.06250000 </v>
   <v>      -0.31250000       0.31250000       0.06250000 </v>
   <v>      -0.18750000       0.31250000       0.06250000 </v>
   <v>      -0.06250000       0.31250000       0.06250000 </v>
   <v>       0.43750000       0.43750000       0.06250000 </v>
   <v>      -0.43750000       0.43750000       0.06250000 </v>
   <v>      -0.31250000       0.43750000       0.06250000 </v>
   <v>      -0.18750000       0.43750000       0.06250000 </v>
   <v>      -0.06250000       0.43750000       0.06250000 </v>
   <v>      -0.43750000      -0.43750000       0.06250000 </v>
   <v>      -0.31250000      -0.43750000       0.06250000 </v>
   <v>      -0.18750000      -0.43750000       0.06250000 </v>
   <v>      -0.31250000      -0.31250000       0.06250000 </v>
   <v>      -0.18750000      -0.31250000       0.06250000 </v>
   <v>      -0.18750000      -0.18750000       0.06250000 </v>
   <v>       0.18750000       0.18750000       0.18750000 </v>
   <v>       0.31250000       0.18750000       0.18750000 </v>
   <v>       0.43750000       0.18750000       0.18750000 </v>
   <v>      -0.43750000       0.18750000       0.18750000 </v>
   <v>      -0.31250000       0.18750000       0.18750000 </v>
   <v>      -0.18750000       0.18750000       0.18750000 </v>
   <v>       0.31250000       0.31250000       0.18750000 </v>
   <v>       0.43750000       0.31250000       0.18750000 </v>
   <v>      -0.43750000       0.31250000       0.18750000 </v>
   <v>      -0.31250000       0.31250000       0.18750000 </v>
   <v>      -0.18750000       0.31250000       0.18750000 </v>
   <v>       0.43750000       0.43750000       0.18750000 </v>
   <v>      -0.43750000       0.43750000       0.18750000 </v>
   <v>      -0.31250000       0.43750000       0.18750000 </v>
   <v>      -0.18750000       0.43750000       0.18750000 </v>
   <v>      -0.43750000      -0.43750000       0.18750000 </v>
   <v>      -0.31250000      -0.43750000       0.18750000 </v>
   <v>      -0.31250000      -0.31250000       0.18750000 </v>
   <v>       0.31250000       0.31250000       0.31250000 </v>
   <v>       0.43750000       0.31250000       0.31250000 </v>
   <v>      -0.43750000       0.31250000       0.31250000 </v>
   <v>      -0.31250000       0.31250000       0.31250000 </v>
   <v>       0.43750000       0.43750000       0.31250000 </v>
   <v>      -0.43750000       0.43750000       0.31250000 </v>
   <v>      -0.31250000       0.43750000       0.31250000 </v>
   <v>      -0.43750000      -0.43750000       0.31250000 </v>
   <v>       0.43750000       0.43750000       0.43750000 </v>
   <v>      -0.43750000       0.43750000       0.43750000 </v>
  </varray>
  <varray name="weights" >
   <v>       0.00390625 </v>
   <v>       0.01171875 </v>
   <v>       0.01171875 </v>
   <v>       0.01171875 </v>
   <v>       0.01171875 </v>
   <v>       0.01171875 </v>
   <v>       0.01171875 </v>
   <v>       0.01171875 </v>
   <v>       0.01171875 </v>
   <v>       0.02343750 </v>
   <v>       0.02343750 </v>
   <v>       0.02343750 </v>
   <v>       0.02343750 </v>
   <v>       0.02343750 </v>
   <v>       0.02343750 </v>
   <v>       0.01171875 </v>
   <v>       0.02343750 </v>
   <v>       0.02343750 </v>
   <v>       0.02343750 </v>
   <v>       0.02343750 </v>
   <v>       0.02343750 </v>
   <v>       0.01171875 </v>
   <v>       0.02343750 </v>
   <v>       0.02343750 </v>
   <v>       0.02343750 </v>
   <v>       0.02343750 </v>
   <v>       0.01171875 </v>
   <v>       0.02343750 </v>
   <v>       0.02343750 </v>
   <v>       0.01171875 </v>
   <v>       0.02343750 </v>
   <v>       0.01171875 </v>
   <v>       0.00390625 </v>
   <v>       0.01171875 </v>
   <v>       0.01171875 </v>
   <v>       0.01171875 </v>
   <v>       0.01171875 </v>
   <v>       0.01171875 </v>
   <v>       0.01171875 </v>
   <v>       0.02343750 </v>
   <v>       0.02343750 </v>
   <v>       0.02343750 </v>
   <v>       0.02343750 </v>
   <v>       0.01171875 </v>
   <v>       0.02343750 </v>
   <v>       0.02343750 </v>
   <v>       0.02343750 </v>
   <v>       0.01171875 </v>
   <v>       0.02343750 </v>
   <v>       0.01171875 </v>
   <v>       0.00390625 </v>
   <v>       0.01171875 </v>
   <v>       0.01171875 </v>
   <v>       0.01171875 </v>
   <v>       0.01171875 </v>
   <v>       0.02343750 </v>
   <v>       0.02343750 </v>
   <v>       0.01171875 </v>
   <v>       0.00390625 </v>
   <v>       0.01171875 </v>
  </varray>
 </kpoints>
 <parameters>
  <separator name="general" >
   <i type="string" name="SYSTEM">unknown system</i>
   <i type="logical" name="LCOMPAT"> F  </i>
  </separator>
  <separator name="electronic" >
   <i type="string" name="PREC">normal</i>
   <i name="ENMAX">    150.00000000</i>
   <i name="ENAUG">    322.06900000</i>
   <i name="EDIFF">      0.00040000</i>
   <i type="int" name="IALGO">    38</i>
   <i type="int" name="IWAVPR">    11</i>
   <i type="int" name="NBANDS">     8</i>
   <i name="NELECT">      8.00000000</i>
   <i type="int" name="TURBO">     0</i>
   <i type="int" name="IRESTART">     0</i>
   <i type="int" name="NREBOOT">     0</i>
   <i type="int" name="NMIN">     0</i>
   <i name="EREF">      0.00000000</i>
   <separator name="electronic smearing" >
    <i type="int" name="ISMEAR">     0</i>
    <i name="SIGMA">      0.20000000</i>
    <i name="KSPACING">      0.50000000</i>
    <i type="logical" name="KGAMMA"> T  </i>
   </separator>
   <separator name="electronic projectors" >
    <i type="logical" name="LREAL"> F  </i>
    <v name="ROPT">      0.00000000</v>
    <i type="int" name="LMAXPAW">  -100</i>
    <i type="int" name="LMAXMIX">     2</i>
    <i type="logical" name="NLSPLINE"> F  </i>
   </separator>
   <separator name="electronic startup" >
    <i type="int" name="ISTART">     0</i>
    <i type="int" name="ICHARG">     2</i>
    <i type="int" name="INIWAV">     1</i>
   </separator>
   <separator name="electronic spin" >
    <i type="int" name="ISPIN">     1</i>
    <i type="logical" name="LNONCOLLINEAR"> F  </i>
    <v name="MAGMOM">      1.00000000      1.00000000</v>
    <i name="NUPDOWN">     -1.00000000</i>
    <i type="logical" name="LSORBIT"> F  </i>
    <v name="SAXIS">      0.00000000      0.00000000      1.00000000</v>
    <i type="logical" name="LSPIRAL"> F  </i>
    <v name="QSPIRAL">      0.00000000      0.00000000      0.00000000</v>
    <i type="logical" name="LZEROZ"> F  </i>
   </separator>
   <separator name="electronic exchange-correlation" >
    <i type="logical" name="LASPH"> F  </i>
    <i type="logical" name="LMETAGGA"> F  </i>
   </separator>
   <separator name="electronic convergence" >
    <i type="int" name="NELM">    60</i>
    <i type="int" name="NELMDL">    -5</i>
    <i type="int" name="NELMIN">     2</i>
    <i name="ENINI">    150.00000000</i>
    <separator name="electronic convergence detail" >
     <i type="logical" name="LDIAG"> T  </i>
     <i type="logical" name="LSUBROT"> F  </i>
     <i name="WEIMIN">      0.00100000</i>
     <i name="EBREAK">      0.00001250</i>
     <i name="DEPER">      0.30000000</i>
     <i type="int" name="NRMM">     4</i>
     <i name="TIME">      0.40000000</i>
    </separator>
   </separator>
   <separator name="electronic mixer" >
    <i name="AMIX">      0.40000000</i>
    <i name="BMIX">      1.00000000</i>
    <i name="AMIN">      0.10000000</i>
    <i name="AMIX_MAG">      1.60000000</i>
    <i name="BMIX_MAG">      1.00000000</i>
    <separator name="electronic mixer details" >
     <i type="int" name="IMIX">     4</i>
     <i type="logical" name="MIXFIRST"> F  </i>
     <i type="int" name="MAXMIX">   -45</i>
     <i name="WC">    100.00000000</i>
     <i type="int" name="INIMIX">     1</i>
     <i type="int" name="MIXPRE">     1</i>
     <i type="int" name="MREMOVE">     5</i>
    </separator>
   </separator>
   <separator name="electronic dipolcorrection" >
    <i type="logical" name="LDIPOL"> F  </i>
    <i type="logical" name="LMONO"> F  </i>
    <i type="int" name="IDIPOL">     0</i>
    <i name="EPSILON">      1.00000000</i>
    <v name="DIPOL">   -100.00000000   -100.00000000   -100.00000000</v>
    <i name="EFIELD">      0.00000000</i>
   </separator>
  </separator>
  <separator name="grids" >
   <i type="int" name="NGX">    12</i>
   <i type="int" name="NGY">    12</i>
   <i type="int" name="NGZ">    12</i>
   <i type="int" name="NGXF">    24</i>
   <i type="int" name="NGYF">    24</i>
   <i type="int" name="NGZF">    24</i>
   <i type="logical" name="ADDGRID"> F  </i>
  </separator>
  <separator name="ionic" >
   <i type="int" name="NSW">    15</i>
   <i type="int" name="IBRION">     2</i>
   <i type="int" name="MDALGO">     0</i>
   <i type="int" name="ISIF">     2</i>
   <i name="PSTRESS">      0.00000000</i>
   <i name="EDIFFG">     -0.01000000</i>
   <i type="int" name="NFREE">     1</i>
   <i name="POTIM">      0.50000000</i>
   <i name="SMASS">     -3.00000000</i>
   <i name="SCALEE">      1.00000000</i>
  </separator>
  <separator name="ionic md" >
   <i name="TEBEG">      0.00010000</i>
   <i name="TEEND">      0.00010000</i>
   <i type="int" name="NBLOCK">     1</i>
   <i type="int" name="KBLOCK">    15</i>
   <i type="int" name="NPACO">   256</i>
   <i name="APACO">     16.00000000</i>
  </separator>
  <separator name="symmetry" >
   <i type="int" name="ISYM">     2</i>
   <i name="SYMPREC">      0.00001000</i>
  </separator>
  <separator name="dos" >
   <i type="int" name="LORBIT">     0</i>
   <v name="RWIGS">     -1.00000000</v>
   <i type="int" name="NEDOS">   301</i>
   <i name="EMIN">     10.00000000</i>
   <i name="EMAX">    -10.00000000</i>
   <i name="EFERMI">      0.00000000</i>
  </separator>
  <separator name="writing" >
   <i type="int" name="NWRITE">     2</i>
   <i type="logical" name="LWAVE"> T  </i>
   <i type="logical" name="LDOWNSAMPLE"> F  </i>
   <i type="logical" name="LCHARG"> T  </i>
   <i type="logical" name="LPARD"> F  </i>
   <i type="logical" name="LVTOT"> F  </i>
   <i type="logical" name="LVHAR"> F  </i>
   <i type="logical" name="LELF"> F  </i>
   <i type="logical" name="LOPTICS"> F  </i>
   <v name="STM">      0.00000000      0.00000000      0.00000000      0.00000000      0.00000000      0.00000000      0.00000000</v>
  </separator>
  <separator name="performance" >
   <i type="int" name="NPAR">     8</i>
   <i type="int" name="NSIM">     4</i>
   <i type="int" name="NBLK">    -1</i>
   <i type="logical" name="LPLANE"> T  </i>
   <i type="logical" name="LSCALAPACK"> T  </i>
   <i type="logical" name="LSCAAWARE"> F  </i>
   <i type="logical" name="LSCALU"> F  </i>
   <i type="logical" name="LASYNC"> F  </i>
   <i type="logical" name="LORBITALREAL"> F  </i>
  </separator>
  <separator name="miscellaneous" >
   <i type="int" name="IDIOT">     3</i>
   <i type="int" name="ISPECIAL">     0</i>
   <i type="logical" name="LMUSIC"> F  </i>
   <v name="POMASS">     28.08500000</v>
   <v name="DARWINR">      0.00000000</v>
   <v name="DARWINV">      1.00000000</v>
   <i type="logical" name="LCORR"> T  </i>
  </separator>
  <i type="logical" name="GGA_COMPAT"> T  </i>
  <i type="logical" name="LBERRY"> F  </i>
  <i type="int" name="ICORELEVEL">     0</i>
  <i type="logical" name="LDAU"> F  </i>
  <i type="int" name="I_CONSTRAINED_M">     0</i>
  <separator name="electronic exchange-correlation" >
   <i type="string" name="GGA">--</i>
   <i type="int" name="VOSKOWN">     0</i>
   <i type="logical" name="LHFCALC"> F  </i>
   <i type="string" name="PRECFOCK"></i>
   <i type="logical" name="LSYMGRAD"> F  </i>
   <i type="logical" name="LHFONE"> F  </i>
   <i type="logical" name="LRHFCALC"> F  </i>
   <i type="logical" name="LTHOMAS"> F  </i>
   <i type="logical" name="LMODELHF"> F  </i>
   <i name="ENCUT4O">     -1.00000000</i>
   <i type="int" name="EXXOEP">     0</i>
   <i type="int" name="FOURORBIT">     0</i>
   <i name="AEXX">      0.00000000</i>
   <i name="HFALPHA">      0.00000000</i>
   <i name="MCALPHA">      0.00000000</i>
   <i name="ALDAX">      1.00000000</i>
   <i name="AGGAX">      1.00000000</i>
   <i name="ALDAC">      1.00000000</i>
   <i name="AGGAC">      1.00000000</i>
   <i type="int" name="NKREDX">     1</i>
   <i type="int" name="NKREDY">     1</i>
   <i type="int" name="NKREDZ">     1</i>
   <i type="logical" name="SHIFTRED"> F  </i>
   <i type="logical" name="ODDONLY"> F  </i>
   <i type="logical" name="EVENONLY"> F  </i>
   <i type="int" name="LMAXFOCK">     0</i>
   <i type="int" name="NMAXFOCKAE">     0</i>
   <i type="logical" name="LFOCKAEDFT"> F  </i>
   <i name="HFSCREEN">      0.00000000</i>
   <i name="HFSCREENC">      0.00000000</i>
   <i type="int" name="NBANDSGWLOW">     0</i>
  </separator>
  <separator name="vdW DFT" >
   <i type="logical" name="LUSE_VDW"> F  </i>
   <i name="Zab_VDW">     -0.84910000</i>
   <i name="PARAM1">      0.12340000</i>
   <i name="PARAM2">      1.00000000</i>
   <i name="PARAM3">      0.00000000</i>
  </separator>
  <separator name="model GW" >
   <i type="int" name="MODEL_GW">     0</i>
   <i name="MODEL_EPS0">     12.00772552</i>
   <i name="MODEL_ALPHA">      1.00000000</i>
  </separator>
  <separator name="linear response parameters" >
   <i type="logical" name="LEPSILON"> F  </i>
   <i type="logical" name="LRPA"> F  </i>
   <i type="logical" name="LNABLA"> F  </i>
   <i type="logical" name="LVEL"> F  </i>
   <i type="int" name="KINTER">     0</i>
   <i name="CSHIFT">      0.10000000</i>
   <i name="OMEGAMAX">     -1.00000000</i>
   <i name="DEG_THRESHOLD">      0.00200000</i>
   <i name="RTIME">     -0.10000000</i>
   <i name="WPLASMAI">      0.00000000</i>
   <v name="DFIELD">      0.00000000      0.00000000      0.00000000</v>
   <v name="WPLASMA">      0.00000000      0.00000000      0.00000000      0.00000000      0.00000000      0.00000000      0.00000000      0.00000000      0.00000000</v>
  </separator>
  <separator name="orbital magnetization" >
   <i type="logical" name="NUCIND"> F  </i>
   <v name="MAGPOS">      0.00000000      0.00000000      0.00000000</v>
   <i type="logical" name="LNICSALL"> T  </i>
   <i type="logical" name="ORBITALMAG"> F  </i>
   <i type="logical" name="LMAGBLOCH"> F  </i>
   <i type="logical" name="LCHIMAG"> F  </i>
   <i type="logical" name="LGAUGE"> T  </i>
   <i type="int" name="MAGATOM">     0</i>
   <v name="MAGDIPOL">      0.00000000      0.00000000      0.00000000</v>
   <v name="AVECCONST">      0.00000000      0.00000000      0.00000000</v>
  </separator>
  <separator name="response functions" >
   <i type="logical" name="LADDER"> F  </i>
   <i type="logical" name="LRPAFORCE"> F  </i>
   <i type="logical" name="LFXC"> F  </i>
   <i type="logical" name="LHARTREE"> T  </i>
   <i type="int" name="IBSE">     0</i>
   <v type="int" name="KPOINT">    -1     0     0     0</v>
   <i type="logical" name="LTCTE"> F  </i>
   <i type="logical" name="LTETE"> F  </i>
   <i type="logical" name="LTRIPLET"> F  </i>
   <i type="logical" name="LFXCEPS"> F  </i>
   <i type="logical" name="LFXHEG"> F  </i>
   <i type="int" name="NATURALO">     2</i>
   <i type="logical" name="L2ORDER"> F  </i>
   <i type="logical" name="LMP2LT"> F  </i>
   <i type="logical" name="LUSEW"> F  </i>
   <i name="ENCUTGW">     -2.00000000</i>
   <i name="ENCUTGWSOFT">     -2.00000000</i>
   <i name="ENCUTLF">     -1.00000000</i>
   <i type="int" name="LMAXMP2">    -1</i>
   <i name="SCISSOR">      0.00000000</i>
   <i type="int" name="NOMEGA">     0</i>
   <i type="int" name="NOMEGAR">     0</i>
   <i type="int" name="NBANDSGW">    -1</i>
   <i type="int" name="NBANDSO">    -1</i>
   <i type="int" name="NBANDSV">    -1</i>
   <i type="int" name="NELM">     1</i>
   <i type="int" name="NELMHF">     1</i>
   <i type="int" name="DIM">     3</i>
   <i type="int" name="ANTIRES">     0</i>
   <i name="OMEGAMAX">    -30.00000000</i>
   <i name="OMEGAMIN">    -30.00000000</i>
   <i name="OMEGATL">   -200.00000000</i>
   <i type="int" name="OMEGAGRID">   140</i>
   <i name="CSHIFT">     -0.10000000</i>
   <i type="logical" name="SELFENERGY"> F  </i>
   <i type="logical" name="LSPECTRAL"> F  </i>
   <i type="logical" name="LSPECTRALGW"> F  </i>
   <i type="logical" name="LSINGLES"> F  </i>
   <i type="logical" name="LFERMIGW"> F  </i>
   <i type="logical" name="ODDONLYGW"> F  </i>
   <i type="logical" name="EVENONLYGW"> F  </i>
   <i type="int" name="NKREDLFX">     1</i>
   <i type="int" name="NKREDLFY">     1</i>
   <i type="int" name="NKREDLFZ">     1</i>
   <i type="int" name="MAXMEM">  2800</i>
   <i type="int" name="TELESCOPE">     0</i>
   <i type="int" name="TAUPAR">     1</i>
   <i type="int" name="OMEGAPAR">    -1</i>
   <i name="LAMBDA">      1.00000000</i>
  </separator>
  <separator name="External order field" >
   <i name="OFIELD_KAPPA">      0.00000000</i>
   <v name="OFIELD_K">      0.00000000      0.00000000      0.00000000</v>
   <i name="OFIELD_Q6_NEAR">      0.00000000</i>
   <i name="OFIELD_Q6_FAR">      0.00000000</i>
   <i name="OFIELD_A">      0.00000000</i>
  </separator>
 </parameters>
 <atominfo>
  <atoms>       2 </atoms>
  <types>       1 </types>
  <array name="atoms" >
   <dimension dim="1">ion</dimension>
   <field type="string">element</field>
   <field type="int">atomtype</field>
   <set>
    <rc><c>Si</c><c>   1</c></rc>
    <rc><c>Si</c><c>   1</c></rc>
   </set>
  </array>
  <array name="atomtypes" >
   <dimension dim="1">type</dimension>
   <field type="int">atomspertype</field>
   <field type="string">element</field>
   <field>mass</field>
   <field>valence</field>
   <field type="string">pseudopotential</field>
   <set>
    <rc><c>   2</c><c>Si</c><c>     28.08500000</c><c>      4.00000000</c><c> PAW_PBE Si 05Jan2001                   </c></rc>
   </set>
  </array>
 </atominfo>
 <structure name="initialpos" >
  <crystal>
   <varray name="basis" >
    <v>       0.00000000       2.71500000       2.71500000 </v>
    <v>       2.71500000       0.00000000       2.71500000 </v>
    <v>       2.71500000       2.71500000       0.00000000 </v>
   </varray>
   <i name="volume">     40.02575175 </i>
   <varray name="rec_basis" >
    <v>      -0.18416206       0.18416206       0.18416206 </v>
    <v>       0.18416206      -0.18416206       0.18416206 </v>
    <v>       0.18416206       0.18416206      -0.18416206 </v>
   </varray>
  </crystal>
  <varray name="positions" >
   <v>       0.50000000       0.50000000       0.50000000 </v>
   <v>       0.75000000       0.75000000       0.75000000 </v>
  </varray>
 </structure>
 <calculation>
  <scstep>
   <time name="dav">    0.48    0.49</time>
   <time name="total">    0.52    0.54</time>
   <energy>
    <i name="alphaZ">      3.36414203 </i>
    <i name="ewald">   -228.56352493 </i>
    <i name="hartreedc">    -11.00108243 </i>
    <i name="XCdc">    -18.60155909 </i>
    <i name="pawpsdc">     65.95520812 </i>
    <i name="pawaedc">    -30.76852678 </i>
    <i name="eentropy">     -0.01197966 </i>
    <i name="bandstr">      8.98692561 </i>
    <i name="atom">    206.09183643 </i>
    <i name="e_fr_energy">     -4.54856071 </i>
    <i name="e_wo_entrp">     -4.53658105 </i>
    <i name="e_0_energy">     -4.54257088 </i>
   </energy>
  </scstep>
  <scstep>
   <time name="dav">    0.75    0.76</time>
   <time name="total">    0.75    0.76</time>
   <energy>
    <i name="e_fr_energy">    -10.88474526 </i>
    <i name="e_wo_entrp">    -10.88474429 </i>
    <i name="e_0_energy">    -10.88474477 </i>
   </energy>
  </scstep>
  <scstep>
   <time name="dav">    0.49    0.50</time>
   <time name="total">    0.50    0.51</time>
   <energy>
    <i name="e_fr_energy">    -10.92563036 </i>
    <i name="e_wo_entrp">    -10.92562950 </i>
    <i name="e_0_energy">    -10.92562993 </i>
   </energy>
  </scstep>
  <scstep>
   <time name="dav">    0.76    0.77</time>
   <time name="total">    0.76    0.77</time>
   <energy>
    <i name="e_fr_energy">    -10.92570493 </i>
    <i name="e_wo_entrp">    -10.92570406 </i>
    <i name="e_0_energy">    -10.92570450 </i>
   </energy>
  </scstep>
  <scstep>
   <time name="dav">    0.48    0.48</time>
   <time name="total">    0.50    0.51</time>
   <energy>
    <i name="e_fr_energy">    -10.92570494 </i>
    <i name="e_wo_entrp">    -10.92570408 </i>
    <i name="e_0_energy">    -10.92570451 </i>
   </energy>
  </scstep>
  <scstep>
   <time name="dav">    0.52    0.52</time>
   <time name="total">    0.56    0.58</time>
   <energy>
    <i name="e_fr_energy">    -10.80174516 </i>
    <i name="e_wo_entrp">    -10.80173941 </i>
    <i name="e_0_energy">    -10.80174229 </i>
   </energy>
  </scstep>
  <scstep>
   <time name="dav">    0.55    0.55</time>
   <time name="total">    0.58    0.60</time>
   <energy>
    <i name="e_fr_energy">    -10.74375250 </i>
    <i name="e_wo_entrp">    -10.74370580 </i>
    <i name="e_0_energy">    -10.74372915 </i>
   </energy>
  </scstep>
  <scstep>
   <time name="dav">    0.50    0.50</time>
   <time name="total">    0.53    0.55</time>
   <energy>
    <i name="e_fr_energy">    -10.74497954 </i>
    <i name="e_wo_entrp">    -10.74494324 </i>
    <i name="e_0_energy">    -10.74496139 </i>
   </energy>
  </scstep>
  <scstep>
   <time name="dav">    0.34    0.34</time>
   <time name="total">    0.37    0.38</time>
   <energy>
    <i name="alphaZ">      3.36414203 </i>
    <i name="ewald">   -228.56352493 </i>
    <i name="hartreedc">    -14.87439244 </i>
    <i name="XCdc">    -17.92392918 </i>
    <i name="pawpsdc">     76.69359211 </i>
    <i name="pawaedc">    -41.74482987 </i>
    <i name="eentropy">     -0.00003608 </i>
    <i name="bandstr">      6.21207062 </i>
    <i name="atom">    206.09183643 </i>
    <i name="e_fr_energy">    -10.74507130 </i>
    <i name="e_wo_entrp">    -10.74503522 </i>
    <i name="e_0_energy">    -10.74505326 </i>
   </energy>
  </scstep>
  <structure>
   <crystal>
    <varray name="basis" >
     <v>       0.00000000       2.71500000       2.71500000 </v>
     <v>       2.71500000       0.00000000       2.71500000 </v>
     <v>       2.71500000       2.71500000       0.00000000 </v>
    </varray>
    <i name="volume">     40.02575175 </i>
    <varray name="rec_basis" >
     <v>      -0.18416206       0.18416206       0.18416206 </v>
     <v>       0.18416206      -0.18416206       0.18416206 </v>
     <v>       0.18416206       0.18416206      -0.18416206 </v>
    </varray>
   </crystal>
   <varray name="positions" >
    <v>       0.50000000       0.50000000       0.50000000 </v>
    <v>       0.75000000       0.75000000       0.75000000 </v>
   </varray>
  </structure>
  <varray name="forces" >
   <v>      -0.00000000      -0.00000000      -0.00000000 </v>
   <v>       0.00000000       0.00000000       0.00000000 </v>
  </varray>
  <varray name="stress" >
   <v>      19.59985009       0.00000000      -0.00000000 </v>
   <v>       0.00000000      19.59985009      -0.00000000 </v>
   <v>      -0.00000000       0.00000000      19.59985009 </v>
  </varray>
  <energy>
   <i name="e_fr_energy">    -10.74507130 </i>
   <i name="e_wo_entrp">    -10.74505326 </i>
   <i name="e_0_energy">     -0.00003608 </i>
  </energy>
  <time name="totalsc">    5.71    6.35</time>
  <eigenvalues>
   <array>
    <dimension dim="1">band</dimension>
    <dimension dim="2">kpoint</dimension>
    <dimension dim="3">spin</dimension>
    <field>eigene</field>
    <field>occ</field>
    <set>
     <set comment="spin 1">
      <set comment="kpoint 1">
       <r>   -6.0849    1.0000 </r>
       <r>    5.3382    1.0000 </r>
       <r>    5.7893    0.9977 </r>
       <r>    5.7893    0.9977 </r>
       <r>    8.5152    0.0000 </r>
       <r>    8.5805    0.0000 </r>
       <r>    8.5805    0.0000 </r>
       <r>    9.5849    0.0000 </r>
      </set>
      <set comment="kpoint 2">
       <r>   -5.8133    1.0000 </r>
       <r>    3.8169    1.0000 </r>
       <r>    4.9573    1.0000 </r>
       <r>    5.6690    0.9999 </r>
       <r>    8.5997    0.0000 </r>
       <r>    8.8289    0.0000 </r>
       <r>    9.1420    0.0000 </r>
       <r>   11.0373    0.0000 </r>
      </set>
      <set comment="kpoint 3">
       <r>   -5.1571    1.0000 </r>
       <r>    1.5556    1.0000 </r>
       <r>    4.4622    1.0000 </r>
       <r>    5.1919    1.0000 </r>
       <r>    8.1654    0.0000 </r>
       <r>    9.3349    0.0000 </r>
       <r>    9.6384    0.0000 </r>
       <r>   12.5621    0.0000 </r>
      </set>
      <set comment="kpoint 4">
       <r>   -4.2390    1.0000 </r>
       <r>   -0.3636    1.0000 </r>
       <r>    4.2414    1.0000 </r>
       <r>    4.7740    1.0000 </r>
       <r>    7.8353    0.0000 </r>
       <r>    9.4073    0.0000 </r>
       <r>    9.4179    0.0000 </r>
       <r>   13.7341    0.0000 </r>
      </set>
      <set comment="kpoint 5">
       <r>   -3.7791    1.0000 </r>
       <r>   -1.0797    1.0000 </r>
       <r>    4.2946    1.0000 </r>
       <r>    4.5500    1.0000 </r>
       <r>    7.7539    0.0000 </r>
       <r>    9.2097    0.0000 </r>
       <r>    9.4897    0.0000 </r>
       <r>   13.7764    0.0000 </r>
      </set>
      <set comment="kpoint 6">
       <r>   -4.5539    1.0000 </r>
       <r>    0.2050    1.0000 </r>
       <r>    4.5693    1.0000 </r>
       <r>    4.5905    1.0000 </r>
       <r>    7.9265    0.0000 </r>
       <r>    9.2136    0.0000 </r>
       <r>    9.7511    0.0000 </r>
       <r>   12.9298    0.0000 </r>
      </set>
      <set comment="kpoint 7">
       <r>   -5.4145    1.0000 </r>
       <r>    2.2963    1.0000 </r>
       <r>    4.8522    1.0000 </r>
       <r>    5.0642    1.0000 </r>
       <r>    8.2815    0.0000 </r>
       <r>    9.0779    0.0000 </r>
       <r>    9.8107    0.0000 </r>
       <r>   11.7352    0.0000 </r>
      </set>
      <set comment="kpoint 8">
       <r>   -5.9484    1.0000 </r>
       <r>    4.5810    1.0000 </r>
       <r>    5.3487    1.0000 </r>
       <r>    5.5183    1.0000 </r>
       <r>    8.2902    0.0000 </r>
       <r>    8.9043    0.0000 </r>
       <r>    9.1792    0.0000 </r>
       <r>   10.3083    0.0000 </r>
      </set>
      <set comment="kpoint 9">
       <r>   -5.6766    1.0000 </r>
       <r>    3.6842    1.0000 </r>
       <r>    4.7735    1.0000 </r>
       <r>    4.8677    1.0000 </r>
       <r>    7.8628    0.0000 </r>
       <r>    9.6916    0.0000 </r>
       <r>   10.0658    0.0000 </r>
       <r>   10.6111    0.0000 </r>
      </set>
      <set comment="kpoint 10">
       <r>   -5.1448    1.0000 </r>
       <r>    2.1627    1.0000 </r>
       <r>    3.7849    1.0000 </r>
       <r>    4.5996    1.0000 </r>
       <r>    8.0407    0.0000 </r>
       <r>    9.8115    0.0000 </r>
       <r>   10.4007    0.0000 </r>
       <r>   10.8853    0.0000 </r>
      </set>
      <set comment="kpoint 11">
       <r>   -4.2862    1.0000 </r>
       <r>    0.2687    1.0000 </r>
       <r>    3.2892    1.0000 </r>
       <r>    4.1771    1.0000 </r>
       <r>    8.2500    0.0000 </r>
       <r>    9.7146    0.0000 </r>
       <r>   10.9054    0.0000 </r>
       <r>   11.1789    0.0000 </r>
      </set>
      <set comment="kpoint 12">
       <r>   -3.5071    1.0000 </r>
       <r>   -0.9682    1.0000 </r>
       <r>    2.9958    1.0000 </r>
       <r>    4.0793    1.0000 </r>
       <r>    8.3258    0.0000 </r>
       <r>    9.3843    0.0000 </r>
       <r>   10.7567    0.0000 </r>
       <r>   13.2356    0.0000 </r>
      </set>
      <set comment="kpoint 13">
       <r>   -3.9764    1.0000 </r>
       <r>   -0.2613    1.0000 </r>
       <r>    2.9185    1.0000 </r>
       <r>    4.3735    1.0000 </r>
       <r>    8.6256    0.0000 </r>
       <r>    9.2904    0.0000 </r>
       <r>   10.6987    0.0000 </r>
       <r>   12.4795    0.0000 </r>
      </set>
      <set comment="kpoint 14">
       <r>   -4.8930    1.0000 </r>
       <r>    1.5000    1.0000 </r>
       <r>    3.2180    1.0000 </r>
       <r>    4.8955    1.0000 </r>
       <r>    8.9407    0.0000 </r>
       <r>    9.2421    0.0000 </r>
       <r>   10.5725    0.0000 </r>
       <r>   11.0506    0.0000 </r>
      </set>
      <set comment="kpoint 15">
       <r>   -5.5444    1.0000 </r>
       <r>    2.9933    1.0000 </r>
       <r>    4.3676    1.0000 </r>
       <r>    5.2809    1.0000 </r>
       <r>    8.4486    0.0000 </r>
       <r>    9.1618    0.0000 </r>
       <r>    9.8750    0.0000 </r>
       <r>   11.1423    0.0000 </r>
      </set>
      <set comment="kpoint 16">
       <r>   -4.7390    1.0000 </r>
       <r>    1.6657    1.0000 </r>
       <r>    3.6362    1.0000 </r>
       <r>    3.7588    1.0000 </r>
       <r>    7.0382    0.0000 </r>
       <r>    8.7370    0.0000 </r>
       <r>   11.9770    0.0000 </r>
       <r>   12.1236    0.0000 </r>
      </set>
      <set comment="kpoint 17">
       <r>   -3.9760    1.0000 </r>
       <r>    0.4114    1.0000 </r>
       <r>    2.8326    1.0000 </r>
       <r>    3.4033    1.0000 </r>
       <r>    7.3618    0.0000 </r>
       <r>    8.5572    0.0000 </r>
       <r>   11.9406    0.0000 </r>
       <r>   13.1375    0.0000 </r>
      </set>
      <set comment="kpoint 18">
       <r>   -3.0604    1.0000 </r>
       <r>   -0.8108    1.0000 </r>
       <r>    1.9774    1.0000 </r>
       <r>    3.3710    1.0000 </r>
       <r>    7.5995    0.0000 </r>
       <r>   10.2615    0.0000 </r>
       <r>   11.4942    0.0000 </r>
       <r>   13.0468    0.0000 </r>
      </set>
      <set comment="kpoint 19">
       <r>   -3.1319    1.0000 </r>
       <r>   -0.7172    1.0000 </r>
       <r>    1.6151    1.0000 </r>
       <r>    3.7235    1.0000 </r>
       <r>    8.0157    0.0000 </r>
       <r>   11.0195    0.0000 </r>
       <r>   12.3461    0.0000 </r>
       <r>   12.6637    0.0000 </r>
      </set>
      <set comment="kpoint 20">
       <r>   -4.0446    1.0000 </r>
       <r>    0.2451    1.0000 </r>
       <r>    2.2359    1.0000 </r>
       <r>    4.3266    1.0000 </r>
       <r>    8.6738    0.0000 </r>
       <r>    9.8939    0.0000 </r>
       <r>   11.3519    0.0000 </r>
       <r>   11.6520    0.0000 </r>
      </set>
      <set comment="kpoint 21">
       <r>   -4.7776    1.0000 </r>
       <r>    0.8749    1.0000 </r>
       <r>    3.9103    1.0000 </r>
       <r>    4.7943    1.0000 </r>
       <r>    8.4132    0.0000 </r>
       <r>    9.2469    0.0000 </r>
       <r>   10.1210    0.0000 </r>
       <r>   11.8466    0.0000 </r>
      </set>
      <set comment="kpoint 22">
       <r>   -3.3134    1.0000 </r>
       <r>   -0.4615    1.0000 </r>
       <r>    2.9306    1.0000 </r>
       <r>    3.1527    1.0000 </r>
       <r>    6.6424    0.0007 </r>
       <r>    7.3486    0.0000 </r>
       <r>   14.3327    0.0000 </r>
       <r>   14.3349    0.0000 </r>
      </set>
      <set comment="kpoint 23">
       <r>   -2.3888    1.0000 </r>
       <r>   -1.4648    1.0000 </r>
       <r>    2.3595    1.0000 </r>
       <r>    2.9031    1.0000 </r>
       <r>    7.0748    0.0000 </r>
       <r>    7.8159    0.0000 </r>
       <r>   14.0536    0.0000 </r>
       <r>   15.0815    0.0000 </r>
      </set>
      <set comment="kpoint 24">
       <r>   -2.4818    1.0000 </r>
       <r>   -1.3015    1.0000 </r>
       <r>    1.6136    1.0000 </r>
       <r>    3.2241    1.0000 </r>
       <r>    7.4456    0.0000 </r>
       <r>   10.0969    0.0000 </r>
       <r>   12.4928    0.0000 </r>
       <r>   13.6530    0.0000 </r>
      </set>
      <set comment="kpoint 25">
       <r>   -3.2481    1.0000 </r>
       <r>   -0.9117    1.0000 </r>
       <r>    2.1939    1.0000 </r>
       <r>    3.8403    1.0000 </r>
       <r>    8.1396    0.0000 </r>
       <r>   10.1488    0.0000 </r>
       <r>   11.7339    0.0000 </r>
       <r>   12.9922    0.0000 </r>
      </set>
      <set comment="kpoint 26">
       <r>   -3.8677    1.0000 </r>
       <r>   -0.7728    1.0000 </r>
       <r>    3.7345    1.0000 </r>
       <r>    4.4477    1.0000 </r>
       <r>    8.2075    0.0000 </r>
       <r>    9.1328    0.0000 </r>
       <r>    9.9411    0.0000 </r>
       <r>   13.5384    0.0000 </r>
      </set>
      <set comment="kpoint 27">
       <r>   -2.4422    1.0000 </r>
       <r>   -1.4838    1.0000 </r>
       <r>    2.7896    1.0000 </r>
       <r>    3.0287    1.0000 </r>
       <r>    6.6299    0.0009 </r>
       <r>    6.9917    0.0000 </r>
       <r>   15.4085    0.0000 </r>
       <r>   15.4832    0.0000 </r>
      </set>
      <set comment="kpoint 28">
       <r>   -3.2260    1.0000 </r>
       <r>   -0.5259    1.0000 </r>
       <r>    2.5212    1.0000 </r>
       <r>    3.0657    1.0000 </r>
       <r>    7.1672    0.0000 </r>
       <r>    8.0670    0.0000 </r>
       <r>   12.9662    0.0000 </r>
       <r>   14.3236    0.0000 </r>
      </set>
      <set comment="kpoint 29">
       <r>   -3.7012    1.0000 </r>
       <r>   -0.2812    1.0000 </r>
       <r>    2.5984    1.0000 </r>
       <r>    3.6786    1.0000 </r>
       <r>    7.8852    0.0000 </r>
       <r>   10.4547    0.0000 </r>
       <r>   10.6942    0.0000 </r>
       <r>   11.9519    0.0000 </r>
      </set>
      <set comment="kpoint 30">
       <r>   -4.0833    1.0000 </r>
       <r>    0.5987    1.0000 </r>
       <r>    3.2125    1.0000 </r>
       <r>    3.3975    1.0000 </r>
       <r>    6.7767    0.0000 </r>
       <r>    7.9333    0.0000 </r>
       <r>   13.1441    0.0000 </r>
       <r>   13.2101    0.0000 </r>
      </set>
      <set comment="kpoint 31">
       <r>   -4.6194    1.0000 </r>
       <r>    1.3102    1.0000 </r>
       <r>    3.2634    1.0000 </r>
       <r>    3.9283    1.0000 </r>
       <r>    7.6593    0.0000 </r>
       <r>    9.2642    0.0000 </r>
       <r>   10.9790    0.0000 </r>
       <r>   11.9843    0.0000 </r>
      </set>
      <set comment="kpoint 32">
       <r>   -5.2721    1.0000 </r>
       <r>    2.7045    1.0000 </r>
       <r>    4.1974    1.0000 </r>
       <r>    4.2245    1.0000 </r>
       <r>    7.4171    0.0000 </r>
       <r>    9.6361    0.0000 </r>
       <r>   10.9018    0.0000 </r>
       <r>   11.0664    0.0000 </r>
      </set>
      <set comment="kpoint 33">
       <r>   -5.6798    1.0000 </r>
       <r>    3.0761    1.0000 </r>
       <r>    5.3318    1.0000 </r>
       <r>    5.3318    1.0000 </r>
       <r>    8.1573    0.0000 </r>
       <r>    9.2152    0.0000 </r>
       <r>    9.2152    0.0000 </r>
       <r>   11.6943    0.0000 </r>
      </set>
      <set comment="kpoint 34">
       <r>   -5.2818    1.0000 </r>
       <r>    2.2351    1.0000 </r>
       <r>    3.7831    1.0000 </r>
       <r>    5.3554    1.0000 </r>
       <r>    8.8171    0.0000 </r>
       <r>    9.3400    0.0000 </r>
       <r>    9.6587    0.0000 </r>
       <r>   11.7038    0.0000 </r>
      </set>
      <set comment="kpoint 35">
       <r>   -4.5227    1.0000 </r>
       <r>    0.8505    1.0000 </r>
       <r>    2.6781    1.0000 </r>
       <r>    4.8344    1.0000 </r>
       <r>    8.6412    0.0000 </r>
       <r>   10.1137    0.0000 </r>
       <r>   10.3489    0.0000 </r>
       <r>   11.9812    0.0000 </r>
      </set>
      <set comment="kpoint 36">
       <r>   -3.6097    1.0000 </r>
       <r>   -0.6718    1.0000 </r>
       <r>    2.5312    1.0000 </r>
       <r>    4.2895    1.0000 </r>
       <r>    8.1150    0.0000 </r>
       <r>   10.3164    0.0000 </r>
       <r>   10.5190    0.0000 </r>
       <r>   13.8802    0.0000 </r>
      </set>
      <set comment="kpoint 37">
       <r>   -3.5942    1.0000 </r>
       <r>   -0.7005    1.0000 </r>
       <r>    2.8387    1.0000 </r>
       <r>    3.9607    1.0000 </r>
       <r>    7.8216    0.0000 </r>
       <r>   10.3923    0.0000 </r>
       <r>   10.8732    0.0000 </r>
       <r>   11.8796    0.0000 </r>
      </set>
      <set comment="kpoint 38">
       <r>   -4.5061    1.0000 </r>
       <r>    0.8469    1.0000 </r>
       <r>    3.4646    1.0000 </r>
       <r>    3.9338    1.0000 </r>
       <r>    7.7528    0.0000 </r>
       <r>    9.9909    0.0000 </r>
       <r>   10.6876    0.0000 </r>
       <r>   11.2610    0.0000 </r>
      </set>
      <set comment="kpoint 39">
       <r>   -5.0211    1.0000 </r>
       <r>    1.5559    1.0000 </r>
       <r>    4.3139    1.0000 </r>
       <r>    4.3652    1.0000 </r>
       <r>    8.1635    0.0000 </r>
       <r>    9.5938    0.0000 </r>
       <r>   10.5015    0.0000 </r>
       <r>   10.8657    0.0000 </r>
      </set>
      <set comment="kpoint 40">
       <r>   -4.3847    1.0000 </r>
       <r>    0.7909    1.0000 </r>
       <r>    2.7354    1.0000 </r>
       <r>    4.1669    1.0000 </r>
       <r>    8.6596    0.0000 </r>
       <r>    9.7494    0.0000 </r>
       <r>   10.2184    0.0000 </r>
       <r>   11.7987    0.0000 </r>
      </set>
      <set comment="kpoint 41">
       <r>   -3.4770    1.0000 </r>
       <r>   -0.3239    1.0000 </r>
       <r>    1.9268    1.0000 </r>
       <r>    3.5804    1.0000 </r>
       <r>    9.1228    0.0000 </r>
       <r>    9.6203    0.0000 </r>
       <r>   10.9235    0.0000 </r>
       <r>   12.9220    0.0000 </r>
      </set>
      <set comment="kpoint 42">
       <r>   -2.9781    1.0000 </r>
       <r>   -0.9539    1.0000 </r>
       <r>    1.9350    1.0000 </r>
       <r>    3.2589    1.0000 </r>
       <r>    8.6357    0.0000 </r>
       <r>    9.9537    0.0000 </r>
       <r>   11.7219    0.0000 </r>
       <r>   13.0602    0.0000 </r>
      </set>
      <set comment="kpoint 43">
       <r>   -3.7684    1.0000 </r>
       <r>    0.0779    1.0000 </r>
       <r>    2.3618    1.0000 </r>
       <r>    3.4425    1.0000 </r>
       <r>    8.3610    0.0000 </r>
       <r>    9.5922    0.0000 </r>
       <r>   10.5141    0.0000 </r>
       <r>   13.0513    0.0000 </r>
      </set>
      <set comment="kpoint 44">
       <r>   -3.8800    1.0000 </r>
       <r>    0.1314    1.0000 </r>
       <r>    2.7075    1.0000 </r>
       <r>    3.5961    1.0000 </r>
       <r>    7.3581    0.0000 </r>
       <r>    9.4260    0.0000 </r>
       <r>   11.7869    0.0000 </r>
       <r>   12.1053    0.0000 </r>
      </set>
      <set comment="kpoint 45">
       <r>   -3.0624    1.0000 </r>
       <r>   -0.6687    1.0000 </r>
       <r>    2.1092    1.0000 </r>
       <r>    2.8919    1.0000 </r>
       <r>    8.1496    0.0000 </r>
       <r>    9.1764    0.0000 </r>
       <r>   11.4197    0.0000 </r>
       <r>   14.2943    0.0000 </r>
      </set>
      <set comment="kpoint 46">
       <r>   -2.2379    1.0000 </r>
       <r>   -1.4333    1.0000 </r>
       <r>    1.7795    1.0000 </r>
       <r>    2.3790    1.0000 </r>
       <r>    9.2935    0.0000 </r>
       <r>   10.2304    0.0000 </r>
       <r>   10.9649    0.0000 </r>
       <r>   11.9797    0.0000 </r>
      </set>
      <set comment="kpoint 47">
       <r>   -2.8509    1.0000 </r>
       <r>   -0.8820    1.0000 </r>
       <r>    1.7766    1.0000 </r>
       <r>    2.8660    1.0000 </r>
       <r>    9.3909    0.0000 </r>
       <r>    9.8365    0.0000 </r>
       <r>   10.6261    0.0000 </r>
       <r>   13.1628    0.0000 </r>
      </set>
      <set comment="kpoint 48">
       <r>   -2.4068    1.0000 </r>
       <r>   -1.4157    1.0000 </r>
       <r>    1.8866    1.0000 </r>
       <r>    3.2447    1.0000 </r>
       <r>    6.9111    0.0000 </r>
       <r>    8.8528    0.0000 </r>
       <r>   13.9596    0.0000 </r>
       <r>   14.1822    0.0000 </r>
      </set>
      <set comment="kpoint 49">
       <r>   -2.3048    1.0000 </r>
       <r>   -1.4426    1.0000 </r>
       <r>    1.9831    1.0000 </r>
       <r>    2.6001    1.0000 </r>
       <r>    8.0391    0.0000 </r>
       <r>    8.9719    0.0000 </r>
       <r>   12.4385    0.0000 </r>
       <r>   13.5714    0.0000 </r>
      </set>
      <set comment="kpoint 50">
       <r>   -3.1622    1.0000 </r>
       <r>   -0.6336    1.0000 </r>
       <r>    2.1624    1.0000 </r>
       <r>    3.3627    1.0000 </r>
       <r>    7.0660    0.0000 </r>
       <r>    9.0401    0.0000 </r>
       <r>   12.9713    0.0000 </r>
       <r>   13.0251    0.0000 </r>
      </set>
      <set comment="kpoint 51">
       <r>   -4.9114    1.0000 </r>
       <r>    0.8388    1.0000 </r>
       <r>    4.9088    1.0000 </r>
       <r>    4.9088    1.0000 </r>
       <r>    7.7144    0.0000 </r>
       <r>    9.4540    0.0000 </r>
       <r>    9.4540    0.0000 </r>
       <r>   13.6236    0.0000 </r>
      </set>
      <set comment="kpoint 52">
       <r>   -4.4234    1.0000 </r>
       <r>    0.2567    1.0000 </r>
       <r>    3.4168    1.0000 </r>
       <r>    4.8192    1.0000 </r>
       <r>    8.4217    0.0000 </r>
       <r>    9.6873    0.0000 </r>
       <r>    9.7317    0.0000 </r>
       <r>   13.0030    0.0000 </r>
      </set>
      <set comment="kpoint 53">
       <r>   -3.6173    1.0000 </r>
       <r>   -0.2647    1.0000 </r>
       <r>    1.8451    1.0000 </r>
       <r>    4.2204    1.0000 </r>
       <r>    8.0312    0.0000 </r>
       <r>   11.1611    0.0000 </r>
       <r>   11.3543    0.0000 </r>
       <r>   12.7684    0.0000 </r>
      </set>
      <set comment="kpoint 54">
       <r>   -2.7794    1.0000 </r>
       <r>   -1.0521    1.0000 </r>
       <r>    1.4937    1.0000 </r>
       <r>    3.6574    1.0000 </r>
       <r>    7.3897    0.0000 </r>
       <r>   11.3673    0.0000 </r>
       <r>   12.4615    0.0000 </r>
       <r>   12.7561    0.0000 </r>
      </set>
      <set comment="kpoint 55">
       <r>   -4.1029    1.0000 </r>
       <r>   -0.3132    1.0000 </r>
       <r>    3.7660    1.0000 </r>
       <r>    4.2381    1.0000 </r>
       <r>    8.0982    0.0000 </r>
       <r>    9.4720    0.0000 </r>
       <r>   10.2281    0.0000 </r>
       <r>   12.3111    0.0000 </r>
      </set>
      <set comment="kpoint 56">
       <r>   -3.4711    1.0000 </r>
       <r>   -0.6669    1.0000 </r>
       <r>    2.4225    1.0000 </r>
       <r>    3.7483    1.0000 </r>
       <r>    8.8742    0.0000 </r>
       <r>    9.2173    0.0000 </r>
       <r>   11.8297    0.0000 </r>
       <r>   12.0526    0.0000 </r>
      </set>
      <set comment="kpoint 57">
       <r>   -2.6393    1.0000 </r>
       <r>   -1.1138    1.0000 </r>
       <r>    1.5876    1.0000 </r>
       <r>    3.0176    1.0000 </r>
       <r>    8.5021    0.0000 </r>
       <r>   10.7952    0.0000 </r>
       <r>   11.6092    0.0000 </r>
       <r>   12.1551    0.0000 </r>
      </set>
      <set comment="kpoint 58">
       <r>   -3.1051    1.0000 </r>
       <r>   -0.9467    1.0000 </r>
       <r>    2.0141    1.0000 </r>
       <r>    3.7600    1.0000 </r>
       <r>    7.5433    0.0000 </r>
       <r>   11.3339    0.0000 </r>
       <r>   11.6520    0.0000 </r>
       <r>   11.7606    0.0000 </r>
      </set>
      <set comment="kpoint 59">
       <r>   -4.0026    1.0000 </r>
       <r>   -0.8389    1.0000 </r>
       <r>    4.6833    1.0000 </r>
       <r>    4.6833    1.0000 </r>
       <r>    7.4438    0.0000 </r>
       <r>    9.3165    0.0000 </r>
       <r>    9.3165    0.0000 </r>
       <r>   13.6492    0.0000 </r>
      </set>
      <set comment="kpoint 60">
       <r>   -3.6439    1.0000 </r>
       <r>   -1.0145    1.0000 </r>
       <r>    3.4392    1.0000 </r>
       <r>    4.4078    1.0000 </r>
       <r>    8.1396    0.0000 </r>
       <r>    9.4555    0.0000 </r>
       <r>    9.9106    0.0000 </r>
       <r>   14.1064    0.0000 </r>
      </set>
     </set>
    </set>
   </array>
  </eigenvalues>
  <separator name="orbital magnetization" >
   <v name="MAGDIPOLOUT">      0.00000000      0.00000000      0.00000000</v>
  </separator>
  <dos>
   <i name="efermi">      6.19015305 </i>
   <total>
    <array>
     <dimension dim="1">gridpoints</dimension>
     <dimension dim="2">spin</dimension>
     <field>energy</field>
     <field>total</field>
     <field>integrated</field>
     <set>
      <set comment="spin 1">
       <r>    -8.0849     0.0000     0.0000 </r>
       <r>    -7.9997     0.0000     0.0000 </r>
       <r>    -7.9145     0.0000     0.0000 </r>
       <r>    -7.8292     0.0000     0.0000 </r>
       <r>    -7.7440     0.0000     0.0000 </r>
       <r>    -7.6588     0.0000     0.0000 </r>
       <r>    -7.5736     0.0000     0.0000 </r>
       <r>    -7.4883     0.0000     0.0000 </r>
       <r>    -7.4031     0.0000     0.0000 </r>
       <r>    -7.3179     0.0000     0.0000 </r>
       <r>    -7.2326     0.0000     0.0000 </r>
       <r>    -7.1474     0.0000     0.0000 </r>
       <r>    -7.0622     0.0000     0.0000 </r>
       <r>    -6.9770     0.0000     0.0000 </r>
       <r>    -6.8917     0.0000     0.0000 </r>
       <r>    -6.8065     0.0000     0.0000 </r>
       <r>    -6.7213     0.0000     0.0000 </r>
       <r>    -6.6361     0.0000     0.0000 </r>
       <r>    -6.5508     0.0000     0.0000 </r>
       <r>    -6.4656     0.0003     0.0000 </r>
       <r>    -6.3804     0.0016     0.0002 </r>
       <r>    -6.2951     0.0063     0.0007 </r>
       <r>    -6.2099     0.0185     0.0023 </r>
       <r>    -6.1247     0.0422     0.0059 </r>
       <r>    -6.0395     0.0770     0.0124 </r>
       <r>    -5.9542     0.1165     0.0224 </r>
       <r>    -5.8690     0.1531     0.0354 </r>
       <r>    -5.7838     0.1853     0.0512 </r>
       <r>    -5.6986     0.2169     0.0697 </r>
       <r>    -5.6133     0.2466     0.0907 </r>
       <r>    -5.5281     0.2665     0.1134 </r>
       <r>    -5.4429     0.2764     0.1370 </r>
       <r>    -5.3576     0.2927     0.1619 </r>
       <r>    -5.2724     0.3274     0.1898 </r>
       <r>    -5.1872     0.3648     0.2209 </r>
       <r>    -5.1020     0.3794     0.2532 </r>
       <r>    -5.0167     0.3736     0.2851 </r>
       <r>    -4.9315     0.3764     0.3172 </r>
       <r>    -4.8463     0.4016     0.3514 </r>
       <r>    -4.7611     0.4356     0.3885 </r>
       <r>    -4.6758     0.4667     0.4283 </r>
       <r>    -4.5906     0.4970     0.4707 </r>
       <r>    -4.5054     0.5236     0.5153 </r>
       <r>    -4.4201     0.5338     0.5608 </r>
       <r>    -4.3349     0.5233     0.6054 </r>
       <r>    -4.2497     0.5104     0.6489 </r>
       <r>    -4.1645     0.5341     0.6944 </r>
       <r>    -4.0792     0.6166     0.7470 </r>
       <r>    -3.9940     0.7215     0.8084 </r>
       <r>    -3.9088     0.7869     0.8755 </r>
       <r>    -3.8236     0.8001     0.9437 </r>
       <r>    -3.7383     0.7969     1.0116 </r>
       <r>    -3.6531     0.8025     1.0800 </r>
       <r>    -3.5679     0.8029     1.1484 </r>
       <r>    -3.4826     0.7699     1.2141 </r>
       <r>    -3.3974     0.7105     1.2746 </r>
       <r>    -3.3122     0.6845     1.3330 </r>
       <r>    -3.2270     0.7345     1.3956 </r>
       <r>    -3.1417     0.8133     1.4649 </r>
       <r>    -3.0565     0.8265     1.5353 </r>
       <r>    -2.9713     0.7348     1.5979 </r>
       <r>    -2.8861     0.5857     1.6478 </r>
       <r>    -2.8008     0.4528     1.6864 </r>
       <r>    -2.7156     0.3764     1.7185 </r>
       <r>    -2.6304     0.3665     1.7497 </r>
       <r>    -2.5451     0.4205     1.7856 </r>
       <r>    -2.4599     0.5106     1.8291 </r>
       <r>    -2.3747     0.5737     1.8780 </r>
       <r>    -2.2895     0.5484     1.9247 </r>
       <r>    -2.2042     0.4281     1.9612 </r>
       <r>    -2.1190     0.2657     1.9839 </r>
       <r>    -2.0338     0.1278     1.9948 </r>
       <r>    -1.9486     0.0468     1.9987 </r>
       <r>    -1.8633     0.0159     2.0001 </r>
       <r>    -1.7781     0.0215     2.0019 </r>
       <r>    -1.6929     0.0736     2.0082 </r>
       <r>    -1.6076     0.2013     2.0254 </r>
       <r>    -1.5224     0.3971     2.0592 </r>
       <r>    -1.4372     0.5714     2.1079 </r>
       <r>    -1.3520     0.6229     2.1610 </r>
       <r>    -1.2667     0.5696     2.2095 </r>
       <r>    -1.1815     0.5432     2.2558 </r>
       <r>    -1.0963     0.6414     2.3105 </r>
       <r>    -1.0111     0.8368     2.3818 </r>
       <r>    -0.9258     1.0266     2.4693 </r>
       <r>    -0.8406     1.1367     2.5662 </r>
       <r>    -0.7554     1.1558     2.6647 </r>
       <r>    -0.6702     1.0867     2.7573 </r>
       <r>    -0.5849     0.9385     2.8373 </r>
       <r>    -0.4997     0.7796     2.9037 </r>
       <r>    -0.4145     0.7008     2.9635 </r>
       <r>    -0.3292     0.6962     3.0228 </r>
       <r>    -0.2440     0.6553     3.0786 </r>
       <r>    -0.1588     0.5159     3.1226 </r>
       <r>    -0.0736     0.3593     3.1532 </r>
       <r>     0.0117     0.3070     3.1794 </r>
       <r>     0.0969     0.3822     3.2120 </r>
       <r>     0.1821     0.5045     3.2550 </r>
       <r>     0.2673     0.5705     3.3036 </r>
       <r>     0.3526     0.5295     3.3487 </r>
       <r>     0.4378     0.4129     3.3839 </r>
       <r>     0.5230     0.2973     3.4093 </r>
       <r>     0.6083     0.2460     3.4302 </r>
       <r>     0.6935     0.2808     3.4542 </r>
       <r>     0.7787     0.3680     3.4855 </r>
       <r>     0.8639     0.4207     3.5214 </r>
       <r>     0.9492     0.3703     3.5529 </r>
       <r>     1.0344     0.2473     3.5740 </r>
       <r>     1.1196     0.1472     3.5865 </r>
       <r>     1.2048     0.1319     3.5978 </r>
       <r>     1.2901     0.2016     3.6150 </r>
       <r>     1.3753     0.3415     3.6441 </r>
       <r>     1.4605     0.5425     3.6903 </r>
       <r>     1.5458     0.7583     3.7549 </r>
       <r>     1.6310     0.9019     3.8318 </r>
       <r>     1.7162     0.9423     3.9121 </r>
       <r>     1.8014     0.9488     3.9930 </r>
       <r>     1.8867     0.9870     4.0771 </r>
       <r>     1.9719     1.0384     4.1656 </r>
       <r>     2.0571     1.0635     4.2562 </r>
       <r>     2.1423     1.0735     4.3477 </r>
       <r>     2.2276     1.0904     4.4407 </r>
       <r>     2.3128     1.0990     4.5343 </r>
       <r>     2.3980     1.0750     4.6259 </r>
       <r>     2.4833     1.0268     4.7134 </r>
       <r>     2.5685     0.9946     4.7982 </r>
       <r>     2.6537     1.0195     4.8851 </r>
       <r>     2.7389     1.1215     4.9807 </r>
       <r>     2.8242     1.2843     5.0901 </r>
       <r>     2.9094     1.4324     5.2122 </r>
       <r>     2.9946     1.4770     5.3381 </r>
       <r>     3.0798     1.4252     5.4596 </r>
       <r>     3.1651     1.3851     5.5776 </r>
       <r>     3.2503     1.4152     5.6982 </r>
       <r>     3.3355     1.4441     5.8213 </r>
       <r>     3.4208     1.3894     5.9397 </r>
       <r>     3.5060     1.2934     6.0500 </r>
       <r>     3.5912     1.2869     6.1596 </r>
       <r>     3.6764     1.4165     6.2804 </r>
       <r>     3.7617     1.5487     6.4123 </r>
       <r>     3.8469     1.5110     6.5411 </r>
       <r>     3.9321     1.2985     6.6518 </r>
       <r>     4.0173     1.0760     6.7435 </r>
       <r>     4.1026     1.0090     6.8295 </r>
       <r>     4.1878     1.1192     6.9249 </r>
       <r>     4.2730     1.2818     7.0341 </r>
       <r>     4.3583     1.3474     7.1490 </r>
       <r>     4.4435     1.2652     7.2568 </r>
       <r>     4.5287     1.0980     7.3504 </r>
       <r>     4.6139     0.9461     7.4310 </r>
       <r>     4.6992     0.8730     7.5054 </r>
       <r>     4.7844     0.8694     7.5795 </r>
       <r>     4.8696     0.8504     7.6520 </r>
       <r>     4.9548     0.7364     7.7147 </r>
       <r>     5.0401     0.5567     7.7622 </r>
       <r>     5.1253     0.4197     7.7980 </r>
       <r>     5.2105     0.3849     7.8308 </r>
       <r>     5.2958     0.4079     7.8655 </r>
       <r>     5.3810     0.4032     7.8999 </r>
       <r>     5.4662     0.3385     7.9287 </r>
       <r>     5.5514     0.2524     7.9503 </r>
       <r>     5.6367     0.1883     7.9663 </r>
       <r>     5.7219     0.1484     7.9789 </r>
       <r>     5.8071     0.1132     7.9886 </r>
       <r>     5.8923     0.0742     7.9949 </r>
       <r>     5.9776     0.0387     7.9982 </r>
       <r>     6.0628     0.0153     7.9995 </r>
       <r>     6.1480     0.0046     7.9999 </r>
       <r>     6.2332     0.0020     8.0001 </r>
       <r>     6.3185     0.0059     8.0006 </r>
       <r>     6.4037     0.0219     8.0025 </r>
       <r>     6.4889     0.0594     8.0075 </r>
       <r>     6.5742     0.1177     8.0175 </r>
       <r>     6.6594     0.1763     8.0326 </r>
       <r>     6.7446     0.2171     8.0511 </r>
       <r>     6.8298     0.2539     8.0727 </r>
       <r>     6.9151     0.3196     8.1000 </r>
       <r>     7.0003     0.4151     8.1353 </r>
       <r>     7.0855     0.4965     8.1777 </r>
       <r>     7.1707     0.5345     8.2232 </r>
       <r>     7.2560     0.5647     8.2713 </r>
       <r>     7.3412     0.6288     8.3249 </r>
       <r>     7.4264     0.6961     8.3843 </r>
       <r>     7.5117     0.7169     8.4454 </r>
       <r>     7.5969     0.7132     8.5061 </r>
       <r>     7.6821     0.7506     8.5701 </r>
       <r>     7.7673     0.8581     8.6432 </r>
       <r>     7.8526     1.0194     8.7301 </r>
       <r>     7.9378     1.2140     8.8336 </r>
       <r>     8.0230     1.4211     8.9547 </r>
       <r>     8.1082     1.5777     9.0892 </r>
       <r>     8.1935     1.6044     9.2259 </r>
       <r>     8.2787     1.5047     9.3541 </r>
       <r>     8.3639     1.3740     9.4713 </r>
       <r>     8.4492     1.2999     9.5820 </r>
       <r>     8.5344     1.2924     9.6922 </r>
       <r>     8.6196     1.2905     9.8022 </r>
       <r>     8.7048     1.2272     9.9068 </r>
       <r>     8.7901     1.1166    10.0019 </r>
       <r>     8.8753     1.0447    10.0910 </r>
       <r>     8.9605     1.0855    10.1835 </r>
       <r>     9.0457     1.2783    10.2924 </r>
       <r>     9.1310     1.6063    10.4293 </r>
       <r>     9.2162     1.9294    10.5938 </r>
       <r>     9.3014     2.0533    10.7687 </r>
       <r>     9.3867     1.9223    10.9326 </r>
       <r>     9.4719     1.6738    11.0752 </r>
       <r>     9.5571     1.4972    11.2028 </r>
       <r>     9.6423     1.4715    11.3282 </r>
       <r>     9.7276     1.5289    11.4585 </r>
       <r>     9.8128     1.5557    11.5911 </r>
       <r>     9.8980     1.4989    11.7189 </r>
       <r>     9.9832     1.3893    11.8373 </r>
       <r>    10.0685     1.3010    11.9482 </r>
       <r>    10.1537     1.2722    12.0566 </r>
       <r>    10.2389     1.2635    12.1643 </r>
       <r>    10.3242     1.2278    12.2689 </r>
       <r>    10.4094     1.1792    12.3694 </r>
       <r>    10.4946     1.1600    12.4683 </r>
       <r>    10.5798     1.1798    12.5688 </r>
       <r>    10.6651     1.2229    12.6731 </r>
       <r>    10.7503     1.2857    12.7826 </r>
       <r>    10.8355     1.3743    12.8998 </r>
       <r>    10.9207     1.4550    13.0238 </r>
       <r>    11.0060     1.4481    13.1472 </r>
       <r>    11.0912     1.3131    13.2591 </r>
       <r>    11.1764     1.1105    13.3537 </r>
       <r>    11.2617     0.9412    13.4340 </r>
       <r>    11.3469     0.8501    13.5064 </r>
       <r>    11.4321     0.8173    13.5761 </r>
       <r>    11.5173     0.8398    13.6476 </r>
       <r>    11.6026     0.9595    13.7294 </r>
       <r>    11.6878     1.1737    13.8295 </r>
       <r>    11.7730     1.3868    13.9476 </r>
       <r>    11.8582     1.4985    14.0754 </r>
       <r>    11.9435     1.4750    14.2011 </r>
       <r>    12.0287     1.3207    14.3136 </r>
       <r>    12.1139     1.0692    14.4048 </r>
       <r>    12.1992     0.8134    14.4741 </r>
       <r>    12.2844     0.6656    14.5308 </r>
       <r>    12.3696     0.6589    14.5870 </r>
       <r>    12.4548     0.7115    14.6476 </r>
       <r>    12.5401     0.7116    14.7082 </r>
       <r>    12.6253     0.6364    14.7625 </r>
       <r>    12.7105     0.5661    14.8107 </r>
       <r>    12.7957     0.6033    14.8621 </r>
       <r>    12.8810     0.7969    14.9301 </r>
       <r>    12.9662     1.0824    15.0223 </r>
       <r>    13.0514     1.2861    15.1319 </r>
       <r>    13.1366     1.2588    15.2392 </r>
       <r>    13.2219     1.0083    15.3251 </r>
       <r>    13.3071     0.6806    15.3831 </r>
       <r>    13.3923     0.4443    15.4210 </r>
       <r>    13.4776     0.3823    15.4536 </r>
       <r>    13.5628     0.4447    15.4915 </r>
       <r>    13.6480     0.5080    15.5348 </r>
       <r>    13.7332     0.4958    15.5770 </r>
       <r>    13.8185     0.4304    15.6137 </r>
       <r>    13.9037     0.3768    15.6458 </r>
       <r>    13.9889     0.3694    15.6773 </r>
       <r>    14.0741     0.4002    15.7114 </r>
       <r>    14.1594     0.4496    15.7497 </r>
       <r>    14.2446     0.4976    15.7921 </r>
       <r>    14.3298     0.5000    15.8348 </r>
       <r>    14.4151     0.4120    15.8699 </r>
       <r>    14.5003     0.2585    15.8919 </r>
       <r>    14.5855     0.1187    15.9020 </r>
       <r>    14.6707     0.0399    15.9054 </r>
       <r>    14.7560     0.0140    15.9066 </r>
       <r>    14.8412     0.0202    15.9083 </r>
       <r>    14.9264     0.0507    15.9126 </r>
       <r>    15.0116     0.0965    15.9209 </r>
       <r>    15.0969     0.1318    15.9321 </r>
       <r>    15.1821     0.1350    15.9436 </r>
       <r>    15.2673     0.1208    15.9539 </r>
       <r>    15.3526     0.1196    15.9641 </r>
       <r>    15.4378     0.1308    15.9753 </r>
       <r>    15.5230     0.1253    15.9859 </r>
       <r>    15.6082     0.0915    15.9937 </r>
       <r>    15.6935     0.0487    15.9979 </r>
       <r>    15.7787     0.0186    15.9995 </r>
       <r>    15.8639     0.0051    15.9999 </r>
       <r>    15.9491     0.0010    16.0000 </r>
       <r>    16.0344     0.0001    16.0000 </r>
       <r>    16.1196     0.0000    16.0000 </r>
       <r>    16.2048     0.0000    16.0000 </r>
       <r>    16.2901     0.0000    16.0000 </r>
       <r>    16.3753     0.0000    16.0000 </r>
       <r>    16.4605     0.0000    16.0000 </r>
       <r>    16.5457     0.0000    16.0000 </r>
       <r>    16.6310     0.0000    16.0000 </r>
       <r>    16.7162     0.0000    16.0000 </r>
       <r>    16.8014     0.0000    16.0000 </r>
       <r>    16.8866     0.0000    16.0000 </r>
       <r>    16.9719     0.0000    16.0000 </r>
       <r>    17.0571     0.0000    16.0000 </r>
       <r>    17.1423     0.0000    16.0000 </r>
       <r>    17.2276     0.0000    16.0000 </r>
       <r>    17.3128     0.0000    16.0000 </r>
       <r>    17.3980     0.0000    16.0000 </r>
       <r>    17.4832     0.0000    16.0000 </r>
      </set>
     </set>
    </array>
   </total>
  </dos>
 </calculation>
 <structure name="finalpos" >
  <crystal>
   <varray name="basis" >
    <v>       0.00000000       2.71500000       2.71500000 </v>
    <v>       2.71500000       0.00000000       2.71500000 </v>
    <v>       2.71500000       2.71500000       0.00000000 </v>
   </varray>
   <i name="volume">     40.02575175 </i>
   <varray name="rec_basis" >
    <v>      -0.18416206       0.18416206       0.18416206 </v>
    <v>       0.18416206      -0.18416206       0.18416206 </v>
    <v>       0.18416206       0.18416206      -0.18416206 </v>
   </varray>
  </crystal>
  <varray name="positions" >
   <v>       0.50000000       0.50000000       0.50000000 </v>
   <v>       0.75000000       0.75000000       0.75000000 </v>
  </varray>
 </structure>
</modeling>
