<?xml version="1.0" encoding="ISO-8859-1"?>
<modeling>
 <generator>
  <i name="program" type="string">vasp </i>
  <i name="version" type="string">5.4.4.18Apr17-6-g9f103f2a35  </i>
  <i name="subversion" type="string">(build Dec 09 2018 21:25:21) complex            parallel </i>
  <i name="platform" type="string">IFC18.0.1.163_CrayMPICH7.7.0_MKL18.0.1.163 </i>
  <i name="date" type="string">2019 03 19 </i>
  <i name="time" type="string">13:26:44 </i>
 </generator>
 <incar>
  <i type="string" name="PREC">normal</i>
  <i type="int" name="IBRION">     2</i>
  <i name="EDIFF">      0.00040000</i>
  <i name="EDIFFG">     -0.01000000</i>
  <i type="int" name="NSW">    15</i>
  <i type="int" name="ISIF">     2</i>
  <i name="ENCUT">    150.00000000</i>
  <i type="int" name="NBANDS">     8</i>
  <i type="logical" name="LREAL"> F  </i>
  <i type="int" name="ISMEAR">     0</i>
  <i name="SIGMA">      0.20000000</i>
  <v type="int" name="KPOINT_BSE">    -1     0     0     0</v>
 </incar>
 <structure name="primitive_cell" >
  <crystal>
   <varray name="basis" >
    <v>       0.00000000       2.71500000       2.71500000 </v>
    <v>       2.71500000       0.00000000       2.71500000 </v>
    <v>       2.71500000       2.71500000       0.00000000 </v>
   </varray>
   <i name="volume">     40.02575175 </i>
   <varray name="rec_basis" >
    <v>      -0.18416206       0.18416206       0.18416206 </v>
    <v>       0.18416206      -0.18416206       0.18416206 </v>
    <v>       0.18416206       0.18416206      -0.18416206 </v>
   </varray>
  </crystal>
  <varray name="positions" >
   <v>      -0.50000000      -0.50000000      -0.50000000 </v>
   <v>      -0.25000000      -0.25000000      -0.25000000 </v>
  </varray>
 </structure>
 <varray name="primitive_index" >
  <v type="int" >        1 </v>
  <v type="int" >        2 </v>
 </varray>
 <kpoints>
  <generation param="Monkhorst-Pack">
   <v type="int" name="divisions">       8        8        8 </v>
   <v name="usershift">      0.00000000       0.00000000       0.00000000 </v>
   <v name="genvec1">      0.12500000       0.00000000      -0.00000000 </v>
   <v name="genvec2">      0.00000000       0.12500000       0.00000000 </v>
   <v name="genvec3">     -0.00000000      -0.00000000       0.12500000 </v>
   <v name="shift">      0.50000000       0.50000000       0.50000000 </v>
  </generation>
  <varray name="kpointlist" >
   <v>       0.06250000       0.06250000       0.06250000 </v>
   <v>       0.18750000       0.06250000       0.06250000 </v>
   <v>       0.31250000       0.06250000       0.06250000 </v>
   <v>       0.43750000       0.06250000       0.06250000 </v>
   <v>      -0.43750000       0.06250000       0.06250000 </v>
   <v>      -0.31250000       0.06250000       0.06250000 </v>
   <v>      -0.18750000       0.06250000       0.06250000 </v>
   <v>      -0.06250000       0.06250000       0.06250000 </v>
   <v>       0.18750000       0.18750000       0.06250000 </v>
   <v>       0.31250000       0.18750000       0.06250000 </v>
   <v>       0.43750000       0.18750000       0.06250000 </v>
   <v>      -0.43750000       0.18750000       0.06250000 </v>
   <v>      -0.31250000       0.18750000       0.06250000 </v>
   <v>      -0.18750000       0.18750000       0.06250000 </v>
   <v>      -0.06250000       0.18750000       0.06250000 </v>
   <v>       0.31250000       0.31250000       0.06250000 </v>
   <v>       0.43750000       0.31250000       0.06250000 </v>
   <v>      -0.43750000       0.31250000       0.06250000 </v>
   <v>      -0.31250000       0.31250000       0.06250000 </v>
   <v>      -0.18750000       0.31250000       0.06250000 </v>
   <v>      -0.06250000       0.31250000       0.06250000 </v>
   <v>       0.43750000       0.43750000       0.06250000 </v>
   <v>      -0.43750000       0.43750000       0.06250000 </v>
   <v>      -0.31250000       0.43750000       0.06250000 </v>
   <v>      -0.18750000       0.43750000       0.06250000 </v>
   <v>      -0.06250000       0.43750000       0.06250000 </v>
   <v>      -0.43750000      -0.43750000       0.06250000 </v>
   <v>      -0.31250000      -0.43750000       0.06250000 </v>
   <v>      -0.18750000      -0.43750000       0.06250000 </v>
   <v>      -0.31250000      -0.31250000       0.06250000 </v>
   <v>      -0.18750000      -0.31250000       0.06250000 </v>
   <v>      -0.18750000      -0.18750000       0.06250000 </v>
   <v>       0.18750000       0.18750000       0.18750000 </v>
   <v>       0.31250000       0.18750000       0.18750000 </v>
   <v>       0.43750000       0.18750000       0.18750000 </v>
   <v>      -0.43750000       0.18750000       0.18750000 </v>
   <v>      -0.31250000       0.18750000       0.18750000 </v>
   <v>      -0.18750000       0.18750000       0.18750000 </v>
   <v>       0.31250000       0.31250000       0.18750000 </v>
   <v>       0.43750000       0.31250000       0.18750000 </v>
   <v>      -0.43750000       0.31250000       0.18750000 </v>
   <v>      -0.31250000       0.31250000       0.18750000 </v>
   <v>      -0.18750000       0.31250000       0.18750000 </v>
   <v>       0.43750000       0.43750000       0.18750000 </v>
   <v>      -0.43750000       0.43750000       0.18750000 </v>
   <v>      -0.31250000       0.43750000       0.18750000 </v>
   <v>      -0.18750000       0.43750000       0.18750000 </v>
   <v>      -0.43750000      -0.43750000       0.18750000 </v>
   <v>      -0.31250000      -0.43750000       0.18750000 </v>
   <v>      -0.31250000      -0.31250000       0.18750000 </v>
   <v>       0.31250000       0.31250000       0.31250000 </v>
   <v>       0.43750000       0.31250000       0.31250000 </v>
   <v>      -0.43750000       0.31250000       0.31250000 </v>
   <v>      -0.31250000       0.31250000       0.31250000 </v>
   <v>       0.43750000       0.43750000       0.31250000 </v>
   <v>      -0.43750000       0.43750000       0.31250000 </v>
   <v>      -0.31250000       0.43750000       0.31250000 </v>
   <v>      -0.43750000      -0.43750000       0.31250000 </v>
   <v>       0.43750000       0.43750000       0.43750000 </v>
   <v>      -0.43750000       0.43750000       0.43750000 </v>
  </varray>
  <varray name="weights" >
   <v>       0.00390625 </v>
   <v>       0.01171875 </v>
   <v>       0.01171875 </v>
   <v>       0.01171875 </v>
   <v>       0.01171875 </v>
   <v>       0.01171875 </v>
   <v>       0.01171875 </v>
   <v>       0.01171875 </v>
   <v>       0.01171875 </v>
   <v>       0.02343750 </v>
   <v>       0.02343750 </v>
   <v>       0.02343750 </v>
   <v>       0.02343750 </v>
   <v>       0.02343750 </v>
   <v>       0.02343750 </v>
   <v>       0.01171875 </v>
   <v>       0.02343750 </v>
   <v>       0.02343750 </v>
   <v>       0.02343750 </v>
   <v>       0.02343750 </v>
   <v>       0.02343750 </v>
   <v>       0.01171875 </v>
   <v>       0.02343750 </v>
   <v>       0.02343750 </v>
   <v>       0.02343750 </v>
   <v>       0.02343750 </v>
   <v>       0.01171875 </v>
   <v>       0.02343750 </v>
   <v>       0.02343750 </v>
   <v>       0.01171875 </v>
   <v>       0.02343750 </v>
   <v>       0.01171875 </v>
   <v>       0.00390625 </v>
   <v>       0.01171875 </v>
   <v>       0.01171875 </v>
   <v>       0.01171875 </v>
   <v>       0.01171875 </v>
   <v>       0.01171875 </v>
   <v>       0.01171875 </v>
   <v>       0.02343750 </v>
   <v>       0.02343750 </v>
   <v>       0.02343750 </v>
   <v>       0.02343750 </v>
   <v>       0.01171875 </v>
   <v>       0.02343750 </v>
   <v>       0.02343750 </v>
   <v>       0.02343750 </v>
   <v>       0.01171875 </v>
   <v>       0.02343750 </v>
   <v>       0.01171875 </v>
   <v>       0.00390625 </v>
   <v>       0.01171875 </v>
   <v>       0.01171875 </v>
   <v>       0.01171875 </v>
   <v>       0.01171875 </v>
   <v>       0.02343750 </v>
   <v>       0.02343750 </v>
   <v>       0.01171875 </v>
   <v>       0.00390625 </v>
   <v>       0.01171875 </v>
  </varray>
 </kpoints>
 <parameters>
  <separator name="general" >
   <i type="string" name="SYSTEM">unknown system</i>
   <i type="logical" name="LCOMPAT"> F  </i>
  </separator>
  <separator name="electronic" >
   <i type="string" name="PREC">normal</i>
   <i name="ENMAX">    150.00000000</i>
   <i name="ENAUG">    322.06900000</i>
   <i name="EDIFF">      0.00040000</i>
   <i type="int" name="IALGO">    38</i>
   <i type="int" name="IWAVPR">    11</i>
   <i type="int" name="NBANDS">     8</i>
   <i name="NELECT">      8.00000000</i>
   <i type="int" name="TURBO">     0</i>
   <i type="int" name="IRESTART">     0</i>
   <i type="int" name="NREBOOT">     0</i>
   <i type="int" name="NMIN">     0</i>
   <i name="EREF">      0.00000000</i>
   <separator name="electronic smearing" >
    <i type="int" name="ISMEAR">     0</i>
    <i name="SIGMA">      0.20000000</i>
    <i name="KSPACING">      0.50000000</i>
    <i type="logical" name="KGAMMA"> T  </i>
   </separator>
   <separator name="electronic projectors" >
    <i type="logical" name="LREAL"> F  </i>
    <v name="ROPT">      0.00000000</v>
    <i type="int" name="LMAXPAW">  -100</i>
    <i type="int" name="LMAXMIX">     2</i>
    <i type="logical" name="NLSPLINE"> F  </i>
   </separator>
   <separator name="electronic startup" >
    <i type="int" name="ISTART">     1</i>
    <i type="int" name="ICHARG">     0</i>
    <i type="int" name="INIWAV">     1</i>
   </separator>
   <separator name="electronic spin" >
    <i type="int" name="ISPIN">     1</i>
    <i type="logical" name="LNONCOLLINEAR"> F  </i>
    <v name="MAGMOM">      1.00000000      1.00000000</v>
    <i name="NUPDOWN">     -1.00000000</i>
    <i type="logical" name="LSORBIT"> F  </i>
    <v name="SAXIS">      0.00000000      0.00000000      1.00000000</v>
    <i type="logical" name="LSPIRAL"> F  </i>
    <v name="QSPIRAL">      0.00000000      0.00000000      0.00000000</v>
    <i type="logical" name="LZEROZ"> F  </i>
   </separator>
   <separator name="electronic exchange-correlation" >
    <i type="logical" name="LASPH"> F  </i>
    <i type="logical" name="LMETAGGA"> F  </i>
   </separator>
   <separator name="electronic convergence" >
    <i type="int" name="NELM">    60</i>
    <i type="int" name="NELMDL">     0</i>
    <i type="int" name="NELMIN">     2</i>
    <i name="ENINI">    150.00000000</i>
    <separator name="electronic convergence detail" >
     <i type="logical" name="LDIAG"> T  </i>
     <i type="logical" name="LSUBROT"> F  </i>
     <i name="WEIMIN">      0.00100000</i>
     <i name="EBREAK">      0.00001250</i>
     <i name="DEPER">      0.30000000</i>
     <i type="int" name="NRMM">     4</i>
     <i name="TIME">      0.40000000</i>
    </separator>
   </separator>
   <separator name="electronic mixer" >
    <i name="AMIX">      0.40000000</i>
    <i name="BMIX">      1.00000000</i>
    <i name="AMIN">      0.10000000</i>
    <i name="AMIX_MAG">      1.60000000</i>
    <i name="BMIX_MAG">      1.00000000</i>
    <separator name="electronic mixer details" >
     <i type="int" name="IMIX">     4</i>
     <i type="logical" name="MIXFIRST"> F  </i>
     <i type="int" name="MAXMIX">   -45</i>
     <i name="WC">    100.00000000</i>
     <i type="int" name="INIMIX">     1</i>
     <i type="int" name="MIXPRE">     1</i>
     <i type="int" name="MREMOVE">     5</i>
    </separator>
   </separator>
   <separator name="electronic dipolcorrection" >
    <i type="logical" name="LDIPOL"> F  </i>
    <i type="logical" name="LMONO"> F  </i>
    <i type="int" name="IDIPOL">     0</i>
    <i name="EPSILON">      1.00000000</i>
    <v name="DIPOL">   -100.00000000   -100.00000000   -100.00000000</v>
    <i name="EFIELD">      0.00000000</i>
   </separator>
  </separator>
  <separator name="grids" >
   <i type="int" name="NGX">    12</i>
   <i type="int" name="NGY">    12</i>
   <i type="int" name="NGZ">    12</i>
   <i type="int" name="NGXF">    24</i>
   <i type="int" name="NGYF">    24</i>
   <i type="int" name="NGZF">    24</i>
   <i type="logical" name="ADDGRID"> F  </i>
  </separator>
  <separator name="ionic" >
   <i type="int" name="NSW">    15</i>
   <i type="int" name="IBRION">     2</i>
   <i type="int" name="MDALGO">     0</i>
   <i type="int" name="ISIF">     2</i>
   <i name="PSTRESS">      0.00000000</i>
   <i name="EDIFFG">     -0.01000000</i>
   <i type="int" name="NFREE">     1</i>
   <i name="POTIM">      0.50000000</i>
   <i name="SMASS">     -3.00000000</i>
   <i name="SCALEE">      1.00000000</i>
  </separator>
  <separator name="ionic md" >
   <i name="TEBEG">      0.00010000</i>
   <i name="TEEND">      0.00010000</i>
   <i type="int" name="NBLOCK">     1</i>
   <i type="int" name="KBLOCK">    15</i>
   <i type="int" name="NPACO">   256</i>
   <i name="APACO">     16.00000000</i>
  </separator>
  <separator name="symmetry" >
   <i type="int" name="ISYM">     2</i>
   <i name="SYMPREC">      0.00001000</i>
  </separator>
  <separator name="dos" >
   <i type="int" name="LORBIT">     0</i>
   <v name="RWIGS">     -1.00000000</v>
   <i type="int" name="NEDOS">   301</i>
   <i name="EMIN">     10.00000000</i>
   <i name="EMAX">    -10.00000000</i>
   <i name="EFERMI">      0.00000000</i>
  </separator>
  <separator name="writing" >
   <i type="int" name="NWRITE">     2</i>
   <i type="logical" name="LWAVE"> T  </i>
   <i type="logical" name="LDOWNSAMPLE"> F  </i>
   <i type="logical" name="LCHARG"> T  </i>
   <i type="logical" name="LPARD"> F  </i>
   <i type="logical" name="LVTOT"> F  </i>
   <i type="logical" name="LVHAR"> F  </i>
   <i type="logical" name="LELF"> F  </i>
   <i type="logical" name="LOPTICS"> F  </i>
   <v name="STM">      0.00000000      0.00000000      0.00000000      0.00000000      0.00000000      0.00000000      0.00000000</v>
  </separator>
  <separator name="performance" >
   <i type="int" name="NPAR">     8</i>
   <i type="int" name="NSIM">     4</i>
   <i type="int" name="NBLK">    -1</i>
   <i type="logical" name="LPLANE"> T  </i>
   <i type="logical" name="LSCALAPACK"> T  </i>
   <i type="logical" name="LSCAAWARE"> F  </i>
   <i type="logical" name="LSCALU"> F  </i>
   <i type="logical" name="LASYNC"> F  </i>
   <i type="logical" name="LORBITALREAL"> F  </i>
  </separator>
  <separator name="miscellaneous" >
   <i type="int" name="IDIOT">     3</i>
   <i type="int" name="ISPECIAL">     0</i>
   <i type="logical" name="LMUSIC"> F  </i>
   <v name="POMASS">     28.08500000</v>
   <v name="DARWINR">      0.00000000</v>
   <v name="DARWINV">      1.00000000</v>
   <i type="logical" name="LCORR"> T  </i>
  </separator>
  <i type="logical" name="GGA_COMPAT"> T  </i>
  <i type="logical" name="LBERRY"> F  </i>
  <i type="int" name="ICORELEVEL">     0</i>
  <i type="logical" name="LDAU"> F  </i>
  <i type="int" name="I_CONSTRAINED_M">     0</i>
  <separator name="electronic exchange-correlation" >
   <i type="string" name="GGA">--</i>
   <i type="int" name="VOSKOWN">     0</i>
   <i type="logical" name="LHFCALC"> F  </i>
   <i type="string" name="PRECFOCK"></i>
   <i type="logical" name="LSYMGRAD"> F  </i>
   <i type="logical" name="LHFONE"> F  </i>
   <i type="logical" name="LRHFCALC"> F  </i>
   <i type="logical" name="LTHOMAS"> F  </i>
   <i type="logical" name="LMODELHF"> F  </i>
   <i name="ENCUT4O">     -1.00000000</i>
   <i type="int" name="EXXOEP">     0</i>
   <i type="int" name="FOURORBIT">     0</i>
   <i name="AEXX">      0.00000000</i>
   <i name="HFALPHA">      0.00000000</i>
   <i name="MCALPHA">      0.00000000</i>
   <i name="ALDAX">      1.00000000</i>
   <i name="AGGAX">      1.00000000</i>
   <i name="ALDAC">      1.00000000</i>
   <i name="AGGAC">      1.00000000</i>
   <i type="int" name="NKREDX">     1</i>
   <i type="int" name="NKREDY">     1</i>
   <i type="int" name="NKREDZ">     1</i>
   <i type="logical" name="SHIFTRED"> F  </i>
   <i type="logical" name="ODDONLY"> F  </i>
   <i type="logical" name="EVENONLY"> F  </i>
   <i type="int" name="LMAXFOCK">     0</i>
   <i type="int" name="NMAXFOCKAE">     0</i>
   <i type="logical" name="LFOCKAEDFT"> F  </i>
   <i name="HFSCREEN">      0.00000000</i>
   <i name="HFSCREENC">      0.00000000</i>
   <i type="int" name="NBANDSGWLOW">     0</i>
  </separator>
  <separator name="vdW DFT" >
   <i type="logical" name="LUSE_VDW"> F  </i>
   <i name="Zab_VDW">     -0.84910000</i>
   <i name="PARAM1">      0.12340000</i>
   <i name="PARAM2">      1.00000000</i>
   <i name="PARAM3">      0.00000000</i>
  </separator>
  <separator name="model GW" >
   <i type="int" name="MODEL_GW">     0</i>
   <i name="MODEL_EPS0">     12.00772552</i>
   <i name="MODEL_ALPHA">      1.00000000</i>
  </separator>
  <separator name="linear response parameters" >
   <i type="logical" name="LEPSILON"> F  </i>
   <i type="logical" name="LRPA"> F  </i>
   <i type="logical" name="LNABLA"> F  </i>
   <i type="logical" name="LVEL"> F  </i>
   <i type="int" name="KINTER">     0</i>
   <i name="CSHIFT">      0.10000000</i>
   <i name="OMEGAMAX">     -1.00000000</i>
   <i name="DEG_THRESHOLD">      0.00200000</i>
   <i name="RTIME">     -0.10000000</i>
   <i name="WPLASMAI">      0.00000000</i>
   <v name="DFIELD">      0.00000000      0.00000000      0.00000000</v>
   <v name="WPLASMA">      0.00000000      0.00000000      0.00000000      0.00000000      0.00000000      0.00000000      0.00000000      0.00000000      0.00000000</v>
  </separator>
  <separator name="orbital magnetization" >
   <i type="logical" name="NUCIND"> F  </i>
   <v name="MAGPOS">      0.00000000      0.00000000      0.00000000</v>
   <i type="logical" name="LNICSALL"> T  </i>
   <i type="logical" name="ORBITALMAG"> F  </i>
   <i type="logical" name="LMAGBLOCH"> F  </i>
   <i type="logical" name="LCHIMAG"> F  </i>
   <i type="logical" name="LGAUGE"> T  </i>
   <i type="int" name="MAGATOM">     0</i>
   <v name="MAGDIPOL">      0.00000000      0.00000000      0.00000000</v>
   <v name="AVECCONST">      0.00000000      0.00000000      0.00000000</v>
  </separator>
  <separator name="response functions" >
   <i type="logical" name="LADDER"> F  </i>
   <i type="logical" name="LRPAFORCE"> F  </i>
   <i type="logical" name="LFXC"> F  </i>
   <i type="logical" name="LHARTREE"> T  </i>
   <i type="int" name="IBSE">     0</i>
   <v type="int" name="KPOINT">    -1     0     0     0</v>
   <i type="logical" name="LTCTE"> F  </i>
   <i type="logical" name="LTETE"> F  </i>
   <i type="logical" name="LTRIPLET"> F  </i>
   <i type="logical" name="LFXCEPS"> F  </i>
   <i type="logical" name="LFXHEG"> F  </i>
   <i type="int" name="NATURALO">     2</i>
   <i type="logical" name="L2ORDER"> F  </i>
   <i type="logical" name="LMP2LT"> F  </i>
   <i type="logical" name="LUSEW"> F  </i>
   <i name="ENCUTGW">     -2.00000000</i>
   <i name="ENCUTGWSOFT">     -2.00000000</i>
   <i name="ENCUTLF">     -1.00000000</i>
   <i type="int" name="LMAXMP2">    -1</i>
   <i name="SCISSOR">      0.00000000</i>
   <i type="int" name="NOMEGA">     0</i>
   <i type="int" name="NOMEGAR">     0</i>
   <i type="int" name="NBANDSGW">    -1</i>
   <i type="int" name="NBANDSO">    -1</i>
   <i type="int" name="NBANDSV">    -1</i>
   <i type="int" name="NELM">     1</i>
   <i type="int" name="NELMHF">     1</i>
   <i type="int" name="DIM">     3</i>
   <i type="int" name="ANTIRES">     0</i>
   <i name="OMEGAMAX">    -30.00000000</i>
   <i name="OMEGAMIN">    -30.00000000</i>
   <i name="OMEGATL">   -200.00000000</i>
   <i type="int" name="OMEGAGRID">   140</i>
   <i name="CSHIFT">     -0.10000000</i>
   <i type="logical" name="SELFENERGY"> F  </i>
   <i type="logical" name="LSPECTRAL"> F  </i>
   <i type="logical" name="LSPECTRALGW"> F  </i>
   <i type="logical" name="LSINGLES"> F  </i>
   <i type="logical" name="LFERMIGW"> F  </i>
   <i type="logical" name="ODDONLYGW"> F  </i>
   <i type="logical" name="EVENONLYGW"> F  </i>
   <i type="int" name="NKREDLFX">     1</i>
   <i type="int" name="NKREDLFY">     1</i>
   <i type="int" name="NKREDLFZ">     1</i>
   <i type="int" name="MAXMEM">  2800</i>
   <i type="int" name="TELESCOPE">     0</i>
   <i type="int" name="TAUPAR">     1</i>
   <i type="int" name="OMEGAPAR">    -1</i>
   <i name="LAMBDA">      1.00000000</i>
  </separator>
  <separator name="External order field" >
   <i name="OFIELD_KAPPA">      0.00000000</i>
   <v name="OFIELD_K">      0.00000000      0.00000000      0.00000000</v>
   <i name="OFIELD_Q6_NEAR">      0.00000000</i>
   <i name="OFIELD_Q6_FAR">      0.00000000</i>
   <i name="OFIELD_A">      0.00000000</i>
  </separator>
 </parameters>
 <atominfo>
  <atoms>       2 </atoms>
  <types>       1 </types>
  <array name="atoms" >
   <dimension dim="1">ion</dimension>
   <field type="string">element</field>
   <field type="int">atomtype</field>
   <set>
    <rc><c>Si</c><c>   1</c></rc>
    <rc><c>Si</c><c>   1</c></rc>
   </set>
  </array>
  <array name="atomtypes" >
   <dimension dim="1">type</dimension>
   <field type="int">atomspertype</field>
   <field type="string">element</field>
   <field>mass</field>
   <field>valence</field>
   <field type="string">pseudopotential</field>
   <set>
    <rc><c>   2</c><c>Si</c><c>     28.08500000</c><c>      4.00000000</c><c> PAW_PBE Si 05Jan2001                   </c></rc>
   </set>
  </array>
 </atominfo>
 <structure name="initialpos" >
  <crystal>
   <varray name="basis" >
    <v>       0.00000000       2.71500000       2.71500000 </v>
    <v>       2.71500000       0.00000000       2.71500000 </v>
    <v>       2.71500000       2.71500000       0.00000000 </v>
   </varray>
   <i name="volume">     40.02575175 </i>
   <varray name="rec_basis" >
    <v>      -0.18416206       0.18416206       0.18416206 </v>
    <v>       0.18416206      -0.18416206       0.18416206 </v>
    <v>       0.18416206       0.18416206      -0.18416206 </v>
   </varray>
  </crystal>
  <varray name="positions" >
   <v>       0.50000000       0.50000000       0.50000000 </v>
   <v>       0.75000000       0.75000000       0.75000000 </v>
  </varray>
 </structure>
 <calculation>
  <scstep>
   <time name="dav">    0.24    0.24</time>
   <time name="total">    0.28    0.30</time>
   <energy>
    <i name="alphaZ">      3.36414203 </i>
    <i name="ewald">   -228.56352493 </i>
    <i name="hartreedc">    -14.88255432 </i>
    <i name="XCdc">    -17.92429154 </i>
    <i name="pawpsdc">     76.67887872 </i>
    <i name="pawaedc">    -41.73057795 </i>
    <i name="eentropy">     -0.00003568 </i>
    <i name="bandstr">      6.22103715 </i>
    <i name="atom">    206.09183643 </i>
    <i name="e_fr_energy">    -10.74509010 </i>
    <i name="e_wo_entrp">    -10.74505442 </i>
    <i name="e_0_energy">    -10.74507226 </i>
   </energy>
  </scstep>
  <scstep>
   <time name="dav">    0.23    0.23</time>
   <time name="total">    0.26    0.27</time>
   <energy>
    <i name="alphaZ">      3.36414203 </i>
    <i name="ewald">   -228.56352493 </i>
    <i name="hartreedc">    -14.88245376 </i>
    <i name="XCdc">    -17.92427323 </i>
    <i name="pawpsdc">     76.67761002 </i>
    <i name="pawaedc">    -41.72925817 </i>
    <i name="eentropy">     -0.00003564 </i>
    <i name="bandstr">      6.22086697 </i>
    <i name="atom">    206.09183643 </i>
    <i name="e_fr_energy">    -10.74509028 </i>
    <i name="e_wo_entrp">    -10.74505464 </i>
    <i name="e_0_energy">    -10.74507246 </i>
   </energy>
  </scstep>
  <structure>
   <crystal>
    <varray name="basis" >
     <v>       0.00000000       2.71500000       2.71500000 </v>
     <v>       2.71500000       0.00000000       2.71500000 </v>
     <v>       2.71500000       2.71500000       0.00000000 </v>
    </varray>
    <i name="volume">     40.02575175 </i>
    <varray name="rec_basis" >
     <v>      -0.18416206       0.18416206       0.18416206 </v>
     <v>       0.18416206      -0.18416206       0.18416206 </v>
     <v>       0.18416206       0.18416206      -0.18416206 </v>
    </varray>
   </crystal>
   <varray name="positions" >
    <v>       0.50000000       0.50000000       0.50000000 </v>
    <v>       0.75000000       0.75000000       0.75000000 </v>
   </varray>
  </structure>
  <varray name="forces" >
   <v>       0.00000000       0.00000000       0.00000000 </v>
   <v>      -0.00000000      -0.00000000      -0.00000000 </v>
  </varray>
  <varray name="stress" >
   <v>      19.36049657       0.00000000      -0.00000000 </v>
   <v>       0.00000000      19.36049657      -0.00000000 </v>
   <v>      -0.00000000       0.00000000      19.36049657 </v>
  </varray>
  <energy>
   <i name="e_fr_energy">    -10.74509028 </i>
   <i name="e_wo_entrp">    -10.74507246 </i>
   <i name="e_0_energy">     -0.00003564 </i>
  </energy>
  <time name="totalsc">    1.18    1.81</time>
  <eigenvalues>
   <array>
    <dimension dim="1">band</dimension>
    <dimension dim="2">kpoint</dimension>
    <dimension dim="3">spin</dimension>
    <field>eigene</field>
    <field>occ</field>
    <set>
     <set comment="spin 1">
      <set comment="kpoint 1">
       <r>   -6.0837    1.0000 </r>
       <r>    5.3394    1.0000 </r>
       <r>    5.7905    0.9977 </r>
       <r>    5.7905    0.9977 </r>
       <r>    8.5158    0.0000 </r>
       <r>    8.5808    0.0000 </r>
       <r>    8.5808    0.0000 </r>
       <r>    9.5868    0.0000 </r>
      </set>
      <set comment="kpoint 2">
       <r>   -5.8121    1.0000 </r>
       <r>    3.8181    1.0000 </r>
       <r>    4.9584    1.0000 </r>
       <r>    5.6701    0.9999 </r>
       <r>    8.6009    0.0000 </r>
       <r>    8.8292    0.0000 </r>
       <r>    9.1428    0.0000 </r>
       <r>   11.0392    0.0000 </r>
      </set>
      <set comment="kpoint 3">
       <r>   -5.1559    1.0000 </r>
       <r>    1.5568    1.0000 </r>
       <r>    4.4632    1.0000 </r>
       <r>    5.1930    1.0000 </r>
       <r>    8.1671    0.0000 </r>
       <r>    9.3352    0.0000 </r>
       <r>    9.6391    0.0000 </r>
       <r>   12.5644    0.0000 </r>
      </set>
      <set comment="kpoint 4">
       <r>   -4.2379    1.0000 </r>
       <r>   -0.3623    1.0000 </r>
       <r>    4.2425    1.0000 </r>
       <r>    4.7750    1.0000 </r>
       <r>    7.8372    0.0000 </r>
       <r>    9.4078    0.0000 </r>
       <r>    9.4187    0.0000 </r>
       <r>   13.7384    0.0000 </r>
      </set>
      <set comment="kpoint 5">
       <r>   -3.7781    1.0000 </r>
       <r>   -1.0783    1.0000 </r>
       <r>    4.2956    1.0000 </r>
       <r>    4.5510    1.0000 </r>
       <r>    7.7558    0.0000 </r>
       <r>    9.2104    0.0000 </r>
       <r>    9.4902    0.0000 </r>
       <r>   13.7815    0.0000 </r>
      </set>
      <set comment="kpoint 6">
       <r>   -4.5528    1.0000 </r>
       <r>    0.2063    1.0000 </r>
       <r>    4.5702    1.0000 </r>
       <r>    4.5916    1.0000 </r>
       <r>    7.9284    0.0000 </r>
       <r>    9.2142    0.0000 </r>
       <r>    9.7516    0.0000 </r>
       <r>   12.9319    0.0000 </r>
      </set>
      <set comment="kpoint 7">
       <r>   -5.4133    1.0000 </r>
       <r>    2.2975    1.0000 </r>
       <r>    4.8532    1.0000 </r>
       <r>    5.0654    1.0000 </r>
       <r>    8.2832    0.0000 </r>
       <r>    9.0783    0.0000 </r>
       <r>    9.8113    0.0000 </r>
       <r>   11.7370    0.0000 </r>
      </set>
      <set comment="kpoint 8">
       <r>   -5.9472    1.0000 </r>
       <r>    4.5822    1.0000 </r>
       <r>    5.3498    1.0000 </r>
       <r>    5.5195    1.0000 </r>
       <r>    8.2911    0.0000 </r>
       <r>    8.9051    0.0000 </r>
       <r>    9.1797    0.0000 </r>
       <r>   10.3101    0.0000 </r>
      </set>
      <set comment="kpoint 9">
       <r>   -5.6754    1.0000 </r>
       <r>    3.6854    1.0000 </r>
       <r>    4.7745    1.0000 </r>
       <r>    4.8688    1.0000 </r>
       <r>    7.8641    0.0000 </r>
       <r>    9.6926    0.0000 </r>
       <r>   10.0664    0.0000 </r>
       <r>   10.6127    0.0000 </r>
      </set>
      <set comment="kpoint 10">
       <r>   -5.1436    1.0000 </r>
       <r>    2.1639    1.0000 </r>
       <r>    3.7860    1.0000 </r>
       <r>    4.6006    1.0000 </r>
       <r>    8.0423    0.0000 </r>
       <r>    9.8126    0.0000 </r>
       <r>   10.4024    0.0000 </r>
       <r>   10.8862    0.0000 </r>
      </set>
      <set comment="kpoint 11">
       <r>   -4.2850    1.0000 </r>
       <r>    0.2699    1.0000 </r>
       <r>    3.2904    1.0000 </r>
       <r>    4.1780    1.0000 </r>
       <r>    8.2517    0.0000 </r>
       <r>    9.7158    0.0000 </r>
       <r>   10.9061    0.0000 </r>
       <r>   11.1808    0.0000 </r>
      </set>
      <set comment="kpoint 12">
       <r>   -3.5060    1.0000 </r>
       <r>   -0.9669    1.0000 </r>
       <r>    2.9970    1.0000 </r>
       <r>    4.0803    1.0000 </r>
       <r>    8.3275    0.0000 </r>
       <r>    9.3859    0.0000 </r>
       <r>   10.7575    0.0000 </r>
       <r>   13.2376    0.0000 </r>
      </set>
      <set comment="kpoint 13">
       <r>   -3.9753    1.0000 </r>
       <r>   -0.2601    1.0000 </r>
       <r>    2.9197    1.0000 </r>
       <r>    4.3745    1.0000 </r>
       <r>    8.6270    0.0000 </r>
       <r>    9.2919    0.0000 </r>
       <r>   10.6996    0.0000 </r>
       <r>   12.4813    0.0000 </r>
      </set>
      <set comment="kpoint 14">
       <r>   -4.8919    1.0000 </r>
       <r>    1.5011    1.0000 </r>
       <r>    3.2191    1.0000 </r>
       <r>    4.8965    1.0000 </r>
       <r>    8.9421    0.0000 </r>
       <r>    9.2430    0.0000 </r>
       <r>   10.5737    0.0000 </r>
       <r>   11.0525    0.0000 </r>
      </set>
      <set comment="kpoint 15">
       <r>   -5.5432    1.0000 </r>
       <r>    2.9944    1.0000 </r>
       <r>    4.3687    1.0000 </r>
       <r>    5.2820    1.0000 </r>
       <r>    8.4498    0.0000 </r>
       <r>    9.1626    0.0000 </r>
       <r>    9.8759    0.0000 </r>
       <r>   11.1441    0.0000 </r>
      </set>
      <set comment="kpoint 16">
       <r>   -4.7378    1.0000 </r>
       <r>    1.6668    1.0000 </r>
       <r>    3.6371    1.0000 </r>
       <r>    3.7597    1.0000 </r>
       <r>    7.0402    0.0000 </r>
       <r>    8.7391    0.0000 </r>
       <r>   11.9780    0.0000 </r>
       <r>   12.1244    0.0000 </r>
      </set>
      <set comment="kpoint 17">
       <r>   -3.9749    1.0000 </r>
       <r>    0.4125    1.0000 </r>
       <r>    2.8337    1.0000 </r>
       <r>    3.4042    1.0000 </r>
       <r>    7.3638    0.0000 </r>
       <r>    8.5593    0.0000 </r>
       <r>   11.9417    0.0000 </r>
       <r>   13.1385    0.0000 </r>
      </set>
      <set comment="kpoint 18">
       <r>   -3.0593    1.0000 </r>
       <r>   -0.8097    1.0000 </r>
       <r>    1.9787    1.0000 </r>
       <r>    3.3719    1.0000 </r>
       <r>    7.6016    0.0000 </r>
       <r>   10.2637    0.0000 </r>
       <r>   11.4954    0.0000 </r>
       <r>   13.0478    0.0000 </r>
      </set>
      <set comment="kpoint 19">
       <r>   -3.1308    1.0000 </r>
       <r>   -0.7161    1.0000 </r>
       <r>    1.6164    1.0000 </r>
       <r>    3.7244    1.0000 </r>
       <r>    8.0176    0.0000 </r>
       <r>   11.0212    0.0000 </r>
       <r>   12.3475    0.0000 </r>
       <r>   12.6661    0.0000 </r>
      </set>
      <set comment="kpoint 20">
       <r>   -4.0435    1.0000 </r>
       <r>    0.2462    1.0000 </r>
       <r>    2.2372    1.0000 </r>
       <r>    4.3276    1.0000 </r>
       <r>    8.6752    0.0000 </r>
       <r>    9.8954    0.0000 </r>
       <r>   11.3533    0.0000 </r>
       <r>   11.6538    0.0000 </r>
      </set>
      <set comment="kpoint 21">
       <r>   -4.7765    1.0000 </r>
       <r>    0.8761    1.0000 </r>
       <r>    3.9114    1.0000 </r>
       <r>    4.7953    1.0000 </r>
       <r>    8.4149    0.0000 </r>
       <r>    9.2476    0.0000 </r>
       <r>   10.1217    0.0000 </r>
       <r>   11.8484    0.0000 </r>
      </set>
      <set comment="kpoint 22">
       <r>   -3.3123    1.0000 </r>
       <r>   -0.4604    1.0000 </r>
       <r>    2.9315    1.0000 </r>
       <r>    3.1535    1.0000 </r>
       <r>    6.6447    0.0007 </r>
       <r>    7.3508    0.0000 </r>
       <r>   14.3335    0.0000 </r>
       <r>   14.3361    0.0000 </r>
      </set>
      <set comment="kpoint 23">
       <r>   -2.3877    1.0000 </r>
       <r>   -1.4638    1.0000 </r>
       <r>    2.3606    1.0000 </r>
       <r>    2.9040    1.0000 </r>
       <r>    7.0770    0.0000 </r>
       <r>    7.8181    0.0000 </r>
       <r>   14.0548    0.0000 </r>
       <r>   15.0825    0.0000 </r>
      </set>
      <set comment="kpoint 24">
       <r>   -2.4808    1.0000 </r>
       <r>   -1.3004    1.0000 </r>
       <r>    1.6149    1.0000 </r>
       <r>    3.2251    1.0000 </r>
       <r>    7.4477    0.0000 </r>
       <r>   10.0990    0.0000 </r>
       <r>   12.4939    0.0000 </r>
       <r>   13.6542    0.0000 </r>
      </set>
      <set comment="kpoint 25">
       <r>   -3.2470    1.0000 </r>
       <r>   -0.9105    1.0000 </r>
       <r>    2.1951    1.0000 </r>
       <r>    3.8412    1.0000 </r>
       <r>    8.1414    0.0000 </r>
       <r>   10.1504    0.0000 </r>
       <r>   11.7350    0.0000 </r>
       <r>   12.9941    0.0000 </r>
      </set>
      <set comment="kpoint 26">
       <r>   -3.8666    1.0000 </r>
       <r>   -0.7715    1.0000 </r>
       <r>    3.7356    1.0000 </r>
       <r>    4.4486    1.0000 </r>
       <r>    8.2092    0.0000 </r>
       <r>    9.1339    0.0000 </r>
       <r>    9.9417    0.0000 </r>
       <r>   13.5411    0.0000 </r>
      </set>
      <set comment="kpoint 27">
       <r>   -2.4411    1.0000 </r>
       <r>   -1.4827    1.0000 </r>
       <r>    2.7905    1.0000 </r>
       <r>    3.0295    1.0000 </r>
       <r>    6.6323    0.0009 </r>
       <r>    6.9940    0.0000 </r>
       <r>   15.4093    0.0000 </r>
       <r>   15.4844    0.0000 </r>
      </set>
      <set comment="kpoint 28">
       <r>   -3.2249    1.0000 </r>
       <r>   -0.5248    1.0000 </r>
       <r>    2.5223    1.0000 </r>
       <r>    3.0666    1.0000 </r>
       <r>    7.1693    0.0000 </r>
       <r>    8.0691    0.0000 </r>
       <r>   12.9673    0.0000 </r>
       <r>   14.3246    0.0000 </r>
      </set>
      <set comment="kpoint 29">
       <r>   -3.7001    1.0000 </r>
       <r>   -0.2801    1.0000 </r>
       <r>    2.5997    1.0000 </r>
       <r>    3.6796    1.0000 </r>
       <r>    7.8871    0.0000 </r>
       <r>   10.4569    0.0000 </r>
       <r>   10.6952    0.0000 </r>
       <r>   11.9528    0.0000 </r>
      </set>
      <set comment="kpoint 30">
       <r>   -4.0822    1.0000 </r>
       <r>    0.5998    1.0000 </r>
       <r>    3.2134    1.0000 </r>
       <r>    3.3983    1.0000 </r>
       <r>    6.7788    0.0000 </r>
       <r>    7.9355    0.0000 </r>
       <r>   13.1452    0.0000 </r>
       <r>   13.2110    0.0000 </r>
      </set>
      <set comment="kpoint 31">
       <r>   -4.6183    1.0000 </r>
       <r>    1.3113    1.0000 </r>
       <r>    3.2645    1.0000 </r>
       <r>    3.9292    1.0000 </r>
       <r>    7.6611    0.0000 </r>
       <r>    9.2661    0.0000 </r>
       <r>   10.9801    0.0000 </r>
       <r>   11.9852    0.0000 </r>
      </set>
      <set comment="kpoint 32">
       <r>   -5.2709    1.0000 </r>
       <r>    2.7056    1.0000 </r>
       <r>    4.1984    1.0000 </r>
       <r>    4.2254    1.0000 </r>
       <r>    7.4188    0.0000 </r>
       <r>    9.6378    0.0000 </r>
       <r>   10.9028    0.0000 </r>
       <r>   11.0671    0.0000 </r>
      </set>
      <set comment="kpoint 33">
       <r>   -5.6786    1.0000 </r>
       <r>    3.0773    1.0000 </r>
       <r>    5.3329    1.0000 </r>
       <r>    5.3329    1.0000 </r>
       <r>    8.1588    0.0000 </r>
       <r>    9.2156    0.0000 </r>
       <r>    9.2156    0.0000 </r>
       <r>   11.6965    0.0000 </r>
      </set>
      <set comment="kpoint 34">
       <r>   -5.2807    1.0000 </r>
       <r>    2.2362    1.0000 </r>
       <r>    3.7842    1.0000 </r>
       <r>    5.3565    1.0000 </r>
       <r>    8.8182    0.0000 </r>
       <r>    9.3403    0.0000 </r>
       <r>    9.6604    0.0000 </r>
       <r>   11.7060    0.0000 </r>
      </set>
      <set comment="kpoint 35">
       <r>   -4.5215    1.0000 </r>
       <r>    0.8517    1.0000 </r>
       <r>    2.6793    1.0000 </r>
       <r>    4.8354    1.0000 </r>
       <r>    8.6424    0.0000 </r>
       <r>   10.1140    0.0000 </r>
       <r>   10.3513    0.0000 </r>
       <r>   11.9835    0.0000 </r>
      </set>
      <set comment="kpoint 36">
       <r>   -3.6086    1.0000 </r>
       <r>   -0.6706    1.0000 </r>
       <r>    2.5324    1.0000 </r>
       <r>    4.2904    1.0000 </r>
       <r>    8.1166    0.0000 </r>
       <r>   10.3185    0.0000 </r>
       <r>   10.5195    0.0000 </r>
       <r>   13.8829    0.0000 </r>
      </set>
      <set comment="kpoint 37">
       <r>   -3.5931    1.0000 </r>
       <r>   -0.6992    1.0000 </r>
       <r>    2.8399    1.0000 </r>
       <r>    3.9616    1.0000 </r>
       <r>    7.8234    0.0000 </r>
       <r>   10.3941    0.0000 </r>
       <r>   10.8738    0.0000 </r>
       <r>   11.8813    0.0000 </r>
      </set>
      <set comment="kpoint 38">
       <r>   -4.5050    1.0000 </r>
       <r>    0.8480    1.0000 </r>
       <r>    3.4657    1.0000 </r>
       <r>    3.9346    1.0000 </r>
       <r>    7.7547    0.0000 </r>
       <r>    9.9925    0.0000 </r>
       <r>   10.6890    0.0000 </r>
       <r>   11.2616    0.0000 </r>
      </set>
      <set comment="kpoint 39">
       <r>   -5.0200    1.0000 </r>
       <r>    1.5571    1.0000 </r>
       <r>    4.3150    1.0000 </r>
       <r>    4.3661    1.0000 </r>
       <r>    8.1652    0.0000 </r>
       <r>    9.5946    0.0000 </r>
       <r>   10.5021    0.0000 </r>
       <r>   10.8676    0.0000 </r>
      </set>
      <set comment="kpoint 40">
       <r>   -4.3835    1.0000 </r>
       <r>    0.7921    1.0000 </r>
       <r>    2.7366    1.0000 </r>
       <r>    4.1679    1.0000 </r>
       <r>    8.6612    0.0000 </r>
       <r>    9.7505    0.0000 </r>
       <r>   10.2203    0.0000 </r>
       <r>   11.7999    0.0000 </r>
      </set>
      <set comment="kpoint 41">
       <r>   -3.4759    1.0000 </r>
       <r>   -0.3228    1.0000 </r>
       <r>    1.9282    1.0000 </r>
       <r>    3.5814    1.0000 </r>
       <r>    9.1245    0.0000 </r>
       <r>    9.6219    0.0000 </r>
       <r>   10.9251    0.0000 </r>
       <r>   12.9234    0.0000 </r>
      </set>
      <set comment="kpoint 42">
       <r>   -2.9770    1.0000 </r>
       <r>   -0.9528    1.0000 </r>
       <r>    1.9363    1.0000 </r>
       <r>    3.2599    1.0000 </r>
       <r>    8.6376    0.0000 </r>
       <r>    9.9553    0.0000 </r>
       <r>   11.7235    0.0000 </r>
       <r>   13.0611    0.0000 </r>
      </set>
      <set comment="kpoint 43">
       <r>   -3.7673    1.0000 </r>
       <r>    0.0790    1.0000 </r>
       <r>    2.3630    1.0000 </r>
       <r>    3.4435    1.0000 </r>
       <r>    8.3629    0.0000 </r>
       <r>    9.5942    0.0000 </r>
       <r>   10.5152    0.0000 </r>
       <r>   13.0524    0.0000 </r>
      </set>
      <set comment="kpoint 44">
       <r>   -3.8789    1.0000 </r>
       <r>    0.1325    1.0000 </r>
       <r>    2.7087    1.0000 </r>
       <r>    3.5969    1.0000 </r>
       <r>    7.3602    0.0000 </r>
       <r>    9.4280    0.0000 </r>
       <r>   11.7884    0.0000 </r>
       <r>   12.1060    0.0000 </r>
      </set>
      <set comment="kpoint 45">
       <r>   -3.0613    1.0000 </r>
       <r>   -0.6676    1.0000 </r>
       <r>    2.1104    1.0000 </r>
       <r>    2.8929    1.0000 </r>
       <r>    8.1516    0.0000 </r>
       <r>    9.1785    0.0000 </r>
       <r>   11.4210    0.0000 </r>
       <r>   14.2952    0.0000 </r>
      </set>
      <set comment="kpoint 46">
       <r>   -2.2369    1.0000 </r>
       <r>   -1.4322    1.0000 </r>
       <r>    1.7809    1.0000 </r>
       <r>    2.3802    1.0000 </r>
       <r>    9.2955    0.0000 </r>
       <r>   10.2328    0.0000 </r>
       <r>   10.9659    0.0000 </r>
       <r>   11.9810    0.0000 </r>
      </set>
      <set comment="kpoint 47">
       <r>   -2.8499    1.0000 </r>
       <r>   -0.8809    1.0000 </r>
       <r>    1.7779    1.0000 </r>
       <r>    2.8671    1.0000 </r>
       <r>    9.3929    0.0000 </r>
       <r>    9.8383    0.0000 </r>
       <r>   10.6274    0.0000 </r>
       <r>   13.1643    0.0000 </r>
      </set>
      <set comment="kpoint 48">
       <r>   -2.4058    1.0000 </r>
       <r>   -1.4146    1.0000 </r>
       <r>    1.8879    1.0000 </r>
       <r>    3.2456    1.0000 </r>
       <r>    6.9134    0.0000 </r>
       <r>    8.8548    0.0000 </r>
       <r>   13.9602    0.0000 </r>
       <r>   14.1840    0.0000 </r>
      </set>
      <set comment="kpoint 49">
       <r>   -2.3038    1.0000 </r>
       <r>   -1.4415    1.0000 </r>
       <r>    1.9844    1.0000 </r>
       <r>    2.6012    1.0000 </r>
       <r>    8.0412    0.0000 </r>
       <r>    8.9740    0.0000 </r>
       <r>   12.4398    0.0000 </r>
       <r>   13.5727    0.0000 </r>
      </set>
      <set comment="kpoint 50">
       <r>   -3.1611    1.0000 </r>
       <r>   -0.6325    1.0000 </r>
       <r>    2.1637    1.0000 </r>
       <r>    3.3636    1.0000 </r>
       <r>    7.0682    0.0000 </r>
       <r>    9.0421    0.0000 </r>
       <r>   12.9729    0.0000 </r>
       <r>   13.0258    0.0000 </r>
      </set>
      <set comment="kpoint 51">
       <r>   -4.9102    1.0000 </r>
       <r>    0.8400    1.0000 </r>
       <r>    4.9098    1.0000 </r>
       <r>    4.9098    1.0000 </r>
       <r>    7.7163    0.0000 </r>
       <r>    9.4545    0.0000 </r>
       <r>    9.4545    0.0000 </r>
       <r>   13.6274    0.0000 </r>
      </set>
      <set comment="kpoint 52">
       <r>   -4.4223    1.0000 </r>
       <r>    0.2580    1.0000 </r>
       <r>    3.4180    1.0000 </r>
       <r>    4.8201    1.0000 </r>
       <r>    8.4231    0.0000 </r>
       <r>    9.6889    0.0000 </r>
       <r>    9.7321    0.0000 </r>
       <r>   13.0056    0.0000 </r>
      </set>
      <set comment="kpoint 53">
       <r>   -3.6162    1.0000 </r>
       <r>   -0.2635    1.0000 </r>
       <r>    1.8464    1.0000 </r>
       <r>    4.2213    1.0000 </r>
       <r>    8.0329    0.0000 </r>
       <r>   11.1615    0.0000 </r>
       <r>   11.3568    0.0000 </r>
       <r>   12.7707    0.0000 </r>
      </set>
      <set comment="kpoint 54">
       <r>   -2.7784    1.0000 </r>
       <r>   -1.0510    1.0000 </r>
       <r>    1.4951    1.0000 </r>
       <r>    3.6583    1.0000 </r>
       <r>    7.3918    0.0000 </r>
       <r>   11.3697    0.0000 </r>
       <r>   12.4619    0.0000 </r>
       <r>   12.7578    0.0000 </r>
      </set>
      <set comment="kpoint 55">
       <r>   -4.1018    1.0000 </r>
       <r>   -0.3120    1.0000 </r>
       <r>    3.7672    1.0000 </r>
       <r>    4.2390    1.0000 </r>
       <r>    8.0999    0.0000 </r>
       <r>    9.4732    0.0000 </r>
       <r>   10.2287    0.0000 </r>
       <r>   12.3130    0.0000 </r>
      </set>
      <set comment="kpoint 56">
       <r>   -3.4701    1.0000 </r>
       <r>   -0.6657    1.0000 </r>
       <r>    2.4238    1.0000 </r>
       <r>    3.7493    1.0000 </r>
       <r>    8.8759    0.0000 </r>
       <r>    9.2189    0.0000 </r>
       <r>   11.8304    0.0000 </r>
       <r>   12.0546    0.0000 </r>
      </set>
      <set comment="kpoint 57">
       <r>   -2.6383    1.0000 </r>
       <r>   -1.1127    1.0000 </r>
       <r>    1.5890    1.0000 </r>
       <r>    3.0187    1.0000 </r>
       <r>    8.5040    0.0000 </r>
       <r>   10.7973    0.0000 </r>
       <r>   11.6107    0.0000 </r>
       <r>   12.1563    0.0000 </r>
      </set>
      <set comment="kpoint 58">
       <r>   -3.1041    1.0000 </r>
       <r>   -0.9456    1.0000 </r>
       <r>    2.0154    1.0000 </r>
       <r>    3.7609    1.0000 </r>
       <r>    7.5453    0.0000 </r>
       <r>   11.3368    0.0000 </r>
       <r>   11.6526    0.0000 </r>
       <r>   11.7614    0.0000 </r>
      </set>
      <set comment="kpoint 59">
       <r>   -4.0015    1.0000 </r>
       <r>   -0.8376    1.0000 </r>
       <r>    4.6843    1.0000 </r>
       <r>    4.6843    1.0000 </r>
       <r>    7.4458    0.0000 </r>
       <r>    9.3170    0.0000 </r>
       <r>    9.3170    0.0000 </r>
       <r>   13.6548    0.0000 </r>
      </set>
      <set comment="kpoint 60">
       <r>   -3.6428    1.0000 </r>
       <r>   -1.0132    1.0000 </r>
       <r>    3.4403    1.0000 </r>
       <r>    4.4087    1.0000 </r>
       <r>    8.1413    0.0000 </r>
       <r>    9.4571    0.0000 </r>
       <r>    9.9111    0.0000 </r>
       <r>   14.1099    0.0000 </r>
      </set>
     </set>
    </set>
   </array>
  </eigenvalues>
  <separator name="orbital magnetization" >
   <v name="MAGDIPOLOUT">      0.00000000      0.00000000      0.00000000</v>
  </separator>
  <dos>
   <i name="efermi">      6.19194977 </i>
   <total>
    <array>
     <dimension dim="1">gridpoints</dimension>
     <dimension dim="2">spin</dimension>
     <field>energy</field>
     <field>total</field>
     <field>integrated</field>
     <set>
      <set comment="spin 1">
       <r>    -8.0837     0.0000     0.0000 </r>
       <r>    -7.9985     0.0000     0.0000 </r>
       <r>    -7.9133     0.0000     0.0000 </r>
       <r>    -7.8280     0.0000     0.0000 </r>
       <r>    -7.7428     0.0000     0.0000 </r>
       <r>    -7.6576     0.0000     0.0000 </r>
       <r>    -7.5723     0.0000     0.0000 </r>
       <r>    -7.4871     0.0000     0.0000 </r>
       <r>    -7.4019     0.0000     0.0000 </r>
       <r>    -7.3167     0.0000     0.0000 </r>
       <r>    -7.2314     0.0000     0.0000 </r>
       <r>    -7.1462     0.0000     0.0000 </r>
       <r>    -7.0610     0.0000     0.0000 </r>
       <r>    -6.9758     0.0000     0.0000 </r>
       <r>    -6.8905     0.0000     0.0000 </r>
       <r>    -6.8053     0.0000     0.0000 </r>
       <r>    -6.7201     0.0000     0.0000 </r>
       <r>    -6.6349     0.0000     0.0000 </r>
       <r>    -6.5496     0.0000     0.0000 </r>
       <r>    -6.4644     0.0003     0.0000 </r>
       <r>    -6.3792     0.0016     0.0002 </r>
       <r>    -6.2939     0.0063     0.0007 </r>
       <r>    -6.2087     0.0185     0.0023 </r>
       <r>    -6.1235     0.0422     0.0059 </r>
       <r>    -6.0383     0.0770     0.0124 </r>
       <r>    -5.9530     0.1165     0.0224 </r>
       <r>    -5.8678     0.1531     0.0354 </r>
       <r>    -5.7826     0.1853     0.0512 </r>
       <r>    -5.6974     0.2169     0.0697 </r>
       <r>    -5.6121     0.2466     0.0907 </r>
       <r>    -5.5269     0.2665     0.1134 </r>
       <r>    -5.4417     0.2764     0.1370 </r>
       <r>    -5.3564     0.2927     0.1619 </r>
       <r>    -5.2712     0.3274     0.1898 </r>
       <r>    -5.1860     0.3648     0.2209 </r>
       <r>    -5.1008     0.3794     0.2533 </r>
       <r>    -5.0155     0.3736     0.2851 </r>
       <r>    -4.9303     0.3765     0.3172 </r>
       <r>    -4.8451     0.4016     0.3514 </r>
       <r>    -4.7599     0.4356     0.3885 </r>
       <r>    -4.6746     0.4667     0.4283 </r>
       <r>    -4.5894     0.4971     0.4707 </r>
       <r>    -4.5042     0.5236     0.5153 </r>
       <r>    -4.4190     0.5339     0.5608 </r>
       <r>    -4.3337     0.5234     0.6054 </r>
       <r>    -4.2485     0.5105     0.6489 </r>
       <r>    -4.1633     0.5342     0.6945 </r>
       <r>    -4.0780     0.6168     0.7470 </r>
       <r>    -3.9928     0.7216     0.8085 </r>
       <r>    -3.9076     0.7870     0.8756 </r>
       <r>    -3.8224     0.8001     0.9438 </r>
       <r>    -3.7371     0.7970     1.0117 </r>
       <r>    -3.6519     0.8026     1.0801 </r>
       <r>    -3.5667     0.8030     1.1485 </r>
       <r>    -3.4815     0.7698     1.2142 </r>
       <r>    -3.3962     0.7104     1.2747 </r>
       <r>    -3.3110     0.6845     1.3330 </r>
       <r>    -3.2258     0.7346     1.3957 </r>
       <r>    -3.1405     0.8134     1.4650 </r>
       <r>    -3.0553     0.8265     1.5354 </r>
       <r>    -2.9701     0.7346     1.5980 </r>
       <r>    -2.8849     0.5854     1.6479 </r>
       <r>    -2.7996     0.4526     1.6865 </r>
       <r>    -2.7144     0.3763     1.7186 </r>
       <r>    -2.6292     0.3666     1.7498 </r>
       <r>    -2.5440     0.4206     1.7857 </r>
       <r>    -2.4587     0.5107     1.8292 </r>
       <r>    -2.3735     0.5737     1.8781 </r>
       <r>    -2.2883     0.5483     1.9248 </r>
       <r>    -2.2031     0.4279     1.9613 </r>
       <r>    -2.1178     0.2655     1.9839 </r>
       <r>    -2.0326     0.1276     1.9948 </r>
       <r>    -1.9474     0.0467     1.9987 </r>
       <r>    -1.8621     0.0159     2.0001 </r>
       <r>    -1.7769     0.0215     2.0019 </r>
       <r>    -1.6917     0.0738     2.0082 </r>
       <r>    -1.6065     0.2015     2.0254 </r>
       <r>    -1.5212     0.3974     2.0593 </r>
       <r>    -1.4360     0.5716     2.1080 </r>
       <r>    -1.3508     0.6228     2.1611 </r>
       <r>    -1.2656     0.5693     2.2096 </r>
       <r>    -1.1803     0.5429     2.2558 </r>
       <r>    -1.0951     0.6412     2.3105 </r>
       <r>    -1.0099     0.8367     2.3818 </r>
       <r>    -0.9246     1.0267     2.4693 </r>
       <r>    -0.8394     1.1368     2.5662 </r>
       <r>    -0.7542     1.1559     2.6647 </r>
       <r>    -0.6690     1.0868     2.7573 </r>
       <r>    -0.5837     0.9386     2.8373 </r>
       <r>    -0.4985     0.7795     2.9038 </r>
       <r>    -0.4133     0.7007     2.9635 </r>
       <r>    -0.3281     0.6961     3.0228 </r>
       <r>    -0.2428     0.6552     3.0786 </r>
       <r>    -0.1576     0.5159     3.1226 </r>
       <r>    -0.0724     0.3594     3.1532 </r>
       <r>     0.0128     0.3071     3.1794 </r>
       <r>     0.0981     0.3822     3.2120 </r>
       <r>     0.1833     0.5045     3.2550 </r>
       <r>     0.2685     0.5705     3.3036 </r>
       <r>     0.3538     0.5295     3.3487 </r>
       <r>     0.4390     0.4130     3.3839 </r>
       <r>     0.5242     0.2973     3.4093 </r>
       <r>     0.6094     0.2460     3.4302 </r>
       <r>     0.6947     0.2808     3.4542 </r>
       <r>     0.7799     0.3680     3.4855 </r>
       <r>     0.8651     0.4206     3.5214 </r>
       <r>     0.9503     0.3702     3.5529 </r>
       <r>     1.0356     0.2472     3.5740 </r>
       <r>     1.1208     0.1472     3.5865 </r>
       <r>     1.2060     0.1319     3.5978 </r>
       <r>     1.2912     0.2015     3.6150 </r>
       <r>     1.3765     0.3413     3.6440 </r>
       <r>     1.4617     0.5421     3.6903 </r>
       <r>     1.5469     0.7579     3.7548 </r>
       <r>     1.6322     0.9017     3.8317 </r>
       <r>     1.7174     0.9422     3.9120 </r>
       <r>     1.8026     0.9488     3.9929 </r>
       <r>     1.8878     0.9870     4.0770 </r>
       <r>     1.9731     1.0385     4.1655 </r>
       <r>     2.0583     1.0637     4.2561 </r>
       <r>     2.1435     1.0738     4.3477 </r>
       <r>     2.2287     1.0906     4.4406 </r>
       <r>     2.3140     1.0992     4.5343 </r>
       <r>     2.3992     1.0751     4.6259 </r>
       <r>     2.4844     1.0269     4.7134 </r>
       <r>     2.5697     0.9948     4.7982 </r>
       <r>     2.6549     1.0197     4.8851 </r>
       <r>     2.7401     1.1219     4.9807 </r>
       <r>     2.8253     1.2848     5.0902 </r>
       <r>     2.9106     1.4329     5.2124 </r>
       <r>     2.9958     1.4773     5.3383 </r>
       <r>     3.0810     1.4254     5.4597 </r>
       <r>     3.1662     1.3854     5.5778 </r>
       <r>     3.2515     1.4155     5.6985 </r>
       <r>     3.3367     1.4442     5.8215 </r>
       <r>     3.4219     1.3893     5.9399 </r>
       <r>     3.5071     1.2933     6.0502 </r>
       <r>     3.5924     1.2871     6.1599 </r>
       <r>     3.6776     1.4168     6.2806 </r>
       <r>     3.7628     1.5488     6.4126 </r>
       <r>     3.8481     1.5108     6.5414 </r>
       <r>     3.9333     1.2981     6.6520 </r>
       <r>     4.0185     1.0758     6.7437 </r>
       <r>     4.1037     1.0091     6.8297 </r>
       <r>     4.1890     1.1195     6.9251 </r>
       <r>     4.2742     1.2820     7.0344 </r>
       <r>     4.3594     1.3473     7.1492 </r>
       <r>     4.4446     1.2648     7.2570 </r>
       <r>     4.5299     1.0975     7.3505 </r>
       <r>     4.6151     0.9458     7.4311 </r>
       <r>     4.7003     0.8730     7.5055 </r>
       <r>     4.7856     0.8694     7.5796 </r>
       <r>     4.8708     0.8503     7.6521 </r>
       <r>     4.9560     0.7360     7.7148 </r>
       <r>     5.0412     0.5563     7.7622 </r>
       <r>     5.1265     0.4194     7.7980 </r>
       <r>     5.2117     0.3848     7.8308 </r>
       <r>     5.2969     0.4079     7.8656 </r>
       <r>     5.3821     0.4031     7.8999 </r>
       <r>     5.4674     0.3384     7.9288 </r>
       <r>     5.5526     0.2523     7.9503 </r>
       <r>     5.6378     0.1882     7.9663 </r>
       <r>     5.7230     0.1483     7.9789 </r>
       <r>     5.8083     0.1132     7.9886 </r>
       <r>     5.8935     0.0742     7.9949 </r>
       <r>     5.9787     0.0387     7.9982 </r>
       <r>     6.0640     0.0153     7.9995 </r>
       <r>     6.1492     0.0046     7.9999 </r>
       <r>     6.2344     0.0020     8.0001 </r>
       <r>     6.3196     0.0058     8.0006 </r>
       <r>     6.4049     0.0215     8.0024 </r>
       <r>     6.4901     0.0587     8.0074 </r>
       <r>     6.5753     0.1168     8.0174 </r>
       <r>     6.6605     0.1757     8.0324 </r>
       <r>     6.7458     0.2167     8.0508 </r>
       <r>     6.8310     0.2534     8.0724 </r>
       <r>     6.9162     0.3186     8.0996 </r>
       <r>     7.0015     0.4140     8.1349 </r>
       <r>     7.0867     0.4959     8.1771 </r>
       <r>     7.1719     0.5344     8.2227 </r>
       <r>     7.2571     0.5645     8.2708 </r>
       <r>     7.3424     0.6282     8.3243 </r>
       <r>     7.4276     0.6959     8.3836 </r>
       <r>     7.5128     0.7172     8.4448 </r>
       <r>     7.5980     0.7134     8.5056 </r>
       <r>     7.6833     0.7502     8.5695 </r>
       <r>     7.7685     0.8572     8.6425 </r>
       <r>     7.8537     1.0180     8.7293 </r>
       <r>     7.9389     1.2125     8.8327 </r>
       <r>     8.0242     1.4200     8.9537 </r>
       <r>     8.1094     1.5776     9.0881 </r>
       <r>     8.1946     1.6056     9.2250 </r>
       <r>     8.2799     1.5066     9.3534 </r>
       <r>     8.3651     1.3755     9.4706 </r>
       <r>     8.4503     1.3006     9.5814 </r>
       <r>     8.5355     1.2928     9.6916 </r>
       <r>     8.6208     1.2911     9.8017 </r>
       <r>     8.7060     1.2282     9.9063 </r>
       <r>     8.7912     1.1175    10.0016 </r>
       <r>     8.8764     1.0453    10.0907 </r>
       <r>     8.9617     1.0858    10.1832 </r>
       <r>     9.0469     1.2787    10.2922 </r>
       <r>     9.1321     1.6067    10.4291 </r>
       <r>     9.2173     1.9295    10.5936 </r>
       <r>     9.3026     2.0531    10.7685 </r>
       <r>     9.3878     1.9221    10.9324 </r>
       <r>     9.4730     1.6736    11.0750 </r>
       <r>     9.5583     1.4972    11.2026 </r>
       <r>     9.6435     1.4720    11.3281 </r>
       <r>     9.7287     1.5299    11.4584 </r>
       <r>     9.8139     1.5564    11.5911 </r>
       <r>     9.8992     1.4989    11.7188 </r>
       <r>     9.9844     1.3883    11.8372 </r>
       <r>    10.0696     1.2992    11.9479 </r>
       <r>    10.1548     1.2698    12.0561 </r>
       <r>    10.2401     1.2617    12.1636 </r>
       <r>    10.3253     1.2275    12.2683 </r>
       <r>    10.4105     1.1807    12.3689 </r>
       <r>    10.4958     1.1623    12.4679 </r>
       <r>    10.5810     1.1817    12.5686 </r>
       <r>    10.6662     1.2238    12.6730 </r>
       <r>    10.7514     1.2859    12.7825 </r>
       <r>    10.8367     1.3740    12.8996 </r>
       <r>    10.9219     1.4544    13.0236 </r>
       <r>    11.0071     1.4472    13.1469 </r>
       <r>    11.0923     1.3124    13.2588 </r>
       <r>    11.1776     1.1099    13.3534 </r>
       <r>    11.2628     0.9408    13.4336 </r>
       <r>    11.3480     0.8501    13.5060 </r>
       <r>    11.4332     0.8178    13.5757 </r>
       <r>    11.5185     0.8403    13.6473 </r>
       <r>    11.6037     0.9595    13.7291 </r>
       <r>    11.6889     1.1734    13.8291 </r>
       <r>    11.7742     1.3869    13.9473 </r>
       <r>    11.8594     1.4990    14.0751 </r>
       <r>    11.9446     1.4756    14.2008 </r>
       <r>    12.0298     1.3213    14.3134 </r>
       <r>    12.1151     1.0698    14.4046 </r>
       <r>    12.2003     0.8137    14.4740 </r>
       <r>    12.2855     0.6654    14.5307 </r>
       <r>    12.3707     0.6583    14.5868 </r>
       <r>    12.4560     0.7107    14.6473 </r>
       <r>    12.5412     0.7108    14.7079 </r>
       <r>    12.6264     0.6359    14.7621 </r>
       <r>    12.7117     0.5659    14.8103 </r>
       <r>    12.7969     0.6034    14.8618 </r>
       <r>    12.8821     0.7971    14.9297 </r>
       <r>    12.9673     1.0828    15.0220 </r>
       <r>    13.0526     1.2868    15.1317 </r>
       <r>    13.1378     1.2595    15.2390 </r>
       <r>    13.2230     1.0086    15.3250 </r>
       <r>    13.3082     0.6805    15.3830 </r>
       <r>    13.3935     0.4435    15.4208 </r>
       <r>    13.4787     0.3806    15.4532 </r>
       <r>    13.5639     0.4426    15.4909 </r>
       <r>    13.6491     0.5063    15.5341 </r>
       <r>    13.7344     0.4954    15.5763 </r>
       <r>    13.8196     0.4317    15.6131 </r>
       <r>    13.9048     0.3789    15.6454 </r>
       <r>    13.9901     0.3711    15.6770 </r>
       <r>    14.0753     0.4011    15.7112 </r>
       <r>    14.1605     0.4503    15.7496 </r>
       <r>    14.2457     0.4987    15.7921 </r>
       <r>    14.3310     0.5008    15.8347 </r>
       <r>    14.4162     0.4123    15.8699 </r>
       <r>    14.5014     0.2584    15.8919 </r>
       <r>    14.5866     0.1186    15.9020 </r>
       <r>    14.6719     0.0398    15.9054 </r>
       <r>    14.7571     0.0140    15.9066 </r>
       <r>    14.8423     0.0202    15.9083 </r>
       <r>    14.9276     0.0508    15.9127 </r>
       <r>    15.0128     0.0966    15.9209 </r>
       <r>    15.0980     0.1318    15.9321 </r>
       <r>    15.1832     0.1350    15.9436 </r>
       <r>    15.2685     0.1208    15.9539 </r>
       <r>    15.3537     0.1197    15.9641 </r>
       <r>    15.4389     0.1308    15.9753 </r>
       <r>    15.5241     0.1252    15.9859 </r>
       <r>    15.6094     0.0914    15.9937 </r>
       <r>    15.6946     0.0486    15.9979 </r>
       <r>    15.7798     0.0186    15.9995 </r>
       <r>    15.8650     0.0051    15.9999 </r>
       <r>    15.9503     0.0010    16.0000 </r>
       <r>    16.0355     0.0001    16.0000 </r>
       <r>    16.1207     0.0000    16.0000 </r>
       <r>    16.2060     0.0000    16.0000 </r>
       <r>    16.2912     0.0000    16.0000 </r>
       <r>    16.3764     0.0000    16.0000 </r>
       <r>    16.4616     0.0000    16.0000 </r>
       <r>    16.5469     0.0000    16.0000 </r>
       <r>    16.6321     0.0000    16.0000 </r>
       <r>    16.7173     0.0000    16.0000 </r>
       <r>    16.8025     0.0000    16.0000 </r>
       <r>    16.8878     0.0000    16.0000 </r>
       <r>    16.9730     0.0000    16.0000 </r>
       <r>    17.0582     0.0000    16.0000 </r>
       <r>    17.1434     0.0000    16.0000 </r>
       <r>    17.2287     0.0000    16.0000 </r>
       <r>    17.3139     0.0000    16.0000 </r>
       <r>    17.3991     0.0000    16.0000 </r>
       <r>    17.4844     0.0000    16.0000 </r>
      </set>
     </set>
    </array>
   </total>
  </dos>
 </calculation>
 <structure name="finalpos" >
  <crystal>
   <varray name="basis" >
    <v>       0.00000000       2.71500000       2.71500000 </v>
    <v>       2.71500000       0.00000000       2.71500000 </v>
    <v>       2.71500000       2.71500000       0.00000000 </v>
   </varray>
   <i name="volume">     40.02575175 </i>
   <varray name="rec_basis" >
    <v>      -0.18416206       0.18416206       0.18416206 </v>
    <v>       0.18416206      -0.18416206       0.18416206 </v>
    <v>       0.18416206       0.18416206      -0.18416206 </v>
   </varray>
  </crystal>
  <varray name="positions" >
   <v>       0.50000000       0.50000000       0.50000000 </v>
   <v>       0.75000000       0.75000000       0.75000000 </v>
  </varray>
 </structure>
</modeling>
