unknown system                          
   1.00000000000000     
    -2.381959    2.381959    1.359241
     2.381959   -2.381959    1.359241
     2.381959    2.381959   -1.359241
   Si
     2
Direct
  0.000000  0.000000  0.000000
  0.250000  0.750000  0.500000
 
   36   36   36
 -5.3145     -4.4006     -1.8818      1.6479      5.4125      8.6781      10.932      11.968      11.882      10.995    
  9.7278      8.4188      7.1993      6.1440      5.2912      4.6494      4.2088      3.9535      3.8700      3.9535    
  4.2088      4.6494      5.2912      6.1440      7.1993      8.4188      9.7278      10.995      11.882      11.968    
  10.932      8.6781      5.4125      1.6479     -1.8818     -4.4006     -4.4006     -4.8135     -3.4528     -.65415    
  2.9269      6.5191      9.4506      11.301      11.957      11.589      10.552      9.2619      7.9829      6.8182    
  5.8312      5.0501      4.4767      4.0986      3.9000      3.8699      4.0063      4.3171      4.8173      5.5222    
  6.4379      7.5490      8.8077      10.130      11.347      12.075      11.910      10.582      8.0730      4.6719    
 0.95868     -2.3110     -1.8818     -3.4529     -3.3783     -1.6858      1.2035      4.6148      7.8254      10.258    
  11.599      11.832      11.184      10.031      8.7481      7.5158      6.4199      5.5110      4.8072      4.3050    
  3.9900      3.8477      3.8696      4.0568      4.4199      4.9745      5.7346      6.7019      7.8542      9.1358    
  10.455      11.605      12.189      11.834      10.334      7.7410      4.4116     0.95868      1.6479     -.65417    
 -1.6858     -1.2004     0.66628      3.4441      6.4823      9.1434      10.966      11.749      11.561      10.673    
  9.4562      8.2041      7.0345      6.0188      5.1945      4.5709      4.1399      3.8866      3.7982      3.8692    
  4.1036      4.5137      5.1154      5.9204      6.9260      8.1038      9.3917      10.692      11.772      12.245    
  11.785      10.244      7.7410      4.6719      5.4125      2.9268      1.2035     0.66628      1.4387      3.3049    
  5.7853      8.2913      10.296      11.462      11.698      11.138      10.077      8.8517      7.6489      6.5559    
  5.6286      4.8922      4.3485      3.9864      3.7914      3.7531      3.8689      4.1453      4.5955      5.2349    
  6.0727      7.1018      8.2885      9.5670      10.836      11.853      12.262      11.785      10.334      8.0730    
  8.6781      6.5191      4.6148      3.4441      3.3049      4.2169      5.9183      7.9570      9.8344      11.147    
  11.677      11.427      10.582      9.4342      8.2378      7.1016      6.0959      5.2616      4.6130      4.1463    
  3.8487      3.7072      3.7139      3.8689      4.1805      4.6624      5.3286      6.1857      7.2227      8.4020    
  9.6560      10.884      11.853      12.245      11.834      10.582      10.932      9.4506      7.8254      6.4823    
  5.7854      5.9183      6.8247      8.2313      9.7423      10.965      11.616      11.590      10.960      9.9369    
  8.7803      7.6354      6.5803      5.6688      4.9282      4.3642      3.9691      3.7301      3.6361      3.6817    
  3.8692      4.2081      4.7119      5.3932      6.2553      7.2843      8.4403      9.6560      10.836      11.772    
  12.189      11.910      11.968      11.301      10.258      9.1434      8.2914      7.9570      8.2313      9.0122    
  10.044      11.005      11.612      11.693      11.231      10.350      9.2624      8.1395      7.0651      6.1010    
  5.2861      4.6363      4.1512      3.8208      3.6332      3.5796      3.6571      3.8696      4.2271      4.7425    
  5.4260      6.2788      7.2843      8.4020      9.5670      10.692      11.605      12.075      11.882      11.957    
  11.599      10.966      10.296      9.8344      9.7423      10.044      10.619      11.251      11.701      11.784    
  11.425      10.672      9.6750      8.5998      7.5348      6.5450      5.6771      4.9570      4.3921      3.9777    
  3.7036      3.5595      3.5388      3.6406      3.8700      4.2369      4.7528      5.4260      6.2553      7.2227    
  8.2885      9.3917      10.455      11.347      10.995      11.589      11.832      11.749      11.462      11.147    
  10.965      11.005      11.251      11.588      11.847      11.869      11.557      10.908      10.012      9.0057    
  7.9765      6.9879      6.0909      5.3191      4.6880      4.1993      3.8462      3.6192      3.5100      3.5141    
  3.6323      3.8701      4.2369      4.7425      5.3932      6.1857      7.1018      8.1038      9.1358      10.130    
  9.7278      10.552      11.184      11.561      11.698      11.677      11.616      11.612      11.701      11.847    
  11.954      11.908      11.617      11.054      10.264      9.3476      8.3790      7.4181      6.5172      5.7151    
  5.0344      4.4834      4.0604      3.7581      3.5684      3.4851      3.5058      3.6323      3.8700      4.2271    
  4.7119      5.3286      6.0727      6.9260      7.8542      8.8077      8.4188      9.2620      10.031      10.673    
  11.138      11.427      11.590      11.693      11.784      11.869      11.908      11.830      11.571      11.094    
  10.421      9.6139      8.7309      7.8248      6.9465      6.1377      5.4267      4.8282      4.3460      3.9767    
  3.7139      3.5514      3.4851      3.5141      3.6406      3.8696      4.2081      4.6624      5.2349      5.9204    
  6.7019      7.5490      7.1993      7.9829      8.7481      9.4563      10.077      10.582      10.960      11.231    
  11.425      11.557      11.617      11.571      11.376      11.006      10.466      9.7910      9.0194      8.1962    
  7.3686      6.5790      5.8598      5.2315      4.7034      4.2769      3.9487      3.7139      3.5684      3.5100    
  3.5388      3.6571      3.8692      4.1805      4.5955      5.1154      5.7346      6.4379      6.1440      6.8182    
  7.5158      8.2041      8.8517      9.4342      9.9369      10.350      10.672      10.908      11.054      11.094    
  11.006      10.770      10.385      9.8635      9.2294      8.5184      7.7717      7.0299      6.3279      5.6906    
  5.1331      4.6617      4.2769      3.9767      3.7581      3.6192      3.5595      3.5796      3.6817      3.8689    
  4.1453      4.5137      4.9745      5.5222      5.2912      5.8312      6.4200      7.0345      7.6489      8.2378    
  8.7804      9.2624      9.6750      10.012      10.264      10.421      10.466      10.385      10.169      9.8181    
  9.3453      8.7751      8.1405      7.4779      6.8218      6.2006      5.6338      5.1331      4.7034      4.3460    
  4.0604      3.8462      3.7036      3.6332      3.6361      3.7139      3.8689      4.1036      4.4199      4.8173    
  4.6494      5.0501      5.5110      6.0188      6.5559      7.1016      7.6354      8.1395      8.5998      9.0057    
  9.3476      9.6139      9.7910      9.8635      9.8181      9.6475      9.3536      8.9492      8.4569      7.9060    
  7.3279      6.7517      6.2006      5.6906      5.2315      4.8282      4.4834      4.1993      3.9777      3.8208    
  3.7301      3.7072      3.7531      3.8692      4.0568      4.3171      4.2088      4.4767      4.8073      5.1945    
  5.6286      6.0959      6.5803      7.0651      7.5348      7.9765      8.3790      8.7309      9.0194      9.2294    
  9.3453      9.3536      9.2467      9.0258      8.7015      8.2934      7.8266      7.3279      6.8218      6.3279    
  5.8598      5.4267      5.0344      4.6880      4.3921      4.1512      3.9691      3.8487      3.7914      3.7982    
  3.8696      4.0063      3.9535      4.0986      4.3050      4.5709      4.8922      5.2616      5.6688      6.1010    
  6.5450      6.9879      7.4181      7.8248      8.1962      8.5184      8.7751      8.9492      9.0258      8.9953    
  8.8566      8.6173      8.2934      7.9060      7.4779      7.0299      6.5790      6.1377      5.7151      5.3191    
  4.9570      4.6363      4.3642      4.1463      3.9864      3.8866      3.8477      3.8699      3.8700      3.9000    
  3.9900      4.1399      4.3485      4.6130      4.9282      5.2861      5.6771      6.0909      6.5173      6.9465    
  7.3686      7.7717      8.1405      8.4569      8.7015      8.8566      8.9098      8.8566      8.7015      8.4569    
  8.1405      7.7717      7.3686      6.9465      6.5172      6.0909      5.6771      5.2861      4.9282      4.6130    
  4.3485      4.1399      3.9900      3.9000      3.9535      3.8699      3.8477      3.8866      3.9864      4.1463    
  4.3642      4.6363      4.9570      5.3191      5.7151      6.1377      6.5790      7.0299      7.4779      7.9060    
  8.2934      8.6173      8.8566      8.9953      9.0258      8.9492      8.7751      8.5184      8.1962      7.8248    
  7.4181      6.9879      6.5450      6.1010      5.6688      5.2616      4.8922      4.5709      4.3050      4.0986    
  4.2088      4.0063      3.8696      3.7982      3.7914      3.8487      3.9691      4.1512      4.3921      4.6880    
  5.0344      5.4267      5.8598      6.3279      6.8218      7.3279      7.8266      8.2934      8.7015      9.0258    
  9.2467      9.3536      9.3453      9.2294      9.0194      8.7309      8.3790      7.9765      7.5348      7.0651    
  6.5803      6.0959      5.6286      5.1945      4.8072      4.4767      4.6494      4.3171      4.0568      3.8692    
  3.7531      3.7072      3.7301      3.8208      3.9777      4.1993      4.4834      4.8282      5.2315      5.6906    
  6.2006      6.7517      7.3279      7.9060      8.4569      8.9492      9.3536      9.6475      9.8181      9.8635    
  9.7910      9.6139      9.3476      9.0057      8.5998      8.1395      7.6354      7.1016      6.5559      6.0188    
  5.5110      5.0501      5.2912      4.8173      4.4198      4.1036      3.8689      3.7139      3.6361      3.6332    
  3.7036      3.8462      4.0604      4.3460      4.7034      5.1331      5.6338      6.2006      6.8218      7.4779    
  8.1405      8.7751      9.3453      9.8181      10.169      10.385      10.466      10.421      10.264      10.012    
  9.6750      9.2624      8.7803      8.2378      7.6489      7.0345      6.4199      5.8312      6.1440      5.5222    
  4.9744      4.5137      4.1452      3.8689      3.6816      3.5796      3.5595      3.6192      3.7581      3.9767    
  4.2769      4.6617      5.1331      5.6906      6.3279      7.0299      7.7717      8.5184      9.2294      9.8635    
  10.385      10.770      11.006      11.094      11.054      10.908      10.672      10.350      9.9369      9.4342    
  8.8517      8.2041      7.5158      6.8182      7.1993      6.4379      5.7345      5.1153      4.5955      4.1805    
  3.8692      3.6570      3.5387      3.5100      3.5684      3.7139      3.9487      4.2769      4.7034      5.2315    
  5.8598      6.5790      7.3686      8.1962      9.0194      9.7910      10.466      11.006      11.376      11.571    
  11.617      11.557      11.425      11.231      10.960      10.582      10.077      9.4562      8.7481      7.9829    
  8.4188      7.5489      6.7019      5.9204      5.2349      4.6623      4.2081      3.8696      3.6405      3.5141    
  3.4851      3.5514      3.7139      3.9767      4.3460      4.8282      5.4267      6.1377      6.9465      7.8248    
  8.7309      9.6139      10.421      11.094      11.571      11.830      11.908      11.869      11.784      11.693    
  11.590      11.427      11.138      10.673      10.031      9.2619      9.7278      8.8077      7.8542      6.9260    
  6.0727      5.3286      4.7119      4.2271      3.8699      3.6322      3.5058      3.4851      3.5684      3.7581    
  4.0604      4.4834      5.0344      5.7151      6.5173      7.4181      8.3790      9.3476      10.264      11.054    
  11.617      11.908      11.954      11.847      11.701      11.612      11.616      11.677      11.698      11.561    
  11.184      10.552      10.995      10.130      9.1358      8.1038      7.1018      6.1858      5.3932      4.7424    
  4.2368      3.8701      3.6322      3.5141      3.5100      3.6192      3.8462      4.1993      4.6880      5.3191    
  6.0909      6.9879      7.9765      9.0057      10.012      10.908      11.557      11.869      11.847      11.588    
  11.251      11.005      10.965      11.147      11.462      11.749      11.832      11.589      11.882      11.347    
  10.455      9.3918      8.2886      7.2227      6.2553      5.4260      4.7527      4.2368      3.8699      3.6405    
  3.5387      3.5595      3.7036      3.9777      4.3921      4.9570      5.6771      6.5450      7.5348      8.5998    
  9.6750      10.672      11.425      11.784      11.701      11.251      10.619      10.044      9.7423      9.8344    
  10.296      10.966      11.599      11.957      11.968      12.075      11.605      10.692      9.5670      8.4021    
  7.2843      6.2788      5.4260      4.7424      4.2271      3.8696      3.6570      3.5796      3.6332      3.8208    
  4.1512      4.6363      5.2861      6.1010      7.0651      8.1395      9.2624      10.350      11.231      11.693    
  11.612      11.005      10.044      9.0122      8.2313      7.9570      8.2913      9.1434      10.258      11.301    
  10.932      11.910      12.189      11.772      10.836      9.6561      8.4403      7.2843      6.2553      5.3932    
  4.7119      4.2081      3.8692      3.6816      3.6361      3.7301      3.9691      4.3642      4.9282      5.6688    
  6.5803      7.6354      8.7804      9.9369      10.960      11.590      11.616      10.965      9.7423      8.2313    
  6.8247      5.9183      5.7853      6.4823      7.8254      9.4506      8.6781      10.582      11.834      12.245    
  11.853      10.884      9.6561      8.4021      7.2227      6.1858      5.3286      4.6623      4.1805      3.8689    
  3.7139      3.7072      3.8487      4.1463      4.6130      5.2616      6.0959      7.1016      8.2378      9.4342    
  10.582      11.427      11.677      11.147      9.8344      7.9570      5.9183      4.2169      3.3049      3.4441    
  4.6148      6.5191      5.4125      8.0730      10.334      11.785      12.262      11.853      10.836      9.5670    
  8.2886      7.1018      6.0727      5.2349      4.5955      4.1452      3.8689      3.7531      3.7914      3.9864    
  4.3485      4.8922      5.6286      6.5559      7.6489      8.8517      10.077      11.138      11.698      11.462    
  10.296      8.2914      5.7854      3.3049      1.4387     0.66628      1.2035      2.9269      1.6479      4.6720    
  7.7411      10.244      11.785      12.245      11.772      10.692      9.3918      8.1038      6.9260      5.9204    
  5.1153      4.5137      4.1036      3.8692      3.7982      3.8866      4.1399      4.5709      5.1945      6.0188    
  7.0345      8.2041      9.4563      10.673      11.561      11.749      10.966      9.1434      6.4823      3.4441    
 0.66628     -1.2004     -1.6858     -.65415     -1.8818     0.95871      4.4116      7.7411      10.334      11.834    
  12.189      11.605      10.455      9.1358      7.8542      6.7019      5.7345      4.9744      4.4198      4.0568    
  3.8696      3.8477      3.9900      4.3050      4.8073      5.5110      6.4200      7.5158      8.7481      10.031    
  11.184      11.832      11.599      10.258      7.8254      4.6148      1.2035     -1.6858     -3.3783     -3.4528    
 -4.4006     -2.3109     0.95871      4.6720      8.0730      10.582      11.910      12.075      11.347      10.130    
  8.8077      7.5489      6.4379      5.5222      4.8173      4.3171      4.0063      3.8699      3.9000      4.0986    
  4.4767      5.0501      5.8312      6.8182      7.9829      9.2620      10.552      11.589      11.957      11.301    
  9.4506      6.5191      2.9268     -.65417     -3.4529     -4.8135     -4.4006     -3.7517     -1.5421      1.7060    
  5.2695      8.4344      10.675      11.754      11.728      10.885      9.6327      8.3200      7.0886      6.0163    
  5.1439      4.4814      4.0194      3.7413      3.6322      3.6855      3.9047      4.3023      4.8948      5.6946    
  6.6985      7.8752      9.1576      10.434      11.416      11.692      10.930      9.0015      6.0623      2.5649    
 -.81390     -3.3338     -3.7517     -4.4006     -3.3338     -.81390      2.5649      6.0623      9.0015      10.930    
  11.692      11.416      10.434      9.1576      7.8752      6.6985      5.6946      4.8948      4.3023      3.9047    
  3.6855      3.6322      3.7413      4.0194      4.4814      5.1439      6.0163      7.0886      8.3200      9.6326    
  10.885      11.728      11.754      10.675      8.4344      5.2694      1.7060     -1.5421     -1.4557     -3.2418    
 -3.4529     -2.0465     0.62516      3.9308      7.1544      9.6908      11.181      11.560      11.018      9.9163    
  8.6428      7.4059      6.2972      5.3717      4.6505      4.1310      3.7989      3.6387      3.6405      3.8043    
  4.1397      4.6629      5.3897      6.3258      7.4542      8.7254      10.053      11.261      11.967      11.792    
  10.498      8.1008      4.9057      1.4828      1.9315     -.56487     -1.8736     -1.6858     -.65004E-01  2.5754    
  5.6065      8.3741      10.372      11.347      11.319      10.531      9.3512      8.1043      6.9278      5.8983    
  5.0579      4.4184      3.9725      3.7049      3.6020      3.6571      3.8731      4.2621      4.8410      5.6240    
  6.6123      7.7826      9.0777      10.406      11.558      12.153      11.846      10.460      8.0713      5.0348    
  5.6425      2.9901      1.0081     0.16930     0.66625      2.3491      4.7771      7.3614      9.5402      10.922    
  11.360      10.949      9.9671      8.7614      7.5591      6.4563      5.5146      4.7630      4.2055      3.8312    
  3.6255      3.5768      3.6817      3.9459      4.3831      5.0100      5.8386      6.8657      8.0619      9.3650    
  10.679      11.777      12.298      11.941      10.587      8.3617      8.9298      6.6399      4.5102      3.0518    
  2.6211      3.3049      4.8942      6.9559      8.9725      10.494      11.246      11.182      10.455      9.3534    
  8.1655      7.0244      6.0063      5.1574      4.4952      4.0172      3.7110      3.5628      3.5640      3.7140    
  4.0207      4.4989      5.1642      6.0260      7.0766      8.2819      9.5769      10.864      11.917      12.406    
  12.080      10.868      11.254      9.6842      7.8802      6.2841      5.3029      5.1803      5.9183      7.2792    
  8.8682      10.260      11.123      11.296      10.813      9.8651      8.7265      7.5816      6.5166      5.5909    
  4.8364      4.2611      3.8581      3.6145      3.5184      3.5640      3.7532      4.0955      4.6057      5.2982    
  6.1791      7.2370      8.4343      9.7052      10.955      11.973      12.469      12.240      12.381      11.669    
  10.502      9.1857      8.0814      7.4907      7.5597      8.2313      9.2682      10.337      11.114      11.380    
  11.073      10.286      9.2293      8.1101      7.0280      6.0505      5.2211      4.5591      4.0657      3.7313    
  3.5437      3.4933      3.5769      3.7982      4.1679      4.7001      5.4071      6.2921      7.3403      8.5127    
  9.7440      10.946      11.937      12.469      12.380      12.452      12.025      11.250      10.379      9.6871    
  9.3806      9.5294      10.044      10.711      11.270      11.499      11.279      10.624      9.6671      8.5964    
  7.5250      6.5219      5.6388      4.9053      4.3310      3.9123      3.6388      3.4997      3.4878      3.6021    
  3.8477      4.2355      4.7785      5.4866      6.3601      7.3821      8.5129      9.6902      10.834      11.799    
  11.550      12.179      12.404      12.242      11.813      11.313      10.934      10.806      10.945      11.251    
  11.553      11.666      11.457      10.891      10.034      9.0304      7.9938      6.9913      6.0782      5.2915    
  4.6497      4.1557      3.8030      3.5817      3.4828      3.5017      3.6387      3.9001      4.2960      4.8379    
  5.5334      6.3802      7.3599      8.4339      9.5439      10.618      10.304      11.190      11.849      12.202    
  12.258      12.109      11.889      11.725      11.686      11.756      11.847      11.832      11.598      11.087    
  10.323      9.4022      8.4224      7.4458      6.5274      5.7090      5.0160      4.4585      4.0352      3.7386    
  3.5601      3.4929      3.5341      3.6856      3.9535      4.3472      4.8761      5.5455      6.3510      7.2739    
  8.2775      9.3088      8.9929      9.9038      10.727      11.390      11.830      12.047      12.099      12.072    
  12.038      12.024      12.004      11.908      11.655      11.194      10.522      9.6996      8.7987      7.8731    
  6.9750      6.1483      5.4236      4.8174      4.3342      3.9706      3.7195      3.5740      3.5293      3.5843    
  3.7413      4.0063      4.3872      4.8914      5.5220      6.2733      7.1267      8.0489      7.7566      8.6076    
  9.4306      10.181      10.819      11.301      11.618      11.799      11.888      11.921      11.900      11.799    
  11.571      11.178      10.612      9.9067      9.1082      8.2601      7.4095      6.6000      5.8658      5.2288    
  4.6992      4.2784      3.9624      3.7455      3.6227      3.5912      3.6508      3.8043      4.0568      4.4147    
  4.8832      5.4637      6.1497      6.9239      6.6734      7.4123      8.1680      8.9026      9.5795      10.170    
  10.653      11.016      11.264      11.415      11.478      11.445      11.295      11.006      10.571      10.005    
  9.3343      8.5915      7.8174      7.0533      6.3348      5.6880      5.1287      4.6633      4.2917      4.0106    
  3.8163      3.7056      3.6774      3.7324      3.8731      4.1036      4.4287      4.8517      5.3728      5.9852    
  5.7862      6.3854      7.0296      7.6914      8.3401      8.9461      9.4857      9.9433      10.311      10.586    
  10.765      10.845      10.816      10.665      10.385      9.9792      9.4596      8.8500      8.1829      7.4948    
  6.8206      6.1890      5.6204      5.1262      4.7108      4.3743      4.1151      3.9312      3.8216      3.7866    
  3.8273      3.9458      4.1452      4.4286      4.7981      5.2527      5.1082      5.5608      6.0716      6.6239    
  7.1963      7.7642      8.3041      8.7960      9.2259      9.5848      9.8663      10.063      10.167      10.167    
  10.052      9.8181      9.4689      9.0178      8.4875      7.9074      7.3090      6.7216      6.1684      5.6656    
  5.2221      4.8419      4.5261      4.2750      4.0891      3.9693      3.9169      3.9334      4.0207      4.1804    
  4.4147      4.7243      4.6332      4.9448      5.3179      5.7441      6.2107      6.7011      7.1962      7.6769    
  8.1267      8.5330      8.8862      9.1778      9.3986      9.5371      9.5816      9.5220      9.3536      9.0795    
  8.7118      8.2705      7.7809      7.2698      6.7615      6.2752      5.8242      5.4162      5.0558      4.7458    
  4.4890      4.2882      4.1463      4.0658      4.0484      4.0954      4.2081      4.3872      4.3472      4.5281    
  4.7690      5.0667      5.4152      5.8050      6.2233      6.6554      7.0862      7.5022      7.8925      8.2474    
  8.5578      8.8125      8.9989      9.1032      9.1143      9.0258      8.8386      8.5622      8.2127      7.8115    
  7.3807      6.9409      6.5082      6.0941      5.7062      5.3501      5.0310      4.7543      4.5256      4.3497    
  4.2301      4.1691      4.1679      4.2271      4.2368      4.2960      4.4130      4.5871      4.8163      5.0962    
  5.4199      5.7778      6.1587      6.5511      6.9442      7.3290      7.6965      8.0371      8.3382      8.5852    
  8.7624      8.8559      8.8566      8.7624      8.5789      8.3189      7.9995      7.6394      7.2558      6.8627    
  6.4704      6.0871      5.7201      5.3772      5.0668      4.7970      4.5749      4.4055      4.2919      4.2355    
  4.2960      4.2368      4.2355      4.2919      4.4055      4.5749      4.7970      5.0668      5.3772      5.7201    
  6.0871      6.4704      6.8627      7.2558      7.6394      7.9995      8.3189      8.5789      8.7624      8.8566    
  8.8559      8.7624      8.5852      8.3382      8.0371      7.6965      7.3290      6.9442      6.5511      6.1587    
  5.7779      5.4199      5.0962      4.8163      4.5871      4.4130      4.5281      4.3472      4.2271      4.1679    
  4.1691      4.2301      4.3497      4.5256      4.7543      5.0310      5.3501      5.7062      6.0941      6.5082    
  6.9409      7.3807      7.8115      8.2127      8.5622      8.8387      9.0258      9.1143      9.1032      8.9988    
  8.8125      8.5578      8.2474      7.8925      7.5022      7.0862      6.6554      6.2233      5.8050      5.4152    
  5.0667      4.7690      4.9448      4.6332      4.3872      4.2081      4.0955      4.0484      4.0658      4.1463    
  4.2882      4.4890      4.7458      5.0558      5.4162      5.8241      6.2752      6.7615      7.2698      7.7809    
  8.2705      8.7118      9.0795      9.3536      9.5220      9.5816      9.5371      9.3986      9.1778      8.8862    
  8.5330      8.1267      7.6769      7.1962      6.7012      6.2107      5.7441      5.3179      5.5608      5.1081    
  4.7243      4.4147      4.1805      4.0207      3.9335      3.9169      3.9693      4.0891      4.2750      4.5261    
  4.8419      5.2221      5.6656      6.1684      6.7216      7.3090      7.9074      8.4875      9.0178      9.4689    
  9.8181      10.052      10.167      10.167      10.063      9.8663      9.5848      9.2259      8.7960      8.3041    
  7.7642      7.1963      6.6239      6.0716      6.3854      5.7862      5.2527      4.7981      4.4287      4.1453    
  3.9458      3.8273      3.7866      3.8216      3.9312      4.1151      4.3743      4.7108      5.1262      5.6204    
  6.1890      6.8206      7.4948      8.1829      8.8500      9.4596      9.9792      10.385      10.665      10.816    
  10.845      10.765      10.586      10.311      9.9432      9.4857      8.9461      8.3400      7.6914      7.0296    
  7.4122      6.6734      5.9851      5.3728      4.8517      4.4287      4.1036      3.8731      3.7324      3.6774    
  3.7056      3.8163      4.0106      4.2917      4.6633      5.1287      5.6881      6.3348      7.0533      7.8174    
  8.5915      9.3343      10.005      10.571      11.006      11.295      11.445      11.478      11.415      11.264    
  11.016      10.653      10.170      9.5795      8.9026      8.1680      8.6076      7.7566      6.9239      6.1497    
  5.4637      4.8832      4.4147      4.0568      3.8043      3.6508      3.5912      3.6227      3.7455      3.9624    
  4.2784      4.6992      5.2288      5.8658      6.6000      7.4095      8.2601      9.1082      9.9067      10.612    
  11.178      11.571      11.799      11.900      11.921      11.888      11.799      11.618      11.301      10.819    
  10.181      9.4306      9.9038      8.9928      8.0488      7.1267      6.2732      5.5220      4.8914      4.3872    
  4.0063      3.7413      3.5842      3.5293      3.5740      3.7195      3.9706      4.3343      4.8175      5.4236    
  6.1483      6.9750      7.8731      8.7987      9.6996      10.522      11.194      11.655      11.908      12.004    
  12.024      12.038      12.072      12.099      12.047      11.830      11.390      10.727      11.190      10.304    
  9.3088      8.2775      7.2739      6.3510      5.5455      4.8761      4.3472      3.9535      3.6855      3.5341    
  3.4929      3.5601      3.7386      4.0352      4.4585      5.0160      5.7090      6.5274      7.4458      8.4224    
  9.4022      10.323      11.087      11.598      11.832      11.847      11.756      11.686      11.725      11.889    
  12.109      12.258      12.202      11.849      12.178      11.550      10.618      9.5439      8.4339      7.3599    
  6.3802      5.5334      4.8379      4.2960      3.9000      3.6387      3.5016      3.4828      3.5816      3.8030    
  4.1557      4.6497      5.2915      6.0782      6.9913      7.9938      9.0304      10.034      10.891      11.457    
  11.666      11.553      11.251      10.945      10.806      10.934      11.313      11.813      12.242      12.404    
  12.452      12.380      11.799      10.834      9.6902      8.5129      7.3821      6.3601      5.4866      4.7784    
  4.2355      3.8477      3.6020      3.4878      3.4997      3.6388      3.9123      4.3311      4.9053      5.6388    
  6.5219      7.5250      8.5964      9.6671      10.624      11.279      11.499      11.270      10.711      10.044    
  9.5294      9.3807      9.6871      10.379      11.250      12.025      11.669      12.381      12.469      11.937    
  10.946      9.7440      8.5127      7.3403      6.2921      5.4071      4.7000      4.1679      3.7982      3.5768    
  3.4933      3.5437      3.7313      4.0657      4.5592      5.2211      6.0505      7.0281      8.1101      9.2293    
  10.286      11.073      11.380      11.114      10.337      9.2683      8.2313      7.5598      7.4907      8.0814    
  9.1858      10.502      9.6842      11.254      12.240      12.469      11.973      10.955      9.7052      8.4344    
  7.2370      6.1791      5.2982      4.6057      4.0955      3.7531      3.5640      3.5184      3.6145      3.8581    
  4.2611      4.8364      5.5909      6.5166      7.5816      8.7265      9.8651      10.813      11.296      11.123    
  10.260      8.8682      7.2792      5.9183      5.1803      5.3029      6.2842      7.8802      6.6399      8.9299    