unknown system                          
   1.00000000000000     
    -2.381959    2.381959    1.359241
     2.381959   -2.381959    1.359241
     2.381959    2.381959   -1.359241
   Si
     2
Direct
  0.000000  0.000000  0.000000
  0.250000  0.750000  0.500000
 
   36   36   36
 -.53144891440E+01 -.44006172525E+01 -.18818048141E+01 0.16479094776E+01 0.54124914620E+01
 0.86781413903E+01 0.10931648948E+02 0.11967703067E+02 0.11882292079E+02 0.10994693912E+02
 0.97278241249E+01 0.84187800083E+01 0.71992521381E+01 0.61439913323E+01 0.52912325401E+01
 0.46493841231E+01 0.42087924129E+01 0.39534609592E+01 0.38700445480E+01 0.39534603842E+01
 0.42088004376E+01 0.46494015081E+01 0.52912496188E+01 0.61440043119E+01 0.71992650573E+01
 0.84187902350E+01 0.97278233484E+01 0.10994684364E+02 0.11882285338E+02 0.11967701376E+02
 0.10931643185E+02 0.86781268630E+01 0.54124709824E+01 0.16478825779E+01 -.18818382033E+01
 -.44006433996E+01 -.44006433996E+01 -.48134593563E+01 -.34528345175E+01 -.65414975533E+00
 0.29268510352E+01 0.65190753513E+01 0.94505826160E+01 0.11300589712E+02 0.11957396384E+02
 0.11588940770E+02 0.10551570775E+02 0.92619432577E+01 0.79828822840E+01 0.68182051804E+01
 0.58311939299E+01 0.50500672638E+01 0.44766763138E+01 0.40985816262E+01 0.39000282041E+01
 0.38699068958E+01 0.40062657530E+01 0.43170835577E+01 0.48172836249E+01 0.55222232748E+01
 0.64379102864E+01 0.75489526317E+01 0.88077171170E+01 0.10130066155E+02 0.11346909081E+02
 0.12075386585E+02 0.11909742008E+02 0.10582069748E+02 0.80729770028E+01 0.46719363154E+01
 0.95867744926E+00 -.23109788793E+01 -.18818382033E+01 -.34528540624E+01 -.33782525943E+01
 -.16858082279E+01 0.12035247150E+01 0.46147936642E+01 0.78254097690E+01 0.10257785364E+02
 0.11599422833E+02 0.11832242984E+02 0.11184414558E+02 0.10030817272E+02 0.87480970371E+01
 0.75158355463E+01 0.64199443587E+01 0.55109642685E+01 0.48072455189E+01 0.43049907523E+01
 0.39900262736E+01 0.38476857800E+01 0.38695633367E+01 0.40568211045E+01 0.44198656933E+01
 0.49744719059E+01 0.57345620212E+01 0.67019005360E+01 0.78542160147E+01 0.91358110078E+01
 0.10455038197E+02 0.11604904598E+02 0.12188809727E+02 0.11834423077E+02 0.10333824918E+02
 0.77410405764E+01 0.44115648101E+01 0.95867744926E+00 0.16478825779E+01 -.65417063531E+00
 -.16858172690E+01 -.12004361590E+01 0.66628319162E+00 0.34441238382E+01 0.64822950629E+01
 0.91433966196E+01 0.10965597435E+02 0.11749338405E+02 0.11561436919E+02 0.10673101051E+02
 0.94562446938E+01 0.82040804676E+01 0.70345311916E+01 0.60188437860E+01 0.51945283730E+01
 0.45709387626E+01 0.41398890698E+01 0.38865839214E+01 0.37981707903E+01 0.38691781978E+01
 0.41036214514E+01 0.45137259244E+01 0.51153675903E+01 0.59203678384E+01 0.69260010307E+01
 0.81037608134E+01 0.93917413339E+01 0.10692182041E+02 0.11771911890E+02 0.12245215627E+02
 0.11784577035E+02 0.10244222540E+02 0.77410405764E+01 0.46719363154E+01 0.54124709824E+01
 0.29268373425E+01 0.12035189333E+01 0.66628472347E+00 0.14386579833E+01 0.33049124528E+01
 0.57853365475E+01 0.82913389980E+01 0.10296132068E+02 0.11462386527E+02 0.11697649559E+02
 0.11137995410E+02 0.10077088560E+02 0.88516890150E+01 0.76488951781E+01 0.65559131354E+01
 0.56286334917E+01 0.48922371810E+01 0.43485260686E+01 0.39863729194E+01 0.37914085411E+01
 0.37531162608E+01 0.38689344090E+01 0.41452750256E+01 0.45954957689E+01 0.52348780961E+01
 0.60726714007E+01 0.71017770033E+01 0.82885426597E+01 0.95670141172E+01 0.10835925186E+02
 0.11853457989E+02 0.12261876585E+02 0.11784577035E+02 0.10333824918E+02 0.80729770028E+01
 0.86781268630E+01 0.65190678678E+01 0.46147928940E+01 0.34441307117E+01 0.33049215192E+01
 0.42168670824E+01 0.59182980285E+01 0.79569872472E+01 0.98343980232E+01 0.11146546446E+02
 0.11677417964E+02 0.11427447649E+02 0.10581750679E+02 0.94342400815E+01 0.82377522056E+01
 0.71016288719E+01 0.60959474247E+01 0.52616247846E+01 0.46130484047E+01 0.41462689313E+01
 0.38486748455E+01 0.37071976987E+01 0.37139248480E+01 0.38689486090E+01 0.41804936775E+01
 0.46623563864E+01 0.53286293399E+01 0.61857439297E+01 0.72226787065E+01 0.84020281874E+01
 0.96560325451E+01 0.10884020344E+02 0.11853457989E+02 0.12245215627E+02 0.11834423077E+02
 0.10582069748E+02 0.10931643185E+02 0.94505825447E+01 0.78254133286E+01 0.64823034898E+01
 0.57853507400E+01 0.59183103004E+01 0.68247353558E+01 0.82313011109E+01 0.97423027495E+01
 0.10964535074E+02 0.11616387742E+02 0.11590408901E+02 0.10960000312E+02 0.99368752373E+01
 0.87803464380E+01 0.76354416411E+01 0.65803265227E+01 0.56687612158E+01 0.49281587245E+01
 0.43642107301E+01 0.39691332671E+01 0.37301393473E+01 0.36360861863E+01 0.36816730157E+01
 0.38692171162E+01 0.42081116159E+01 0.47119427079E+01 0.53931510914E+01 0.62553332245E+01
 0.72842534301E+01 0.84402921434E+01 0.96560325451E+01 0.10835925186E+02 0.11771911890E+02
 0.12188809727E+02 0.11909742008E+02 0.11967701376E+02 0.11300596804E+02 0.10257796273E+02
 0.91434073505E+01 0.82913518319E+01 0.79570031124E+01 0.82313126771E+01 0.90121832963E+01
 0.10043823939E+02 0.11005282181E+02 0.11611654051E+02 0.11693104780E+02 0.11231434161E+02
 0.10350008595E+02 0.92623631188E+01 0.81394648502E+01 0.70650513669E+01 0.61010317883E+01
 0.52860735893E+01 0.46363410509E+01 0.41511771999E+01 0.38207702090E+01 0.36332078848E+01
 0.35796123021E+01 0.36570810395E+01 0.38696186818E+01 0.42271407871E+01 0.47424526260E+01
 0.54260308578E+01 0.62788239293E+01 0.72842534301E+01 0.84020281874E+01 0.95670141172E+01
 0.10692182041E+02 0.11604904598E+02 0.12075386585E+02 0.11882285338E+02 0.11957401724E+02
 0.11599438247E+02 0.10965614508E+02 0.10296145985E+02 0.98344112119E+01 0.97423161915E+01
 0.10043832406E+02 0.10619349010E+02 0.11251380025E+02 0.11700838224E+02 0.11783978852E+02
 0.11425117069E+02 0.10672305107E+02 0.96750059108E+01 0.85997881725E+01 0.75347803139E+01
 0.65449967224E+01 0.56771319843E+01 0.49569656848E+01 0.43920669684E+01 0.39777284264E+01
 0.37036414273E+01 0.35595024132E+01 0.35387647633E+01 0.36405521462E+01 0.38699696509E+01
 0.42368513580E+01 0.47527519019E+01 0.54260308578E+01 0.62553332245E+01 0.72226787065E+01
 0.82885426597E+01 0.93917413339E+01 0.10455038197E+02 0.11346909081E+02 0.10994684364E+02
 0.11588938043E+02 0.11832252418E+02 0.11749356999E+02 0.11462405097E+02 0.11146560331E+02
 0.10964546141E+02 0.11005291361E+02 0.11251384776E+02 0.11587876991E+02 0.11846945786E+02
 0.11868956634E+02 0.11557022370E+02 0.10907914026E+02 0.10011710278E+02 0.90057382972E+01
 0.79765025313E+01 0.69878517280E+01 0.60909081584E+01 0.53190679123E+01 0.46879731104E+01
 0.41992812168E+01 0.38462487112E+01 0.36192440653E+01 0.35099803897E+01 0.35140935528E+01
 0.36322614545E+01 0.38701080276E+01 0.42368513580E+01 0.47424526260E+01 0.53931510914E+01
 0.61857439297E+01 0.71017770033E+01 0.81037608134E+01 0.91358110078E+01 0.10130066155E+02
 0.97278233484E+01 0.10551568154E+02 0.11184415758E+02 0.11561447496E+02 0.11697666897E+02
 0.11677434458E+02 0.11616399595E+02 0.11611662197E+02 0.11700843276E+02 0.11846947485E+02
 0.11954313979E+02 0.11907535191E+02 0.11616942011E+02 0.11053861195E+02 0.10264278889E+02
 0.93475570797E+01 0.83789523924E+01 0.74180647807E+01 0.65172455630E+01 0.57151292164E+01
 0.50344004118E+01 0.44834311037E+01 0.40603792443E+01 0.37580805232E+01 0.35683755618E+01
 0.34851258098E+01 0.35058475707E+01 0.36322614545E+01 0.38699696509E+01 0.42271407871E+01
 0.47119427079E+01 0.53286293399E+01 0.60726714007E+01 0.69260010307E+01 0.78542160147E+01
 0.88077171170E+01 0.84187902350E+01 0.92619512086E+01 0.10030821059E+02 0.10673105193E+02
 0.11138004776E+02 0.11427460925E+02 0.11590421337E+02 0.11693113853E+02 0.11783984464E+02
 0.11868958798E+02 0.11907535008E+02 0.11830483675E+02 0.11570732790E+02 0.11094489583E+02
 0.10420762891E+02 0.96139366319E+01 0.87308869861E+01 0.78247531324E+01 0.69464908634E+01
 0.61376871685E+01 0.54266578345E+01 0.48281684996E+01 0.43459522184E+01 0.39766532272E+01
 0.37138745465E+01 0.35513879800E+01 0.34851258098E+01 0.35140935528E+01 0.36405521462E+01
 0.38696186818E+01 0.42081116159E+01 0.46623563864E+01 0.52348780961E+01 0.59203678384E+01
 0.67019005360E+01 0.75489526317E+01 0.71992650573E+01 0.79828972121E+01 0.87481096959E+01
 0.94562525175E+01 0.10077094248E+02 0.10581757668E+02 0.10960008678E+02 0.11231442140E+02
 0.11425123522E+02 0.11557026278E+02 0.11616942690E+02 0.11570731795E+02 0.11376361458E+02
 0.11006216662E+02 0.10465942196E+02 0.97909876179E+01 0.90193899445E+01 0.81961797448E+01
 0.73686140828E+01 0.65790382898E+01 0.58598393629E+01 0.52314753463E+01 0.47034043071E+01
 0.42769246535E+01 0.39486905743E+01 0.37138745465E+01 0.35683755618E+01 0.35099803897E+01
 0.35387647633E+01 0.36570810395E+01 0.38692171162E+01 0.41804936775E+01 0.45954957689E+01
 0.51153675903E+01 0.57345620212E+01 0.64379102864E+01 0.61440043119E+01 0.68182177554E+01
 0.75158496342E+01 0.82040931727E+01 0.88516979864E+01 0.94342460404E+01 0.99368798183E+01
 0.10350012695E+02 0.10672309391E+02 0.10907918439E+02 0.11053864091E+02 0.11094489728E+02
 0.11006215583E+02 0.10770175809E+02 0.10385112374E+02 0.98634825966E+01 0.92294339926E+01
 0.85183972528E+01 0.77716533371E+01 0.70299437845E+01 0.63278923950E+01 0.56906243028E+01
 0.51330915917E+01 0.46616601891E+01 0.42769246535E+01 0.39766532272E+01 0.37580805232E+01
 0.36192440653E+01 0.35595024132E+01 0.35796123021E+01 0.36816730157E+01 0.38689486090E+01
 0.41452750256E+01 0.45137259244E+01 0.49744719059E+01 0.55222232748E+01 0.52912496188E+01
 0.58312050243E+01 0.64199534818E+01 0.70345408027E+01 0.76489045531E+01 0.82377600320E+01
 0.87803518982E+01 0.92623659675E+01 0.96750071688E+01 0.10011712075E+02 0.10264281786E+02
 0.10420765031E+02 0.10465942247E+02 0.10385111664E+02 0.10168972055E+02 0.98181006688E+01
 0.93453065929E+01 0.87751057976E+01 0.81404890133E+01 0.74779034947E+01 0.68218495265E+01
 0.62005637645E+01 0.56338233611E+01 0.51330915917E+01 0.47034043071E+01 0.43459522184E+01
 0.40603792443E+01 0.38462487112E+01 0.37036414273E+01 0.36332078848E+01 0.36360861863E+01
 0.37139248480E+01 0.38689344090E+01 0.41036214514E+01 0.44198656933E+01 0.48172836249E+01
 0.46494015081E+01 0.50500813096E+01 0.55109729203E+01 0.60188487989E+01 0.65559170080E+01
 0.71016335255E+01 0.76354473283E+01 0.81394697853E+01 0.85997902915E+01 0.90057381845E+01
 0.93475573218E+01 0.96139381627E+01 0.97909889606E+01 0.98634828923E+01 0.98181007476E+01
 0.96474833221E+01 0.93535982107E+01 0.89492122049E+01 0.84569305111E+01 0.79060266075E+01
 0.73279391456E+01 0.67517008314E+01 0.62005637645E+01 0.56906243028E+01 0.52314753463E+01
 0.48281684996E+01 0.44834311037E+01 0.41992812168E+01 0.39777284264E+01 0.38207702090E+01
 0.37301393473E+01 0.37071976987E+01 0.37531162608E+01 0.38691781978E+01 0.40568211045E+01
 0.43170835577E+01 0.42088004376E+01 0.44766883663E+01 0.48072566936E+01 0.51945349603E+01
 0.56286349125E+01 0.60959464749E+01 0.65803274247E+01 0.70650556809E+01 0.75347853043E+01
 0.79765047025E+01 0.83789517073E+01 0.87308860241E+01 0.90193900675E+01 0.92294347569E+01
 0.93453077583E+01 0.93535995832E+01 0.92467311286E+01 0.90257676720E+01 0.87015075204E+01
 0.82934120864E+01 0.78266270125E+01 0.73279391456E+01 0.68218495265E+01 0.63278923950E+01
 0.58598393629E+01 0.54266578345E+01 0.50344004118E+01 0.46879731104E+01 0.43920669684E+01
 0.41511771999E+01 0.39691332671E+01 0.38486748455E+01 0.37914085411E+01 0.37981707903E+01
 0.38695633367E+01 0.40062657530E+01 0.39534603842E+01 0.40985853632E+01 0.43049981507E+01
 0.45709463689E+01 0.48922411522E+01 0.52616237666E+01 0.56687582857E+01 0.61010320798E+01
 0.65450015542E+01 0.69878572796E+01 0.74180669704E+01 0.78247519151E+01 0.81961777409E+01
 0.85183964068E+01 0.87751067988E+01 0.89492150069E+01 0.90257705757E+01 0.89953273426E+01
 0.88565738095E+01 0.86173118225E+01 0.82934120864E+01 0.79060266075E+01 0.74779034947E+01
 0.70299437845E+01 0.65790382898E+01 0.61376871685E+01 0.57151292164E+01 0.53190679123E+01
 0.49569656848E+01 0.46363410509E+01 0.43642107301E+01 0.41462689313E+01 0.39863729194E+01
 0.38865839214E+01 0.38476857800E+01 0.38699068958E+01 0.38700445480E+01 0.39000281406E+01
 0.39900267285E+01 0.41398906441E+01 0.43485283463E+01 0.46130494330E+01 0.49281574778E+01
 0.52860726955E+01 0.56771351005E+01 0.60909148490E+01 0.65172513232E+01 0.69464924865E+01
 0.73686123274E+01 0.77716509512E+01 0.81404882479E+01 0.84569326663E+01 0.87015121099E+01
 0.88565778007E+01 0.89097501743E+01 0.88565738095E+01 0.87015075204E+01 0.84569305111E+01
 0.81404890133E+01 0.77716533371E+01 0.73686140828E+01 0.69464908634E+01 0.65172455630E+01
 0.60909081584E+01 0.56771319843E+01 0.52860735893E+01 0.49281587245E+01 0.46130484047E+01
 0.43485260686E+01 0.41398890698E+01 0.39900262736E+01 0.39000282041E+01 0.39534609592E+01
 0.38699089357E+01 0.38476850519E+01 0.38865790995E+01 0.39863671354E+01 0.41462655090E+01
 0.43642100169E+01 0.46363424621E+01 0.49569698763E+01 0.53190754105E+01 0.57151374561E+01
 0.61376922975E+01 0.65790391230E+01 0.70299420803E+01 0.74779016743E+01 0.79060267027E+01
 0.82934153672E+01 0.86173172076E+01 0.88565778007E+01 0.89953273426E+01 0.90257676720E+01
 0.89492122049E+01 0.87751057976E+01 0.85183972528E+01 0.81961797448E+01 0.78247531324E+01
 0.74180647807E+01 0.69878517280E+01 0.65449967224E+01 0.61010317883E+01 0.56687612158E+01
 0.52616247846E+01 0.48922371810E+01 0.45709387626E+01 0.43049907523E+01 0.40985816262E+01
 0.42087924129E+01 0.40062633780E+01 0.38695621439E+01 0.37981645368E+01 0.37913964207E+01
 0.38486621780E+01 0.39691256806E+01 0.41511765310E+01 0.43920723279E+01 0.46879826882E+01
 0.50344114161E+01 0.54266664911E+01 0.58598434995E+01 0.63278929307E+01 0.68218484867E+01
 0.73279381422E+01 0.78266276142E+01 0.82934153672E+01 0.87015121099E+01 0.90257705757E+01
 0.92467311286E+01 0.93535982107E+01 0.93453065929E+01 0.92294339926E+01 0.90193899445E+01
 0.87308869861E+01 0.83789523924E+01 0.79765025313E+01 0.75347803139E+01 0.70650513669E+01
 0.65803265227E+01 0.60959474247E+01 0.56286334917E+01 0.51945283730E+01 0.48072455189E+01
 0.44766763138E+01 0.46493841231E+01 0.43170680399E+01 0.40568099424E+01 0.38691679894E+01
 0.37531018517E+01 0.37071791498E+01 0.37301224337E+01 0.38207606306E+01 0.39777282459E+01
 0.41992893864E+01 0.44834440455E+01 0.48281812260E+01 0.52314837278E+01 0.56906278199E+01
 0.62005644297E+01 0.67517002043E+01 0.73279381422E+01 0.79060267027E+01 0.84569326663E+01
 0.89492150069E+01 0.93535995832E+01 0.96474833221E+01 0.98181006688E+01 0.98634825966E+01
 0.97909876179E+01 0.96139366319E+01 0.93475570797E+01 0.90057382972E+01 0.85997881725E+01
 0.81394648502E+01 0.76354416411E+01 0.71016288719E+01 0.65559131354E+01 0.60188437860E+01
 0.55109642685E+01 0.50500672638E+01 0.52912325401E+01 0.48172606626E+01 0.44198414427E+01
 0.41035998736E+01 0.38689142569E+01 0.37139030897E+01 0.36360635876E+01 0.36331890344E+01
 0.37036306232E+01 0.38462480710E+01 0.40603881195E+01 0.43459663357E+01 0.47034175248E+01
 0.51330997156E+01 0.56338267240E+01 0.62005644297E+01 0.68218484867E+01 0.74779016743E+01
 0.81404882479E+01 0.87751067988E+01 0.93453077583E+01 0.98181007476E+01 0.10168972055E+02
 0.10385112374E+02 0.10465942196E+02 0.10420762891E+02 0.10264278889E+02 0.10011710278E+02
 0.96750059108E+01 0.92623631188E+01 0.87803464380E+01 0.82377522056E+01 0.76488951781E+01
 0.70345311916E+01 0.64199443587E+01 0.58311939299E+01 0.61439913323E+01 0.55222048667E+01
 0.49744462439E+01 0.45136967298E+01 0.41452465036E+01 0.38689210598E+01 0.36816457409E+01
 0.35795867899E+01 0.35594818628E+01 0.36192314880E+01 0.37580784637E+01 0.39766616185E+01
 0.42769389076E+01 0.46616734663E+01 0.51330997156E+01 0.56906278199E+01 0.63278929307E+01
 0.70299420803E+01 0.77716509512E+01 0.85183964068E+01 0.92294347569E+01 0.98634828923E+01
 0.10385111664E+02 0.10770175809E+02 0.11006216662E+02 0.11094489583E+02 0.11053861195E+02
 0.10907914026E+02 0.10672305107E+02 0.10350008595E+02 0.99368752373E+01 0.94342400815E+01
 0.88516890150E+01 0.82040804676E+01 0.75158355463E+01 0.68182051804E+01 0.71992521381E+01
 0.64378985547E+01 0.57345462549E+01 0.51153449414E+01 0.45954680311E+01 0.41804632088E+01
 0.38691850326E+01 0.36570492410E+01 0.35387362267E+01 0.35099576380E+01 0.35683610316E+01
 0.37138712557E+01 0.39486986261E+01 0.42769389076E+01 0.47034175248E+01 0.52314837278E+01
 0.58598434995E+01 0.65790391230E+01 0.73686123274E+01 0.81961777409E+01 0.90193900675E+01
 0.97909889606E+01 0.10465942247E+02 0.11006215583E+02 0.11376361458E+02 0.11570732790E+02
 0.11616942011E+02 0.11557022370E+02 0.11425117069E+02 0.11231434161E+02 0.10960000312E+02
 0.10581750679E+02 0.10077088560E+02 0.94562446938E+01 0.87480970371E+01 0.79828822840E+01
 0.84187800083E+01 0.75489447099E+01 0.67018945074E+01 0.59203591171E+01 0.52348634531E+01
 0.46623346055E+01 0.42080823771E+01 0.38695837743E+01 0.36405165599E+01 0.35140623146E+01
 0.34851013964E+01 0.35513725869E+01 0.37138712557E+01 0.39766616185E+01 0.43459663357E+01
 0.48281812260E+01 0.54266664911E+01 0.61376922975E+01 0.69464924865E+01 0.78247519151E+01
 0.87308860241E+01 0.96139381627E+01 0.10420765031E+02 0.11094489728E+02 0.11570731795E+02
 0.11830483675E+02 0.11907535191E+02 0.11868956634E+02 0.11783978852E+02 0.11693104780E+02
 0.11590408901E+02 0.11427447649E+02 0.11137995410E+02 0.10673101051E+02 0.10030817272E+02
 0.92619432577E+01 0.97278241249E+01 0.88077167726E+01 0.78542176857E+01 0.69260036573E+01
 0.60726716860E+01 0.53286239758E+01 0.47119277841E+01 0.42271136114E+01 0.38699330593E+01
 0.36322235828E+01 0.35058152250E+01 0.34851013964E+01 0.35683610316E+01 0.37580784637E+01
 0.40603881195E+01 0.44834440455E+01 0.50344114161E+01 0.57151374561E+01 0.65172513232E+01
 0.74180669704E+01 0.83789517073E+01 0.93475573218E+01 0.10264281786E+02 0.11053864091E+02
 0.11616942690E+02 0.11907535008E+02 0.11954313979E+02 0.11846945786E+02 0.11700838224E+02
 0.11611654051E+02 0.11616387742E+02 0.11677417964E+02 0.11697649559E+02 0.11561436919E+02
 0.11184414558E+02 0.10551570775E+02 0.10994693912E+02 0.10130077143E+02 0.91358229691E+01
 0.81037737268E+01 0.71017885095E+01 0.61857520620E+01 0.53931530343E+01 0.47424427351E+01
 0.42368255595E+01 0.38700708663E+01 0.36322235828E+01 0.35140623146E+01 0.35099576380E+01
 0.36192314880E+01 0.38462480710E+01 0.41992893864E+01 0.46879826882E+01 0.53190754105E+01
 0.60909148490E+01 0.69878572796E+01 0.79765047025E+01 0.90057381845E+01 0.10011712075E+02
 0.10907918439E+02 0.11557026278E+02 0.11868958798E+02 0.11846947485E+02 0.11587876991E+02
 0.11251380025E+02 0.11005282181E+02 0.10964535074E+02 0.11146546446E+02 0.11462386527E+02
 0.11749338405E+02 0.11832242984E+02 0.11588940770E+02 0.11882292079E+02 0.11346923909E+02
 0.10455058055E+02 0.93917646984E+01 0.82885654983E+01 0.72226970722E+01 0.62553463159E+01
 0.54260366742E+01 0.47527438279E+01 0.42368255595E+01 0.38699330593E+01 0.36405165599E+01
 0.35387362267E+01 0.35594818628E+01 0.37036306232E+01 0.39777282459E+01 0.43920723279E+01
 0.49569698763E+01 0.56771351005E+01 0.65450015542E+01 0.75347853043E+01 0.85997902915E+01
 0.96750071688E+01 0.10672309391E+02 0.11425123522E+02 0.11783984464E+02 0.11700843276E+02
 0.11251384776E+02 0.10619349010E+02 0.10043823939E+02 0.97423027495E+01 0.98343980232E+01
 0.10296132068E+02 0.10965597435E+02 0.11599422833E+02 0.11957396384E+02 0.11967703067E+02
 0.12075396923E+02 0.11604922348E+02 0.10692208115E+02 0.95670459085E+01 0.84020577379E+01
 0.72842754513E+01 0.62788386785E+01 0.54260366742E+01 0.47424427351E+01 0.42271136114E+01
 0.38695837743E+01 0.36570492410E+01 0.35795867899E+01 0.36331890344E+01 0.38207606306E+01
 0.41511765310E+01 0.46363424621E+01 0.52860726955E+01 0.61010320798E+01 0.70650556809E+01
 0.81394697853E+01 0.92623659675E+01 0.10350012695E+02 0.11231442140E+02 0.11693113853E+02
 0.11611662197E+02 0.11005291361E+02 0.10043832406E+02 0.90121832963E+01 0.82313011109E+01
 0.79569872472E+01 0.82913389980E+01 0.91433966196E+01 0.10257785364E+02 0.11300589712E+02
 0.10931648948E+02 0.11909752921E+02 0.12188823282E+02 0.11771930926E+02 0.10835954825E+02
 0.96560688077E+01 0.84403240783E+01 0.72842754513E+01 0.62553463159E+01 0.53931530343E+01
 0.47119277841E+01 0.42080823771E+01 0.38691850326E+01 0.36816457409E+01 0.36360635876E+01
 0.37301224337E+01 0.39691256806E+01 0.43642100169E+01 0.49281574778E+01 0.56687582857E+01
 0.65803274247E+01 0.76354473283E+01 0.87803518982E+01 0.99368798183E+01 0.10960008678E+02
 0.11590421337E+02 0.11616399595E+02 0.10964546141E+02 0.97423161915E+01 0.82313126771E+01
 0.68247353558E+01 0.59182980285E+01 0.57853365475E+01 0.64822950629E+01 0.78254097690E+01
 0.94505826160E+01 0.86781413903E+01 0.10582090446E+02 0.11834443357E+02 0.12245231795E+02
 0.11853477542E+02 0.10884051147E+02 0.96560688077E+01 0.84020577379E+01 0.72226970722E+01
 0.61857520620E+01 0.53286239758E+01 0.46623346055E+01 0.41804632088E+01 0.38689210598E+01
 0.37139030897E+01 0.37071791498E+01 0.38486621780E+01 0.41462655090E+01 0.46130494330E+01
 0.52616237666E+01 0.60959464749E+01 0.71016335255E+01 0.82377600320E+01 0.94342460404E+01
 0.10581757668E+02 0.11427460925E+02 0.11677434458E+02 0.11146560331E+02 0.98344112119E+01
 0.79570031124E+01 0.59183103004E+01 0.42168670824E+01 0.33049124528E+01 0.34441238382E+01
 0.46147936642E+01 0.65190753513E+01 0.54124914620E+01 0.80730059089E+01 0.10333858051E+02
 0.11784603422E+02 0.12261893829E+02 0.11853477542E+02 0.10835954825E+02 0.95670459085E+01
 0.82885654983E+01 0.71017885095E+01 0.60726716860E+01 0.52348634531E+01 0.45954680311E+01
 0.41452465036E+01 0.38689142569E+01 0.37531018517E+01 0.37913964207E+01 0.39863671354E+01
 0.43485283463E+01 0.48922411522E+01 0.56286349125E+01 0.65559170080E+01 0.76489045531E+01
 0.88516979864E+01 0.10077094248E+02 0.11138004776E+02 0.11697666897E+02 0.11462405097E+02
 0.10296145985E+02 0.82913518319E+01 0.57853507400E+01 0.33049215192E+01 0.14386579833E+01
 0.66628319162E+00 0.12035247150E+01 0.29268510352E+01 0.16479094776E+01 0.46719677148E+01
 0.77410786817E+01 0.10244260571E+02 0.11784603422E+02 0.12245231795E+02 0.11771930926E+02
 0.10692208115E+02 0.93917646984E+01 0.81037737268E+01 0.69260036573E+01 0.59203591171E+01
 0.51153449414E+01 0.45136967298E+01 0.41035998736E+01 0.38691679894E+01 0.37981645368E+01
 0.38865790995E+01 0.41398906441E+01 0.45709463689E+01 0.51945349603E+01 0.60188487989E+01
 0.70345408027E+01 0.82040931727E+01 0.94562525175E+01 0.10673105193E+02 0.11561447496E+02
 0.11749356999E+02 0.10965614508E+02 0.91434073505E+01 0.64823034898E+01 0.34441307117E+01
 0.66628472347E+00 -.12004361590E+01 -.16858082279E+01 -.65414975533E+00 -.18818048141E+01
 0.95871284798E+00 0.44116005260E+01 0.77410786817E+01 0.10333858051E+02 0.11834443357E+02
 0.12188823282E+02 0.11604922348E+02 0.10455058055E+02 0.91358229691E+01 0.78542176857E+01
 0.67018945074E+01 0.57345462549E+01 0.49744462439E+01 0.44198414427E+01 0.40568099424E+01
 0.38695621439E+01 0.38476850519E+01 0.39900267285E+01 0.43049981507E+01 0.48072566936E+01
 0.55109729203E+01 0.64199534818E+01 0.75158496342E+01 0.87481096959E+01 0.10030821059E+02
 0.11184415758E+02 0.11832252418E+02 0.11599438247E+02 0.10257796273E+02 0.78254133286E+01
 0.46147928940E+01 0.12035189333E+01 -.16858172690E+01 -.33782525943E+01 -.34528345175E+01
 -.44006172525E+01 -.23109406044E+01 0.95871284798E+00 0.46719677148E+01 0.80730059089E+01
 0.10582090446E+02 0.11909752921E+02 0.12075396923E+02 0.11346923909E+02 0.10130077143E+02
 0.88077167726E+01 0.75489447099E+01 0.64378985547E+01 0.55222048667E+01 0.48172606626E+01
 0.43170680399E+01 0.40062633780E+01 0.38699089357E+01 0.39000281406E+01 0.40985853632E+01
 0.44766883663E+01 0.50500813096E+01 0.58312050243E+01 0.68182177554E+01 0.79828972121E+01
 0.92619512086E+01 0.10551568154E+02 0.11588938043E+02 0.11957401724E+02 0.11300596804E+02
 0.94505825447E+01 0.65190678678E+01 0.29268373425E+01 -.65417063531E+00 -.34528540624E+01
 -.48134593563E+01 -.44006330250E+01 -.37516532788E+01 -.15421040708E+01 0.17060065876E+01
 0.52694511155E+01 0.84343896397E+01 0.10675330670E+02 0.11753944349E+02 0.11727746811E+02
 0.10884986595E+02 0.96326787577E+01 0.83199861929E+01 0.70886174692E+01 0.60162716977E+01
 0.51438966338E+01 0.44814220023E+01 0.40194386206E+01 0.37412564090E+01 0.36322089652E+01
 0.36855377292E+01 0.39047444111E+01 0.43023048886E+01 0.48947994291E+01 0.56946010353E+01
 0.66984534056E+01 0.78751778842E+01 0.91575545458E+01 0.10433718764E+02 0.11415995722E+02
 0.11691753473E+02 0.10929747834E+02 0.90015358199E+01 0.60622976059E+01 0.25648793097E+01
 -.81389819509E+00 -.33338311896E+01 -.37516734162E+01 -.44006468343E+01 -.33338372454E+01
 -.81390298254E+00 0.25648691237E+01 0.60622840064E+01 0.90015284133E+01 0.10929754529E+02
 0.11691774397E+02 0.11416024096E+02 0.10433747211E+02 0.91575776757E+01 0.78751918447E+01
 0.66984576407E+01 0.56945998339E+01 0.48947985416E+01 0.43023057149E+01 0.39047444290E+01
 0.36855356302E+01 0.36322061354E+01 0.37412543147E+01 0.40194370206E+01 0.44814210056E+01
 0.51438959709E+01 0.60162677008E+01 0.70886041568E+01 0.83199610524E+01 0.96326457036E+01
 0.10884951923E+02 0.11727715080E+02 0.11753919644E+02 0.10675316549E+02 0.84343856251E+01
 0.52694498914E+01 0.17059982418E+01 -.15421217975E+01 -.14556578069E+01 -.32418498478E+01
 -.34528702167E+01 -.20464931522E+01 0.62516020105E+00 0.39308423284E+01 0.71543571710E+01
 0.96907534596E+01 0.11181141430E+02 0.11559534628E+02 0.11018399959E+02 0.99163116183E+01
 0.86427743611E+01 0.74059116203E+01 0.62972125424E+01 0.53716526355E+01 0.46504577321E+01
 0.41309783885E+01 0.37989064250E+01 0.36386584578E+01 0.36405066904E+01 0.38043087761E+01
 0.41397186160E+01 0.46628804217E+01 0.53896957314E+01 0.63257710148E+01 0.74542385464E+01
 0.87253540375E+01 0.10053360006E+02 0.11260672272E+02 0.11967489690E+02 0.11791656463E+02
 0.10498420558E+02 0.81007605737E+01 0.49057151731E+01 0.14827555451E+01 0.19314599879E+01
 -.56486811473E+00 -.18735693342E+01 -.16858433411E+01 -.65003649029E-01 0.25754267485E+01
 0.56065166811E+01 0.83741106282E+01 0.10372004935E+02 0.11346799955E+02 0.11318914131E+02
 0.10531496641E+02 0.93511830764E+01 0.81042943798E+01 0.69277573134E+01 0.58983246054E+01
 0.50579239528E+01 0.44184316114E+01 0.39724777004E+01 0.37049448449E+01 0.36020235308E+01
 0.36570562948E+01 0.38730964783E+01 0.42621324705E+01 0.48409942574E+01 0.56239697010E+01
 0.66123272817E+01 0.77825537191E+01 0.90777050788E+01 0.10405813761E+02 0.11558155249E+02
 0.12152868351E+02 0.11845697530E+02 0.10459849616E+02 0.80712887467E+01 0.50348081211E+01
 0.56425211550E+01 0.29900867639E+01 0.10081372612E+01 0.16930389773E+00 0.66625169483E+00
 0.23491292212E+01 0.47771144969E+01 0.73614339581E+01 0.95401875314E+01 0.10921883249E+02
 0.11359636325E+02 0.10949491068E+02 0.99671449563E+01 0.87614321609E+01 0.75591099411E+01
 0.64563178910E+01 0.55145658266E+01 0.47630123100E+01 0.42054612614E+01 0.38312460680E+01
 0.36255215809E+01 0.35768399356E+01 0.36816748000E+01 0.39458779319E+01 0.43830793681E+01
 0.50099982014E+01 0.58386261209E+01 0.68657026341E+01 0.80618582403E+01 0.93649558607E+01
 0.10678732568E+02 0.11777395228E+02 0.12297576702E+02 0.11940952763E+02 0.10587117031E+02
 0.83616984376E+01 0.89298484580E+01 0.66398869265E+01 0.45102104043E+01 0.30518494651E+01
 0.26210516071E+01 0.33048840253E+01 0.48942043977E+01 0.69558773468E+01 0.89725432721E+01
 0.10493576820E+02 0.11246337036E+02 0.11181946261E+02 0.10455162467E+02 0.93534074865E+01
 0.81654521849E+01 0.70243849082E+01 0.60063330603E+01 0.51573841187E+01 0.44951875382E+01
 0.40172100963E+01 0.37109702933E+01 0.35628200857E+01 0.35640110977E+01 0.37139533006E+01
 0.40207288766E+01 0.44988592717E+01 0.51642137946E+01 0.60260011815E+01 0.70765944227E+01
 0.82819363392E+01 0.95768595618E+01 0.10863891946E+02 0.11917318593E+02 0.12405718362E+02
 0.12079624172E+02 0.10868265084E+02 0.11254240591E+02 0.96842060361E+01 0.78801599875E+01
 0.62841296412E+01 0.53028643671E+01 0.51802816415E+01 0.59182711263E+01 0.72791518911E+01
 0.88681569180E+01 0.10260354007E+02 0.11123133259E+02 0.11296132807E+02 0.10812563945E+02
 0.98651316281E+01 0.87264727797E+01 0.75815783861E+01 0.65165674843E+01 0.55909273995E+01
 0.48363998531E+01 0.42611044293E+01 0.38581064628E+01 0.36144740208E+01 0.35184399461E+01
 0.35640219058E+01 0.37531652092E+01 0.40955146818E+01 0.46057402470E+01 0.52982260143E+01
 0.61791395823E+01 0.72369606028E+01 0.84343389412E+01 0.97051864647E+01 0.10954744428E+02
 0.11973355293E+02 0.12469191167E+02 0.12240012681E+02 0.12381199833E+02 0.11669067456E+02
 0.10501607314E+02 0.91857361929E+01 0.80813824157E+01 0.74907070138E+01 0.75597486271E+01
 0.82312767213E+01 0.92682427201E+01 0.10336719332E+02 0.11113613828E+02 0.11379924046E+02
 0.11072680636E+02 0.10286409611E+02 0.92293273854E+01 0.81100866040E+01 0.70280498725E+01
 0.60505148983E+01 0.52210572056E+01 0.45591401360E+01 0.40657106093E+01 0.37313143179E+01
 0.35436857709E+01 0.34933356904E+01 0.35768697873E+01 0.37982294735E+01 0.41679205681E+01
 0.47000733483E+01 0.54070917407E+01 0.62920794510E+01 0.73403307127E+01 0.85126750063E+01
 0.97440266263E+01 0.10945876535E+02 0.11937187182E+02 0.12469004607E+02 0.12380118496E+02
 0.12452361801E+02 0.12025345088E+02 0.11250307492E+02 0.10379273096E+02 0.96870542029E+01
 0.93806425540E+01 0.95293840354E+01 0.10043805944E+02 0.10710972107E+02 0.11270273654E+02
 0.11499138040E+02 0.11279107328E+02 0.10624202642E+02 0.96671384060E+01 0.85964450574E+01
 0.75249625720E+01 0.65219291708E+01 0.56388293508E+01 0.49052568281E+01 0.43310395315E+01
 0.39123463731E+01 0.36388291045E+01 0.34996881706E+01 0.34878224261E+01 0.36020658093E+01
 0.38477431715E+01 0.42355414298E+01 0.47784521511E+01 0.54865755325E+01 0.63601419058E+01
 0.73821179493E+01 0.85129458243E+01 0.96902242904E+01 0.10833668407E+02 0.11798797747E+02
 0.11550233683E+02 0.12178515429E+02 0.12404451768E+02 0.12241608893E+02 0.11813475721E+02
 0.11312705112E+02 0.10934242656E+02 0.10806095588E+02 0.10944523739E+02 0.11251371237E+02