       N       E                     dE             d eps       ncg     rms          rms(c)
DAV:   1     0.130527956746E+01    0.13053E+01   -0.27439E+03   896   0.574E+02
DAV:   2    -0.101681145305E+02   -0.11473E+02   -0.11177E+02  1368   0.664E+01
DAV:   3    -0.102895302761E+02   -0.12142E+00   -0.12102E+00  1160   0.830E+00
DAV:   4    -0.102898729371E+02   -0.34266E-03   -0.34263E-03  1424   0.430E-01
DAV:   5    -0.102898737496E+02   -0.81248E-06   -0.81235E-06  1128   0.114E-02    0.165E+00
DAV:   6    -0.102789790507E+02    0.10895E-01   -0.56952E-03  1232   0.472E-01    0.102E+00
DAV:   7    -0.102722936413E+02    0.66854E-02   -0.13815E-02  1152   0.778E-01    0.638E-02
DAV:   8    -0.102722237549E+02    0.69886E-04   -0.71350E-04   728   0.193E-01
   1 F= -.10272224E+02 E0= -.10263527E+02  d E =-.102722E+02
