 running on    8 total cores
 distrk:  each k-point on    8 cores,    1 groups
 distr:  one band on    1 cores,    8 groups
 using from now: INCAR     
 vasp.5.4.4.18Apr17-6-g9f103f2a35 (build Dec 09 2018 21:25:21) complex          
  
 POSCAR found type information on POSCAR  Si
 POSCAR found :  1 types and       2 ions
 scaLAPACK will be used

 ----------------------------------------------------------------------------- 
|                                                                             |
|           W    W    AA    RRRRR   N    N  II  N    N   GGGG   !!!           |
|           W    W   A  A   R    R  NN   N  II  NN   N  G    G  !!!           |
|           W    W  A    A  R    R  N N  N  II  N N  N  G       !!!           |
|           W WW W  AAAAAA  RRRRR   N  N N  II  N  N N  G  GGG   !            |
|           WW  WW  A    A  R   R   N   NN  II  N   NN  G    G                |
|           W    W  A    A  R    R  N    N  II  N    N   GGGG   !!!           |
|                                                                             |
|      For optimal performance we recommend to set                            |
|        NCORE= 4 - approx SQRT( number of cores)                             |
|      NCORE specifies how many cores store one orbital (NPAR=cpu/NCORE).     |
|      This setting can  greatly improve the performance of VASP for DFT.     |
|      The default,   NCORE=1            might be grossly inefficient         |
|      on modern multi-core architectures or massively parallel machines.     |
|      Do your own testing !!!!                                               |
|      Unfortunately you need to use the default for GW and RPA calculations. |
|      (for HF NCORE is supported but not extensively tested yet)             |
|                                                                             |
 ----------------------------------------------------------------------------- 

 LDA part: xc-table for Pade appr. of Perdew
 POSCAR, INCAR and KPOINTS ok, starting setup
 FFT: planning ...
 WAVECAR not read
 entering main loop
       N       E                     dE             d eps       ncg     rms          rms(c)
DAV:   1     0.130527956746E+01    0.13053E+01   -0.27439E+03   896   0.574E+02
DAV:   2    -0.101681145305E+02   -0.11473E+02   -0.11177E+02  1368   0.664E+01
DAV:   3    -0.102895302761E+02   -0.12142E+00   -0.12102E+00  1160   0.830E+00
DAV:   4    -0.102898729371E+02   -0.34266E-03   -0.34263E-03  1424   0.430E-01
DAV:   5    -0.102898737496E+02   -0.81248E-06   -0.81235E-06  1128   0.114E-02    0.165E+00
DAV:   6    -0.102789790507E+02    0.10895E-01   -0.56952E-03  1232   0.472E-01    0.102E+00
DAV:   7    -0.102722936413E+02    0.66854E-02   -0.13815E-02  1152   0.778E-01    0.638E-02
DAV:   8    -0.102722237549E+02    0.69886E-04   -0.71350E-04   728   0.193E-01
   1 F= -.10272224E+02 E0= -.10263527E+02  d E =-.102722E+02
 curvature:   0.00 expect dE= 0.000E+00 dE for cont linesearch  0.000E+00
 trial: gam= 0.00000 g(F)=  0.486E-52 g(S)=  0.000E+00 ort = 0.000E+00 (trialstep = 0.100E+01)
 search vector abs. value=  0.100E-09
 reached required accuracy - stopping structural energy minimisation
 writing wavefunctions
