unknown system                          
           1
    -2.381959    2.381959    1.359241
     2.381959   -2.381959    1.359241
     2.381959    2.381959   -1.359241
   Si
   2
Direct configuration=     1
   0.00000000  0.00000000  0.00000000
   0.25000000  0.75000000  0.50000000
