unknown system                          
   1.00000000000000     
    -2.450000    2.450000    1.274000
     2.450000   -2.450000    1.274000
     2.450000    2.450000   -1.274000
   Si
     2
Direct
  0.250000  0.750000  0.500000
  0.000000  0.000000  0.000000
 
   28   28   28
 -5.5777     -4.0441     -.48210E-01  4.8988      9.1059      11.441      11.703      10.502      8.7919      7.1706    
  5.8162      4.7889      4.0853      3.6789      3.5463      3.6789      4.0853      4.7889      5.8162      7.1706    
  8.7918      10.502      11.703      11.441      9.1059      4.8988     -.48222E-01 -4.0442     -4.0442     -4.8371    
 -2.6870      1.5530      6.2925      9.9596      11.662      11.432      10.007      8.2992      6.7463      5.4836    
  4.5501      3.9331      3.6054      3.5463      3.7512      4.2322      5.0146      6.1220      7.5469      9.2090    
  10.881      11.851      11.204      8.4895      4.1202     -.61865     -.48222E-01 -2.6870     -2.7506     -.22178    
  3.8813      8.0160      10.840      11.756      11.016      9.4259      7.7598      6.2993      5.1434      4.3115    
  3.7841      3.5346      3.5464      3.8184      4.3657      5.2140      6.3823      7.8521      9.5259      11.134    
  11.918      11.055      8.2652      4.1202      4.8988      1.5529     -.22179     0.30879      2.9125      6.5132    
  9.7337      11.540      11.637      10.457      8.7971      7.2043      5.8546      4.8141      4.0857      3.6457    
  3.4702      3.5464      3.8768      4.4782      5.3750      6.5809      8.0670      9.7239      11.259      11.935    
  11.055      8.4895      9.1059      6.2925      3.8813      2.9126      3.8169      6.1892      9.0042      11.140    
  11.904      11.277      9.7993      8.1562      6.6624      5.4353      4.5121      3.8834      3.5246      3.4152    
  3.5464      3.9234      4.5633      5.4880      6.7053      8.1779      9.7912      11.259      11.918      11.204    
  11.441      9.9596      8.0160      6.5132      6.1892      7.2175      9.1112      10.988      12.030      11.872    
  10.710      9.1114      7.5371      6.1612      5.0607      4.2503      3.7130      3.4257      3.3719      3.5465    
  3.9558      4.6163      5.5463      6.7476      8.1779      9.7239      11.134      11.851      11.703      11.662    
  10.840      9.7336      9.0042      9.1112      10.042      11.314      12.248      12.336      11.487      10.031    
  8.4452      6.9713      5.7233      4.7460      4.0385      3.5808      3.3528      3.3422      3.5465      3.9724    
  4.6343      5.5463      6.7053      8.0670      9.5259      10.881      10.502      11.432      11.756      11.540    
  11.140      10.988      11.314      11.998      12.629      12.752      12.130      10.875      9.3504      7.8395    
  6.4859      5.3663      4.5022      3.8835      3.4908      3.3081      3.3271      3.5465      3.9724      4.6163    
  5.4880      6.5809      7.8521      9.2090      8.7918      10.007      11.016      11.637      11.904      12.030    
  12.248      12.629      13.010      13.092      12.629      11.594      10.208      8.7324      7.3289      6.1030    
  5.1032      4.3363      3.7891      3.4452      3.2931      3.3271      3.5465      3.9558      4.5633      5.3750    
  6.3823      7.5469      7.1706      8.2992      9.4259      10.457      11.277      11.872      12.336      12.752    
  13.092      13.204      12.907      12.123      10.957      9.6036      8.2231      6.9425      5.8388      4.9421    
  4.2524      3.7574      3.4452      3.3081      3.3422      3.5465      3.9234      4.4782      5.2140      6.1220    
  5.8162      6.7463      7.7598      8.7971      9.7993      10.710      11.487      12.130      12.629      12.907    
  12.850      12.376      11.517      10.387      9.1233      7.8608      6.7018      5.7041      4.8880      4.2524    
  3.7891      3.4908      3.3528      3.3719      3.5464      3.8768      4.3657      5.0146      4.7889      5.4836    
  6.2993      7.2042      8.1562      9.1114      10.031      10.875      11.594      12.123      12.376      12.277    
  11.805      11.001      9.9628      8.8148      7.6726      6.6201      5.7041      4.9421      4.3363      3.8835    
  3.5808      3.4257      3.4152      3.5464      3.8184      4.2322      4.0853      4.5501      5.1434      5.8546    
  6.6624      7.5371      8.4452      9.3504      10.208      10.957      11.517      11.805      11.758      11.361    
  10.657      9.7368      8.7086      7.6726      6.7018      5.8388      5.1032      4.5022      4.0385      3.7130    
  3.5246      3.4702      3.5464      3.7512      3.6789      3.9331      4.3115      4.8141      5.4353      6.1612    
  6.9713      7.8395      8.7324      9.6036      10.387      11.001      11.361      11.406      11.119      10.537    
  9.7368      8.8148      7.8608      6.9425      6.1030      5.3663      4.7460      4.2503      3.8834      3.6457    
  3.5346      3.5463      3.5463      3.6054      3.7841      4.0857      4.5121      5.0607      5.7233      6.4859    
  7.3289      8.2231      9.1233      9.9629      10.657      11.119      11.281      11.119      10.657      9.9628    
  9.1233      8.2231      7.3289      6.4859      5.7233      5.0607      4.5121      4.0857      3.7841      3.6054    
  3.6789      3.5463      3.5346      3.6457      3.8834      4.2503      4.7460      5.3663      6.1030      6.9425    
  7.8608      8.8148      9.7368      10.537      11.119      11.406      11.361      11.001      10.387      9.6036    
  8.7324      7.8395      6.9713      6.1612      5.4353      4.8141      4.3115      3.9331      4.0853      3.7512    
  3.5464      3.4702      3.5246      3.7130      4.0385      4.5022      5.1032      5.8388      6.7018      7.6726    
  8.7086      9.7368      10.657      11.361      11.758      11.805      11.517      10.957      10.208      9.3504    
  8.4452      7.5371      6.6624      5.8546      5.1434      4.5501      4.7889      4.2322      3.8184      3.5464    
  3.4152      3.4257      3.5808      3.8835      4.3363      4.9421      5.7041      6.6201      7.6726      8.8148    
  9.9629      11.001      11.805      12.277      12.376      12.123      11.594      10.875      10.031      9.1114    
  8.1562      7.2043      6.2993      5.4836      5.8162      5.0146      4.3657      3.8768      3.5464      3.3719    
  3.3528      3.4908      3.7891      4.2524      4.8880      5.7041      6.7018      7.8608      9.1233      10.387    
  11.517      12.376      12.850      12.907      12.629      12.130      11.487      10.710      9.7993      8.7971    
  7.7598      6.7463      7.1706      6.1220      5.2139      4.4782      3.9234      3.5465      3.3422      3.3081    
  3.4452      3.7574      4.2524      4.9421      5.8388      6.9425      8.2231      9.6036      10.957      12.123    
  12.907      13.204      13.092      12.752      12.336      11.872      11.277      10.457      9.4259      8.2992    
  8.7919      7.5469      6.3823      5.3750      4.5633      3.9558      3.5465      3.3271      3.2931      3.4452    
  3.7891      4.3363      5.1032      6.1030      7.3289      8.7324      10.208      11.594      12.629      13.092    
  13.010      12.629      12.248      12.030      11.904      11.637      11.016      10.007      10.502      9.2090    
  7.8521      6.5809      5.4881      4.6164      3.9724      3.5465      3.3271      3.3081      3.4908      3.8835    
  4.5022      5.3663      6.4859      7.8395      9.3504      10.875      12.130      12.752      12.629      11.998    
  11.314      10.988      11.140      11.540      11.756      11.432      11.703      10.881      9.5259      8.0670    
  6.7053      5.5463      4.6343      3.9724      3.5465      3.3422      3.3528      3.5808      4.0385      4.7460    
  5.7233      6.9713      8.4452      10.031      11.487      12.336      12.248      11.314      10.042      9.1112    
  9.0042      9.7337      10.840      11.662      11.441      11.851      11.134      9.7239      8.1779      6.7476    
  5.5463      4.6164      3.9558      3.5465      3.3719      3.4257      3.7130      4.2503      5.0607      6.1612    
  7.5371      9.1114      10.710      11.872      12.030      10.988      9.1112      7.2175      6.1892      6.5132    
  8.0160      9.9596      9.1059      11.204      11.918      11.259      9.7912      8.1779      6.7053      5.4881    
  4.5633      3.9234      3.5464      3.4152      3.5246      3.8834      4.5121      5.4353      6.6624      8.1562    
  9.7993      11.277      11.904      11.140      9.0042      6.1892      3.8169      2.9125      3.8813      6.2925    
  4.8988      8.4895      11.055      11.935      11.259      9.7239      8.0670      6.5809      5.3750      4.4782    
  3.8768      3.5464      3.4702      3.6457      4.0857      4.8141      5.8546      7.2042      8.7971      10.457    
  11.637      11.540      9.7336      6.5132      2.9126     0.30879     -.22178      1.5530     -.48210E-01  4.1202    
  8.2651      11.055      11.918      11.134      9.5259      7.8521      6.3823      5.2139      4.3657      3.8184    
  3.5464      3.5346      3.7841      4.3115      5.1434      6.2993      7.7598      9.4259      11.016      11.756    
  10.840      8.0160      3.8813     -.22179     -2.7506     -2.6870     -4.0441     -.61864      4.1202      8.4895    
  11.204      11.851      10.881      9.2090      7.5469      6.1220      5.0146      4.2322      3.7512      3.5463    
  3.6054      3.9331      4.5501      5.4836      6.7463      8.2992      10.007      11.432      11.662      9.9596    
  6.2925      1.5529     -2.6870     -4.8371     -4.0441     -2.9324     0.56121      5.0867      9.0425      11.293    
  11.569      10.405      8.7046      7.0779      5.7085      4.6599      3.9309      3.4950      3.3270      3.4161    
  3.7689      4.4074      5.3594      6.6355      8.1916      9.8856      11.246      11.375      9.6072      6.0014    
  1.5054     -2.3344     -2.9324     -4.0441     -2.3344      1.5054      6.0013      9.6072      11.375      11.246    
  9.8856      8.1916      6.6355      5.3594      4.4074      3.7688      3.4161      3.3270      3.4950      3.9310    
  4.6600      5.7085      7.0779      8.7046      10.405      11.569      11.293      9.0425      5.0867     0.56121    
 0.66093     -2.2281     -2.6870     -.54946      3.3023      7.3841      10.318      11.411      10.820      9.2968    
  7.6446      6.1810      5.0134      4.1662      3.6219      3.3533      3.3421      3.5863      4.1004      4.9112    
  6.0420      7.4841      9.1555      10.830      11.815      11.261      8.7904      4.8467      5.3457      1.7922    
 -.35016     -.22176      2.0908      5.6042      8.9397      10.978      11.312      10.284      8.6736      7.0918    
  5.7381      4.6876      3.9481      3.4971      3.3097      3.3719      3.6859      4.2689      5.1476      6.3411    
  7.8300      9.5179      11.147      12.005      11.345      8.9384      9.4690      6.4884      3.7416      2.3594    
  2.9125      5.1174      7.9912      10.359      11.413      11.021      9.6620      8.0481      6.5599      5.3278    
  4.3973      3.7629      3.4001      3.2873      3.4152      3.7891      4.4278      5.3562      6.5879      8.0941    
  9.7688      11.344      12.150      11.559      11.856      10.264      8.0439      6.1467      5.4263      6.1892    
  8.0329      10.069      11.393      11.517      10.541      9.0068      7.4490      6.0733      4.9679      4.1544    
  3.6180      3.3348      3.2873      3.4703      3.8913      4.5688      5.5249      6.7668      8.2583      9.8902    
  11.411      12.234      12.222      12.144      11.137      9.7037      8.5826      8.3529      9.1112      10.420    
  11.556      11.910      11.280      9.9316      8.3721      6.9035      5.6523      4.6727      3.9680      3.5188    
  3.3037      3.3097      3.5347      3.9873      4.6842      5.6432      6.8655      8.3105      9.8712      11.333    
  11.102      12.069      12.314      11.882      11.158      10.659      10.726      11.314      12.023      12.333    
  11.911      10.783      9.2942      7.7916      6.4359      5.3134      4.4521      3.8437      3.4680      3.3075    
  3.3533      3.6055      4.0720      4.7669      5.7031      6.8766      8.2451      9.7099      9.4144      10.717    
  11.744      12.272      12.327      12.167      12.105      12.298      12.629      12.784      12.450      11.522    
  10.172      8.7030      7.2967      6.0668      5.0688      4.3125      3.7846      3.4666      3.3456      3.4161    
  3.6790      4.1407      4.8118      5.7002      6.7982      8.0650      7.7816      9.0030      10.199      11.240    
  11.970      12.383      12.613      12.814      13.017      13.092      12.829      12.096      10.945      9.5887    
  8.2019      6.9155      5.8124      4.9264      4.2575      3.7915      3.5139      3.4161      3.4950      3.7512    
  4.1892      4.8155      5.6339      6.6348      6.3970      7.4139      8.5024      9.5868      10.589      11.425    
  12.054      12.517      12.851      13.017      12.907      12.413      11.531      10.380      9.1017      7.8299    
  6.6706      5.6842      4.8912      4.2881      3.8635      3.6079      3.5161      3.5862      3.8184      4.2143    
  4.7772      5.5080      5.3308      6.1010      6.9864      7.9452      8.9217      9.8597      10.713      11.442    
  12.019      12.412      12.557      12.376      11.840      10.993      9.9263      8.7627      7.6184      6.5784    
  5.6889      4.9646      4.4034      3.9985      3.7453      3.6416      3.6858      3.8768      4.2143      4.6991    
  4.5863      5.1140      5.7664      6.5270      7.3659      8.2438      9.1186      9.9517      10.705      11.331    
  11.767      11.943      11.805      11.340      10.590      9.6441      8.6101      7.5876      6.6475      5.8287    
  5.1456      4.6005      4.1928      3.9220      3.7879      3.7890      3.9233      4.1892      4.1407      4.4459    
  4.8714      5.4141      6.0631      6.7982      7.5917      8.4126      9.2270      9.9943      10.660      11.154    
  11.406      11.361      11.008      10.387      9.5744      8.6651      7.7454      6.8783      6.1004      5.4297    
  4.8748      4.4410      4.1319      3.9490      3.8912      3.9557      3.9723      4.0720      4.2867      4.6178    
  5.0644      5.6199      6.2713      6.9997      7.7824      8.5908      9.3848      10.107      10.684      11.040    
  11.119      10.902      10.418      9.7325      8.9294      8.0863      7.2623      6.4955      5.8091      5.2185    
  4.7351      4.3672      4.1180      3.9872      4.0720      3.9723      3.9872      4.1180      4.3672      4.7352    
  5.2185      5.8091      6.4956      7.2623      8.0863      8.9294      9.7325      10.418      10.902      11.119    
  11.040      10.684      10.107      9.3848      8.5908      7.7824      6.9997      6.2713      5.6199      5.0644    
  4.6178      4.2867      4.4459      4.1407      3.9557      3.8912      3.9491      4.1319      4.4410      4.8748    
  5.4297      6.1004      6.8783      7.7454      8.6651      9.5744      10.387      11.008      11.361      11.406    
  11.154      10.660      9.9942      9.2270      8.4126      7.5917      6.7982      6.0631      5.4141      4.8714    
  5.1140      4.5863      4.1892      3.9234      3.7891      3.7879      3.9220      4.1928      4.6006      5.1456    
  5.8287      6.6475      7.5876      8.6101      9.6441      10.590      11.340      11.805      11.943      11.767    
  11.330      10.705      9.9517      9.1186      8.2438      7.3659      6.5270      5.7664      6.1010      5.3308    
  4.6992      4.2143      3.8768      3.6858      3.6416      3.7454      3.9985      4.4034      4.9646      5.6889    
  6.5784      7.6184      8.7627      9.9263      10.993      11.840      12.376      12.557      12.412      12.019    
  11.442      10.713      9.8597      8.9217      7.9452      6.9865      7.4139      6.3970      5.5081      4.7772    
  4.2143      3.8184      3.5863      3.5161      3.6079      3.8635      4.2881      4.8912      5.6842      6.6706    
  7.8299      9.1017      10.380      11.531      12.413      12.907      13.017      12.851      12.517      12.054    
  11.425      10.589      9.5868      8.5024      9.0030      7.7817      6.6348      5.6339      4.8155      4.1892    
  3.7512      3.4950      3.4161      3.5139      3.7915      4.2575      4.9264      5.8124      6.9154      8.2019    
  9.5887      10.945      12.095      12.829      13.092      13.017      12.814      12.613      12.383      11.970    
  11.240      10.199      10.717      9.4144      8.0650      6.7982      5.7002      4.8118      4.1407      3.6790    
  3.4161      3.3456      3.4666      3.7846      4.3125      5.0688      6.0668      7.2967      8.7030      10.172    
  11.522      12.450      12.784      12.629      12.298      12.105      12.167      12.327      12.272      11.744    
  12.069      11.102      9.7099      8.2451      6.8766      5.7031      4.7670      4.0720      3.6055      3.3533    
  3.3075      3.4680      3.8437      4.4520      5.3134      6.4359      7.7916      9.2942      10.783      11.911    
  12.333      12.023      11.314      10.726      10.659      11.158      11.882      12.314      12.144      12.222    
  11.333      9.8712      8.3104      6.8655      5.6432      4.6842      3.9872      3.5347      3.3097      3.3036    
  3.5187      3.9680      4.6727      5.6523      6.9035      8.3721      9.9316      11.280      11.909      11.556    
  10.420      9.1112      8.3529      8.5826      9.7038      11.137      10.264      11.856      12.234      11.411    
  9.8902      8.2583      6.7667      5.5249      4.5688      3.8912      3.4702      3.2873      3.3347      3.6180    
  4.1544      4.9679      6.0733      7.4490      9.0068      10.541      11.517      11.393      10.069      8.0329    
  6.1892      5.4264      6.1467      8.0439      6.4885      9.4690      11.559      12.150      11.344      9.7688    
  8.0940      6.5879      5.3562      4.4278      3.7891      3.4152      3.2873      3.4000      3.7628      4.3973    
  5.3278      6.5599      8.0481      9.6620      11.021      11.413      10.359      7.9912      5.1175      2.9126    
  2.3595      3.7416      1.7922      5.3457      8.9383      11.345      12.005      11.147      9.5179      7.8300    
  6.3411      5.1476      4.2689      3.6858      3.3719      3.3096      3.4971      3.9481      4.6876      5.7381    
  7.0918      8.6737      10.284      11.312      10.978      8.9397      5.6042      2.0908     -.22173     -.35012    
 -2.2280     0.66095      4.8467      8.7904      11.261      11.815      10.830      9.1555      7.4841      6.0420    
  4.9111      4.1004      3.5863      3.3421      3.3533      3.6219      4.1662      5.0134      6.1810      7.6446    
  9.2968      10.820      11.411      10.318      7.3841      3.3024     -.54943     -2.6869     -.48064E-01 0.66104    
  3.3582      6.9520      10.083      11.758      11.731      10.467      8.7682      7.1531      5.7871      4.7304    
  3.9820      3.5162      3.3081      3.3457      3.6323      4.1863      5.0339      6.1912      7.6323      9.2523    
  10.758      11.416      10.556      8.0748      4.6407      1.5055     0.56130     -.61848     0.56131      3.6047    
  7.2793      10.229      11.589      11.280      9.8859      8.2118      6.6730      5.4038      4.4471      3.7935    
  3.4162      3.2931      3.4162      3.7935      4.4471      5.4038      6.6730      8.2117      9.8859      11.280    
  11.589      10.229      7.2793      3.6047      3.3582     0.66104     -.48059E-01  1.5055      4.6407      8.0748    
  10.556      11.416      10.758      9.2523      7.6323      6.1913      5.0340      4.1863      3.6323      3.3457    
  3.3081      3.5161      3.9820      4.7304      5.7871      7.1530      8.7682      10.467      11.731      11.758    
  10.083      6.9521      7.1965      3.9681      1.7923      1.5531      3.3024      6.2397      9.1319      10.921    
  11.173      10.164      8.6009      7.0585      5.7310      4.6944      3.9593      3.5051      3.3075      3.3527    
  3.6416      4.1898      5.0233      6.1647      7.6059      9.2710      10.966      12.117      11.977      10.212    
  10.628      7.9834      5.3236      3.7417      3.8814      5.6042      8.0728      10.197      11.171      10.809    
  9.5172      7.9613      6.5160      5.3124      4.3997      3.7755      3.4171      3.3036      3.4257      3.7879    
  4.4080      5.3115      6.5164      8.0050      9.6891      11.358      12.433      12.262      12.581      11.257    
  9.1575      7.1635      6.1468      6.5132      7.9912      9.7910      11.035      11.198      10.311      8.8575    
  7.3594      6.0271      4.9524      4.1613      3.6421      3.3722      3.3347      3.5246      3.9490      4.6264    
  5.5798      6.8213      8.3244      9.9929      11.615      12.661      12.765      12.863      11.957      10.477    
  9.1406      8.5826      9.0041      10.069      11.107      11.491      10.960      9.7147      8.2297      6.8186    
  5.6103      4.6641      3.9877      3.5639      3.3722      3.4000      3.6457      4.1180      4.8340      5.8127    
  7.0596      8.5411      10.158      11.716      11.639      12.704      13.016      12.556      11.675      10.905    
  10.659      10.988      11.556      11.859      11.519      10.499      9.0962      7.6614      6.3595      5.2804    
  4.4569      3.8842      3.5433      3.4171      3.4971      3.7841      4.2866      5.0191      5.9954      7.2143    
  8.6374      10.168      10.018      11.378      12.445      12.957      12.900      12.524      12.183      12.105    
  12.248      12.333      12.032      11.189      9.9223      8.5230      7.1779      5.9998      5.0481      4.3366    
  3.8534      3.5805      3.5049      3.6219      3.9332      4.4458      5.1704      6.1151      7.2730      8.6037    
  8.4407      9.7169      10.946      11.982      12.640      12.894      12.893      12.834      12.814      12.752    
  12.450      11.748      10.655      9.3578      8.0322      6.8031      5.7538      4.9208      4.3060      3.8952    
  3.6735      3.6321      3.7688      4.0853      4.5863      5.2778      6.1627      7.2301      7.0878      8.1596    
  9.2854      10.377      11.340      12.072      12.527      12.765      12.869      12.850      12.629      12.095    
  11.220      10.102      8.8731      7.6582      6.5577      5.6320      4.9024      4.3652      4.0075      3.8186    
  3.7933      3.9309      4.2322      4.6991      5.3336      6.1341      6.0309      6.8564      7.7811      8.7551    
  9.7121      10.584      11.318      11.872      12.241      12.432      12.412      12.123      11.531      10.674    
  9.6327      8.5160      7.4308      6.4578      5.6413      4.9943      4.5125      4.1867      4.0105      3.9819    
  4.1003      4.3657      4.7772      5.3336      5.2779      5.8606      6.5530      7.3327      8.1633      8.9969    
  9.7846      10.485      11.067      11.500      11.748      11.767      11.517      10.993      10.231      9.3094    
  8.3263      7.3727      6.5138      5.7844      5.1950      4.7440      4.4272      4.2425      4.1898      4.2688    
  4.4782      4.8155      4.8119      5.1705      5.6355      6.1989      6.8452      7.5489      8.2769      8.9939    
  9.6664      10.262      10.740      11.055      11.154      11.001      10.590      9.9589      9.1775      8.3310    
  7.4966      6.7296      6.0601      5.5004      5.0539      4.7218      4.5060      4.4080      4.4278      4.5633    
  4.6164      4.7670      5.0192      5.3710      5.8176      6.3489      6.9482      7.5931      8.2588      8.9182    
  9.5385      10.076      10.477      10.684      10.657      10.387      9.9025      9.2630      8.5414      7.8045    
  7.1016      6.4624      5.9032      5.4336      5.0609      4.7907      4.6265      4.5688      4.6842      4.6344    
  4.6842      4.8341      5.0839      5.4316      5.8710      6.3916      6.9795      7.6181      8.2859      8.9517    
  9.5694      10.079      10.418      10.537      10.418      10.079      9.5694      8.9517      8.2860      7.6181    
  6.9795      6.3916      5.8710      5.4316      5.0839      4.8341      5.0192      4.7670      4.6164      4.5688    
  4.6265      4.7907      5.0608      5.4336      5.9033      6.4624      7.1016      7.8045      8.5414      9.2630    
  9.9025      10.387      10.657      10.684      10.477      10.076      9.5385      8.9182      8.2588      7.5931    
  6.9482      6.3489      5.8176      5.3710      5.6355      5.1706      4.8119      4.5633      4.4278      4.4080    
  4.5060      4.7218      5.0539      5.5005      6.0601      6.7296      7.4966      8.3310      9.1775      9.9589    
  10.590      11.001      11.154      11.055      10.740      10.262      9.6664      8.9939      8.2769      7.5489    
  6.8452      6.1989      6.5530      5.8606      5.2779      4.8155      4.4782      4.2688      4.1898      4.2425    
  4.4271      4.7440      5.1950      5.7844      6.5138      7.3727      8.3263      9.3094      10.231      10.993    
  11.517      11.767      11.748      11.500      11.067      10.485      9.7846      8.9970      8.1633      7.3327    
  7.7811      6.8564      6.0309      5.3336      4.7772      4.3657      4.1004      3.9819      4.0105      4.1866    
  4.5125      4.9943      5.6413      6.4578      7.4308      8.5160      9.6327      10.674      11.531      12.123    
  12.412      12.432      12.241      11.872      11.318      10.584      9.7121      8.7551      9.2854      8.1596    
  7.0878      6.1341      5.3336      4.6991      4.2322      3.9309      3.7934      3.8186      4.0075      4.3652    
  4.9025      5.6320      6.5577      7.6582      8.8731      10.102      11.220      12.095      12.629      12.850    
  12.869      12.765      12.527      12.072      11.340      10.377      10.946      9.7169      8.4407      7.2300    
  6.1627      5.2778      4.5862      4.0853      3.7688      3.6321      3.6735      3.8952      4.3060      4.9208    
  5.7538      6.8031      8.0323      9.3578      10.655      11.748      12.450      12.752      12.814      12.834    
  12.893      12.894      12.640      11.982      12.445      11.378      10.018      8.6037      7.2730      6.1151    
  5.1704      4.4458      3.9331      3.6219      3.5049      3.5805      3.8534      4.3366      5.0481      5.9998    
  7.1779      8.5230      9.9223      11.189      12.032      12.333      12.248      12.105      12.183      12.524    
  12.900      12.957      13.016      12.704      11.639      10.168      8.6373      7.2143      5.9954      5.0191    
  4.2866      3.7841      3.4971      3.4170      3.5433      3.8842      4.4569      5.2804      6.3595      7.6614    
  9.0962      10.499      11.519      11.859      11.556      10.988      10.659      10.905      11.675      12.556    
  11.957      12.863      12.765      11.716      10.158      8.5411      7.0596      5.8127      4.8340      4.1180    
  3.6457      3.4000      3.3722      3.5639      3.9877      4.6641      5.6103      6.8185      8.2297      9.7147    
  10.960      11.491      11.107      10.069      9.0041      8.5826      9.1406      10.477      9.1575      11.257    
  12.581      12.661      11.615      9.9929      8.3244      6.8213      5.5798      4.6264      3.9490      3.5246    
  3.3347      3.3722      3.6421      4.1613      4.9524      6.0271      7.3594      8.8575      10.311      11.198    
  11.035      9.7910      7.9912      6.5132      6.1467      7.1635      5.3236      7.9834      10.628      12.262    
  12.433      11.358      9.6891      8.0050      6.5164      5.3115      4.4080      3.7879      3.4257      3.3037    
  3.4171      3.7755      4.3997      5.3124      6.5160      7.9613      9.5172      10.809      11.171      10.197    
  8.0729      5.6042      3.8814      3.7417      1.7923      3.9681      7.1965      10.212      11.977      12.117    
  10.966      9.2710      7.6059      6.1647      5.0233      4.1898      3.6417      3.3528      3.3075      3.5051    
  3.9593      4.6944      5.7309      7.0585      8.6009      10.164      11.173      10.921      9.1319      6.2397    
  3.3024      1.5531      4.8989      5.3458      7.1964      9.6524      11.682      12.533      12.048      10.641    
  8.9670      7.3921      6.0538      5.0044      4.2425      3.7454      3.4907      3.4666      3.6736      4.1247    
  4.8419      5.8433      7.1187      8.5978      10.118      11.223      11.307      10.136      8.0748      6.0014    
  5.0868      4.1203      4.8468      6.9520      9.5078      11.456      12.120      11.463      9.9916      8.3574    
  6.8615      5.6210      4.6736      4.0106      3.6079      3.4452      3.5139      3.8187      4.3765      5.2112    
  6.3371      7.7308      9.2983      10.813      11.691      11.355      9.7036      7.2793      6.9520      4.8468    
  4.1203      5.0868      7.2793      9.7036      11.355      11.691      10.813      9.2982      7.7308      6.3371    
  5.2112      4.3765      3.8187      3.5139      3.4452      3.6079      4.0106      4.6736      5.6209      6.8615    
  8.3574      9.9916      11.463      12.120      11.456      9.5077      9.6524      7.1964      5.3458      4.8989    
  6.0014      8.0748      10.136      11.307      11.223      10.118      8.5978      7.1187      5.8433      4.8419    