unknown system                          
   1.00000000000000     
    -2.480594    2.480594    1.250983
     2.480594   -2.480594    1.250983
     2.480594    2.480594   -1.250983
   Si
     2
Direct
  0.250000  0.750000  0.500000
  0.000000  0.000000  0.000000
 
   32   32   32
 -5.3464     -4.1706     -1.0118      3.1779      7.2409      10.226      11.659      11.602      10.522      9.0455    
  7.5931      6.3093      5.2664      4.4847      3.9521      3.6458      3.5461      3.6458      3.9521      4.4846    
  5.2664      6.3093      7.5931      9.0455      10.522      11.602      11.659      10.226      7.2409      3.1779    
 -1.0119     -4.1707     -4.1707     -4.7774     -3.1079     0.31191      4.4605      8.2190      10.755      11.738    
  11.348      10.107      8.6210      7.2098      5.9907      5.0206      4.3096      3.8412      3.5925      3.5463    
  3.6987      4.0603      4.6526      5.4975      6.6015      7.9338      9.4090      10.850      11.764      11.540    
  9.7923      6.5763      2.4819     -1.4762     -1.0119     -3.1079     -3.1519     -1.1359      2.2996      6.1310    
  9.3432      11.264      11.717      10.985      9.6202      8.1529      6.8004      5.6592      4.7704      4.1347    
  3.7324      3.5411      3.5468      3.7490      4.1613      4.8061      5.7035      6.8538      8.2169      9.6966    
  11.084      11.853      11.440      9.5491      6.3410      2.4819      3.1779     0.31190     -1.1360     -.70132    
  1.4658      4.6665      7.9409      10.429      11.640      11.550      10.517      9.0869      7.6598      6.3817    
  5.3285      4.5260      3.9669      3.6295      3.4933      3.5474      3.7945      4.2505      4.9381      5.8748    
  7.0547      8.4294      9.8957      11.223      11.892      11.402      9.5491      6.5763      7.2409      4.4605    
  2.2996      1.4658      2.2368      4.3445      7.0915      9.6371      11.308      11.800      11.218      9.9652    
  8.5287      7.1615      5.9707      5.0115      4.2964      3.8120      3.5363      3.4507      3.5476      3.8328    
  4.3239      5.0428      6.0034      7.1943      8.5612      9.9976      11.270      11.892      11.440      9.7923    
  10.226      8.2190      6.1310      4.6665      4.3445      5.2804      7.1376      9.2751      11.010      11.865    
  11.707      10.738      9.3708      7.9682      6.6779      5.5829      4.7196      4.0895      3.6754      3.4556    
  3.4144      3.5473      3.8627      4.3786      5.1152      6.0830      7.2659      8.6059      9.9976      11.223    
  11.853      11.540      11.659      10.755      9.3432      7.9409      7.0915      7.1376      8.0705      9.5360    
  10.991      11.926      12.052      11.375      10.159      8.7731      7.4284      6.2280      5.2325      4.4626    
  3.9119      3.5610      3.3899      3.3857      3.5467      3.8830      4.4121      5.1522      6.1101      7.2659    
  8.5612      9.8957      11.084      11.764      11.602      11.738      11.264      10.429      9.6371      9.2751    
  9.5360      10.331      11.332      12.117      12.347      11.894      10.868      9.5520      8.2000      6.9323    
  5.8288      4.9313      4.2485      3.7687      3.4723      3.3413      3.3657      3.5462      3.8932      4.4235    
  5.1522      6.0830      7.1943      8.4294      9.6966      10.850      10.522      11.348      11.717      11.640    
  11.308      11.010      10.991      11.332      11.908      12.444      12.645      12.326      11.481      10.283    
  8.9702      7.6787      6.5000      5.4943      4.6885      4.0831      3.6637      3.4117      3.3114      3.3555    
  3.5459      3.8932      4.4121      5.1152      6.0034      7.0547      8.2169      9.4090      9.0455      10.107    
  10.985      11.550      11.800      11.865      11.926      12.117      12.444      12.776      12.909      12.667    
  11.983      10.937      9.7135      8.4466      7.2334      6.1481      5.2353      4.5109      3.9707      3.5997    
  3.3809      3.3013      3.3555      3.5462      3.8830      4.3786      5.0428      5.8748      6.8538      7.9338    
  7.5931      8.6210      9.6201      10.517      11.218      11.707      12.052      12.347      12.645      12.909    
  13.027      12.864      12.341      11.479      10.396      9.2079      8.0097      6.8835      5.8890      5.0589    
  4.4028      3.9139      3.5782      3.3809      3.3114      3.3657      3.5467      3.8627      4.3239      4.9381    
  5.7035      6.6015      6.3093      7.2098      8.1529      9.0869      9.9652      10.738      11.375      11.894    
  12.326      12.667      12.864      12.832      12.500      11.858      10.972      9.9238      8.7991      7.6822    
  6.6431      5.7306      4.9697      4.3665      3.9139      3.5997      3.4117      3.3413      3.3857      3.5473    
  3.8328      4.2505      4.8061      5.4975      5.2664      5.9907      6.8004      7.6598      8.5287      9.3708    
  10.159      10.868      11.481      11.983      12.341      12.500      12.403      12.025      11.390      10.545    
  9.5595      8.5127      7.4797      6.5209      5.6773      4.9697      4.4028      3.9707      3.6637      3.4723    
  3.3899      3.4144      3.5476      3.7945      4.1613      4.6526      4.4846      5.0206      5.6592      6.3817    
  7.1615      7.9682      8.7731      9.5520      10.283      10.937      11.479      11.858      12.025      11.943    
  11.601      11.016      10.238      9.3299      8.3655      7.4112      6.5209      5.7306      5.0589      4.5109    
  4.0831      3.7687      3.5610      3.4556      3.4507      3.5474      3.7490      4.0603      3.9521      4.3095    
  4.7704      5.3285      5.9707      6.6780      7.4284      8.2000      8.9702      9.7135      10.396      10.972    
  11.390      11.601      11.570      11.289      10.776      10.077      9.2517      8.3655      7.4797      6.6431    
  5.8890      5.2353      4.6885      4.2485      3.9119      3.6754      3.5363      3.4933      3.5468      3.6987    
  3.6458      3.8413      4.1347      4.5260      5.0115      5.5829      6.2280      6.9323      7.6787      8.4466    
  9.2079      9.9238      10.545      11.016      11.289      11.328      11.124      10.694      10.077      9.3299    
  8.5127      7.6822      6.8835      6.1481      5.4943      4.9313      4.4626      4.0895      3.8120      3.6295    
  3.5411      3.5463      3.5461      3.5925      3.7324      3.9669      4.2964      4.7196      5.2325      5.8288    
  6.5000      7.2334      8.0097      8.7991      9.5595      10.238      10.776      11.124      11.244      11.124    
  10.776      10.238      9.5595      8.7991      8.0097      7.2334      6.5000      5.8288      5.2325      4.7196    
  4.2964      3.9669      3.7324      3.5925      3.6458      3.5464      3.5412      3.6296      3.8121      4.0896    
  4.4627      4.9313      5.4944      6.1481      6.8835      7.6822      8.5128      9.3299      10.077      10.694    
  11.124      11.328      11.289      11.016      10.545      9.9238      9.2079      8.4466      7.6787      6.9323    
  6.2280      5.5829      5.0115      4.5260      4.1347      3.8412      3.9521      3.6988      3.5469      3.4934    
  3.5364      3.6754      3.9119      4.2485      4.6885      5.2353      5.8890      6.6431      7.4797      8.3655    
  9.2517      10.077      10.776      11.289      11.570      11.601      11.390      10.972      10.396      9.7135    
  8.9702      8.2000      7.4284      6.6779      5.9707      5.3285      4.7704      4.3096      4.4847      4.0604    
  3.7491      3.5474      3.4507      3.4556      3.5610      3.7687      4.0831      4.5109      5.0589      5.7306    
  6.5209      7.4112      8.3655      9.3299      10.238      11.016      11.601      11.943      12.025      11.858    
  11.479      10.937      10.283      9.5520      8.7731      7.9682      7.1615      6.3817      5.6592      5.0206    
  5.2664      4.6526      4.1614      3.7945      3.5476      3.4144      3.3899      3.4723      3.6637      3.9707    
  4.4028      4.9697      5.6773      6.5209      7.4797      8.5128      9.5595      10.545      11.390      12.025    
  12.403      12.500      12.341      11.983      11.481      10.868      10.159      9.3708      8.5287      7.6598    
  6.8004      5.9907      6.3093      5.4975      4.8061      4.2506      3.8328      3.5473      3.3856      3.3413    
  3.4116      3.5997      3.9139      4.3665      4.9697      5.7306      6.6431      7.6822      8.7991      9.9238    
  10.972      11.858      12.500      12.832      12.864      12.667      12.326      11.894      11.375      10.738    
  9.9652      9.0869      8.1529      7.2098      7.5931      6.6015      5.7035      4.9382      4.3239      3.8627    
  3.5467      3.3656      3.3113      3.3809      3.5782      3.9139      4.4028      5.0589      5.8890      6.8835    
  8.0097      9.2079      10.396      11.479      12.341      12.864      13.027      12.909      12.645      12.347    
  12.052      11.707      11.218      10.517      9.6202      8.6210      9.0455      7.9338      6.8538      5.8748    
  5.0428      4.3785      3.8829      3.5461      3.3554      3.3013      3.3809      3.5997      3.9707      4.5109    
  5.2353      6.1481      7.2334      8.4466      9.7135      10.937      11.983      12.667      12.909      12.776    
  12.444      12.117      11.926      11.865      11.800      11.550      10.985      10.107      10.522      9.4090    
  8.2169      7.0547      6.0034      5.1152      4.4121      3.8932      3.5459      3.3554      3.3113      3.4116    
  3.6637      4.0831      4.6885      5.4944      6.5000      7.6787      8.9702      10.283      11.481      12.326    
  12.645      12.444      11.908      11.332      10.991      11.010      11.308      11.640      11.717      11.348    
  11.602      10.850      9.6966      8.4295      7.1943      6.0830      5.1522      4.4234      3.8932      3.5461    
  3.3656      3.3413      3.4723      3.7687      4.2485      4.9313      5.8288      6.9323      8.2000      9.5520    
  10.868      11.894      12.347      12.117      11.332      10.331      9.5360      9.2751      9.6371      10.429    
  11.264      11.738      11.659      11.764      11.084      9.8957      8.5612      7.2659      6.1100      5.1522    
  4.4121      3.8829      3.5467      3.3856      3.3899      3.5610      3.9119      4.4627      5.2325      6.2280    
  7.4284      8.7731      10.159      11.375      12.052      11.926      10.991      9.5360      8.0705      7.1376    
  7.0915      7.9409      9.3432      10.755      10.226      11.540      11.853      11.223      9.9976      8.6059    
  7.2659      6.0830      5.1152      4.3785      3.8627      3.5473      3.4144      3.4556      3.6754      4.0896    
  4.7196      5.5829      6.6780      7.9682      9.3708      10.738      11.707      11.865      11.010      9.2751    
  7.1376      5.2804      4.3445      4.6665      6.1310      8.2190      7.2409      9.7923      11.440      11.892    
  11.270      9.9976      8.5612      7.1943      6.0034      5.0428      4.3239      3.8328      3.5476      3.4507    
  3.5364      3.8121      4.2964      5.0115      5.9707      7.1615      8.5287      9.9652      11.218      11.800    
  11.308      9.6371      7.0915      4.3445      2.2368      1.4658      2.2996      4.4605      3.1779      6.5763    
  9.5491      11.402      11.892      11.223      9.8957      8.4295      7.0547      5.8748      4.9382      4.2506    
  3.7945      3.5474      3.4934      3.6296      3.9669      4.5260      5.3285      6.3817      7.6598      9.0869    
  10.517      11.550      11.640      10.429      7.9409      4.6665      1.4658     -.70132     -1.1359     0.31191    
 -1.0118      2.4819      6.3410      9.5491      11.440      11.853      11.084      9.6966      8.2169      6.8538    
  5.7035      4.8061      4.1614      3.7491      3.5469      3.5412      3.7324      4.1347      4.7704      5.6592    
  6.8004      8.1529      9.6201      10.985      11.717      11.264      9.3432      6.1310      2.2996     -1.1360    
 -3.1519     -3.1079     -4.1706     -1.4761      2.4819      6.5763      9.7923      11.540      11.764      10.850    
  9.4090      7.9338      6.6015      5.4975      4.6526      4.0604      3.6988      3.5464      3.5925      3.8413    
  4.3095      5.0206      5.9907      7.2098      8.6210      10.107      11.348      11.738      10.755      8.2190    
  4.4605     0.31190     -3.1079     -4.7774     -4.1705     -3.3082     -.52337      3.3351      7.1775      10.067    
  11.500      11.486      10.445      8.9800      7.5231      6.2260      5.1650      4.3633      3.8099      3.4810    
  3.3555      3.4242      3.6927      4.1795      4.9088      5.8963      7.1290      8.5449      10.018      11.204    
  11.502      10.428      7.8618      4.1873     0.25747     -2.8413     -3.3082     -4.1707     -2.8414     0.25749    
  4.1873      7.8617      10.428      11.502      11.204      10.018      8.5448      7.1290      5.8963      4.9088    
  4.1795      3.6927      3.4243      3.3556      3.4810      3.8098      4.3632      5.1650      6.2260      7.5231    
  8.9800      10.445      11.486      11.500      10.067      7.1775      3.3352     -.52329     -.43548     -2.7461    
 -3.1078     -1.4152      1.7865      5.5274      8.7877      10.844      11.454      10.842      9.5317      8.0741    
  6.7157      5.5605      4.6554      4.0036      3.5857      3.3783      3.3657      3.5463      3.9328      4.5478    
  5.4138      6.5362      7.8818      9.3628      10.798      11.703      11.503      9.8590      6.8648      3.1118    
  3.5579     0.51057     -1.2363     -1.1360     0.76206      3.8348      7.1423      9.7867      11.207      11.306    
  10.394      9.0055      7.5849      6.2988      5.2315      4.4144      3.8419      3.4926      3.3446      3.3857    
  3.6178      4.0566      4.7255      5.6447      6.8135      8.1899      9.6773      11.071      11.870      11.552    
  9.8652      6.9879      7.5334      4.6071      2.1754      1.0043      1.4657      3.3830      6.1076      8.7870    
  10.686      11.420      11.025      9.8712      8.4603      7.0948      5.8940      4.9213      4.1939      3.6998    
  3.4163      3.3241      3.4144      3.6925      4.1763      4.8889      5.8475      7.0451      8.4328      9.9090    
  11.257      11.994      11.666      10.099      10.523      8.4122      6.0986      4.3178      3.6635      4.3445    
  6.0968      8.2999      10.233      11.344      11.420      10.608      9.3033      7.9151      6.6216      5.5154    
  4.6403      4.0013      3.5816      3.3591      3.3171      3.4506      3.7677      4.2871      5.0310      6.0127    
  7.2198      8.5984      10.046      11.351      12.075      11.833      12.017      11.055      9.4778      7.8086    
  6.6389      6.3908      7.1375      8.5739      10.152      11.308      11.676      11.194      10.084      8.7288    
  7.3898      6.1824      5.1762      4.3975      3.8421      3.4907      3.3225      3.3240      3.4933      3.8405    
  4.3845      5.1453      6.1323      7.3286      8.6776      10.080      11.346      12.096      12.035      12.160    
  11.587      10.556      9.4918      8.8374      8.8603      9.5360      10.561      11.490      11.926      11.670    
  10.777      9.5123      8.1742      6.9051      5.7933      4.8873      4.2000      3.7207      3.4294      3.3076    
  3.3445      3.5410      3.9084      4.4645      5.2267      6.2003      7.3654      8.6655      10.007      11.234    
  11.010      11.867      12.203      12.008      11.476      10.927      10.662      10.825      11.332      11.917    
  12.252      12.093      11.379      10.247      8.9525      7.6645      6.4805      5.4676      4.6577      4.0533    
  3.6404      3.3996      3.3148      3.3782      3.5924      3.9688      4.5236      5.2710      6.2131      7.3279    
  8.5616      9.8290      9.5538      10.675      11.574      12.095      12.227      12.109      11.956      11.952    
  12.150      12.444      12.624      12.478      11.893      10.909      9.7013      8.4392      7.2233      6.1326    
  5.2164      4.4938      3.9612      3.6031      3.4019      3.3441      3.4242      3.6457      4.0192      4.5590    
  5.2759      6.1694      7.2172      8.3703      8.1005      9.1928      10.242      11.154      11.811      12.193    
  12.382      12.506      12.653      12.822      12.909      12.771      12.295      11.467      10.390      9.2027    
  8.0016      6.8712      5.8745      5.0473      4.4000      3.9258      3.6099      3.4366      3.3949      3.4810    
  3.6987      4.0574      4.5687      5.2408      6.0711      7.0388      6.8013      7.7651      8.7622      9.7333    
  10.622      11.356      11.903      12.297      12.592      12.816      12.934      12.864      12.523      11.876    
  10.976      9.9180      8.7862      7.6642      6.6238      5.7153      4.9651      4.3787      3.9483      3.6607    
  3.5026      3.4654      3.5464      3.7491      4.0812      4.5519      5.1670      5.9230      5.7323      6.5162    
  7.3797      8.2810      9.1734      10.015      10.770      11.406      11.918      12.310      12.570      12.652    
  12.500      12.079      11.406      10.537      9.5359      8.4806      7.4455      6.4917      5.6605      4.9723    
  4.4306      4.0284      3.7544      3.5983      3.5534      3.6179      3.7945      4.0893      4.5091      5.0580    
  4.9192      5.5083      6.1970      6.9618      7.7706      8.5874      9.3793      10.120      10.787      11.358    
  11.805      12.093      12.178      12.025      11.628      11.004      10.198      9.2759      8.3067      7.3573    
  6.4807      5.7123      5.0693      4.5551      4.1644      3.8889      3.7210      3.6560      3.6927      3.8329    
  4.0812      4.4424      4.3550      4.7572      5.2616      5.8585      6.5302      7.2533      8.0012      8.7487    
  9.4727      10.150      10.751      11.239      11.569      11.700      11.601      11.266      10.716      9.9943    
  9.1597      8.2767      7.4051      6.5925      5.8702      5.2545      4.7497      4.3534      4.0606      3.8669    
  3.7695      3.7677      3.8628      4.0574      4.0192      4.2511      4.5798      5.0034      5.5152      6.1031    
  6.7510      7.4405      8.1529      8.8675      9.5592      10.194      10.729      11.117      11.313      11.289    
  11.037      10.576      9.9447      9.1981      8.3947      7.5891      6.8247      6.1308      5.5238      5.0100    
  4.5907      4.2649      4.0316      3.8902      3.8406      3.8831      3.8933      3.9688      4.1357      4.3947    
  4.7446      5.1814      5.6978      6.2842      6.9292      7.6192      8.3357      9.0520      9.7307      10.325    
  10.783      11.060      11.124      10.965      10.598      10.057      9.3918      8.6571      7.9033      7.1708    
  6.4875      5.8705      5.3292      4.8696      4.4954      4.2096      4.0138      3.9084      3.9688      3.8933    
  3.9084      4.0138      4.2096      4.4954      4.8696      5.3293      5.8704      6.4875      7.1708      7.9033    
  8.6571      9.3918      10.057      10.598      10.965      11.124      11.060      10.783      10.325      9.7307    
  9.0520      8.3357      7.6193      6.9293      6.2842      5.6978      5.1814      4.7446      4.3947      4.1357    
  4.2511      4.0192      3.8830      3.8405      3.8902      4.0316      4.2648      4.5906      5.0100      5.5238    
  6.1308      6.8247      7.5891      8.3947      9.1982      9.9447      10.576      11.037      11.289      11.313    
  11.117      10.729      10.194      9.5592      8.8675      8.1528      7.4405      6.7510      6.1031      5.5152    
  5.0034      4.5798      4.7573      4.3549      4.0573      3.8627      3.7678      3.7695      3.8669      4.0606    
  4.3534      4.7497      5.2545      5.8702      6.5925      7.4052      8.2767      9.1597      9.9943      10.716    
  11.266      11.601      11.700      11.569      11.239      10.751      10.150      9.4727      8.7487      8.0012    
  7.2532      6.5302      5.8584      5.2617      5.5083      4.9192      4.4424      4.0812      3.8329      3.6926    
  3.6559      3.7210      3.8889      4.1644      4.5551      5.0693      5.7123      6.4807      7.3573      8.3067    
  9.2759      10.198      11.004      11.628      12.025      12.178      12.093      11.805      11.358      10.787    
  10.120      9.3793      8.5874      7.7706      6.9618      6.1970      6.5161      5.7323      5.0581      4.5091    
  4.0892      3.7944      3.6179      3.5534      3.5983      3.7544      4.0284      4.4306      4.9723      5.6605    
  6.4917      7.4455      8.4807      9.5359      10.537      11.406      12.079      12.500      12.652      12.570    
  12.310      11.918      11.406      10.770      10.015      9.1735      8.2810      7.3796      7.7651      6.8013    
  5.9230      5.1670      4.5519      4.0811      3.7490      3.5463      3.4654      3.5026      3.6607      3.9483    
  4.3787      4.9651      5.7154      6.6238      7.6642      8.7862      9.9180      10.976      11.876      12.523    
  12.864      12.934      12.816      12.592      12.297      11.903      11.356      10.622      9.7333      8.7622    
  9.1928      8.1005      7.0388      6.0711      5.2408      4.5687      4.0573      3.6986      3.4809      3.3948    
  3.4366      3.6099      3.9258      4.4000      5.0473      5.8745      6.8712      8.0016      9.2027      10.390    
  11.467      12.295      12.771      12.909      12.822      12.653      12.506      12.382      12.193      11.811    
  11.154      10.242      10.675      9.5537      8.3703      7.2173      6.1694      5.2759      4.5590      4.0192    
  3.6456      3.4242      3.3441      3.4020      3.6031      3.9612      4.4938      5.2164      6.1326      7.2233    
  8.4392      9.7014      10.909      11.893      12.478      12.624      12.444      12.150      11.952      11.956    
  12.109      12.227      12.095      11.574      11.867      11.010      9.8291      8.5616      7.3279      6.2130    
  5.2710      4.5236      3.9688      3.5924      3.3782      3.3148      3.3996      3.6404      4.0533      4.6577    
  5.4677      6.4805      7.6645      8.9525      10.247      11.379      12.093      12.252      11.917      11.332    
  10.825      10.662      10.927      11.476      12.008      12.203      12.160      12.035      11.234      10.007    
  8.6655      7.3655      6.2004      5.2267      4.4645      3.9084      3.5411      3.3446      3.3076      3.4295    
  3.7208      4.2000      4.8873      5.7933      6.9052      8.1743      9.5123      10.777      11.670      11.926    
  11.490      10.561      9.5360      8.8604      8.8375      9.4919      10.556      11.587      11.055      12.017    
  12.096      11.346      10.080      8.6777      7.3286      6.1323      5.1453      4.3845      3.8405      3.4933    
  3.3241      3.3226      3.4907      3.8421      4.3975      5.1762      6.1825      7.3898      8.7288      10.084    
  11.194      11.676      11.308      10.152      8.5739      7.1376      6.3909      6.6389      7.8086      9.4779    
  8.4122      10.523      11.833      12.075      11.352      10.046      8.5984      7.2198      6.0127      5.0310    
  4.2871      3.7677      3.4507      3.3172      3.3592      3.5816      4.0013      4.6403      5.5154      6.6216    
  7.9151      9.3033      10.608      11.420      11.344      10.233      8.3000      6.0969      4.3446      3.6636    
  4.3179      6.0987      4.6071      7.5334      10.099      11.666      11.994      11.257      9.9090      8.4328    
  7.0451      5.8475      4.8889      4.1763      3.6926      3.4144      3.3241      3.4164      3.6998      4.1940    
  4.9213      5.8939      7.0948      8.4603      9.8712      11.025      11.420      10.686      8.7871      6.1076    
  3.3830      1.4659      1.0045      2.1755     0.51058      3.5580      6.9880      9.8652      11.552      11.870    
  11.071      9.6773      8.1899      6.8135      5.6448      4.7255      4.0566      3.6178      3.3857      3.3446    
  3.4926      3.8419      4.4143      5.2315      6.2989      7.5849      9.0054      10.394      11.306      11.207    
  9.7867      7.1423      3.8349     0.76224     -1.1359     -1.2362     -2.7460     -.43537      3.1118      6.8647    
  9.8589      11.503      11.703      10.798      9.3628      7.8819      6.5363      5.4138      4.5477      3.9328    
  3.5464      3.3658      3.3783      3.5857      4.0036      4.6554      5.5605      6.7156      8.0741      9.5317    
  10.842      11.454      10.844      8.7877      5.5275      1.7866     -1.4152     -3.1078     -1.0116     -.43534    
  1.8087      5.0137      8.2321      10.629      11.740      11.564      10.470      9.0079      7.5596      6.2659    
  5.2007      4.3876      3.8168      3.4653      3.3114      3.3441      3.5667      3.9957      4.6543      5.5610    
  6.7109      8.0559      9.4927      10.786      11.418      10.914      9.0886      6.2018      2.9458     0.25759    
 -.52324     -1.4761     -.52323      2.0241      5.3640      8.5266      10.725      11.588      11.204      10.005    
  8.5458      7.1414      5.9130      4.9224      4.1837      3.6824      3.3948      3.3014      3.3948      3.6825    
  4.1837      4.9224      5.9130      7.1414      8.5458      10.005      11.204      11.588      10.725      8.5266    
  5.3640      2.0241      1.8088     -.43535     -1.0116     0.25759      2.9458      6.2018      9.0886      10.914    
  11.419      10.786      9.4927      8.0559      6.7109      5.5610      4.6543      3.9957      3.5667      3.3441    
  3.3114      3.4653      3.8169      4.3876      5.2007      6.2659      7.5596      9.0079      10.470      11.564    
  11.740      10.629      8.2321      5.0138      5.2211      2.3398     0.51066     0.31198      1.7866      4.4243    
  7.3769      9.7924      11.108      11.191      10.307      8.9515      7.5553      6.2837      5.2227      4.4058    
  3.8296      3.4732      3.3148      3.3413      3.5534      3.9653      4.5999      5.4788      6.6060      7.9489    
  9.4240      10.872      11.872      11.909      10.683      8.2806      8.6818      5.9623      3.5403      2.1755    
  2.2996      3.8349      6.2289      8.6886      10.490      11.221      10.873      9.7729      8.4006      7.0605    
  5.8746      4.9094      4.1848      3.6905      3.4047      3.3076      3.3899      3.6559      4.1224      4.8127    
  5.7454      6.9187      8.2922      9.7756      11.197      12.130      12.110      10.911      11.289      9.3778    
  7.1251      5.2322      4.3178      4.6665      6.1075      8.0921      9.9263      11.042      11.183      10.451    
  9.2061      7.8561      6.5876      5.4965      4.6307      3.9977      3.5824      3.3629      3.3226      3.4556    
  3.7695      4.2827      5.0174      5.9890      7.1897      8.5728      10.045      11.432      12.330      12.336    
  12.556      11.755      10.255      8.5310      7.1696      6.6388      7.0913      8.2998      9.7608      10.911    
  11.349      10.965      9.9401      8.6380      7.3351      6.1517      5.1614      4.3948      3.8496      3.5078    
  3.3489      3.3592      3.5363      3.8902      4.4397      5.2054      6.1983      7.4054      8.7758      10.216    
  11.563      12.456      12.484      12.721      12.217      11.166      9.9691      9.0848      8.8373      9.2750    
  10.152      11.042      11.529      11.371      10.577      9.3833      8.0914      6.8555      5.7672      4.8795    
  4.2082      3.7443      3.4687      3.3630      3.4164      3.6296      4.0138      4.5875      5.3683      6.3630    
  7.5542      8.8891      10.277      11.576      11.463      12.389      12.777      12.579      11.961      11.236    
  10.736      10.662      10.991      11.490      11.834      11.748      11.129      10.077      8.8350      7.5878    
  6.4349      5.4468      4.6588      4.0757      3.6844      3.4661      3.4047      3.4927      3.7324      4.1358    
  4.7196      5.4982      6.4745      7.6276      8.9051      10.223      10.053      11.219      12.154      12.679    
  12.757      12.513      12.171      11.950      11.952      12.117      12.252      12.133      11.615      10.702    
  9.5464      8.3278      7.1487      6.0891      5.2010      4.5057      4.0008      3.6714      3.5001      3.4733    
  3.5858      3.8413      4.2512      4.8300      5.5887      6.5264      7.6206      8.8216      8.6418      9.7749    
  10.854      11.774      12.401      12.698      12.745      12.684      12.642      12.653      12.645      12.478    
  12.024      11.239      10.201      9.0522      7.8891      6.7942      5.8312      5.0374      4.4243      3.9854    
  3.7059      3.5700      3.5668      3.6928      3.9521      4.3550      4.9133      5.6347      6.5155      7.5331    
  7.3689      8.3743      9.4015      10.386      11.261      11.943      12.390      12.640      12.767      12.827    
  12.816      12.667      12.295      11.651      10.764      9.7292      8.6295      7.5433      6.5403      5.6708    
  4.9613      4.4172      4.0305      3.7873      3.6743      3.6826      3.8099      4.0604      4.4424      4.9652    
  5.6336      6.4420      6.3094      7.1366      8.0327      8.9510      9.8395      10.650      11.339      11.870    
  12.244      12.485      12.602      12.570      12.341      11.876      11.183      10.315      9.3330      8.3077    