unknown system                          
   1.00000000000000     
    -2.450000    2.450000    1.274000
     2.450000   -2.450000    1.274000
     2.450000    2.450000   -1.274000
   Si
     2
Direct
  0.250000  0.750000  0.500000
  0.000000  0.000000  0.000000
 
   32   32   32
 -.53464230430E+01 -.41706204051E+01 -.10118388440E+01 0.31778927717E+01 0.72409199002E+01
 0.10225843793E+02 0.11659130900E+02 0.11602354976E+02 0.10521649954E+02 0.90455156552E+01
 0.75930932270E+01 0.63093475696E+01 0.52664413041E+01 0.44846539020E+01 0.39521492886E+01
 0.36457528450E+01 0.35460684598E+01 0.36457507519E+01 0.39521232254E+01 0.44846119771E+01
 0.52664164190E+01 0.63093410939E+01 0.75930796236E+01 0.90454968408E+01 0.10521648971E+02
 0.11602363539E+02 0.11659122789E+02 0.10225830084E+02 0.72409288077E+01 0.31779059543E+01
 -.10118609629E+01 -.41706596224E+01 -.41706596224E+01 -.47773552167E+01 -.31078676182E+01
 0.31191251472E+00 0.44604500013E+01 0.82189586993E+01 0.10754791606E+02 0.11738239472E+02
 0.11347586632E+02 0.10106582303E+02 0.86210282955E+01 0.72097761519E+01 0.59906884160E+01
 0.50206286056E+01 0.43095593953E+01 0.38412411656E+01 0.35925020136E+01 0.35463225351E+01
 0.36987217915E+01 0.40603355534E+01 0.46525530896E+01 0.54975263421E+01 0.66015016745E+01
 0.79338027067E+01 0.94089935180E+01 0.10849602704E+02 0.11763670927E+02 0.11540216650E+02
 0.97923111101E+01 0.65762735967E+01 0.24818981323E+01 -.14761597127E+01 -.10118609629E+01
 -.31078988750E+01 -.31518960682E+01 -.11359431474E+01 0.22995801198E+01 0.61310297037E+01
 0.93432252047E+01 0.11263536925E+02 0.11717198466E+02 0.10985207519E+02 0.96201573892E+01
 0.81528995054E+01 0.68003963691E+01 0.56591911054E+01 0.47704240516E+01 0.41346885869E+01
 0.37323996824E+01 0.35411383051E+01 0.35468106122E+01 0.37490294525E+01 0.41613323949E+01
 0.48061061268E+01 0.57034864591E+01 0.68538250126E+01 0.82169089801E+01 0.96965910118E+01
 0.11083799646E+02 0.11853079215E+02 0.11440312379E+02 0.95491077044E+01 0.63410270483E+01
 0.24818981323E+01 0.31779059543E+01 0.31189864144E+00 -.11359631143E+01 -.70132381970E+00
 0.14657660128E+01 0.46664704400E+01 0.79408643153E+01 0.10428547463E+02 0.11639942093E+02
 0.11549927012E+02 0.10517079714E+02 0.90868851632E+01 0.76598159104E+01 0.63817217950E+01
 0.53285013213E+01 0.45260356969E+01 0.39668860680E+01 0.36295480444E+01 0.34933330312E+01
 0.35473517675E+01 0.37944762712E+01 0.42505149693E+01 0.49381408477E+01 0.58747827527E+01
 0.70546963536E+01 0.84294305777E+01 0.98957156430E+01 0.11223315143E+02 0.11891588144E+02
 0.11401963945E+02 0.95491077044E+01 0.65762735967E+01 0.72409288077E+01 0.44604602720E+01
 0.22995752465E+01 0.14657589400E+01 0.22368435053E+01 0.43445445958E+01 0.70914738676E+01
 0.96370941296E+01 0.11307975170E+02 0.11800377418E+02 0.11218242232E+02 0.99651971662E+01
 0.85287355746E+01 0.71615063409E+01 0.59706597188E+01 0.50115026089E+01 0.42964188401E+01
 0.38120475540E+01 0.35363076581E+01 0.34506963727E+01 0.35475661145E+01 0.38328344813E+01
 0.43239345782E+01 0.50427913454E+01 0.60033745510E+01 0.71943105191E+01 0.85611837015E+01
 0.99975627766E+01 0.11269630215E+02 0.11891588144E+02 0.11440312379E+02 0.97923111101E+01
 0.10225830084E+02 0.82189610062E+01 0.61310379498E+01 0.46664748494E+01 0.43445476813E+01
 0.52804376154E+01 0.71376020940E+01 0.92750896675E+01 0.11009697103E+02 0.11864850685E+02
 0.11706993041E+02 0.10738086854E+02 0.93708161064E+01 0.79681805996E+01 0.66779465168E+01
 0.55828594468E+01 0.47195716928E+01 0.40895407881E+01 0.36754069920E+01 0.34555980008E+01
 0.34143552474E+01 0.35472932868E+01 0.38626984035E+01 0.43785570099E+01 0.51152066001E+01
 0.60830279591E+01 0.72659198057E+01 0.86058907335E+01 0.99975627766E+01 0.11223315143E+02
 0.11853079215E+02 0.11540216650E+02 0.11659122789E+02 0.10754782074E+02 0.93432247212E+01
 0.79408692860E+01 0.70914812251E+01 0.71376099653E+01 0.80704951880E+01 0.95359988881E+01
 0.10990874753E+02 0.11926023472E+02 0.12051607133E+02 0.11374946445E+02 0.10158940830E+02
 0.87730908744E+01 0.74284458485E+01 0.62280219448E+01 0.52324632911E+01 0.44626357407E+01
 0.39119153501E+01 0.35609997494E+01 0.33898714537E+01 0.33856631687E+01 0.35467479158E+01
 0.38829884867E+01 0.44121175112E+01 0.51522389618E+01 0.61100524362E+01 0.72659198057E+01
 0.85611837015E+01 0.98957156430E+01 0.11083799646E+02 0.11763670927E+02 0.11602363539E+02
 0.11738241059E+02 0.11263531922E+02 0.10428541321E+02 0.96370926564E+01 0.92750971881E+01
 0.95360093373E+01 0.10331354358E+02 0.11332275031E+02 0.12117026973E+02 0.12347419102E+02
 0.11894257602E+02 0.10867866480E+02 0.95519988240E+01 0.81999706739E+01 0.69322689993E+01
 0.58288368325E+01 0.49312859657E+01 0.42484622813E+01 0.37686697292E+01 0.34722639816E+01
 0.33412888238E+01 0.33657041183E+01 0.35461617138E+01 0.38932415671E+01 0.44234725585E+01
 0.51522389618E+01 0.60830279591E+01 0.71943105191E+01 0.84294305777E+01 0.96965910118E+01
 0.10849602704E+02 0.10521648971E+02 0.11347595230E+02 0.11717202109E+02 0.11639937624E+02
 0.11307967622E+02 0.11009694561E+02 0.10990882085E+02 0.11332285193E+02 0.11907800670E+02
 0.12443777773E+02 0.12645426232E+02 0.12325825831E+02 0.11480535574E+02 0.10282556977E+02
 0.89702184104E+01 0.76786854277E+01 0.64999758690E+01 0.54943389658E+01 0.46885311798E+01
 0.40831173142E+01 0.36637471816E+01 0.34116606658E+01 0.33113952586E+01 0.33554590623E+01
 0.35459489812E+01 0.38932415671E+01 0.44121175112E+01 0.51152066001E+01 0.60033745510E+01
 0.70546963536E+01 0.82169089801E+01 0.94089935180E+01 0.90454968408E+01 0.10106574833E+02
 0.10985208743E+02 0.11549931915E+02 0.11800380293E+02 0.11864847224E+02 0.11926018743E+02
 0.12117030972E+02 0.12443787268E+02 0.12775864224E+02 0.12909444726E+02 0.12666930678E+02
 0.11982771278E+02 0.10937496620E+02 0.97134656475E+01 0.84465618082E+01 0.72333625442E+01
 0.61481196420E+01 0.52352744373E+01 0.45109275093E+01 0.39707289212E+01 0.35997331430E+01
 0.33809296793E+01 0.33013309072E+01 0.33554590623E+01 0.35461617138E+01 0.38829884867E+01
 0.43785570099E+01 0.50427913454E+01 0.58747827527E+01 0.68538250126E+01 0.79338027067E+01
 0.75930796236E+01 0.86210117433E+01 0.96201462134E+01 0.10517079307E+02 0.11218250764E+02
 0.11706999517E+02 0.12051602962E+02 0.12347412359E+02 0.12645430796E+02 0.12909455866E+02
 0.13026537279E+02 0.12863992805E+02 0.12341109156E+02 0.11478736303E+02 0.10395645332E+02
 0.92078500446E+01 0.80096752046E+01 0.68835410646E+01 0.58889950049E+01 0.50589217041E+01
 0.44027513048E+01 0.39139241805E+01 0.35782476148E+01 0.33809296793E+01 0.33113952586E+01
 0.33657041183E+01 0.35467479158E+01 0.38626984035E+01 0.43239345782E+01 0.49381408477E+01
 0.57034864591E+01 0.66015016745E+01 0.63093410939E+01 0.72097728898E+01 0.81528939862E+01
 0.90868760271E+01 0.99651915716E+01 0.10738091549E+02 0.11374954229E+02 0.11894256880E+02
 0.12325821568E+02 0.12666936454E+02 0.12864004455E+02 0.12831912747E+02 0.12499947138E+02
 0.11858168445E+02 0.10971869315E+02 0.99237779935E+01 0.87991396379E+01 0.76821784639E+01
 0.66431462586E+01 0.57305723906E+01 0.49697329087E+01 0.43664618472E+01 0.39139241805E+01
 0.35997331430E+01 0.34116606658E+01 0.33412888238E+01 0.33856631687E+01 0.35472932868E+01
 0.38328344813E+01 0.42505149693E+01 0.48061061268E+01 0.54975263421E+01 0.52664164190E+01
 0.59906886352E+01 0.68004081524E+01 0.76598179439E+01 0.85287223829E+01 0.93708061677E+01
 0.10158948885E+02 0.10867879815E+02 0.11480535666E+02 0.11982765016E+02 0.12341114481E+02
 0.12499959256E+02 0.12402796907E+02 0.12025412656E+02 0.11390024623E+02 0.10544859725E+02
 0.95594600563E+01 0.85127497311E+01 0.74796804147E+01 0.65209129265E+01 0.56773240006E+01
 0.49697329087E+01 0.44027513048E+01 0.39707289212E+01 0.36637471816E+01 0.34722639816E+01
 0.33898714537E+01 0.34143552474E+01 0.35475661145E+01 0.37944762712E+01 0.41613323949E+01
 0.46525530896E+01 0.44846119771E+01 0.50206100564E+01 0.56591986378E+01 0.63817396582E+01
 0.71615123087E+01 0.79681720015E+01 0.87730868506E+01 0.95520093136E+01 0.10282567108E+02
 0.10937493187E+02 0.11478730502E+02 0.11858174870E+02 0.12025423374E+02 0.11943485086E+02
 0.11600726459E+02 0.11016398638E+02 0.10237606655E+02 0.93299466524E+01 0.83654656187E+01
 0.74112352891E+01 0.65209129265E+01 0.57305723906E+01 0.50589217041E+01 0.45109275093E+01
 0.40831173142E+01 0.37686697292E+01 0.35609997494E+01 0.34555980008E+01 0.34506963727E+01
 0.35473517675E+01 0.37490294525E+01 0.40603355534E+01 0.39521232254E+01 0.43095386607E+01
 0.47704157557E+01 0.53285150960E+01 0.59706855732E+01 0.66779604319E+01 0.74284415727E+01
 0.81999665692E+01 0.89702266452E+01 0.97134749678E+01 0.10395643662E+02 0.10971864345E+02
 0.11390027802E+02 0.11600733022E+02 0.11569900271E+02 0.11288591565E+02 0.10776285790E+02
 0.10077193297E+02 0.92516578464E+01 0.83654656187E+01 0.74796804147E+01 0.66431462586E+01
 0.58889950049E+01 0.52352744373E+01 0.46885311798E+01 0.42484622813E+01 0.39119153501E+01
 0.36754069920E+01 0.35363076581E+01 0.34933330312E+01 0.35468106122E+01 0.36987217915E+01
 0.36457507519E+01 0.38412512477E+01 0.41346950706E+01 0.45260454925E+01 0.50115259379E+01
 0.55828860229E+01 0.62280328299E+01 0.69322656752E+01 0.76786862043E+01 0.84465726580E+01
 0.92078577643E+01 0.99237742090E+01 0.10544853387E+02 0.11016399215E+02 0.11288595116E+02
 0.11327632508E+02 0.11123729032E+02 0.10693601632E+02 0.10077193297E+02 0.93299466524E+01
 0.85127497311E+01 0.76821784639E+01 0.68835410646E+01 0.61481196420E+01 0.54943389658E+01
 0.49312859657E+01 0.44626357407E+01 0.40895407881E+01 0.38120475540E+01 0.36295480444E+01
 0.35411383051E+01 0.35463225351E+01 0.35460684598E+01 0.35925374721E+01 0.37324456030E+01
 0.39669201955E+01 0.42964403880E+01 0.47195909044E+01 0.52324823551E+01 0.58288499948E+01
 0.64999814432E+01 0.72333654360E+01 0.80096785651E+01 0.87991415167E+01 0.95594586053E+01
 0.10237604080E+02 0.10776285024E+02 0.11123729743E+02 0.11243854641E+02 0.11123729032E+02
 0.10776285790E+02 0.10237606655E+02 0.95594600563E+01 0.87991396379E+01 0.80096752046E+01
 0.72333625442E+01 0.64999758690E+01 0.58288368325E+01 0.52324632911E+01 0.47195716928E+01
 0.42964188401E+01 0.39668860680E+01 0.37323996824E+01 0.35925020136E+01 0.36457528450E+01
 0.35463577252E+01 0.35412020890E+01 0.36296118795E+01 0.38120886908E+01 0.40895612396E+01
 0.44626513641E+01 0.49313050001E+01 0.54943548292E+01 0.61481239463E+01 0.68835369956E+01
 0.76821766801E+01 0.85127536850E+01 0.93299494787E+01 0.10077190724E+02 0.10693598663E+02
 0.11123729743E+02 0.11327632508E+02 0.11288591565E+02 0.11016398638E+02 0.10544859725E+02
 0.99237779935E+01 0.92078500446E+01 0.84465618082E+01 0.76786854277E+01 0.69322689993E+01
 0.62280219448E+01 0.55828594468E+01 0.50115026089E+01 0.45260356969E+01 0.41346885869E+01
 0.38412411656E+01 0.39521492886E+01 0.36987594898E+01 0.35468646761E+01 0.34933950571E+01
 0.35363625921E+01 0.36754440885E+01 0.39119337610E+01 0.42484713972E+01 0.46885423159E+01
 0.52352875231E+01 0.58890006376E+01 0.66431421135E+01 0.74796760320E+01 0.83654669727E+01
 0.92516592274E+01 0.10077190724E+02 0.10776285024E+02 0.11288595116E+02 0.11569900271E+02
 0.11600726459E+02 0.11390024623E+02 0.10971869315E+02 0.10395645332E+02 0.97134656475E+01
 0.89702184104E+01 0.81999706739E+01 0.74284458485E+01 0.66779465168E+01 0.59706597188E+01
 0.53285013213E+01 0.47704240516E+01 0.43095593953E+01 0.44846539020E+01 0.40603881888E+01
 0.37490803101E+01 0.35473951338E+01 0.34507349026E+01 0.34556326347E+01 0.35610214538E+01
 0.37686718478E+01 0.40831132457E+01 0.45109372163E+01 0.50589414210E+01 0.57305798561E+01
 0.65209024961E+01 0.74112252086E+01 0.83654669727E+01 0.93299494787E+01 0.10237604080E+02
 0.11016399215E+02 0.11600733022E+02 0.11943485086E+02 0.12025412656E+02 0.11858168445E+02
 0.11478736303E+02 0.10937496620E+02 0.10282556977E+02 0.95519988240E+01 0.87730908744E+01
 0.79681805996E+01 0.71615063409E+01 0.63817217950E+01 0.56591911054E+01 0.50206286056E+01
 0.52664413041E+01 0.46526004539E+01 0.41613864848E+01 0.37945165782E+01 0.35475828973E+01
 0.34143576694E+01 0.33898716356E+01 0.34722602760E+01 0.36637358501E+01 0.39707221534E+01
 0.44027621572E+01 0.49697499348E+01 0.56773263022E+01 0.65209024961E+01 0.74796760320E+01
 0.85127536850E+01 0.95594586053E+01 0.10544853387E+02 0.11390027802E+02 0.12025423374E+02
 0.12402796907E+02 0.12499947138E+02 0.12341109156E+02 0.11982771278E+02 0.11480535574E+02
 0.10867866480E+02 0.10158940830E+02 0.93708161064E+01 0.85287355746E+01 0.76598159104E+01
 0.68003963691E+01 0.59906884160E+01 0.63093475696E+01 0.54975441924E+01 0.48061408447E+01
 0.42505539102E+01 0.38328491564E+01 0.35472704999E+01 0.33856241660E+01 0.33412602994E+01
 0.34116421173E+01 0.35997123527E+01 0.39139088270E+01 0.43664670008E+01 0.49697499348E+01
 0.57305798561E+01 0.66431421135E+01 0.76821766801E+01 0.87991415167E+01 0.99237742090E+01
 0.10971864345E+02 0.11858174870E+02 0.12499959256E+02 0.12831912747E+02 0.12863992805E+02
 0.12666930678E+02 0.12325825831E+02 0.11894257602E+02 0.11374946445E+02 0.10738086854E+02
 0.99651971662E+01 0.90868851632E+01 0.81528995054E+01 0.72097761519E+01 0.75930932270E+01
 0.66015078167E+01 0.57034929615E+01 0.49381562175E+01 0.43239460285E+01 0.38626780714E+01
 0.35466901691E+01 0.33656383523E+01 0.33113477622E+01 0.33808958267E+01 0.35782170594E+01
 0.39139088270E+01 0.44027621572E+01 0.50589414210E+01 0.58890006376E+01 0.68835369956E+01
 0.80096785651E+01 0.92078577643E+01 0.10395643662E+02 0.11478730502E+02 0.12341114481E+02
 0.12864004455E+02 0.13026537279E+02 0.12909444726E+02 0.12645426232E+02 0.12347419102E+02
 0.12051607133E+02 0.11706993041E+02 0.11218242232E+02 0.10517079714E+02 0.96201573892E+01
 0.86210282955E+01 0.90455156552E+01 0.79338244453E+01 0.68538348369E+01 0.58747786384E+01
 0.50427826181E+01 0.43785396852E+01 0.38829413040E+01 0.35460804906E+01 0.33553735080E+01
 0.33012712518E+01 0.33808958267E+01 0.35997123527E+01 0.39707221534E+01 0.45109372163E+01
 0.52352875231E+01 0.61481239463E+01 0.72333654360E+01 0.84465726580E+01 0.97134749678E+01
 0.10937493187E+02 0.11982765016E+02 0.12666936454E+02 0.12909455866E+02 0.12775864224E+02
 0.12443777773E+02 0.12117026973E+02 0.11926023472E+02 0.11864850685E+02 0.11800377418E+02
 0.11549927012E+02 0.10985207519E+02 0.10106582303E+02 0.10521649954E+02 0.94090157788E+01
 0.82169398629E+01 0.70547085935E+01 0.60033598824E+01 0.51151790482E+01 0.44120794478E+01
 0.38931753477E+01 0.35458553135E+01 0.33553735080E+01 0.33113477622E+01 0.34116421173E+01
 0.36637358501E+01 0.40831132457E+01 0.46885423159E+01 0.54943548292E+01 0.64999814432E+01
 0.76786862043E+01 0.89702266452E+01 0.10282567108E+02 0.11480535666E+02 0.12325821568E+02
 0.12645430796E+02 0.12443787268E+02 0.11907800670E+02 0.11332275031E+02 0.10990874753E+02
 0.11009697103E+02 0.11307975170E+02 0.11639942093E+02 0.11717198466E+02 0.11347586632E+02
 0.11602354976E+02 0.10849601044E+02 0.96966119217E+01 0.84294635988E+01 0.71943237271E+01
 0.60830072492E+01 0.51521995714E+01 0.44234244534E+01 0.38931753477E+01 0.35460804906E+01
 0.33656383523E+01 0.33412602994E+01 0.34722602760E+01 0.37686718478E+01 0.42484713972E+01
 0.49313050001E+01 0.58288499948E+01 0.69322656752E+01 0.81999665692E+01 0.95520093136E+01
 0.10867879815E+02 0.11894256880E+02 0.12347412359E+02 0.12117030972E+02 0.11332285193E+02
 0.10331354358E+02 0.95359988881E+01 0.92750896675E+01 0.96370941296E+01 0.10428547463E+02
 0.11263536925E+02 0.11738239472E+02 0.11659130900E+02 0.11763663850E+02 0.11083789827E+02
 0.98957302643E+01 0.85612179056E+01 0.72659345321E+01 0.61100291059E+01 0.51521995714E+01
 0.44120794478E+01 0.38829413040E+01 0.35466901691E+01 0.33856241660E+01 0.33898716356E+01
 0.35610214538E+01 0.39119337610E+01 0.44626513641E+01 0.52324823551E+01 0.62280328299E+01
 0.74284415727E+01 0.87730868506E+01 0.10158948885E+02 0.11374954229E+02 0.12051602962E+02
 0.11926018743E+02 0.10990882085E+02 0.95360093373E+01 0.80704951880E+01 0.71376020940E+01
 0.70914738676E+01 0.79408643153E+01 0.93432252047E+01 0.10754791606E+02 0.10225843793E+02
 0.11540230258E+02 0.11853070767E+02 0.11223300045E+02 0.99975757545E+01 0.86059262052E+01
 0.72659345321E+01 0.60830072492E+01 0.51151790482E+01 0.43785396852E+01 0.38626780714E+01
 0.35472704999E+01 0.34143576694E+01 0.34556326347E+01 0.36754440885E+01 0.40895612396E+01
 0.47195909044E+01 0.55828860229E+01 0.66779604319E+01 0.79681720015E+01 0.93708061677E+01
 0.10738091549E+02 0.11706999517E+02 0.11864847224E+02 0.11009694561E+02 0.92750971881E+01
 0.71376099653E+01 0.52804376154E+01 0.43445445958E+01 0.46664704400E+01 0.61310297037E+01
 0.82189586993E+01 0.72409199002E+01 0.97923251053E+01 0.11440331710E+02 0.11891583009E+02
 0.11269615317E+02 0.99975757545E+01 0.85612179056E+01 0.71943237271E+01 0.60033598824E+01
 0.50427826181E+01 0.43239460285E+01 0.38328491564E+01 0.35475828973E+01 0.34507349026E+01
 0.35363625921E+01 0.38120886908E+01 0.42964403880E+01 0.50115259379E+01 0.59706855732E+01
 0.71615123087E+01 0.85287223829E+01 0.99651915716E+01 0.11218250764E+02 0.11800380293E+02
 0.11307967622E+02 0.96370926564E+01 0.70914812251E+01 0.43445476813E+01 0.22368435053E+01
 0.14657660128E+01 0.22995801198E+01 0.44604500013E+01 0.31778927717E+01 0.65762611866E+01
 0.95491258234E+01 0.11401988130E+02 0.11891583009E+02 0.11223300045E+02 0.98957302643E+01
 0.84294635988E+01 0.70547085935E+01 0.58747786384E+01 0.49381562175E+01 0.42505539102E+01
 0.37945165782E+01 0.35473951338E+01 0.34933950571E+01 0.36296118795E+01 0.39669201955E+01
 0.45260454925E+01 0.53285150960E+01 0.63817396582E+01 0.76598179439E+01 0.90868760271E+01
 0.10517079307E+02 0.11549931915E+02 0.11639937624E+02 0.10428541321E+02 0.79408692860E+01
 0.46664748494E+01 0.14657589400E+01 -.70132381970E+00 -.11359431474E+01 0.31191251472E+00
 -.10118388440E+01 0.24818865330E+01 0.63410157801E+01 0.95491258234E+01 0.11440331710E+02
 0.11853070767E+02 0.11083789827E+02 0.96966119217E+01 0.82169398629E+01 0.68538348369E+01
 0.57034929615E+01 0.48061408447E+01 0.41613864848E+01 0.37490803101E+01 0.35468646761E+01
 0.35412020890E+01 0.37324456030E+01 0.41346950706E+01 0.47704157557E+01 0.56591986378E+01
 0.68004081524E+01 0.81528939862E+01 0.96201462134E+01 0.10985208743E+02 0.11717202109E+02
 0.11263531922E+02 0.93432247212E+01 0.61310379498E+01 0.22995752465E+01 -.11359631143E+01
 -.31518960682E+01 -.31078676182E+01 -.41706204051E+01 -.14761330164E+01 0.24818865330E+01
 0.65762611866E+01 0.97923251053E+01 0.11540230258E+02 0.11763663850E+02 0.10849601044E+02
 0.94090157788E+01 0.79338244453E+01 0.66015078167E+01 0.54975441924E+01 0.46526004539E+01
 0.40603881888E+01 0.36987594898E+01 0.35463577252E+01 0.35925374721E+01 0.38412512477E+01
 0.43095386607E+01 0.50206100564E+01 0.59906886352E+01 0.72097728898E+01 0.86210117433E+01
 0.10106574833E+02 0.11347595230E+02 0.11738241059E+02 0.10754782074E+02 0.82189610062E+01
 0.44604602720E+01 0.31189864144E+00 -.31078988750E+01 -.47773552167E+01 -.41705437426E+01
 -.33081671109E+01 -.52336537766E+00 0.33351356133E+01 0.71775271351E+01 0.10067133278E+02
 0.11500057773E+02 0.11486319533E+02 0.10444892671E+02 0.89800383224E+01 0.75230890601E+01
 0.62260049436E+01 0.51650080248E+01 0.43632829369E+01 0.38099080302E+01 0.34809926556E+01
 0.33555274723E+01 0.34242481277E+01 0.36927327392E+01 0.41795108290E+01 0.49087660641E+01
 0.58962624833E+01 0.71290334134E+01 0.85448700721E+01 0.10018353204E+02 0.11204059457E+02
 0.11501776532E+02 0.10427724022E+02 0.78617775190E+01 0.41872537971E+01 0.25747303233E+00
 -.28412888545E+01 -.33081975319E+01 -.41706614534E+01 -.28413660602E+01 0.25748664658E+00
 0.41872729830E+01 0.78617320662E+01 0.10427675030E+02 0.11501812788E+02 0.11204147755E+02
 0.10018385796E+02 0.85448292584E+01 0.71290116535E+01 0.58963105054E+01 0.49088184681E+01
 0.41794996192E+01 0.36926960904E+01 0.34242587347E+01 0.33555679839E+01 0.34809843882E+01
 0.38098424235E+01 0.43632400983E+01 0.51650322445E+01 0.62260372919E+01 0.75230633543E+01
 0.89799835782E+01 0.10444879052E+02 0.11486338592E+02 0.11500036286E+02 0.10067065098E+02
 0.71775026807E+01 0.33352057542E+01 -.52328754232E+00 -.43548145221E+00 -.27461479765E+01
 -.31078312000E+01 -.14152300445E+01 0.17865356963E+01 0.55273724534E+01 0.87876610144E+01
 0.10844230946E+02 0.11454219976E+02 0.10841769852E+02 0.95316694089E+01 0.80740713607E+01
 0.67156769479E+01 0.55604968737E+01 0.46553841815E+01 0.40035993353E+01 0.35857358649E+01
 0.33782946867E+01 0.33657429996E+01 0.35463381935E+01 0.39327753158E+01 0.45477824562E+01
 0.54138460473E+01 0.65362125520E+01 0.78818434649E+01 0.93628421807E+01 0.10798282554E+02
 0.11702995277E+02 0.11502877681E+02 0.98589598679E+01 0.68648018154E+01 0.31117985705E+01
 0.35579098041E+01 0.51056872113E+00 -.12362891936E+01 -.11360345591E+01 0.76205567032E+00
 0.38347897441E+01 0.71422636504E+01 0.97867240522E+01 0.11207325501E+02 0.11306273627E+02
 0.10393941413E+02 0.90054594597E+01 0.75848587932E+01 0.62988131291E+01 0.52315307462E+01
 0.44143538815E+01 0.38419283585E+01 0.34925885932E+01 0.33445526882E+01 0.33856800061E+01
 0.36178467708E+01 0.40565642468E+01 0.47254604764E+01 0.56447422219E+01 0.68135331512E+01
 0.81898720885E+01 0.96773062419E+01 0.11070927946E+02 0.11869520648E+02 0.11552218758E+02
 0.98651849887E+01 0.69879398789E+01 0.75334482784E+01 0.46071375207E+01 0.21754332648E+01
 0.10042852946E+01 0.14657281331E+01 0.33829817988E+01 0.61075954378E+01 0.87870221322E+01
 0.10686095637E+02 0.11420201566E+02 0.11025434470E+02 0.98712212049E+01 0.84602967814E+01
 0.70947999531E+01 0.58939600625E+01 0.49213227848E+01 0.41939329284E+01 0.36997869313E+01
 0.34163438896E+01 0.33240748151E+01 0.34143521403E+01 0.36925241538E+01 0.41762596897E+01
 0.48889332871E+01 0.58475027344E+01 0.70451205451E+01 0.84327616602E+01 0.99089970661E+01
 0.11257388422E+02 0.11994314226E+02 0.11665929414E+02 0.10099228639E+02 0.10523031626E+02
 0.84121558786E+01 0.60986378727E+01 0.43177621392E+01 0.36635093514E+01 0.43444812017E+01
 0.60967989999E+01 0.82998759721E+01 0.10232828522E+02 0.11344033242E+02 0.11420379554E+02
 0.10608152747E+02 0.93032801490E+01 0.79150828979E+01 0.66216242438E+01 0.55153908495E+01
 0.46403073890E+01 0.40012968471E+01 0.35816352249E+01 0.33591319985E+01 0.33171495586E+01
 0.34506149274E+01 0.37676818768E+01 0.42870852381E+01 0.50309753622E+01 0.60126550114E+01
 0.72198327385E+01 0.85984251161E+01 0.10045808993E+02 0.11351479316E+02 0.12074601036E+02
 0.11833364599E+02 0.12016629530E+02 0.11054805658E+02 0.94778189244E+01 0.78086319599E+01
 0.66388800383E+01 0.63907751178E+01 0.71375093582E+01 0.85738810549E+01 0.10151749799E+02
 0.11308209927E+02 0.11676253059E+02 0.11193703830E+02 0.10084366682E+02 0.87288380604E+01
 0.73898257848E+01 0.61824477112E+01 0.51761637726E+01 0.43975245580E+01 0.38421041812E+01
 0.34906645751E+01 0.33225039996E+01 0.33240432620E+01 0.34933032599E+01 0.38404786126E+01
 0.43844718965E+01 0.51453354955E+01 0.61323341585E+01 0.73286128415E+01 0.86776414364E+01
 0.10079545011E+02 0.11346102695E+02 0.12095769910E+02 0.12034702665E+02 0.12160017312E+02
 0.11586935249E+02 0.10555641621E+02 0.94918388119E+01 0.88374152713E+01 0.88603298199E+01
 0.95359659654E+01 0.10560970176E+02 0.11490425949E+02 0.11926388480E+02 0.11669606308E+02
 0.10776657033E+02 0.95123409165E+01 0.81742484007E+01 0.69051494230E+01 0.57932701516E+01
 0.48873197584E+01 0.42000188809E+01 0.37207252783E+01 0.34294494888E+01 0.33075656055E+01
 0.33445395974E+01 0.35410328080E+01 0.39083661869E+01 0.44645024029E+01 0.52266858893E+01
 0.62003470492E+01 0.73654465985E+01 0.86655228262E+01 0.10006696471E+02 0.11233699512E+02
 0.11009621609E+02 0.11866983043E+02 0.12202998128E+02 0.12008034085E+02 0.11476376069E+02
 0.10927354443E+02 0.10662452391E+02 0.10824832209E+02 0.11332207081E+02 0.11917222279E+02
 0.12252015196E+02 0.12092822805E+02 0.11378567074E+02 0.10246773329E+02 0.89525360056E+01
 0.76644841110E+01 0.64804805608E+01 0.54676314689E+01 0.46576731137E+01 0.40533224217E+01
 0.36404005765E+01 0.33995694962E+01 0.33147662382E+01 0.33782386095E+01 0.35924361986E+01
 0.39687898433E+01 0.45235928762E+01 0.52710247595E+01 0.62130688212E+01 0.73278892031E+01
 0.85615609555E+01 0.98290030797E+01 0.95537608296E+01 0.10675396903E+02 0.11574494143E+02
 0.12095386041E+02 0.12227266308E+02 0.12108780568E+02 0.11956337441E+02 0.11952270587E+02
 0.12149651560E+02 0.12443779023E+02 0.12624266946E+02 0.12478412361E+02 0.11893082345E+02
 0.10908719013E+02 0.97013488912E+01 0.84392483144E+01 0.72232846670E+01 0.61325618194E+01
 0.52164032834E+01 0.44937994636E+01 0.39611563545E+01 0.36031037260E+01 0.34019285806E+01
 0.33441380826E+01 0.34242236524E+01 0.36456677635E+01 0.40192455261E+01 0.45589988442E+01
 0.52759397938E+01 0.61693516261E+01 0.72172462870E+01 0.83702735227E+01 0.81005304287E+01
 0.91927653933E+01 0.10242348231E+02 0.11153941002E+02 0.11811041493E+02 0.12192944357E+02
 0.12382197383E+02 0.12505593690E+02 0.12653390274E+02 0.12821654088E+02 0.12909440955E+02
 0.12771186892E+02 0.12295096704E+02 0.11467249209E+02 0.10390100811E+02 0.92026725435E+01
 0.80015954097E+01 0.68711894932E+01 0.58745085344E+01 0.50472505610E+01 0.43999650376E+01
 0.39258460862E+01 0.36098988961E+01 0.34365646952E+01 0.33948512776E+01 0.34809818374E+01
 0.36986803327E+01 0.40573890131E+01 0.45686839210E+01 0.52407741075E+01 0.60711190660E+01
 0.70388461408E+01 0.68012532678E+01 0.77650681462E+01 0.87621648465E+01 0.97333079697E+01
 0.10621579152E+02 0.11355851762E+02 0.11903249289E+02 0.12296766266E+02 0.12592296586E+02
 0.12815764302E+02 0.12933577036E+02 0.12864019136E+02 0.12522711790E+02 0.11876494620E+02
 0.10976103492E+02 0.99179796431E+01 0.87861978788E+01 0.76642391676E+01 0.66238176041E+01
 0.57153414702E+01 0.49650738926E+01 0.43786588670E+01 0.39483455520E+01 0.36606844272E+01
 0.35026236040E+01 0.34654114823E+01 0.35464117900E+01 0.37490554670E+01 0.40811789783E+01
 0.45519063980E+01 0.51670165158E+01 0.59230040247E+01 0.57322863347E+01 0.65161670100E+01
 0.73796693541E+01 0.82809948564E+01 0.91734403670E+01 0.10014576683E+02 0.10769722482E+02
 0.11405904165E+02 0.11917674486E+02 0.12310435413E+02 0.12570017090E+02 0.12652190478E+02
 0.12499964765E+02 0.12078640830E+02 0.11406363876E+02 0.10536775815E+02 0.95359329861E+01
 0.84806466866E+01 0.74455193781E+01 0.64917355201E+01 0.56605229890E+01 0.49723058495E+01
 0.44306018148E+01 0.40283727220E+01 0.37544247145E+01 0.35983413141E+01 0.35534380001E+01
 0.36179010205E+01 0.37945115847E+01 0.40893004524E+01 0.45091322771E+01 0.50580073123E+01
 0.49192063421E+01 0.55083242280E+01 0.61970126811E+01 0.69618331478E+01 0.77705747587E+01
 0.85874258769E+01 0.93792765590E+01 0.10119650524E+02 0.10787087717E+02 0.11357751297E+02
 0.11805030751E+02 0.12093087592E+02 0.12178038118E+02 0.12025435479E+02 0.11627608051E+02
 0.11003567097E+02 0.10198457527E+02 0.92759255534E+01 0.83067371888E+01 0.73572935345E+01
 0.64807289433E+01 0.57122790126E+01 0.50693138252E+01 0.45550953744E+01 0.41643853335E+01
 0.38888606125E+01 0.37209796103E+01 0.36560051045E+01 0.36926554016E+01 0.38329164271E+01
 0.40811645373E+01 0.44423731935E+01 0.43549595801E+01 0.47572299137E+01 0.52616032500E+01
 0.58584522912E+01 0.65302495488E+01 0.72532544098E+01 0.80011534316E+01 0.87486669847E+01
 0.94726933958E+01 0.10149740786E+02 0.10751001741E+02 0.11238934383E+02 0.11569311618E+02
 0.11699642962E+02 0.11600741196E+02 0.11266240333E+02 0.10716241176E+02 0.99943360121E+01
 0.91596777527E+01 0.82767078642E+01 0.74051477703E+01 0.65924560779E+01 0.58701804575E+01
 0.52544636925E+01 0.47496816200E+01 0.43533689600E+01 0.40606161958E+01 0.38669306715E+01
 0.37695438913E+01 0.37677416033E+01 0.38627629524E+01 0.40573986324E+01 0.40192446629E+01
 0.42510803750E+01 0.45797681568E+01 0.50034221627E+01 0.55152488792E+01 0.61031477173E+01
 0.67509616937E+01 0.74405070031E+01 0.81528613845E+01 0.88675119516E+01 0.95591809700E+01
 0.10194157655E+02 0.10729412629E+02 0.11116974276E+02 0.11313071904E+02 0.11288599750E+02
 0.11036790137E+02 0.10575621503E+02 0.99447339591E+01 0.91981333605E+01 0.83947273201E+01
 0.75890849102E+01 0.68246580007E+01 0.61308245561E+01 0.55237743996E+01 0.50100159127E+01
 0.45906620816E+01 0.42648543851E+01 0.40315849738E+01 0.38902162067E+01 0.38405540041E+01
 0.38830834314E+01 0.38932924168E+01 0.39688117656E+01 0.41357426533E+01 0.43946967166E+01
 0.47445882526E+01 0.51813616530E+01 0.56977817124E+01 0.62841993995E+01 0.69292496422E+01
 0.76192460370E+01 0.83357381597E+01 0.90520256481E+01 0.97307153218E+01 0.10324755993E+02
 0.10783107489E+02 0.11059853284E+02 0.11123741010E+02 0.10965020182E+02 0.10597698216E+02
 0.10056854119E+02 0.93918324748E+01 0.86571032623E+01 0.79032780088E+01 0.71707663078E+01
 0.64875010802E+01 0.58704570133E+01 0.53292295760E+01 0.48695551903E+01 0.44954129428E+01
 0.42096309560E+01 0.40137982770E+01 0.39083697059E+01 0.39687715668E+01 0.38933306515E+01
 0.39084293633E+01 0.40137964270E+01 0.42095815892E+01 0.44953959661E+01 0.48695885420E+01
 0.53292535032E+01 0.58704401509E+01 0.64874828412E+01 0.71707791605E+01 0.79032959840E+01
 0.86570956783E+01 0.93918164456E+01 0.10056858937E+02 0.10597714941E+02 0.10965020365E+02
 0.11123722616E+02 0.11059839054E+02 0.10783109686E+02 0.10324764053E+02 0.97307154231E+01
 0.90520197273E+01 0.83357397467E+01 0.76192577647E+01 0.69292531665E+01 0.62841825501E+01
 0.56977680946E+01 0.51813815241E+01 0.47446195584E+01 0.43946800664E+01 0.41356750414E+01
 0.42511022875E+01 0.40192192642E+01 0.38830348618E+01 0.38405298047E+01 0.38902237948E+01
 0.40315949175E+01 0.42648458885E+01 0.45906446970E+01 0.50100110425E+01 0.55237869839E+01
 0.61308359247E+01 0.68246522297E+01 0.75890744185E+01 0.83947341805E+01 0.91981502065E+01
 0.99447324445E+01 0.10575600649E+02 0.11036778969E+02 0.11288603999E+02 0.11313062180E+02
 0.11116944407E+02 0.10729401050E+02 0.10194182362E+02 0.95592017373E+01 0.88674968677E+01
 0.81528455790E+01 0.74405326895E+01 0.67509987469E+01 0.61031364260E+01 0.55151984624E+01