   2   2   0   0
  0.1529437E+02  0.3691622E-09  0.3691622E-09  0.3691622E-09  0.5000000E-15
  1.000000000000000E-004
  CAR 
 unknown system                          
     22.28657443     -6.61727583  301      9.14939230      1.00000000
     -6.617  0.0000E+00  0.0000E+00
     -6.521  0.0000E+00  0.0000E+00
     -6.425  0.0000E+00  0.0000E+00
     -6.328  0.0000E+00  0.0000E+00
     -6.232  0.0000E+00  0.0000E+00
     -6.136  0.0000E+00  0.0000E+00
     -6.039  0.0000E+00  0.0000E+00
     -5.943  0.0000E+00  0.0000E+00
     -5.847  0.0000E+00  0.0000E+00
     -5.750  0.6146E-17  0.5921E-18
     -5.654  0.1273E-14  0.1233E-15
     -5.557  0.1630E-12  0.1583E-13
     -5.461  0.1322E-10  0.1290E-11
     -5.365  0.6801E-09  0.6682E-10
     -5.268  0.2221E-07  0.2207E-08
     -5.172  0.4610E-06  0.4663E-07
     -5.076  0.6091E-05  0.6335E-06
     -4.979  0.5128E-04  0.5574E-05
     -4.883  0.2754E-03  0.3211E-04
     -4.787  0.9451E-03  0.1232E-03
     -4.690  0.2075E-02  0.3231E-03
     -4.594  0.2936E-02  0.6060E-03
     -4.498  0.2840E-02  0.8796E-03
     -4.401  0.2700E-02  0.1140E-02
     -4.305  0.4562E-02  0.1579E-02
     -4.209  0.8698E-02  0.2417E-02
     -4.112  0.1176E-01  0.3550E-02
     -4.016  0.1051E-01  0.4563E-02
     -3.920  0.7189E-02  0.5256E-02
     -3.823  0.7150E-02  0.5945E-02
     -3.727  0.1282E-01  0.7179E-02
     -3.631  0.2191E-01  0.9291E-02
     -3.534  0.2916E-01  0.1210E-01
     -3.438  0.2890E-01  0.1488E-01
     -3.342  0.2032E-01  0.1684E-01
     -3.245  0.9678E-02  0.1777E-01
     -3.149  0.3084E-02  0.1807E-01
     -3.052  0.1025E-02  0.1817E-01
     -2.956  0.2149E-02  0.1838E-01
     -2.860  0.7247E-02  0.1908E-01
     -2.763  0.1854E-01  0.2086E-01
     -2.667  0.3583E-01  0.2431E-01
     -2.571  0.5188E-01  0.2931E-01
     -2.474  0.5570E-01  0.3468E-01
     -2.378  0.4712E-01  0.3922E-01
     -2.282  0.3669E-01  0.4275E-01
     -2.185  0.2763E-01  0.4542E-01
     -2.089  0.1704E-01  0.4706E-01
     -1.993  0.7650E-02  0.4779E-01
     -1.896  0.3909E-02  0.4817E-01
     -1.800  0.7035E-02  0.4885E-01
     -1.704  0.1547E-01  0.5034E-01
     -1.607  0.2287E-01  0.5254E-01
     -1.511  0.2171E-01  0.5463E-01
     -1.415  0.1337E-01  0.5592E-01
     -1.318  0.6125E-02  0.5651E-01
     -1.222  0.4575E-02  0.5695E-01
     -1.126  0.7840E-02  0.5771E-01
     -1.029  0.1370E-01  0.5903E-01
     -0.933  0.2187E-01  0.6114E-01
     -0.837  0.3581E-01  0.6459E-01
     -0.740  0.5695E-01  0.7007E-01
     -0.644  0.7311E-01  0.7712E-01
     -0.547  0.6840E-01  0.8371E-01
     -0.451  0.4838E-01  0.8837E-01
     -0.355  0.3252E-01  0.9150E-01
     -0.258  0.2955E-01  0.9435E-01
     -0.162  0.3582E-01  0.9780E-01
     -0.066  0.4522E-01  0.1022E+00
      0.031  0.5513E-01  0.1075E+00
      0.127  0.6326E-01  0.1136E+00
      0.223  0.6160E-01  0.1195E+00
      0.320  0.4520E-01  0.1239E+00
      0.416  0.2427E-01  0.1262E+00
      0.512  0.1391E-01  0.1275E+00
      0.609  0.1843E-01  0.1293E+00
      0.705  0.2975E-01  0.1322E+00
      0.801  0.3452E-01  0.1355E+00
      0.898  0.2820E-01  0.1382E+00
      0.994  0.2230E-01  0.1404E+00
      1.090  0.3021E-01  0.1433E+00
      1.187  0.4810E-01  0.1479E+00
      1.283  0.5649E-01  0.1534E+00
      1.379  0.4477E-01  0.1577E+00
      1.476  0.2396E-01  0.1600E+00
      1.572  0.8832E-02  0.1608E+00
      1.668  0.2992E-02  0.1611E+00
      1.765  0.4754E-02  0.1616E+00
      1.861  0.1525E-01  0.1630E+00
      1.958  0.3427E-01  0.1663E+00
      2.054  0.5163E-01  0.1713E+00
      2.150  0.5605E-01  0.1767E+00
      2.247  0.5152E-01  0.1817E+00
      2.343  0.4957E-01  0.1865E+00
      2.439  0.5311E-01  0.1916E+00
      2.536  0.5481E-01  0.1969E+00
      2.632  0.4759E-01  0.2014E+00
      2.728  0.3499E-01  0.2048E+00
      2.825  0.2615E-01  0.2073E+00
      2.921  0.2630E-01  0.2099E+00
      3.017  0.3321E-01  0.2131E+00
      3.114  0.3934E-01  0.2169E+00
      3.210  0.4450E-01  0.2211E+00
      3.306  0.5719E-01  0.2267E+00
      3.403  0.7176E-01  0.2336E+00
      3.499  0.6759E-01  0.2401E+00
      3.595  0.4290E-01  0.2442E+00
      3.692  0.1910E-01  0.2461E+00
      3.788  0.1112E-01  0.2471E+00
      3.884  0.1825E-01  0.2489E+00
      3.981  0.3244E-01  0.2520E+00
      4.077  0.4442E-01  0.2563E+00
      4.173  0.5131E-01  0.2612E+00
      4.270  0.5724E-01  0.2667E+00
      4.366  0.6399E-01  0.2729E+00
      4.463  0.6559E-01  0.2792E+00
      4.559  0.5408E-01  0.2844E+00
      4.655  0.3365E-01  0.2877E+00
      4.752  0.2106E-01  0.2897E+00
      4.848  0.2884E-01  0.2925E+00
      4.944  0.5566E-01  0.2979E+00
      5.041  0.8705E-01  0.3062E+00
      5.137  0.1014E+00  0.3160E+00
      5.233  0.8562E-01  0.3243E+00
      5.330  0.5075E-01  0.3291E+00
      5.426  0.2085E-01  0.3312E+00
      5.522  0.7866E-02  0.3319E+00
      5.619  0.9430E-02  0.3328E+00
      5.715  0.2064E-01  0.3348E+00
      5.811  0.3762E-01  0.3384E+00
      5.908  0.5886E-01  0.3441E+00
      6.004  0.8281E-01  0.3521E+00
      6.100  0.9977E-01  0.3617E+00
      6.197  0.9791E-01  0.3711E+00
      6.293  0.7705E-01  0.3786E+00
      6.389  0.4873E-01  0.3832E+00
      6.486  0.2872E-01  0.3860E+00
      6.582  0.2997E-01  0.3889E+00
      6.678  0.5303E-01  0.3940E+00
      6.775  0.8075E-01  0.4018E+00
      6.871  0.9195E-01  0.4106E+00
      6.968  0.8325E-01  0.4187E+00
      7.064  0.7029E-01  0.4254E+00
      7.160  0.6772E-01  0.4320E+00
      7.257  0.7007E-01  0.4387E+00
      7.353  0.6162E-01  0.4447E+00
      7.449  0.4474E-01  0.4490E+00
      7.546  0.4073E-01  0.4529E+00
      7.642  0.5856E-01  0.4585E+00
      7.738  0.7660E-01  0.4659E+00
      7.835  0.6999E-01  0.4727E+00
      7.931  0.4639E-01  0.4771E+00
      8.027  0.2946E-01  0.4800E+00
      8.124  0.2535E-01  0.4824E+00
      8.220  0.3023E-01  0.4853E+00
      8.316  0.4526E-01  0.4897E+00
      8.413  0.6385E-01  0.4958E+00
      8.509  0.6688E-01  0.5023E+00
      8.605  0.4841E-01  0.5069E+00
      8.702  0.2692E-01  0.5095E+00
      8.798  0.2287E-01  0.5117E+00
      8.894  0.4015E-01  0.5156E+00
      8.991  0.6461E-01  0.5218E+00
      9.087  0.7505E-01  0.5291E+00
      9.183  0.6596E-01  0.5354E+00
      9.280  0.5034E-01  0.5403E+00
      9.376  0.3855E-01  0.5440E+00
      9.473  0.3371E-01  0.5472E+00
      9.569  0.3724E-01  0.5508E+00
      9.665  0.4426E-01  0.5551E+00
      9.762  0.4759E-01  0.5597E+00
      9.858  0.4815E-01  0.5643E+00
      9.954  0.5002E-01  0.5691E+00
     10.051  0.5094E-01  0.5740E+00
     10.147  0.4934E-01  0.5788E+00
     10.243  0.5063E-01  0.5837E+00
     10.340  0.5793E-01  0.5892E+00
     10.436  0.6505E-01  0.5955E+00
     10.532  0.6297E-01  0.6016E+00
     10.629  0.5199E-01  0.6066E+00
     10.725  0.4026E-01  0.6105E+00
     10.821  0.3741E-01  0.6141E+00
     10.918  0.5337E-01  0.6192E+00
     11.014  0.8258E-01  0.6272E+00
     11.110  0.9864E-01  0.6367E+00
     11.207  0.9046E-01  0.6454E+00
     11.303  0.7814E-01  0.6529E+00
     11.399  0.7291E-01  0.6599E+00
     11.496  0.6283E-01  0.6660E+00
     11.592  0.4405E-01  0.6702E+00
     11.688  0.2864E-01  0.6730E+00
     11.785  0.2513E-01  0.6754E+00
     11.881  0.2970E-01  0.6783E+00
     11.978  0.3663E-01  0.6818E+00
     12.074  0.4904E-01  0.6865E+00
     12.170  0.6919E-01  0.6932E+00
     12.267  0.8659E-01  0.7015E+00
     12.363  0.8781E-01  0.7100E+00
     12.459  0.7501E-01  0.7172E+00
     12.556  0.6506E-01  0.7235E+00
     12.652  0.6526E-01  0.7298E+00
     12.748  0.6466E-01  0.7360E+00
     12.845  0.5601E-01  0.7414E+00
     12.941  0.4805E-01  0.7460E+00
     13.037  0.5185E-01  0.7510E+00
     13.134  0.6452E-01  0.7572E+00
     13.230  0.7397E-01  0.7644E+00
     13.326  0.7847E-01  0.7719E+00
     13.423  0.8714E-01  0.7803E+00
     13.519  0.1007E+00  0.7900E+00
     13.615  0.1080E+00  0.8004E+00
     13.712  0.1062E+00  0.8107E+00
     13.808  0.1098E+00  0.8213E+00
     13.904  0.1258E+00  0.8334E+00
     14.001  0.1332E+00  0.8462E+00
     14.097  0.1126E+00  0.8571E+00
     14.193  0.7863E-01  0.8646E+00
     14.290  0.5808E-01  0.8702E+00
     14.386  0.5400E-01  0.8754E+00
     14.483  0.5023E-01  0.8803E+00
     14.579  0.3670E-01  0.8838E+00
     14.675  0.1917E-01  0.8857E+00
     14.772  0.8116E-02  0.8864E+00
     14.868  0.6396E-02  0.8870E+00
     14.964  0.9783E-02  0.8880E+00
     15.061  0.1213E-01  0.8892E+00
     15.157  0.1134E-01  0.8903E+00
     15.253  0.1341E-01  0.8915E+00
     15.350  0.2650E-01  0.8941E+00
     15.446  0.4866E-01  0.8988E+00
     15.542  0.6480E-01  0.9050E+00
     15.639  0.6410E-01  0.9112E+00
     15.735  0.5617E-01  0.9166E+00
     15.831  0.5675E-01  0.9221E+00
     15.928  0.6636E-01  0.9285E+00
     16.024  0.8085E-01  0.9363E+00
     16.120  0.1031E+00  0.9462E+00
     16.217  0.1229E+00  0.9580E+00
     16.313  0.1174E+00  0.9694E+00
     16.409  0.8445E-01  0.9775E+00
     16.506  0.4611E-01  0.9819E+00
     16.602  0.2018E-01  0.9839E+00
     16.698  0.8322E-02  0.9847E+00
     16.795  0.4564E-02  0.9851E+00
     16.891  0.3886E-02  0.9855E+00
     16.988  0.5934E-02  0.9861E+00
     17.084  0.1286E-01  0.9873E+00
     17.180  0.2271E-01  0.9895E+00
     17.277  0.2847E-01  0.9922E+00
     17.373  0.2854E-01  0.9950E+00
     17.469  0.3083E-01  0.9980E+00
     17.566  0.3943E-01  0.1002E+01
     17.662  0.4695E-01  0.1006E+01
     17.758  0.4716E-01  0.1011E+01
     17.855  0.4402E-01  0.1015E+01
     17.951  0.4478E-01  0.1019E+01
     18.047  0.5009E-01  0.1024E+01
     18.144  0.5088E-01  0.1029E+01
     18.240  0.4265E-01  0.1033E+01
     18.336  0.3479E-01  0.1037E+01
     18.433  0.3283E-01  0.1040E+01
     18.529  0.2933E-01  0.1043E+01
     18.625  0.2076E-01  0.1045E+01
     18.722  0.1468E-01  0.1046E+01
     18.818  0.1626E-01  0.1048E+01
     18.914  0.2087E-01  0.1050E+01
     19.011  0.2175E-01  0.1052E+01
     19.107  0.1862E-01  0.1053E+01
     19.203  0.1600E-01  0.1055E+01
     19.300  0.1535E-01  0.1056E+01
     19.396  0.1486E-01  0.1058E+01
     19.493  0.1447E-01  0.1059E+01
     19.589  0.1375E-01  0.1061E+01
     19.685  0.1052E-01  0.1062E+01
     19.782  0.5591E-02  0.1062E+01
     19.878  0.2018E-02  0.1062E+01
     19.974  0.9511E-03  0.1062E+01
     20.071  0.2266E-02  0.1063E+01
     20.167  0.6004E-02  0.1063E+01
     20.263  0.1044E-01  0.1064E+01
     20.360  0.1163E-01  0.1065E+01
     20.456  0.8291E-02  0.1066E+01
     20.552  0.3780E-02  0.1067E+01
     20.649  0.1102E-02  0.1067E+01
     20.745  0.2051E-03  0.1067E+01
     20.841  0.2436E-04  0.1067E+01
     20.938  0.1844E-05  0.1067E+01
     21.034  0.8884E-07  0.1067E+01
     21.130  0.2720E-08  0.1067E+01
     21.227  0.5289E-10  0.1067E+01
     21.323  0.6520E-12  0.1067E+01
     21.419  0.5094E-14  0.1067E+01
     21.516  0.2458E-16  0.1067E+01
     21.612  0.0000E+00  0.1067E+01
     21.708  0.0000E+00  0.1067E+01
     21.805  0.0000E+00  0.1067E+01
     21.901  0.0000E+00  0.1067E+01
     21.998  0.0000E+00  0.1067E+01
     22.094  0.0000E+00  0.1067E+01
     22.190  0.0000E+00  0.1067E+01
     22.287  0.0000E+00  0.1067E+01
