       N       E                     dE             d eps       ncg     rms          rms(c)
DAV:   1    -0.464301475495E+00   -0.46430E+00   -0.25595E+03   288   0.512E+02
DAV:   2    -0.101705167583E+02   -0.97062E+01   -0.93088E+01   440   0.581E+01
DAV:   3    -0.102545189844E+02   -0.84002E-01   -0.83931E-01   416   0.689E+00
DAV:   4    -0.102547070564E+02   -0.18807E-03   -0.18806E-03   432   0.300E-01
DAV:   5    -0.102547072372E+02   -0.18075E-06   -0.18089E-06   400   0.744E-03    0.146E+00
DAV:   6    -0.102497881026E+02    0.49191E-02   -0.18507E-03   400   0.326E-01    0.914E-01
DAV:   7    -0.102458124355E+02    0.39757E-02   -0.53795E-03   336   0.567E-01    0.338E-02
DAV:   8    -0.102457947307E+02    0.17705E-04   -0.90833E-05   232   0.779E-02
   1 F= -.10245795E+02 E0= -.10236218E+02  d E =-.102458E+02
       N       E                     dE             d eps       ncg     rms          rms(c)
DAV:   1    -0.102787655837E+02   -0.32953E-01   -0.70100E-01   432   0.478E+00    0.565E-01
DAV:   2    -0.102693917183E+02    0.93739E-02   -0.15895E-02   328   0.970E-01    0.315E-01
DAV:   3    -0.102649876526E+02    0.44041E-02   -0.12690E-02   384   0.620E-01    0.293E-02
DAV:   4    -0.102650190980E+02   -0.31445E-04   -0.45472E-04   216   0.178E-01
   2 F= -.10265019E+02 E0= -.10252396E+02  d E =-.192244E-01
       N       E                     dE             d eps       ncg     rms          rms(c)
DAV:   1    -0.102666590703E+02   -0.16714E-02   -0.32953E-02   424   0.106E+00    0.114E-01
DAV:   2    -0.102662789295E+02    0.38014E-03   -0.73553E-04   264   0.212E-01
   3 F= -.10266279E+02 E0= -.10254099E+02  d E =-.204842E-01
       N       E                     dE             d eps       ncg     rms          rms(c)
DAV:   1    -0.102654719327E+02    0.11871E-02   -0.11563E-01   416   0.199E+00    0.232E-01
DAV:   2    -0.102639127774E+02    0.15592E-02   -0.27874E-03   368   0.405E-01    0.129E-01
DAV:   3    -0.102631824121E+02    0.73037E-03   -0.20956E-03   336   0.254E-01    0.117E-02
DAV:   4    -0.102631892458E+02   -0.68336E-05   -0.86156E-05   176   0.769E-02
   4 F= -.10263189E+02 E0= -.10251819E+02  d E =-.173945E-01
       N       E                     dE             d eps       ncg     rms          rms(c)
DAV:   1    -0.102675220089E+02   -0.43396E-02   -0.75731E-02   416   0.161E+00    0.184E-01
DAV:   2    -0.102665409281E+02    0.98108E-03   -0.18595E-03   344   0.331E-01    0.103E-01
DAV:   3    -0.102660721577E+02    0.46877E-03   -0.12958E-03   240   0.200E-01    0.770E-03
DAV:   4    -0.102660788750E+02   -0.67173E-05   -0.78034E-05   168   0.752E-02
   5 F= -.10266079E+02 E0= -.10254131E+02  d E =-.202841E-01
       N       E                     dE             d eps       ncg     rms          rms(c)
DAV:   1    -0.102661255311E+02   -0.53373E-04   -0.51909E-04   280   0.137E-01    0.146E-02
DAV:   2    -0.102661230276E+02    0.25034E-05   -0.14911E-05   168   0.315E-02
   6 F= -.10266123E+02 E0= -.10254096E+02  d E =-.203283E-01
       N       E                     dE             d eps       ncg     rms          rms(c)
DAV:   1    -0.102661552627E+02   -0.29732E-04   -0.13277E-03   400   0.214E-01    0.250E-02
DAV:   2    -0.102661370764E+02    0.18186E-04   -0.31689E-05   144   0.433E-02
   7 F= -.10266137E+02 E0= -.10253985E+02  d E =-.203423E-01
