<?xml version="1.0" encoding="ISO-8859-1"?>
<modeling>
 <generator>
  <i name="program" type="string">vasp </i>
  <i name="version" type="string">5.4.4.18Apr17-6-g9f103f2a35  </i>
  <i name="subversion" type="string">(build Dec 09 2018 21:25:21) complex            parallel </i>
  <i name="platform" type="string">IFC18.0.1.163_CrayMPICH7.7.0_MKL18.0.1.163 </i>
  <i name="date" type="string">2019 03 18 </i>
  <i name="time" type="string">04:40:47 </i>
 </generator>
 <incar>
  <i type="string" name="PREC">normal</i>
  <i type="int" name="IBRION">     2</i>
  <i name="EDIFF">      0.00040000</i>
  <i name="EDIFFG">     -0.01000000</i>
  <i type="int" name="NSW">    15</i>
  <i type="int" name="ISIF">     2</i>
  <i name="ENCUT">    300.00000000</i>
  <i type="int" name="NBANDS">     8</i>
  <i type="logical" name="LREAL"> F  </i>
  <i type="int" name="ISMEAR">     0</i>
  <i name="SIGMA">      0.20000000</i>
  <v type="int" name="KPOINT_BSE">    -1     0     0     0</v>
 </incar>
 <structure name="primitive_cell" >
  <crystal>
   <varray name="basis" >
    <v>      -2.45000000       2.45000000       1.27400000 </v>
    <v>       2.45000000      -2.45000000       1.27400000 </v>
    <v>       2.45000000       2.45000000      -1.27400000 </v>
   </varray>
   <i name="volume">     30.58874000 </i>
   <varray name="rec_basis" >
    <v>       0.00000000       0.20408163       0.39246468 </v>
    <v>       0.20408163       0.00000000       0.39246468 </v>
    <v>       0.20408163       0.20408163      -0.00000000 </v>
   </varray>
  </crystal>
  <varray name="positions" >
   <v>       0.25000000      -0.25000000      -0.50000000 </v>
   <v>       0.00000000       0.00000000       0.00000000 </v>
  </varray>
 </structure>
 <varray name="primitive_index" >
  <v type="int" >        1 </v>
  <v type="int" >        2 </v>
 </varray>
 <kpoints>
  <generation param="Monkhorst-Pack">
   <v type="int" name="divisions">       5        5        5 </v>
   <v name="usershift">      0.00000000       0.00000000       0.00000000 </v>
   <v name="genvec1">      0.20000000       0.00000000      -0.00000000 </v>
   <v name="genvec2">      0.00000000       0.20000000      -0.00000000 </v>
   <v name="genvec3">      0.00000000      -0.00000000       0.20000000 </v>
   <v name="shift">      0.00000000       0.00000000       0.00000000 </v>
  </generation>
  <varray name="kpointlist" >
   <v>       0.00000000       0.00000000       0.00000000 </v>
   <v>       0.20000000       0.00000000      -0.00000000 </v>
   <v>       0.40000000       0.00000000      -0.00000000 </v>
   <v>       0.20000000       0.20000000      -0.00000000 </v>
   <v>       0.40000000       0.20000000      -0.00000000 </v>
   <v>      -0.40000000       0.20000000       0.00000000 </v>
   <v>      -0.20000000       0.20000000       0.00000000 </v>
   <v>       0.40000000       0.40000000      -0.00000000 </v>
   <v>      -0.40000000       0.40000000       0.00000000 </v>
   <v>       0.20000000       0.20000000       0.20000000 </v>
   <v>      -0.20000000       0.20000000       0.20000000 </v>
   <v>      -0.40000000       0.40000000       0.20000000 </v>
   <v>      -0.20000000       0.40000000       0.20000000 </v>
   <v>      -0.40000000      -0.40000000       0.20000000 </v>
   <v>      -0.20000000      -0.40000000       0.20000000 </v>
   <v>      -0.20000000      -0.20000000       0.20000000 </v>
   <v>      -0.40000000       0.40000000       0.40000000 </v>
   <v>      -0.40000000      -0.40000000       0.40000000 </v>
  </varray>
  <varray name="weights" >
   <v>       0.00800000 </v>
   <v>       0.06400000 </v>
   <v>       0.06400000 </v>
   <v>       0.06400000 </v>
   <v>       0.12800000 </v>
   <v>       0.12800000 </v>
   <v>       0.03200000 </v>
   <v>       0.06400000 </v>
   <v>       0.03200000 </v>
   <v>       0.06400000 </v>
   <v>       0.03200000 </v>
   <v>       0.06400000 </v>
   <v>       0.06400000 </v>
   <v>       0.06400000 </v>
   <v>       0.06400000 </v>
   <v>       0.01600000 </v>
   <v>       0.03200000 </v>
   <v>       0.01600000 </v>
  </varray>
 </kpoints>
 <parameters>
  <separator name="general" >
   <i type="string" name="SYSTEM">unknown system</i>
   <i type="logical" name="LCOMPAT"> F  </i>
  </separator>
  <separator name="electronic" >
   <i type="string" name="PREC">normal</i>
   <i name="ENMAX">    300.00000000</i>
   <i name="ENAUG">    322.06900000</i>
   <i name="EDIFF">      0.00040000</i>
   <i type="int" name="IALGO">    38</i>
   <i type="int" name="IWAVPR">    11</i>
   <i type="int" name="NBANDS">     8</i>
   <i name="NELECT">      8.00000000</i>
   <i type="int" name="TURBO">     0</i>
   <i type="int" name="IRESTART">     0</i>
   <i type="int" name="NREBOOT">     0</i>
   <i type="int" name="NMIN">     0</i>
   <i name="EREF">      0.00000000</i>
   <separator name="electronic smearing" >
    <i type="int" name="ISMEAR">     0</i>
    <i name="SIGMA">      0.20000000</i>
    <i name="KSPACING">      0.50000000</i>
    <i type="logical" name="KGAMMA"> T  </i>
   </separator>
   <separator name="electronic projectors" >
    <i type="logical" name="LREAL"> F  </i>
    <v name="ROPT">      0.00000000</v>
    <i type="int" name="LMAXPAW">  -100</i>
    <i type="int" name="LMAXMIX">     2</i>
    <i type="logical" name="NLSPLINE"> F  </i>
   </separator>
   <separator name="electronic startup" >
    <i type="int" name="ISTART">     0</i>
    <i type="int" name="ICHARG">     2</i>
    <i type="int" name="INIWAV">     1</i>
   </separator>
   <separator name="electronic spin" >
    <i type="int" name="ISPIN">     1</i>
    <i type="logical" name="LNONCOLLINEAR"> F  </i>
    <v name="MAGMOM">      1.00000000      1.00000000</v>
    <i name="NUPDOWN">     -1.00000000</i>
    <i type="logical" name="LSORBIT"> F  </i>
    <v name="SAXIS">      0.00000000      0.00000000      1.00000000</v>
    <i type="logical" name="LSPIRAL"> F  </i>
    <v name="QSPIRAL">      0.00000000      0.00000000      0.00000000</v>
    <i type="logical" name="LZEROZ"> F  </i>
   </separator>
   <separator name="electronic exchange-correlation" >
    <i type="logical" name="LASPH"> F  </i>
    <i type="logical" name="LMETAGGA"> F  </i>
   </separator>
   <separator name="electronic convergence" >
    <i type="int" name="NELM">    60</i>
    <i type="int" name="NELMDL">    -5</i>
    <i type="int" name="NELMIN">     2</i>
    <i name="ENINI">    300.00000000</i>
    <separator name="electronic convergence detail" >
     <i type="logical" name="LDIAG"> T  </i>
     <i type="logical" name="LSUBROT"> F  </i>
     <i name="WEIMIN">      0.00100000</i>
     <i name="EBREAK">      0.00001250</i>
     <i name="DEPER">      0.30000000</i>
     <i type="int" name="NRMM">     4</i>
     <i name="TIME">      0.40000000</i>
    </separator>
   </separator>
   <separator name="electronic mixer" >
    <i name="AMIX">      0.40000000</i>
    <i name="BMIX">      1.00000000</i>
    <i name="AMIN">      0.10000000</i>
    <i name="AMIX_MAG">      1.60000000</i>
    <i name="BMIX_MAG">      1.00000000</i>
    <separator name="electronic mixer details" >
     <i type="int" name="IMIX">     4</i>
     <i type="logical" name="MIXFIRST"> F  </i>
     <i type="int" name="MAXMIX">   -45</i>
     <i name="WC">    100.00000000</i>
     <i type="int" name="INIMIX">     1</i>
     <i type="int" name="MIXPRE">     1</i>
     <i type="int" name="MREMOVE">     5</i>
    </separator>
   </separator>
   <separator name="electronic dipolcorrection" >
    <i type="logical" name="LDIPOL"> F  </i>
    <i type="logical" name="LMONO"> F  </i>
    <i type="int" name="IDIPOL">     0</i>
    <i name="EPSILON">      1.00000000</i>
    <v name="DIPOL">   -100.00000000   -100.00000000   -100.00000000</v>
    <i name="EFIELD">      0.00000000</i>
   </separator>
  </separator>
  <separator name="grids" >
   <i type="int" name="NGX">    16</i>
   <i type="int" name="NGY">    16</i>
   <i type="int" name="NGZ">    16</i>
   <i type="int" name="NGXF">    32</i>
   <i type="int" name="NGYF">    32</i>
   <i type="int" name="NGZF">    32</i>
   <i type="logical" name="ADDGRID"> F  </i>
  </separator>
  <separator name="ionic" >
   <i type="int" name="NSW">    15</i>
   <i type="int" name="IBRION">     2</i>
   <i type="int" name="MDALGO">     0</i>
   <i type="int" name="ISIF">     2</i>
   <i name="PSTRESS">      0.00000000</i>
   <i name="EDIFFG">     -0.01000000</i>
   <i type="int" name="NFREE">     1</i>
   <i name="POTIM">      0.50000000</i>
   <i name="SMASS">     -3.00000000</i>
   <i name="SCALEE">      1.00000000</i>
  </separator>
  <separator name="ionic md" >
   <i name="TEBEG">      0.00010000</i>
   <i name="TEEND">      0.00010000</i>
   <i type="int" name="NBLOCK">     1</i>
   <i type="int" name="KBLOCK">    15</i>
   <i type="int" name="NPACO">   256</i>
   <i name="APACO">     16.00000000</i>
  </separator>
  <separator name="symmetry" >
   <i type="int" name="ISYM">     2</i>
   <i name="SYMPREC">      0.00001000</i>
  </separator>
  <separator name="dos" >
   <i type="int" name="LORBIT">     0</i>
   <v name="RWIGS">     -1.00000000</v>
   <i type="int" name="NEDOS">   301</i>
   <i name="EMIN">     10.00000000</i>
   <i name="EMAX">    -10.00000000</i>
   <i name="EFERMI">      0.00000000</i>
  </separator>
  <separator name="writing" >
   <i type="int" name="NWRITE">     2</i>
   <i type="logical" name="LWAVE"> T  </i>
   <i type="logical" name="LDOWNSAMPLE"> F  </i>
   <i type="logical" name="LCHARG"> T  </i>
   <i type="logical" name="LPARD"> F  </i>
   <i type="logical" name="LVTOT"> F  </i>
   <i type="logical" name="LVHAR"> F  </i>
   <i type="logical" name="LELF"> F  </i>
   <i type="logical" name="LOPTICS"> F  </i>
   <v name="STM">      0.00000000      0.00000000      0.00000000      0.00000000      0.00000000      0.00000000      0.00000000</v>
  </separator>
  <separator name="performance" >
   <i type="int" name="NPAR">     8</i>
   <i type="int" name="NSIM">     4</i>
   <i type="int" name="NBLK">    -1</i>
   <i type="logical" name="LPLANE"> T  </i>
   <i type="logical" name="LSCALAPACK"> T  </i>
   <i type="logical" name="LSCAAWARE"> F  </i>
   <i type="logical" name="LSCALU"> F  </i>
   <i type="logical" name="LASYNC"> F  </i>
   <i type="logical" name="LORBITALREAL"> F  </i>
  </separator>
  <separator name="miscellaneous" >
   <i type="int" name="IDIOT">     3</i>
   <i type="int" name="ISPECIAL">     0</i>
   <i type="logical" name="LMUSIC"> F  </i>
   <v name="POMASS">     28.08500000</v>
   <v name="DARWINR">      0.00000000</v>
   <v name="DARWINV">      1.00000000</v>
   <i type="logical" name="LCORR"> T  </i>
  </separator>
  <i type="logical" name="GGA_COMPAT"> T  </i>
  <i type="logical" name="LBERRY"> F  </i>
  <i type="int" name="ICORELEVEL">     0</i>
  <i type="logical" name="LDAU"> F  </i>
  <i type="int" name="I_CONSTRAINED_M">     0</i>
  <separator name="electronic exchange-correlation" >
   <i type="string" name="GGA">--</i>
   <i type="int" name="VOSKOWN">     0</i>
   <i type="logical" name="LHFCALC"> F  </i>
   <i type="string" name="PRECFOCK"></i>
   <i type="logical" name="LSYMGRAD"> F  </i>
   <i type="logical" name="LHFONE"> F  </i>
   <i type="logical" name="LRHFCALC"> F  </i>
   <i type="logical" name="LTHOMAS"> F  </i>
   <i type="logical" name="LMODELHF"> F  </i>
   <i name="ENCUT4O">     -1.00000000</i>
   <i type="int" name="EXXOEP">     0</i>
   <i type="int" name="FOURORBIT">     0</i>
   <i name="AEXX">      0.00000000</i>
   <i name="HFALPHA">      0.00000000</i>
   <i name="MCALPHA">      0.00000000</i>
   <i name="ALDAX">      1.00000000</i>
   <i name="AGGAX">      1.00000000</i>
   <i name="ALDAC">      1.00000000</i>
   <i name="AGGAC">      1.00000000</i>
   <i type="int" name="NKREDX">     1</i>
   <i type="int" name="NKREDY">     1</i>
   <i type="int" name="NKREDZ">     1</i>
   <i type="logical" name="SHIFTRED"> F  </i>
   <i type="logical" name="ODDONLY"> F  </i>
   <i type="logical" name="EVENONLY"> F  </i>
   <i type="int" name="LMAXFOCK">     0</i>
   <i type="int" name="NMAXFOCKAE">     0</i>
   <i type="logical" name="LFOCKAEDFT"> F  </i>
   <i name="HFSCREEN">      0.00000000</i>
   <i name="HFSCREENC">      0.00000000</i>
   <i type="int" name="NBANDSGWLOW">     0</i>
  </separator>
  <separator name="vdW DFT" >
   <i type="logical" name="LUSE_VDW"> F  </i>
   <i name="Zab_VDW">     -0.84910000</i>
   <i name="PARAM1">      0.12340000</i>
   <i name="PARAM2">      1.00000000</i>
   <i name="PARAM3">      0.00000000</i>
  </separator>
  <separator name="model GW" >
   <i type="int" name="MODEL_GW">     0</i>
   <i name="MODEL_EPS0">      9.17662200</i>
   <i name="MODEL_ALPHA">      1.00000000</i>
  </separator>
  <separator name="linear response parameters" >
   <i type="logical" name="LEPSILON"> F  </i>
   <i type="logical" name="LRPA"> F  </i>
   <i type="logical" name="LNABLA"> F  </i>
   <i type="logical" name="LVEL"> F  </i>
   <i type="int" name="KINTER">     0</i>
   <i name="CSHIFT">      0.10000000</i>
   <i name="OMEGAMAX">     -1.00000000</i>
   <i name="DEG_THRESHOLD">      0.00200000</i>
   <i name="RTIME">     -0.10000000</i>
   <i name="WPLASMAI">      0.00000000</i>
   <v name="DFIELD">      0.00000000      0.00000000      0.00000000</v>
   <v name="WPLASMA">      0.00000000      0.00000000      0.00000000      0.00000000      0.00000000      0.00000000      0.00000000      0.00000000      0.00000000</v>
  </separator>
  <separator name="orbital magnetization" >
   <i type="logical" name="NUCIND"> F  </i>
   <v name="MAGPOS">      0.00000000      0.00000000      0.00000000</v>
   <i type="logical" name="LNICSALL"> T  </i>
   <i type="logical" name="ORBITALMAG"> F  </i>
   <i type="logical" name="LMAGBLOCH"> F  </i>
   <i type="logical" name="LCHIMAG"> F  </i>
   <i type="logical" name="LGAUGE"> T  </i>
   <i type="int" name="MAGATOM">     0</i>
   <v name="MAGDIPOL">      0.00000000      0.00000000      0.00000000</v>
   <v name="AVECCONST">      0.00000000      0.00000000      0.00000000</v>
  </separator>
  <separator name="response functions" >
   <i type="logical" name="LADDER"> F  </i>
   <i type="logical" name="LRPAFORCE"> F  </i>
   <i type="logical" name="LFXC"> F  </i>
   <i type="logical" name="LHARTREE"> T  </i>
   <i type="int" name="IBSE">     0</i>
   <v type="int" name="KPOINT">    -1     0     0     0</v>
   <i type="logical" name="LTCTE"> F  </i>
   <i type="logical" name="LTETE"> F  </i>
   <i type="logical" name="LTRIPLET"> F  </i>
   <i type="logical" name="LFXCEPS"> F  </i>
   <i type="logical" name="LFXHEG"> F  </i>
   <i type="int" name="NATURALO">     2</i>
   <i type="logical" name="L2ORDER"> F  </i>
   <i type="logical" name="LMP2LT"> F  </i>
   <i type="logical" name="LUSEW"> F  </i>
   <i name="ENCUTGW">     -2.00000000</i>
   <i name="ENCUTGWSOFT">     -2.00000000</i>
   <i name="ENCUTLF">     -1.00000000</i>
   <i type="int" name="LMAXMP2">    -1</i>
   <i name="SCISSOR">      0.00000000</i>
   <i type="int" name="NOMEGA">     0</i>
   <i type="int" name="NOMEGAR">     0</i>
   <i type="int" name="NBANDSGW">    -1</i>
   <i type="int" name="NBANDSO">    -1</i>
   <i type="int" name="NBANDSV">    -1</i>
   <i type="int" name="NELM">     1</i>
   <i type="int" name="NELMHF">     1</i>
   <i type="int" name="DIM">     3</i>
   <i type="int" name="ANTIRES">     0</i>
   <i name="OMEGAMAX">    -30.00000000</i>
   <i name="OMEGAMIN">    -30.00000000</i>
   <i name="OMEGATL">   -200.00000000</i>
   <i type="int" name="OMEGAGRID">   140</i>
   <i name="CSHIFT">     -0.10000000</i>
   <i type="logical" name="SELFENERGY"> F  </i>
   <i type="logical" name="LSPECTRAL"> F  </i>
   <i type="logical" name="LSPECTRALGW"> F  </i>
   <i type="logical" name="LSINGLES"> F  </i>
   <i type="logical" name="LFERMIGW"> F  </i>
   <i type="logical" name="ODDONLYGW"> F  </i>
   <i type="logical" name="EVENONLYGW"> F  </i>
   <i type="int" name="NKREDLFX">     1</i>
   <i type="int" name="NKREDLFY">     1</i>
   <i type="int" name="NKREDLFZ">     1</i>
   <i type="int" name="MAXMEM">  2800</i>
   <i type="int" name="TELESCOPE">     0</i>
   <i type="int" name="TAUPAR">     1</i>
   <i type="int" name="OMEGAPAR">    -1</i>
   <i name="LAMBDA">      1.00000000</i>
  </separator>
  <separator name="External order field" >
   <i name="OFIELD_KAPPA">      0.00000000</i>
   <v name="OFIELD_K">      0.00000000      0.00000000      0.00000000</v>
   <i name="OFIELD_Q6_NEAR">      0.00000000</i>
   <i name="OFIELD_Q6_FAR">      0.00000000</i>
   <i name="OFIELD_A">      0.00000000</i>
  </separator>
 </parameters>
 <atominfo>
  <atoms>       2 </atoms>
  <types>       1 </types>
  <array name="atoms" >
   <dimension dim="1">ion</dimension>
   <field type="string">element</field>
   <field type="int">atomtype</field>
   <set>
    <rc><c>Si</c><c>   1</c></rc>
    <rc><c>Si</c><c>   1</c></rc>
   </set>
  </array>
  <array name="atomtypes" >
   <dimension dim="1">type</dimension>
   <field type="int">atomspertype</field>
   <field type="string">element</field>
   <field>mass</field>
   <field>valence</field>
   <field type="string">pseudopotential</field>
   <set>
    <rc><c>   2</c><c>Si</c><c>     28.08500000</c><c>      4.00000000</c><c> PAW_PBE Si 05Jan2001                   </c></rc>
   </set>
  </array>
 </atominfo>
 <structure name="initialpos" >
  <crystal>
   <varray name="basis" >
    <v>      -2.45000000       2.45000000       1.27400000 </v>
    <v>       2.45000000      -2.45000000       1.27400000 </v>
    <v>       2.45000000       2.45000000      -1.27400000 </v>
   </varray>
   <i name="volume">     30.58874000 </i>
   <varray name="rec_basis" >
    <v>       0.00000000       0.20408163       0.39246468 </v>
    <v>       0.20408163       0.00000000       0.39246468 </v>
    <v>       0.20408163       0.20408163      -0.00000000 </v>
   </varray>
  </crystal>
  <varray name="positions" >
   <v>       0.25000000       0.75000000       0.50000000 </v>
   <v>       0.00000000       0.00000000       0.00000000 </v>
  </varray>
 </structure>
 <calculation>
  <scstep>
   <time name="dav">    0.15    0.16</time>
   <time name="total">    0.19    0.21</time>
   <energy>
    <i name="alphaZ">      4.40202223 </i>
    <i name="ewald">   -265.18101312 </i>
    <i name="hartreedc">     -2.30415367 </i>
    <i name="XCdc">    -17.81548033 </i>
    <i name="pawpsdc">     65.95520812 </i>
    <i name="pawaedc">    -30.76852678 </i>
    <i name="eentropy">     -0.03007266 </i>
    <i name="bandstr">     39.14802886 </i>
    <i name="atom">    206.12968587 </i>
    <i name="e_fr_energy">     -0.46430148 </i>
    <i name="e_wo_entrp">     -0.43422882 </i>
    <i name="e_0_energy">     -0.44926515 </i>
   </energy>
  </scstep>
  <scstep>
   <time name="dav">    0.24    0.25</time>
   <time name="total">    0.24    0.25</time>
   <energy>
    <i name="e_fr_energy">    -10.17051676 </i>
    <i name="e_wo_entrp">    -10.15086236 </i>
    <i name="e_0_energy">    -10.16068956 </i>
   </energy>
  </scstep>
  <scstep>
   <time name="dav">    0.23    0.23</time>
   <time name="total">    0.23    0.23</time>
   <energy>
    <i name="e_fr_energy">    -10.25451898 </i>
    <i name="e_wo_entrp">    -10.23563343 </i>
    <i name="e_0_energy">    -10.24507621 </i>
   </energy>
  </scstep>
  <scstep>
   <time name="dav">    0.23    0.24</time>
   <time name="total">    0.23    0.24</time>
   <energy>
    <i name="e_fr_energy">    -10.25470706 </i>
    <i name="e_wo_entrp">    -10.23582607 </i>
    <i name="e_0_energy">    -10.24526656 </i>
   </energy>
  </scstep>
  <scstep>
   <time name="dav">    0.22    0.22</time>
   <time name="total">    0.24    0.24</time>
   <energy>
    <i name="e_fr_energy">    -10.25470724 </i>
    <i name="e_wo_entrp">    -10.23582625 </i>
    <i name="e_0_energy">    -10.24526674 </i>
   </energy>
  </scstep>
  <scstep>
   <time name="dav">    0.21    0.21</time>
   <time name="total">    0.26    0.26</time>
   <energy>
    <i name="e_fr_energy">    -10.24978810 </i>
    <i name="e_wo_entrp">    -10.23078644 </i>
    <i name="e_0_energy">    -10.24028727 </i>
   </energy>
  </scstep>
  <scstep>
   <time name="dav">    0.18    0.18</time>
   <time name="total">    0.22    0.22</time>
   <energy>
    <i name="e_fr_energy">    -10.24581244 </i>
    <i name="e_wo_entrp">    -10.22662771 </i>
    <i name="e_0_energy">    -10.23622007 </i>
   </energy>
  </scstep>
  <scstep>
   <time name="dav">    0.13    0.13</time>
   <time name="total">    0.16    0.17</time>
   <energy>
    <i name="alphaZ">      4.40202223 </i>
    <i name="ewald">   -265.18101312 </i>
    <i name="hartreedc">     -2.47641401 </i>
    <i name="XCdc">    -17.58659528 </i>
    <i name="pawpsdc">     70.37488817 </i>
    <i name="pawaedc">    -35.28820685 </i>
    <i name="eentropy">     -0.01915421 </i>
    <i name="bandstr">     29.39899246 </i>
    <i name="atom">    206.12968587 </i>
    <i name="e_fr_energy">    -10.24579473 </i>
    <i name="e_wo_entrp">    -10.22664052 </i>
    <i name="e_0_energy">    -10.23621763 </i>
   </energy>
  </scstep>
  <structure>
   <crystal>
    <varray name="basis" >
     <v>      -2.45000000       2.45000000       1.27400000 </v>
     <v>       2.45000000      -2.45000000       1.27400000 </v>
     <v>       2.45000000       2.45000000      -1.27400000 </v>
    </varray>
    <i name="volume">     30.58874000 </i>
    <varray name="rec_basis" >
     <v>       0.00000000       0.20408163       0.39246468 </v>
     <v>       0.20408163       0.00000000       0.39246468 </v>
     <v>       0.20408163       0.20408163      -0.00000000 </v>
    </varray>
   </crystal>
   <varray name="positions" >
    <v>       0.25000000       0.75000000       0.50000000 </v>
    <v>       0.00000000       0.00000000       0.00000000 </v>
   </varray>
  </structure>
  <varray name="forces" >
   <v>      -0.00000000      -0.00000000      -0.00000000 </v>
   <v>       0.00000000       0.00000000       0.00000000 </v>
  </varray>
  <varray name="stress" >
   <v>      27.11558795       0.00000000       0.00000000 </v>
   <v>      -0.00000000      27.11558795       0.00000000 </v>
   <v>       0.00000000       0.00000000     -39.23162346 </v>
  </varray>
  <energy>
   <i name="e_fr_energy">    -10.24579473 </i>
   <i name="e_wo_entrp">    -10.23621763 </i>
   <i name="e_0_energy">     -0.01915421 </i>
  </energy>
  <time name="totalsc">    2.68    3.10</time>
  <eigenvalues>
   <array>
    <dimension dim="1">band</dimension>
    <dimension dim="2">kpoint</dimension>
    <dimension dim="3">spin</dimension>
    <field>eigene</field>
    <field>occ</field>
    <set>
     <set comment="spin 1">
      <set comment="kpoint 1">
       <r>   -4.6175    1.0000 </r>
       <r>    6.1790    1.0000 </r>
       <r>    6.2972    1.0000 </r>
       <r>    6.2972    1.0000 </r>
       <r>   10.5259    0.0000 </r>
       <r>   16.7714    0.0000 </r>
       <r>   17.3652    0.0000 </r>
       <r>   17.3652    0.0000 </r>
      </set>
      <set comment="kpoint 2">
       <r>   -3.4907    1.0000 </r>
       <r>    5.0215    1.0000 </r>
       <r>    6.2745    1.0000 </r>
       <r>    9.2976    0.1471 </r>
       <r>   12.6175    0.0000 </r>
       <r>   12.8110    0.0000 </r>
       <r>   13.4015    0.0000 </r>
       <r>   15.5050    0.0000 </r>
      </set>
      <set comment="kpoint 3">
       <r>   -0.1604    1.0000 </r>
       <r>    5.1727    1.0000 </r>
       <r>    6.0030    1.0000 </r>
       <r>    7.2515    1.0000 </r>
       <r>    8.9474    0.9232 </r>
       <r>   11.3748    0.0000 </r>
       <r>   13.6618    0.0000 </r>
       <r>   14.2872    0.0000 </r>
      </set>
      <set comment="kpoint 4">
       <r>   -0.6225    1.0000 </r>
       <r>    5.9967    1.0000 </r>
       <r>    6.8900    1.0000 </r>
       <r>    6.9265    1.0000 </r>
       <r>    9.7322    0.0000 </r>
       <r>   11.8609    0.0000 </r>
       <r>   12.3861    0.0000 </r>
       <r>   12.6662    0.0000 </r>
      </set>
      <set comment="kpoint 5">
       <r>    1.2091    1.0000 </r>
       <r>    3.3894    1.0000 </r>
       <r>    4.4663    1.0000 </r>
       <r>    7.7044    1.0000 </r>
       <r>    9.0370    0.7862 </r>
       <r>   11.0181    0.0000 </r>
       <r>   13.8547    0.0000 </r>
       <r>   16.2414    0.0000 </r>
      </set>
      <set comment="kpoint 6">
       <r>   -2.5471    1.0000 </r>
       <r>    2.0311    1.0000 </r>
       <r>    6.7422    1.0000 </r>
       <r>   10.4306    0.0000 </r>
       <r>   11.0807    0.0000 </r>
       <r>   12.2823    0.0000 </r>
       <r>   13.9756    0.0000 </r>
       <r>   15.8839    0.0000 </r>
      </set>
      <set comment="kpoint 7">
       <r>   -4.1415    1.0000 </r>
       <r>    2.7397    1.0000 </r>
       <r>    6.7382    1.0000 </r>
       <r>    8.3507    1.0000 </r>
       <r>   13.1546    0.0000 </r>
       <r>   13.2790    0.0000 </r>
       <r>   15.0100    0.0000 </r>
       <r>   19.2696    0.0000 </r>
      </set>
      <set comment="kpoint 8">
       <r>   -0.6845    1.0000 </r>
       <r>   -0.6808    1.0000 </r>
       <r>    8.4122    1.0000 </r>
       <r>    8.4792    1.0000 </r>
       <r>   10.6659    0.0000 </r>
       <r>   13.1843    0.0000 </r>
       <r>   13.5883    0.0000 </r>
       <r>   14.0468    0.0000 </r>
      </set>
      <set comment="kpoint 9">
       <r>   -2.7234    1.0000 </r>
       <r>   -0.3974    1.0000 </r>
       <r>    8.0590    1.0000 </r>
       <r>    9.9414    0.0000 </r>
       <r>   10.2489    0.0000 </r>
       <r>   12.1732    0.0000 </r>
       <r>   18.0615    0.0000 </r>
       <r>   18.8683    0.0000 </r>
      </set>
      <set comment="kpoint 10">
       <r>    0.7636    1.0000 </r>
       <r>    3.0235    1.0000 </r>
       <r>    6.1190    1.0000 </r>
       <r>    6.1402    1.0000 </r>
       <r>   11.3444    0.0000 </r>
       <r>   13.0658    0.0000 </r>
       <r>   13.9757    0.0000 </r>
       <r>   14.4554    0.0000 </r>
      </set>
      <set comment="kpoint 11">
       <r>   -3.6687    1.0000 </r>
       <r>    2.5709    1.0000 </r>
       <r>    4.1943    1.0000 </r>
       <r>   10.2127    0.0000 </r>
       <r>   11.4341    0.0000 </r>
       <r>   14.4525    0.0000 </r>
       <r>   17.5939    0.0000 </r>
       <r>   18.1431    0.0000 </r>
      </set>
      <set comment="kpoint 12">
       <r>   -2.2629    1.0000 </r>
       <r>    0.0169    1.0000 </r>
       <r>    4.9480    1.0000 </r>
       <r>    7.1510    1.0000 </r>
       <r>   13.5756    0.0000 </r>
       <r>   15.6067    0.0000 </r>
       <r>   17.8053    0.0000 </r>
       <r>   18.0612    0.0000 </r>
      </set>
      <set comment="kpoint 13">
       <r>   -1.6190    1.0000 </r>
       <r>    2.2603    1.0000 </r>
       <r>    3.9824    1.0000 </r>
       <r>    7.7212    1.0000 </r>
       <r>    9.9827    0.0000 </r>
       <r>   15.4514    0.0000 </r>
       <r>   16.3011    0.0000 </r>
       <r>   17.2046    0.0000 </r>
      </set>
      <set comment="kpoint 14">
       <r>    0.1806    1.0000 </r>
       <r>    0.1923    1.0000 </r>
       <r>    5.1260    1.0000 </r>
       <r>    5.1276    1.0000 </r>
       <r>    9.5868    0.0010 </r>
       <r>   16.1684    0.0000 </r>
       <r>   17.5964    0.0000 </r>
       <r>   18.4529    0.0000 </r>
      </set>
      <set comment="kpoint 15">
       <r>    2.4664    1.0000 </r>
       <r>    3.4247    1.0000 </r>
       <r>    4.2920    1.0000 </r>
       <r>    5.7837    1.0000 </r>
       <r>    7.2959    1.0000 </r>
       <r>   12.1207    0.0000 </r>
       <r>   13.4778    0.0000 </r>
       <r>   16.1351    0.0000 </r>
      </set>
      <set comment="kpoint 16">
       <r>   -1.0889    1.0000 </r>
       <r>    7.7633    1.0000 </r>
       <r>    8.1011    1.0000 </r>
       <r>    8.4429    1.0000 </r>
       <r>    8.4430    1.0000 </r>
       <r>   10.0896    0.0000 </r>
       <r>   11.5500    0.0000 </r>
       <r>   11.5500    0.0000 </r>
      </set>
      <set comment="kpoint 17">
       <r>   -0.9207    1.0000 </r>
       <r>    0.6870    1.0000 </r>
       <r>    2.5030    1.0000 </r>
       <r>    4.0847    1.0000 </r>
       <r>   16.0989    0.0000 </r>
       <r>   16.4379    0.0000 </r>
       <r>   18.9833    0.0000 </r>
       <r>   20.2864    0.0000 </r>
      </set>
      <set comment="kpoint 18">
       <r>    1.3089    1.0000 </r>
       <r>    1.3318    1.0000 </r>
       <r>    3.1225    1.0000 </r>
       <r>    3.1225    1.0000 </r>
       <r>    9.1758    0.4253 </r>
       <r>   18.3712    0.0000 </r>
       <r>   19.5553    0.0000 </r>
       <r>   19.5553    0.0000 </r>
      </set>
     </set>
    </set>
   </array>
  </eigenvalues>
  <separator name="orbital magnetization" >
   <v name="MAGDIPOLOUT">      0.00000000      0.00000000      0.00000000</v>
  </separator>
  <dos>
   <i name="efermi">      9.14919611 </i>
   <total>
    <array>
     <dimension dim="1">gridpoints</dimension>
     <dimension dim="2">spin</dimension>
     <field>energy</field>
     <field>total</field>
     <field>integrated</field>
     <set>
      <set comment="spin 1">
       <r>    -6.6175     0.0000     0.0000 </r>
       <r>    -6.5212     0.0000     0.0000 </r>
       <r>    -6.4248     0.0000     0.0000 </r>
       <r>    -6.3285     0.0000     0.0000 </r>
       <r>    -6.2321     0.0000     0.0000 </r>
       <r>    -6.1358     0.0000     0.0000 </r>
       <r>    -6.0395     0.0000     0.0000 </r>
       <r>    -5.9431     0.0000     0.0000 </r>
       <r>    -5.8468     0.0000     0.0000 </r>
       <r>    -5.7504     0.0000     0.0000 </r>
       <r>    -5.6541     0.0000     0.0000 </r>
       <r>    -5.5577     0.0000     0.0000 </r>
       <r>    -5.4614     0.0000     0.0000 </r>
       <r>    -5.3650     0.0000     0.0000 </r>
       <r>    -5.2687     0.0000     0.0000 </r>
       <r>    -5.1723     0.0000     0.0000 </r>
       <r>    -5.0760     0.0001     0.0000 </r>
       <r>    -4.9796     0.0008     0.0001 </r>
       <r>    -4.8833     0.0041     0.0005 </r>
       <r>    -4.7869     0.0142     0.0018 </r>
       <r>    -4.6906     0.0311     0.0048 </r>
       <r>    -4.5943     0.0440     0.0091 </r>
       <r>    -4.4979     0.0426     0.0132 </r>
       <r>    -4.4016     0.0405     0.0171 </r>
       <r>    -4.3052     0.0684     0.0237 </r>
       <r>    -4.2089     0.1305     0.0363 </r>
       <r>    -4.1125     0.1764     0.0533 </r>
       <r>    -4.0162     0.1577     0.0684 </r>
       <r>    -3.9198     0.1078     0.0788 </r>
       <r>    -3.8235     0.1072     0.0892 </r>
       <r>    -3.7271     0.1922     0.1077 </r>
       <r>    -3.6308     0.3287     0.1394 </r>
       <r>    -3.5344     0.4374     0.1815 </r>
       <r>    -3.4381     0.4336     0.2233 </r>
       <r>    -3.3418     0.3047     0.2526 </r>
       <r>    -3.2454     0.1452     0.2666 </r>
       <r>    -3.1491     0.0462     0.2711 </r>
       <r>    -3.0527     0.0154     0.2726 </r>
       <r>    -2.9564     0.0322     0.2757 </r>
       <r>    -2.8600     0.1087     0.2861 </r>
       <r>    -2.7637     0.2781     0.3129 </r>
       <r>    -2.6673     0.5374     0.3647 </r>
       <r>    -2.5710     0.7783     0.4397 </r>
       <r>    -2.4746     0.8355     0.5202 </r>
       <r>    -2.3783     0.7067     0.5883 </r>
       <r>    -2.2819     0.5504     0.6413 </r>
       <r>    -2.1856     0.4144     0.6812 </r>
       <r>    -2.0892     0.2556     0.7059 </r>
       <r>    -1.9929     0.1147     0.7169 </r>
       <r>    -1.8966     0.0586     0.7226 </r>
       <r>    -1.8002     0.1055     0.7327 </r>
       <r>    -1.7039     0.2320     0.7551 </r>
       <r>    -1.6075     0.3430     0.7881 </r>
       <r>    -1.5112     0.3256     0.8195 </r>
       <r>    -1.4148     0.2005     0.8388 </r>
       <r>    -1.3185     0.0919     0.8477 </r>
       <r>    -1.2221     0.0686     0.8543 </r>
       <r>    -1.1258     0.1176     0.8656 </r>
       <r>    -1.0294     0.2055     0.8854 </r>
       <r>    -0.9331     0.3281     0.9170 </r>
       <r>    -0.8367     0.5372     0.9688 </r>
       <r>    -0.7404     0.8543     1.0511 </r>
       <r>    -0.6441     1.0967     1.1568 </r>
       <r>    -0.5477     1.0260     1.2556 </r>
       <r>    -0.4514     0.7257     1.3255 </r>
       <r>    -0.3550     0.4879     1.3725 </r>
       <r>    -0.2587     0.4433     1.4152 </r>
       <r>    -0.1623     0.5373     1.4670 </r>
       <r>    -0.0660     0.6783     1.5324 </r>
       <r>     0.0304     0.8268     1.6120 </r>
       <r>     0.1267     0.9489     1.7035 </r>
       <r>     0.2231     0.9240     1.7925 </r>
       <r>     0.3194     0.6781     1.8578 </r>
       <r>     0.4158     0.3640     1.8929 </r>
       <r>     0.5121     0.2086     1.9130 </r>
       <r>     0.6085     0.2764     1.9396 </r>
       <r>     0.7048     0.4462     1.9826 </r>
       <r>     0.8011     0.5179     2.0325 </r>
       <r>     0.8975     0.4231     2.0732 </r>
       <r>     0.9938     0.3346     2.1055 </r>
       <r>     1.0902     0.4531     2.1491 </r>
       <r>     1.1865     0.7215     2.2186 </r>
       <r>     1.2829     0.8473     2.3003 </r>
       <r>     1.3792     0.6716     2.3650 </r>
       <r>     1.4756     0.3595     2.3996 </r>
       <r>     1.5719     0.1325     2.4124 </r>
       <r>     1.6683     0.0449     2.4167 </r>
       <r>     1.7646     0.0713     2.4236 </r>
       <r>     1.8610     0.2287     2.4456 </r>
       <r>     1.9573     0.5140     2.4951 </r>
       <r>     2.0536     0.7743     2.5697 </r>
       <r>     2.1500     0.8407     2.6507 </r>
       <r>     2.2463     0.7728     2.7252 </r>
       <r>     2.3427     0.7436     2.7968 </r>
       <r>     2.4390     0.7968     2.8736 </r>
       <r>     2.5354     0.8222     2.9528 </r>
       <r>     2.6317     0.7138     3.0216 </r>
       <r>     2.7281     0.5248     3.0722 </r>
       <r>     2.8244     0.3923     3.1100 </r>
       <r>     2.9208     0.3946     3.1480 </r>
       <r>     3.0171     0.4983     3.1960 </r>
       <r>     3.1135     0.5901     3.2528 </r>
       <r>     3.2098     0.6674     3.3171 </r>
       <r>     3.3062     0.8577     3.3998 </r>
       <r>     3.4025     1.0764     3.5035 </r>
       <r>     3.4988     1.0138     3.6012 </r>
       <r>     3.5952     0.6435     3.6632 </r>
       <r>     3.6915     0.2865     3.6908 </r>
       <r>     3.7879     0.1669     3.7068 </r>
       <r>     3.8842     0.2739     3.7332 </r>
       <r>     3.9806     0.4867     3.7801 </r>
       <r>     4.0769     0.6662     3.8443 </r>
       <r>     4.1733     0.7694     3.9184 </r>
       <r>     4.2696     0.8582     4.0011 </r>
       <r>     4.3660     0.9598     4.0936 </r>
       <r>     4.4623     0.9839     4.1884 </r>
       <r>     4.5587     0.8112     4.2666 </r>
       <r>     4.6550     0.5048     4.3152 </r>
       <r>     4.7513     0.3160     4.3456 </r>
       <r>     4.8477     0.4327     4.3873 </r>
       <r>     4.9440     0.8350     4.4678 </r>
       <r>     5.0404     1.3059     4.5936 </r>
       <r>     5.1367     1.5208     4.7401 </r>
       <r>     5.2331     1.2843     4.8639 </r>
       <r>     5.3294     0.7610     4.9372 </r>
       <r>     5.4258     0.3126     4.9673 </r>
       <r>     5.5221     0.1180     4.9787 </r>
       <r>     5.6185     0.1416     4.9923 </r>
       <r>     5.7148     0.3098     5.0221 </r>
       <r>     5.8112     0.5642     5.0765 </r>
       <r>     5.9075     0.8826     5.1615 </r>
       <r>     6.0039     1.2418     5.2812 </r>
       <r>     6.1002     1.4966     5.4254 </r>
       <r>     6.1965     1.4689     5.5669 </r>
       <r>     6.2929     1.1560     5.6783 </r>
       <r>     6.3892     0.7310     5.7487 </r>
       <r>     6.4856     0.4308     5.7902 </r>
       <r>     6.5819     0.4495     5.8335 </r>
       <r>     6.6783     0.7955     5.9102 </r>
       <r>     6.7746     1.2112     6.0269 </r>
       <r>     6.8710     1.3791     6.1597 </r>
       <r>     6.9673     1.2487     6.2800 </r>
       <r>     7.0637     1.0546     6.3816 </r>
       <r>     7.1600     1.0161     6.4795 </r>
       <r>     7.2564     1.0512     6.5808 </r>
       <r>     7.3527     0.9241     6.6699 </r>
       <r>     7.4491     0.6708     6.7345 </r>
       <r>     7.5454     0.6108     6.7933 </r>
       <r>     7.6417     0.8783     6.8780 </r>
       <r>     7.7381     1.1490     6.9887 </r>
       <r>     7.8344     1.0497     7.0898 </r>
       <r>     7.9308     0.6957     7.1568 </r>
       <r>     8.0271     0.4418     7.1994 </r>
       <r>     8.1235     0.3803     7.2360 </r>
       <r>     8.2198     0.4536     7.2797 </r>
       <r>     8.3162     0.6792     7.3452 </r>
       <r>     8.4125     0.9579     7.4374 </r>
       <r>     8.5089     1.0032     7.5341 </r>
       <r>     8.6052     0.7259     7.6040 </r>
       <r>     8.7016     0.4036     7.6429 </r>
       <r>     8.7979     0.3429     7.6760 </r>
       <r>     8.8942     0.6022     7.7340 </r>
       <r>     8.9906     0.9691     7.8274 </r>
       <r>     9.0869     1.1258     7.9358 </r>
       <r>     9.1833     0.9894     8.0312 </r>
       <r>     9.2796     0.7550     8.1039 </r>
       <r>     9.3760     0.5783     8.1596 </r>
       <r>     9.4723     0.5058     8.2083 </r>
       <r>     9.5687     0.5587     8.2622 </r>
       <r>     9.6650     0.6639     8.3261 </r>
       <r>     9.7614     0.7138     8.3949 </r>
       <r>     9.8577     0.7223     8.4645 </r>
       <r>     9.9541     0.7503     8.5368 </r>
       <r>    10.0504     0.7641     8.6104 </r>
       <r>    10.1468     0.7401     8.6817 </r>
       <r>    10.2431     0.7595     8.7549 </r>
       <r>    10.3394     0.8690     8.8386 </r>
       <r>    10.4358     0.9758     8.9326 </r>
       <r>    10.5321     0.9446     9.0237 </r>
       <r>    10.6285     0.7798     9.0988 </r>
       <r>    10.7248     0.6038     9.1570 </r>
       <r>    10.8212     0.5613     9.2110 </r>
       <r>    10.9175     0.8007     9.2882 </r>
       <r>    11.0139     1.2389     9.4075 </r>
       <r>    11.1102     1.4795     9.5501 </r>
       <r>    11.2066     1.3568     9.6808 </r>
       <r>    11.3029     1.1721     9.7937 </r>
       <r>    11.3993     1.0936     9.8991 </r>
       <r>    11.4956     0.9423     9.9899 </r>
       <r>    11.5919     0.6606    10.0535 </r>
       <r>    11.6883     0.4295    10.0949 </r>
       <r>    11.7846     0.3770    10.1312 </r>
       <r>    11.8810     0.4455    10.1742 </r>
       <r>    11.9773     0.5494    10.2271 </r>
       <r>    12.0737     0.7356    10.2980 </r>
       <r>    12.1700     1.0381    10.3980 </r>
       <r>    12.2664     1.2992    10.5231 </r>
       <r>    12.3627     1.3175    10.6501 </r>
       <r>    12.4591     1.1255    10.7585 </r>
       <r>    12.5554     0.9763    10.8526 </r>
       <r>    12.6518     0.9789    10.9469 </r>
       <r>    12.7481     0.9694    11.0403 </r>
       <r>    12.8445     0.8396    11.1212 </r>
       <r>    12.9408     0.7205    11.1906 </r>
       <r>    13.0371     0.7779    11.2656 </r>
       <r>    13.1335     0.9680    11.3588 </r>
       <r>    13.2298     1.1095    11.4657 </r>
       <r>    13.3262     1.1770    11.5791 </r>
       <r>    13.4225     1.3070    11.7050 </r>
       <r>    13.5189     1.5105    11.8506 </r>
       <r>    13.6152     1.6207    12.0067 </r>
       <r>    13.7116     1.5932    12.1602 </r>
       <r>    13.8079     1.6476    12.3190 </r>
       <r>    13.9043     1.8868    12.5007 </r>
       <r>    14.0006     1.9974    12.6932 </r>
       <r>    14.0970     1.6888    12.8559 </r>
       <r>    14.1933     1.1792    12.9695 </r>
       <r>    14.2896     0.8712    13.0534 </r>
       <r>    14.3860     0.8101    13.1315 </r>
       <r>    14.4823     0.7534    13.2041 </r>
       <r>    14.5787     0.5502    13.2571 </r>
       <r>    14.6750     0.2873    13.2848 </r>
       <r>    14.7714     0.1216    13.2965 </r>
       <r>    14.8677     0.0959    13.3057 </r>
       <r>    14.9641     0.1468    13.3199 </r>
       <r>    15.0604     0.1819    13.3374 </r>
       <r>    15.1568     0.1701    13.3538 </r>
       <r>    15.2531     0.2010    13.3732 </r>
       <r>    15.3495     0.3973    13.4114 </r>
       <r>    15.4458     0.7298    13.4817 </r>
       <r>    15.5422     0.9721    13.5754 </r>
       <r>    15.6385     0.9617    13.6681 </r>
       <r>    15.7348     0.8427    13.7493 </r>
       <r>    15.8312     0.8514    13.8313 </r>
       <r>    15.9275     0.9954    13.9272 </r>
       <r>    16.0239     1.2127    14.0440 </r>
       <r>    16.1202     1.5466    14.1930 </r>
       <r>    16.2166     1.8441    14.3707 </r>
       <r>    16.3129     1.7613    14.5404 </r>
       <r>    16.4093     1.2667    14.6624 </r>
       <r>    16.5056     0.6917    14.7291 </r>
       <r>    16.6020     0.3027    14.7582 </r>
       <r>    16.6983     0.1248    14.7703 </r>
       <r>    16.7947     0.0685    14.7769 </r>
       <r>    16.8910     0.0583    14.7825 </r>
       <r>    16.9873     0.0891    14.7911 </r>
       <r>    17.0837     0.1932    14.8097 </r>
       <r>    17.1800     0.3408    14.8425 </r>
       <r>    17.2764     0.4270    14.8837 </r>
       <r>    17.3727     0.4279    14.9249 </r>
       <r>    17.4691     0.4624    14.9694 </r>
       <r>    17.5654     0.5915    15.0264 </r>
       <r>    17.6618     0.7044    15.0943 </r>
       <r>    17.7581     0.7075    15.1624 </r>
       <r>    17.8545     0.6603    15.2261 </r>
       <r>    17.9508     0.6718    15.2908 </r>
       <r>    18.0472     0.7513    15.3632 </r>
       <r>    18.1435     0.7630    15.4367 </r>
       <r>    18.2399     0.6396    15.4983 </r>
       <r>    18.3362     0.5217    15.5486 </r>
       <r>    18.4325     0.4921    15.5960 </r>
       <r>    18.5289     0.4383    15.6382 </r>
       <r>    18.6252     0.3055    15.6677 </r>
       <r>    18.7216     0.2087    15.6878 </r>
       <r>    18.8179     0.2333    15.7102 </r>
       <r>    18.9143     0.3139    15.7405 </r>
       <r>    19.0106     0.3374    15.7730 </r>
       <r>    19.1070     0.2897    15.8009 </r>
       <r>    19.2033     0.2445    15.8245 </r>
       <r>    19.2997     0.2315    15.8468 </r>
       <r>    19.3960     0.2237    15.8683 </r>
       <r>    19.4924     0.2178    15.8893 </r>
       <r>    19.5887     0.2066    15.9092 </r>
       <r>    19.6850     0.1578    15.9244 </r>
       <r>    19.7814     0.0838    15.9325 </r>
       <r>    19.8777     0.0303    15.9354 </r>
       <r>    19.9741     0.0143    15.9368 </r>
       <r>    20.0704     0.0340    15.9400 </r>
       <r>    20.1668     0.0901    15.9487 </r>
       <r>    20.2631     0.1567    15.9638 </r>
       <r>    20.3595     0.1745    15.9806 </r>
       <r>    20.4558     0.1244    15.9926 </r>
       <r>    20.5522     0.0567    15.9981 </r>
       <r>    20.6485     0.0165    15.9997 </r>
       <r>    20.7449     0.0031    16.0000 </r>
       <r>    20.8412     0.0004    16.0000 </r>
       <r>    20.9376     0.0000    16.0000 </r>
       <r>    21.0339     0.0000    16.0000 </r>
       <r>    21.1302     0.0000    16.0000 </r>
       <r>    21.2266     0.0000    16.0000 </r>
       <r>    21.3229     0.0000    16.0000 </r>
       <r>    21.4193     0.0000    16.0000 </r>
       <r>    21.5156     0.0000    16.0000 </r>
       <r>    21.6120     0.0000    16.0000 </r>
       <r>    21.7083     0.0000    16.0000 </r>
       <r>    21.8047     0.0000    16.0000 </r>
       <r>    21.9010     0.0000    16.0000 </r>
       <r>    21.9974     0.0000    16.0000 </r>
       <r>    22.0937     0.0000    16.0000 </r>
       <r>    22.1901     0.0000    16.0000 </r>
       <r>    22.2864     0.0000    16.0000 </r>
      </set>
     </set>
    </array>
   </total>
  </dos>
 </calculation>
 <structure name="finalpos" >
  <crystal>
   <varray name="basis" >
    <v>      -2.45000000       2.45000000       1.27400000 </v>
    <v>       2.45000000      -2.45000000       1.27400000 </v>
    <v>       2.45000000       2.45000000      -1.27400000 </v>
   </varray>
   <i name="volume">     30.58874000 </i>
   <varray name="rec_basis" >
    <v>       0.00000000       0.20408163       0.39246468 </v>
    <v>       0.20408163       0.00000000       0.39246468 </v>
    <v>       0.20408163       0.20408163      -0.00000000 </v>
   </varray>
  </crystal>
  <varray name="positions" >
   <v>       0.25000000       0.75000000       0.50000000 </v>
   <v>       0.00000000       0.00000000       0.00000000 </v>
  </varray>
 </structure>
</modeling>
