       N       E                     dE             d eps       ncg     rms          rms(c)
DAV:   1     0.106794077346E+01    0.10679E+01   -0.23141E+03   920   0.453E+02
DAV:   2    -0.108833849296E+02   -0.11951E+02   -0.11496E+02  1440   0.634E+01
DAV:   3    -0.110022096759E+02   -0.11882E+00   -0.11882E+00  1080   0.812E+00
DAV:   4    -0.110026453830E+02   -0.43571E-03   -0.43571E-03  1536   0.522E-01
DAV:   5    -0.110026454560E+02   -0.73065E-07   -0.72643E-07  1072   0.649E-03    0.300E+00
DAV:   6    -0.108784467023E+02    0.12420E+00   -0.81672E-02  1064   0.149E+00    0.178E+00
DAV:   7    -0.108220247839E+02    0.56422E-01   -0.14984E-01  1120   0.214E+00    0.153E-01
DAV:   8    -0.108233186807E+02   -0.12939E-02   -0.39328E-03  1000   0.464E-01    0.247E-02
DAV:   9    -0.108234100605E+02   -0.91380E-04   -0.90885E-05   680   0.760E-02
   1 F= -.10823410E+02 E0= -.10823352E+02  d E =-.108234E+02
