    2    2   15    1
  0.1529437E+02  0.3691622E-09  0.3691622E-09  0.3691622E-09  0.5000000E-15
  1.000000000000000E-004
  CAR 
 unknown system                          
      8     40      8
 
  0.0000000E+00  0.0000000E+00  0.0000000E+00  0.2915452E-02
    1       -4.614255   1.000000
    2        6.190470   1.000000
    3        6.299389   1.000000
    4        6.299413   1.000000
    5       10.540306   0.000000
    6       16.871578   0.000000
    7       17.370332   0.000000
    8       17.370356   0.000000
 
  0.1428571E+00 -0.1404355E-16  0.1404355E-16  0.2332362E-01
    1       -4.038537   1.000000
    2        5.161846   1.000000
    3        6.235102   1.000000
    4        8.321013   0.999999
    5       11.678128   0.000000
    6       14.539449   0.000000
    7       14.920872   0.000000
    8       16.627558   0.000000
 
  0.2857143E+00 -0.2600542E-16  0.2600542E-16  0.2332362E-01
    1       -2.322910   1.000000
    2        5.143321   1.000000
    3        6.535759   1.000000
    4        8.965643   0.585486
    5       11.214495   0.000000
    6       12.159000   0.000000
    7       13.521765   0.000000
    8       14.406885   0.000000
 
  0.4285714E+00 -0.1733103E-16  0.1733103E-16  0.2332362E-01
    1        0.487561   1.000000
    2        4.359196   1.000000
    3        6.227826   1.000000
    4        7.463104   1.000000
    5        8.453700   0.999937
    6       10.953048   0.000000
    7       13.581405   0.000000
    8       14.493378   0.000000
 
  0.1428571E+00  0.1428571E+00  0.2808709E-16  0.2332362E-01
    1       -2.562843   1.000000
    2        5.433019   1.000000
    3        7.939587   1.000000
    4        9.075147   0.288297
    5       10.679860   0.000000
    6       11.151105   0.000000
    7       13.616285   0.000000
    8       14.415711   0.000000
 
  0.2857143E+00  0.1428571E+00  0.4508661E-16  0.4664723E-01
    1        0.020233   1.000000
    2        5.451709   1.000000
    3        6.323670   1.000000
    4        6.889031   1.000000
    5        9.425968   0.001187
    6       11.549696   0.000000
    7       12.367458   0.000000
    8       13.667468   0.000000
 
  0.4285714E+00  0.1428571E+00  0.7177282E-16  0.4664723E-01
    1        1.409683   1.000000
    2        3.653325   1.000000
    3        4.647909   1.000000
    4        7.533044   1.000000
    5        8.843814   0.859350
    6       11.530418   0.000000
    7       12.647014   0.000000
    8       16.124870   0.000000
 
 -0.4285714E+00  0.1428571E+00 -0.1801182E-16  0.4664723E-01
    1       -1.605632   1.000000
    2        3.220793   1.000000
    3        6.719105   1.000000
    4        8.284083   1.000000
    5       10.675820   0.000000
    6       12.548980   0.000000
    7       13.281048   0.000000
    8       15.291234   0.000000
 
 -0.2857143E+00  0.1428571E+00 -0.1576439E-16  0.4664723E-01
    1       -3.554587   1.000000
    2        2.961752   1.000000
    3        6.391758   1.000000
    4        9.671915   0.000001
    5       12.447401   0.000000
    6       13.758824   0.000000
    7       14.312708   0.000000
    8       16.018143   0.000000
 
 -0.1428571E+00  0.1428571E+00 -0.3929902E-17  0.1166181E-01
    1       -4.371521   1.000000
    2        3.753141   1.000000
    3        6.524722   1.000000
    4        7.928018   1.000000
    5       11.986721   0.000000
    6       14.302616   0.000000
    7       15.873786   0.000000
    8       19.438684   0.000000
 
  0.2857143E+00  0.2857143E+00  0.5201085E-16  0.2332362E-01
    1        2.647647   1.000000
    2        2.816517   1.000000
    3        3.644276   1.000000
    4        7.674224   1.000000
    5        9.328924   0.009315
    6       10.477915   0.000000
    7       14.617632   0.000000
    8       15.298883   0.000000
 
  0.4285714E+00  0.2857143E+00  0.7869706E-16  0.4664723E-01
    1       -0.421137   1.000000
    2        1.209053   1.000000
    3        7.590316   1.000000
    4        8.009089   1.000000
    5        9.275105   0.024289
    6       11.796727   0.000000
    7       14.387212   0.000000
    8       15.937284   0.000000
 
 -0.4285714E+00  0.2857143E+00 -0.2288370E-16  0.4664723E-01
    1       -2.591828   1.000000
    2        0.710406   1.000000
    3        7.270101   1.000000
    4       10.334570   0.000000
    5       10.764909   0.000000
    6       13.167058   0.000000
    7       14.763785   0.000000
    8       15.186301   0.000000
 
 -0.2857143E+00  0.2857143E+00 -0.7859804E-17  0.1166181E-01
    1       -3.644762   1.000000
    2        1.312535   1.000000
    3        7.200185   1.000000
    4        8.987640   0.524083
    5       11.892386   0.000000
    6       13.754410   0.000000
    7       15.229928   0.000000
    8       19.038323   0.000000
 
  0.4285714E+00  0.4285714E+00  0.1053833E-15  0.2332362E-01
    1       -1.162500   1.000000
    2       -1.160817   1.000000
    3        8.583974   0.998220
    4        8.627354   0.995447
    5       11.714674   0.000000
    6       12.292722   0.000000
    7       14.154306   0.000000
    8       15.038668   0.000000
 
 -0.4285714E+00  0.4285714E+00  0.4248060E-17  0.1166181E-01
    1       -2.442170   1.000000
    2       -0.778749   1.000000
    3        8.324408   0.999999
    4        9.892621   0.000000
    5       10.229806   0.000000
    6       11.825201   0.000000
    7       18.803424   0.000000
    8       18.861123   0.000000
 
  0.1428571E+00  0.1428571E+00  0.1428571E+00  0.2332362E-01
    1       -1.843080   1.000000
    2        3.051909   1.000000
    3        8.360097   0.999997
    4        9.196876   0.077933
    5       10.275510   0.000000
    6       11.177803   0.000000
    7       14.082305   0.000000
    8       14.813167   0.000000
 
  0.2857143E+00  0.1428571E+00  0.1428571E+00  0.4664723E-01
    1        0.958114   1.000000
    2        4.111070   1.000000
    3        4.910482   1.000000
    4        6.347132   1.000000
    5       10.611256   0.000000
    6       13.173079   0.000000
    7       13.887637   0.000000
    8       14.238409   0.000000
 
 -0.1428571E+00  0.1428571E+00  0.1428571E+00  0.1166181E-01
    1       -4.129146   1.000000
    2        3.450562   1.000000
    3        4.927015   1.000000
    4        9.830769   0.000000
    5       12.219394   0.000000
    6       12.845972   0.000000
    7       17.769717   0.000000
    8       17.983068   0.000000
 
  0.2857143E+00  0.2857143E+00  0.1428571E+00  0.2332362E-01
    1        2.327971   1.000000
    2        2.358212   1.000000
    3        4.658302   1.000000
    4        6.150449   1.000000
    5       11.682245   0.000000
    6       12.493567   0.000000
    7       14.463508   0.000000
    8       15.457245   0.000000
 
  0.4285714E+00  0.2857143E+00  0.1428571E+00  0.2332362E-01
    1       -0.652737   1.000000
    2        0.990825   1.000000
    3        8.695339   0.983302
    4        8.913312   0.721057
    5       10.666799   0.000000
    6       11.689183   0.000000
    7       12.554718   0.000000
    8       13.602424   0.000000
 
 -0.2857143E+00  0.2857143E+00  0.1428571E+00  0.2332362E-01
    1       -3.404959   1.000000
    2        1.483401   1.000000
    3        5.122610   1.000000
    4        9.823503   0.000000
    5       11.334640   0.000000
    6       15.630933   0.000000
    7       15.975514   0.000000
    8       18.614962   0.000000
 
 -0.1428571E+00  0.2857143E+00  0.1428571E+00  0.2332362E-01
    1       -3.073936   1.000000
    2        2.818786   1.000000
    3        4.447697   1.000000
    4       10.086692   0.000000
    5       11.699854   0.000000
    6       13.741767   0.000000
    7       15.249802   0.000000
    8       16.940003   0.000000
 
 -0.4285714E+00  0.4285714E+00  0.1428571E+00  0.2332362E-01
    1       -2.208114   1.000000
    2       -0.558634   1.000000
    3        6.216398   1.000000
    4        7.800989   1.000000
    5       12.627461   0.000000
    6       14.164745   0.000000
    7       18.043411   0.000000
    8       18.191610   0.000000
 
 -0.2857143E+00  0.4285714E+00  0.1428571E+00  0.4664723E-01
    1       -2.119433   1.000000
    2        1.098270   1.000000
    3        4.799188   1.000000
    4        7.897854   1.000000
    5       11.912706   0.000000
    6       14.513188   0.000000
    7       16.794269   0.000000
    8       17.422871   0.000000
 
 -0.1428571E+00  0.4285714E+00  0.1428571E+00  0.2332362E-01
    1       -0.897591   1.000000
    2        3.285491   1.000000
    3        4.961560   1.000000
    4        7.442112   1.000000
    5        8.974635   0.560551
    6       13.397072   0.000000
    7       14.967933   0.000000
    8       16.051669   0.000000
 
 -0.4285714E+00 -0.4285714E+00  0.1428571E+00  0.2332362E-01
    1       -0.711419   1.000000
    2       -0.706264   1.000000
    3        6.101624   1.000000
    4        6.106810   1.000000
    5       11.814709   0.000000
    6       15.473654   0.000000
    7       16.251499   0.000000
    8       16.760034   0.000000
 
 -0.2857143E+00 -0.4285714E+00  0.1428571E+00  0.4664723E-01
    1        0.264228   1.000000
    2        1.822351   1.000000
    3        5.493165   1.000000
    4        6.818380   1.000000
    5        7.252386   1.000000
    6       13.535592   0.000000
    7       16.588017   0.000000
    8       17.572536   0.000000
 
 -0.1428571E+00 -0.4285714E+00  0.1428571E+00  0.2332362E-01
    1        2.247805   1.000000
    2        3.065269   1.000000
    3        4.935192   1.000000
    4        6.443544   1.000000
    5        8.568027   0.998767
    6       11.139362   0.000000
    7       12.316559   0.000000
    8       16.478369   0.000000
 
 -0.2857143E+00 -0.2857143E+00  0.1428571E+00  0.2332362E-01
    1        2.610545   1.000000
    2        3.662857   1.000000
    3        3.830159   1.000000
    4        7.100455   1.000000
    5        7.250203   1.000000
    6       11.179015   0.000000
    7       13.892341   0.000000
    8       14.762553   0.000000
 
 -0.1428571E+00 -0.2857143E+00  0.1428571E+00  0.2332362E-01
    1       -0.452227   1.000000
    2        6.503965   1.000000
    3        7.354017   1.000000
    4        8.223147   1.000000
    5        8.306076   0.999999
    6       10.752324   0.000000
    7       11.174001   0.000000
    8       12.480820   0.000000
 
 -0.1428571E+00 -0.1428571E+00  0.1428571E+00  0.5830904E-02
    1       -2.803530   1.000000
    2        7.767078   1.000000
    3        7.767100   1.000000
    4        7.771015   1.000000
    5       11.081812   0.000000
    6       11.514551   0.000000
    7       12.360517   0.000000
    8       13.742184   0.000000
 
 -0.2857143E+00  0.2857143E+00  0.2857143E+00  0.1166181E-01
    1       -2.690134   1.000000
    2        1.543091   1.000000
    3        3.280520   1.000000
    4        7.399101   1.000000
    5       13.936109   0.000000
    6       17.045321   0.000000
    7       17.262249   0.000000
    8       18.100814   0.000000
 
 -0.4285714E+00  0.4285714E+00  0.2857143E+00  0.2332362E-01
    1       -1.515814   1.000000
    2        0.060352   1.000000
    3        3.828594   1.000000
    4        5.365515   1.000000
    5       15.444991   0.000000
    6       16.385659   0.000000
    7       17.970396   0.000000
    8       18.533532   0.000000
 
 -0.2857143E+00  0.4285714E+00  0.2857143E+00  0.2332362E-01
    1       -1.188171   1.000000
    2        1.383926   1.000000
    3        3.158603   1.000000
    4        5.673186   1.000000
    5       11.492160   0.000000
    6       17.188349   0.000000
    7       18.442739   0.000000
    8       19.155308   0.000000
 
 -0.4285714E+00 -0.4285714E+00  0.2857143E+00  0.2332362E-01
    1        0.141256   1.000000
    2        0.150656   1.000000
    3        3.918475   1.000000
    4        3.920662   1.000000
    5       11.308980   0.000000
    6       18.586478   0.000000
    7       18.758787   0.000000
    8       19.425119   0.000000
 
 -0.2857143E+00 -0.4285714E+00  0.2857143E+00  0.2332362E-01
    1        1.348840   1.000000
    2        2.337728   1.000000
    3        4.100249   1.000000
    4        5.060524   1.000000
    5        6.633994   1.000000
    6       15.382011   0.000000
    7       16.773766   0.000000
    8       18.113108   0.000000
 
 -0.2857143E+00 -0.2857143E+00  0.2857143E+00  0.5830904E-02
    1        2.436887   1.000000
    2        4.414804   1.000000
    3        4.549720   1.000000
    4        6.049621   1.000000
    5        6.049632   1.000000
    6       13.017636   0.000000
    7       13.650856   0.000000
    8       13.650932   0.000000
 
 -0.4285714E+00  0.4285714E+00  0.4285714E+00  0.1166181E-01
    1       -0.419903   1.000000
    2        0.576113   1.000000
    3        2.397160   1.000000
    4        3.380648   1.000000
    5       16.243713   0.000000
    6       16.384681   0.000000
    7       19.698551   0.000000
    8       20.630010   0.000000
 
 -0.4285714E+00 -0.4285714E+00  0.4285714E+00  0.5830904E-02
    1        0.893987   1.000000
    2        0.908393   1.000000
    3        2.714385   1.000000
    4        2.714386   1.000000
    5       11.119525   0.000000
    6       19.739930   0.000000
    7       20.702179   0.000000
    8       20.702191   0.000000
