unknown system                          
   1.00000000000000     
    -2.381140    2.381140    1.345315
     2.381140   -2.381140    1.345315
     2.381140    2.381140   -1.345315
   Si
     2
Direct
  0.250000  0.750000  0.500000
 -0.000000  0.000000 -0.000000
 
   24   24   24
 -.55829359151E+01 -.36301225810E+01 0.12739832497E+01 0.68418763419E+01 0.10784342057E+02
 0.12012593975E+02 0.10973466957E+02 0.90172385893E+01 0.71316882178E+01 0.56269721483E+01
 0.45917484109E+01 0.40035428683E+01 0.38146239995E+01 0.40035989592E+01 0.45917551444E+01
 0.56269358206E+01 0.71317028598E+01 0.90172701023E+01 0.10973416113E+02 0.12012532433E+02
 0.10784408346E+02 0.68419847013E+01 0.12739382978E+01 -.36302628766E+01 -.36302628766E+01
 -.45081318757E+01 -.17192350585E+01 0.33507869428E+01 0.83611757506E+01 0.11358424994E+02
 0.11740005542E+02 0.10286197975E+02 0.83285079177E+01 0.65673676995E+01 0.52228822460E+01
 0.43410262954E+01 0.38856979064E+01 0.38145765379E+01 0.41193408525E+01 0.48324941175E+01
 0.60022981014E+01 0.76320819469E+01 0.95903869005E+01 0.11466183864E+02 0.12092797289E+02
 0.10269518609E+02 0.59237513574E+01 0.50331006846E+00 0.12739382978E+01 -.17193583361E+01
 -.15870065425E+01 0.15602234451E+01 0.61192225913E+01 0.99754844536E+01 0.11700698310E+02
 0.11197061395E+02 0.94575383911E+01 0.75786566333E+01 0.59842623238E+01 0.48210546876E+01
 0.40985159611E+01 0.37739915470E+01 0.38144718975E+01 0.42245839469E+01 0.50444910979E+01
 0.63177311194E+01 0.80257111087E+01 0.10001189011E+02 0.11754069881E+02 0.12093223811E+02
 0.10064970032E+02 0.59237513574E+01 0.68419847013E+01 0.33507511774E+01 0.15601322093E+01
 0.23832509654E+01 0.53245953958E+01 0.88155480280E+01 0.11186817365E+02 0.11606527180E+02
 0.10393461894E+02 0.85649989456E+01 0.68241950294E+01 0.54249772667E+01 0.44492346023E+01
 0.38802523482E+01 0.36758042410E+01 0.38143421635E+01 0.43114461800E+01 0.52103661176E+01
 0.65455733242E+01 0.82773971559E+01 0.10215550963E+02 0.11847669272E+02 0.12093223811E+02
 0.10269518609E+02 0.10784408346E+02 0.83612563841E+01 0.61192014267E+01 0.53245469155E+01
 0.63987847198E+01 0.86613539775E+01 0.10795178302E+02 0.11683851495E+02 0.11040160400E+02
 0.94384536789E+01 0.76753973744E+01 0.61180890033E+01 0.49257933127E+01 0.41298089095E+01
 0.36989752296E+01 0.35971122188E+01 0.38142426059E+01 0.43733636246E+01 0.53160379977E+01
 0.66650430959E+01 0.83639720185E+01 0.10215550963E+02 0.11754069881E+02 0.12092797289E+02
 0.12012532433E+02 0.11358463910E+02 0.99755290449E+01 0.88155450457E+01 0.86613522406E+01
 0.95866953863E+01 0.10921573041E+02 0.11729102079E+02 0.11431059961E+02 0.10141854735E+02
 0.84705581388E+01 0.68532301829E+01 0.55052422242E+01 0.45144155539E+01 0.38789345514E+01
 0.35638590251E+01 0.35423497566E+01 0.38141969310E+01 0.44055571733E+01 0.53523122943E+01
 0.66650430959E+01 0.82773971559E+01 0.10001189011E+02 0.11466183864E+02 0.10973416113E+02
 0.11739967376E+02 0.11700704150E+02 0.11186823522E+02 0.10795193754E+02 0.10921613690E+02
 0.11457754864E+02 0.11882524113E+02 0.11662028095E+02 0.10645252058E+02 0.91540522616E+01
 0.75788224924E+01 0.61555505321E+01 0.50198550849E+01 0.42097856199E+01 0.37070342818E+01
 0.34807434523E+01 0.35142908404E+01 0.38141738095E+01 0.44055571733E+01 0.53160379977E+01
 0.65455733242E+01 0.80257111087E+01 0.95903869005E+01 0.90172701023E+01 0.10286188885E+02
 0.11197046889E+02 0.11606500399E+02 0.11683823228E+02 0.11729131896E+02 0.11882594776E+02
 0.11991153611E+02 0.11740208023E+02 0.10933034359E+02 0.96807009424E+01 0.82445837509E+01
 0.68395435083E+01 0.56271645974E+01 0.46851757569E+01 0.40232667768E+01 0.36198465528E+01
 0.34527092396E+01 0.35142908404E+01 0.38141969310E+01 0.43733636246E+01 0.52103661176E+01
 0.63177311194E+01 0.76320819469E+01 0.71317028598E+01 0.83285334641E+01 0.94575687837E+01
 0.10393468343E+02 0.11040108720E+02 0.11431006705E+02 0.11662064288E+02 0.11740291246E+02
 0.11549504375E+02 0.10965427269E+02 0.10005749689E+02 0.88008383931E+01 0.75163072740E+01
 0.63133411052E+01 0.52987216092E+01 0.45147890507E+01 0.39605237204E+01 0.36198465528E+01
 0.34807434523E+01 0.35423497566E+01 0.38142426059E+01 0.43114461800E+01 0.50444910979E+01
 0.60022981014E+01 0.56269358206E+01 0.65673438796E+01 0.75786760114E+01 0.85650585995E+01
 0.94384770396E+01 0.10141792004E+02 0.10645186222E+02 0.10933067159E+02 0.10965505575E+02
 0.10686978666E+02 0.10081465910E+02 0.91953194730E+01 0.81384001409E+01 0.70476755142E+01
 0.60404357397E+01 0.51874092540E+01 0.45147890507E+01 0.40232667768E+01 0.37070342818E+01
 0.35638590251E+01 0.35971122188E+01 0.38143421635E+01 0.42245839469E+01 0.48324941175E+01
 0.45917551444E+01 0.52228397913E+01 0.59842106623E+01 0.68242054814E+01 0.76754703054E+01
 0.84705944672E+01 0.91539947421E+01 0.96806345073E+01 0.10005770854E+02 0.10081527320E+02
 0.98715660667E+01 0.93765781462E+01 0.86493559630E+01 0.77842255221E+01 0.68862182826E+01
 0.60404357397E+01 0.52987216092E+01 0.46851757569E+01 0.42097856199E+01 0.38789345514E+01
 0.36989752296E+01 0.36758042410E+01 0.38144718975E+01 0.41193408525E+01 0.40035989592E+01
 0.43410561316E+01 0.48210156600E+01 0.54249116064E+01 0.61180852944E+01 0.68532989265E+01
 0.75788686460E+01 0.82445448349E+01 0.88007796039E+01 0.91953254207E+01 0.93766199374E+01
 0.93085356227E+01 0.89889178005E+01 0.84573509759E+01 0.77842255221E+01 0.70476755142E+01
 0.63133411052E+01 0.56271645974E+01 0.50198550849E+01 0.45144155539E+01 0.41298089095E+01
 0.38802523482E+01 0.37739915470E+01 0.38145765379E+01 0.38146239995E+01 0.38857531485E+01
 0.40985609054E+01 0.44492112811E+01 0.49257270095E+01 0.55052187046E+01 0.61556013763E+01
 0.68395970621E+01 0.75162926648E+01 0.81383514606E+01 0.86493492689E+01 0.89889467835E+01
 0.91084363559E+01 0.89889178005E+01 0.86493559630E+01 0.81384001409E+01 0.75163072740E+01
 0.68395435083E+01 0.61555505321E+01 0.55052422242E+01 0.49257933127E+01 0.44492346023E+01
 0.40985159611E+01 0.38856979064E+01 0.40035428683E+01 0.38145581221E+01 0.37740303687E+01
 0.38803062359E+01 0.41298124184E+01 0.45143582112E+01 0.50198088442E+01 0.56271919137E+01
 0.63133998407E+01 0.70476810479E+01 0.77841836715E+01 0.84573393956E+01 0.89889467835E+01
 0.93085356227E+01 0.93765781462E+01 0.91953194730E+01 0.88008383931E+01 0.82445837509E+01
 0.75788224924E+01 0.68532301829E+01 0.61180890033E+01 0.54249772667E+01 0.48210546876E+01
 0.43410262954E+01 0.45917484109E+01 0.41192981728E+01 0.38144331757E+01 0.36758142058E+01
 0.36990343284E+01 0.38789704154E+01 0.42097410987E+01 0.46851092119E+01 0.52987295002E+01
 0.60404972074E+01 0.68862315901E+01 0.77841836715E+01 0.86493492689E+01 0.93766199374E+01
 0.98715660667E+01 0.10081465910E+02 0.10005749689E+02 0.96807009424E+01 0.91540522616E+01
 0.84705581388E+01 0.76753973744E+01 0.68241950294E+01 0.59842623238E+01 0.52228822460E+01
 0.56269721483E+01 0.48325181688E+01 0.42245640801E+01 0.38142813333E+01 0.35970880267E+01
 0.35639213806E+01 0.37070993665E+01 0.40232329558E+01 0.45147104593E+01 0.51874096698E+01
 0.60404972074E+01 0.70476810479E+01 0.81383514606E+01 0.91953254207E+01 0.10081527320E+02
 0.10686978666E+02 0.10965427269E+02 0.10933034359E+02 0.10645252058E+02 0.10141854735E+02
 0.94384536789E+01 0.85649989456E+01 0.75786566333E+01 0.65673676995E+01 0.71316882178E+01
 0.60023234431E+01 0.50445501965E+01 0.43114518194E+01 0.38141606806E+01 0.35422953639E+01
 0.34808078024E+01 0.36199289828E+01 0.39604940152E+01 0.45147104593E+01 0.52987295002E+01
 0.63133998407E+01 0.75162926648E+01 0.88007796039E+01 0.10005770854E+02 0.10965505575E+02
 0.11549504375E+02 0.11740208023E+02 0.11662028095E+02 0.11431059961E+02 0.11040160400E+02
 0.10393461894E+02 0.94575383911E+01 0.83285079177E+01 0.90172385893E+01 0.76320246039E+01
 0.63177451501E+01 0.52104583093E+01 0.43733907334E+01 0.38140995005E+01 0.35142187789E+01
 0.34527742915E+01 0.36199289828E+01 0.40232329558E+01 0.46851092119E+01 0.56271919137E+01
 0.68395970621E+01 0.82445448349E+01 0.96806345073E+01 0.10933067159E+02 0.11740291246E+02
 0.11991153611E+02 0.11882524113E+02 0.11729102079E+02 0.11683851495E+02 0.11606527180E+02
 0.11197061395E+02 0.10286197975E+02 0.10973466957E+02 0.95903486526E+01 0.80256149260E+01
 0.65455787599E+01 0.53161540257E+01 0.44055964450E+01 0.38140706491E+01 0.35142187789E+01
 0.34808078024E+01 0.37070993665E+01 0.42097410987E+01 0.50198088442E+01 0.61556013763E+01
 0.75788686460E+01 0.91539947421E+01 0.10645186222E+02 0.11662064288E+02 0.11882594776E+02
 0.11457754864E+02 0.10921573041E+02 0.10795178302E+02 0.11186817365E+02 0.11700698310E+02
 0.11740005542E+02 0.12012593975E+02 0.11466270835E+02 0.10001144304E+02 0.82772738551E+01
 0.66650440442E+01 0.53524370189E+01 0.44055964450E+01 0.38140995005E+01 0.35422953639E+01
 0.35639213806E+01 0.38789704154E+01 0.45143582112E+01 0.55052187046E+01 0.68532989265E+01
 0.84705944672E+01 0.10141792004E+02 0.11431006705E+02 0.11729131896E+02 0.10921613690E+02
 0.95866953863E+01 0.86613539775E+01 0.88155480280E+01 0.99754844536E+01 0.11358424994E+02
 0.10784342057E+02 0.12092877847E+02 0.11754181096E+02 0.10215502202E+02 0.83638389910E+01
 0.66650440442E+01 0.53161540257E+01 0.43733907334E+01 0.38141606806E+01 0.35970880267E+01
 0.36990343284E+01 0.41298124184E+01 0.49257270095E+01 0.61180852944E+01 0.76754703054E+01
 0.94384770396E+01 0.11040108720E+02 0.11683823228E+02 0.10795193754E+02 0.86613522406E+01
 0.63987847198E+01 0.53245953958E+01 0.61192225913E+01 0.83611757506E+01 0.68418763419E+01
 0.10269434631E+02 0.12093315089E+02 0.11847788996E+02 0.10215502202E+02 0.82772738551E+01
 0.65455787599E+01 0.52104583093E+01 0.43114518194E+01 0.38142813333E+01 0.36758142058E+01
 0.38803062359E+01 0.44492112811E+01 0.54249116064E+01 0.68242054814E+01 0.85650585995E+01
 0.10393468343E+02 0.11606500399E+02 0.11186823522E+02 0.88155450457E+01 0.53245469155E+01
 0.23832509654E+01 0.15602234451E+01 0.33507869428E+01 0.12739832497E+01 0.59236279838E+01
 0.10064879980E+02 0.12093315089E+02 0.11754181096E+02 0.10001144304E+02 0.80256149260E+01
 0.63177451501E+01 0.50445501965E+01 0.42245640801E+01 0.38144331757E+01 0.37740303687E+01
 0.40985609054E+01 0.48210156600E+01 0.59842106623E+01 0.75786760114E+01 0.94575687837E+01
 0.11197046889E+02 0.11700704150E+02 0.99755290449E+01 0.61192014267E+01 0.15601322093E+01
 -.15870065425E+01 -.17192350585E+01 -.36301225810E+01 0.50335812403E+00 0.59236279838E+01
 0.10269434631E+02 0.12092877847E+02 0.11466270835E+02 0.95903486526E+01 0.76320246039E+01
 0.60023234431E+01 0.48325181688E+01 0.41192981728E+01 0.38145581221E+01 0.38857531485E+01
 0.43410561316E+01 0.52228397913E+01 0.65673438796E+01 0.83285334641E+01 0.10286188885E+02
 0.11739967376E+02 0.11358463910E+02 0.83612563841E+01 0.33507511774E+01 -.17193583361E+01
 -.45081318757E+01 -.36298240385E+01 -.22892957292E+01 0.18967182089E+01 0.69236319097E+01
 0.10618403958E+02 0.11825412143E+02 0.10840086317E+02 0.89026440351E+01 0.70059161968E+01
 0.54712523811E+01 0.43953153877E+01 0.37595823385E+01 0.35144044127E+01 0.36322402179E+01
 0.41271666591E+01 0.50441218563E+01 0.64153889766E+01 0.81838327748E+01 0.10114047523E+02
 0.11450580372E+02 0.10908433633E+02 0.78657177408E+01 0.30795909109E+01 -.14752444257E+01
 -.22894508747E+01 -.36298209589E+01 -.14750957573E+01 0.30796473374E+01 0.78656249751E+01
 0.10908371933E+02 0.11450628069E+02 0.10114086312E+02 0.81838052183E+01 0.64153780803E+01
 0.50441512920E+01 0.41271614283E+01 0.36322006256E+01 0.35144072453E+01 0.37596168503E+01
 0.43953135811E+01 0.54712434422E+01 0.70059558157E+01 0.89026607295E+01 0.10840009219E+02
 0.11825357925E+02 0.10618497493E+02 0.69237434868E+01 0.18966510263E+01 0.20795966100E+01
 -.12767484359E+01 -.17190170789E+01 0.91358434739E+00 0.52347853149E+01 0.91699524023E+01
 0.11157329870E+02 0.10905194745E+02 0.92822420066E+01 0.74289498876E+01 0.58267265974E+01
 0.46397637122E+01 0.38892287597E+01 0.35354284441E+01 0.35424003722E+01 0.39100583130E+01
 0.46766246934E+01 0.58915655533E+01 0.75550523781E+01 0.95326008274E+01 0.11418032833E+02
 0.12105114258E+02 0.10529635213E+02 0.67215756557E+01 0.73814293900E+01 0.36007177271E+01
 0.12805055150E+01 0.15603378066E+01 0.41868582353E+01 0.77024626003E+01 0.10361323588E+02
 0.11135569549E+02 0.10162998393E+02 0.84120778054E+01 0.66884569001E+01 0.52785229129E+01
 0.42830698366E+01 0.36954681684E+01 0.34749713191E+01 0.35970478127E+01 0.40744011689E+01
 0.49517517095E+01 0.62730366950E+01 0.80179738637E+01 0.10022168379E+02 0.11828029205E+02
 0.12356429986E+02 0.10780732830E+02 0.11335635477E+02 0.87140944431E+01 0.60180647552E+01
 0.46700485577E+01 0.53245786486E+01 0.74723193659E+01 0.98036577581E+01 0.11052390845E+02
 0.10729536173E+02 0.92810852597E+01 0.75603626307E+01 0.60074317396E+01 0.48024751862E+01
 0.39934265227E+01 0.35561576759E+01 0.34543912401E+01 0.36756111703E+01 0.42421932098E+01
 0.52002355580E+01 0.65837865105E+01 0.83531974906E+01 0.10326431883E+02 0.12051539862E+02
 0.12584946799E+02 0.12719743219E+02 0.11992085609E+02 0.10291665925E+02 0.86422468591E+01
 0.80095474264E+01 0.86612446619E+01 0.10016077636E+02 0.11070948389E+02 0.11077446020E+02
 0.99881836099E+01 0.83785817320E+01 0.67780691103E+01 0.54237416574E+01 0.44224248666E+01
 0.37842878628E+01 0.34778612317E+01 0.34749565445E+01 0.37737356464E+01 0.44019809283E+01
 0.54021484054E+01 0.67957084579E+01 0.85276801006E+01 0.10412852755E+02 0.12059432991E+02
 0.11818533741E+02 0.12644161740E+02 0.12467919926E+02 0.11615680162E+02 0.10788229087E+02
 0.10548328366E+02 0.10921417371E+02 0.11407365802E+02 0.11374526324E+02 0.10526253256E+02
 0.90967155891E+01 0.75391229175E+01 0.61123945692E+01 0.49669535669E+01 0.41546839354E+01
 0.36637603299E+01 0.34635570519E+01 0.35354306467E+01 0.38854316045E+01 0.45420937132E+01
 0.55401686658E+01 0.68880834470E+01 0.85218452596E+01 0.10267038439E+02 0.98967438956E+01
 0.11314594714E+02 0.12257595215E+02 0.12523429113E+02 0.12304588790E+02 0.12003870375E+02
 0.11888780954E+02 0.11882358583E+02 0.11652095751E+02 0.10910474034E+02 0.96786437772E+01
 0.82417206672E+01 0.68276760909E+01 0.56036154893E+01 0.46583987850E+01 0.40090889877E+01
 0.36354477134E+01 0.35130637631E+01 0.36322656594E+01 0.40033652137E+01 0.46515471393E+01
 0.56016369665E+01 0.68508634674E+01 0.83334715487E+01 0.79789022138E+01 0.93325113610E+01
 0.10578104659E+02 0.11536169156E+02 0.12062468046E+02 0.12220704339E+02 0.12187912409E+02
 0.12054532451E+02 0.11740085959E+02 0.11093225950E+02 0.10078853919E+02 0.88356116595E+01
 0.75244262641E+01 0.63028605733E+01 0.52827886277E+01 0.45119665199E+01 0.39905153029E+01
 0.36996166795E+01 0.36235672401E+01 0.37597442194E+01 0.41192565355E+01 0.47212622656E+01
 0.55805485891E+01 0.66866907105E+01 0.64108744759E+01 0.74912818646E+01 0.86244985744E+01
 0.96863197712E+01 0.10560736525E+02 0.11169119795E+02 0.11492455325E+02 0.11568284287E+02
 0.11405438182E+02 0.10965338924E+02 0.10233770850E+02 0.92623981926E+01 0.81503310000E+01
 0.70274318138E+01 0.60102538585E+01 0.51710861296E+01 0.45355049257E+01 0.41001942124E+01
 0.38537994900E+01 0.37897849551E+01 0.39102831853E+01 0.42246819680E+01 0.47452519132E+01
 0.54785597302E+01 0.53050043019E+01 0.60494097085E+01 0.69157801258E+01 0.78355099382E+01
 0.87205131520E+01 0.94855980166E+01 0.10069091753E+02 0.10437244689E+02 0.10571842285E+02
 0.10456873627E+02 0.10081428344E+02 0.94588559731E+01 0.86436312911E+01 0.77270574914E+01
 0.68113123709E+01 0.59794593490E+01 0.52801118405E+01 0.47315085330E+01 0.43359602137E+01
 0.40927603794E+01 0.40039772932E+01 0.40747242597E+01 0.43117291297E+01 0.47213801366E+01
 0.46517786862E+01 0.50756124827E+01 0.56350076596E+01 0.63028759772E+01 0.70322274791E+01
 0.77620940661E+01 0.84302142189E+01 0.89842193029E+01 0.93842422251E+01 0.95983861079E+01
 0.96003339043E+01 0.93765680718E+01 0.89396870553E+01 0.83353755025E+01 0.76339025848E+01
 0.69098280585E+01 0.62230199215E+01 0.56115448892E+01 0.50965570291E+01 0.46914283520E+01
 0.44076191912E+01 0.42554188872E+01 0.42425290751E+01 0.43737673325E+01 0.44060385871E+01
 0.45424222210E+01 0.48101962224E+01 0.52024804300E+01 0.57015649556E+01 0.62765384760E+01
 0.68866105691E+01 0.74880454110E+01 0.80394291427E+01 0.85019219915E+01 0.88369563908E+01
 0.90078566270E+01 0.89889227282E+01 0.87773420409E+01 0.83982668978E+01 0.78977270717E+01
 0.73279311315E+01 0.67349959569E+01 0.61553783646E+01 0.56191556393E+01 0.51538294718E+01
 0.47843336009E+01 0.45299955530E+01 0.44023005485E+01 0.45423406667E+01 0.44060197170E+01
 0.44023680633E+01 0.45300712290E+01 0.47843303388E+01 0.51537580939E+01 0.56191128351E+01
 0.61554185998E+01 0.67350568124E+01 0.73279265470E+01 0.78976744865E+01 0.83982510945E+01
 0.87773760503E+01 0.89889361419E+01 0.90078258724E+01 0.88369479538E+01 0.85019714510E+01
 0.80394672252E+01 0.74880057442E+01 0.68865437248E+01 0.62765425973E+01 0.57016398905E+01
 0.52025264569E+01 0.48101511576E+01 0.50755793189E+01 0.46517047444E+01 0.43737411464E+01
 0.42425788987E+01 0.42554923737E+01 0.44076371787E+01 0.46913745852E+01 0.50965076276E+01
 0.56115691657E+01 0.62230753782E+01 0.69098261495E+01 0.76338558328E+01 0.83353745660E+01
 0.89397370396E+01 0.93765752464E+01 0.96002784808E+01 0.95983721642E+01 0.93843192369E+01
 0.89842816267E+01 0.84301640843E+01 0.77620011599E+01 0.70322237837E+01 0.63029624548E+01
 0.56350676716E+01 0.60494690950E+01 0.53050248206E+01 0.47213464013E+01 0.43116718935E+01
 0.40747173136E+01 0.40040509232E+01 0.40928288013E+01 0.43359289786E+01 0.47314293273E+01
 0.52801087666E+01 0.59795257316E+01 0.68113303149E+01 0.77270096596E+01 0.86436234914E+01
 0.94589136205E+01 0.10081447017E+02 0.10456816030E+02 0.10571815409E+02 0.10437312498E+02
 0.10069160105E+02 0.94855693434E+01 0.87204349699E+01 0.78354862299E+01 0.69158273615E+01
 0.74913025767E+01 0.64109371351E+01 0.54786160806E+01 0.47452371006E+01 0.42246024788E+01
 0.39102522270E+01 0.37898647690E+01 0.38538785434E+01 0.41001536098E+01 0.45354212626E+01
 0.51711017468E+01 0.60103286611E+01 0.70274244600E+01 0.81502628770E+01 0.92624127948E+01
 0.10233863054E+02 0.10965355587E+02 0.11405350728E+02 0.11568240803E+02 0.11492529375E+02
 0.11169201232E+02 0.10560720781E+02 0.96862470137E+01 0.86244580707E+01 0.93324725599E+01
 0.79788632351E+01 0.66867217684E+01 0.55806451763E+01 0.47212940243E+01 0.41191668856E+01
 0.37596730820E+01 0.36236301623E+01 0.36997048546E+01 0.39904864449E+01 0.45118903222E+01
 0.52828044336E+01 0.63029224832E+01 0.75244074576E+01 0.88355530816E+01 0.10078883084E+02
 0.11093310665E+02 0.11740089661E+02 0.12054456654E+02 0.12187881396E+02 0.12220751610E+02
 0.12062514931E+02 0.11536174708E+02 0.10578086827E+02 0.11314618640E+02 0.98966815250E+01
 0.83333824121E+01 0.68508935682E+01 0.56017693903E+01 0.46515849471E+01 0.40032502895E+01
 0.36321886071E+01 0.35131405443E+01 0.36355272733E+01 0.40090346390E+01 0.46583251319E+01
 0.56036596072E+01 0.68277465808E+01 0.82416818672E+01 0.96785689808E+01 0.10910502885E+02
 0.11652184781E+02 0.11882373139E+02 0.11888719614E+02 0.12003827109E+02 0.12304593307E+02
 0.12523459519E+02 0.12257643510E+02 0.12644224200E+02 0.11818605913E+02 0.10266988238E+02
 0.85217269130E+01 0.68880875948E+01 0.55402957785E+01 0.45421378076E+01 0.38853326765E+01
 0.35353663588E+01 0.34636155350E+01 0.36638025818E+01 0.41546265380E+01 0.49669173067E+01
 0.61124553583E+01 0.75391645544E+01 0.90966570009E+01 0.10526198728E+02 0.11374566007E+02
 0.11407425597E+02 0.10921415477E+02 0.10548299554E+02 0.10788210023E+02 0.11615648725E+02
 0.12467904764E+02 0.11992034188E+02 0.12719844215E+02 0.12059549695E+02 0.10412791632E+02
 0.85275299382E+01 0.67957079560E+01 0.54022821504E+01 0.44020175274E+01 0.37736321143E+01
 0.34749028320E+01 0.34779222884E+01 0.37843162235E+01 0.44223614262E+01 0.54237118802E+01
 0.67781277348E+01 0.83786193796E+01 0.99881421883E+01 0.11077404592E+02 0.11070955546E+02
 0.10016093809E+02 0.86612610044E+01 0.80095789508E+01 0.86422337726E+01 0.10291571732E+02
 0.87139809276E+01 0.11335563449E+02 0.12585045688E+02 0.12051660005E+02 0.10326380679E+02
 0.83530683729E+01 0.65837873828E+01 0.52003301221E+01 0.42421979267E+01 0.36755338513E+01
 0.34543821585E+01 0.35562109947E+01 0.39934127060E+01 0.48024063379E+01 0.60074323993E+01
 0.75604276189E+01 0.92811019633E+01 0.10729496060E+02 0.11052370308E+02 0.98036550242E+01
 0.74722998566E+01 0.53245914444E+01 0.46701147979E+01 0.60180695225E+01 0.36007506029E+01
 0.73812869199E+01 0.10780629203E+02 0.12356528817E+02 0.11828163878E+02 0.10022130319E+02
 0.80178530276E+01 0.62730285904E+01 0.49518222720E+01 0.40743999537E+01 0.35969927882E+01
 0.34749733283E+01 0.36955035087E+01 0.42830510922E+01 0.52784816533E+01 0.66884656503E+01
 0.84121041497E+01 0.10162993826E+02 0.11135573270E+02 0.10361346058E+02 0.77024259270E+01
 0.41867746749E+01 0.15603525695E+01 0.12806310361E+01 -.12766065516E+01 0.20796338063E+01
 0.67214402055E+01 0.10529545020E+02 0.12105201830E+02 0.11418133568E+02 0.95325604318E+01
 0.75549741288E+01 0.58915808431E+01 0.46766626850E+01 0.39100227343E+01 0.35423603864E+01
 0.35354623076E+01 0.38892664542E+01 0.46397350467E+01 0.58266917497E+01 0.74289612488E+01
 0.92822499998E+01 0.10905183717E+02 0.11157359602E+02 0.91699937994E+01 0.52347290831E+01
 0.91347566173E+00 -.17189973489E+01 0.12747876531E+01 0.20802187273E+01 0.51331582352E+01
 0.88881286674E+01 0.11566132100E+02 0.12183814420E+02 0.10981354038E+02 0.90210701877E+01
 0.71254309361E+01 0.55783909536E+01 0.44721023654E+01 0.37895805292E+01 0.34807338159E+01
 0.35129866598E+01 0.38920676889E+01 0.46561432786E+01 0.58423298249E+01 0.74246815815E+01
 0.92410692482E+01 0.10849633413E+02 0.11231674891E+02 0.96561936597E+01 0.64626125398E+01
 0.30799954135E+01 0.18971384122E+01 0.50426755045E+00 0.18973173145E+01 0.53354235940E+01
 0.90617961068E+01 0.11373918013E+02 0.11566098341E+02 0.10145122144E+02 0.82292735571E+01
 0.64722908689E+01 0.50950848715E+01 0.41553934087E+01 0.36233773020E+01 0.34527210853E+01
 0.36234172376E+01 0.41553880604E+01 0.50950533274E+01 0.64723148115E+01 0.82293009483E+01
 0.10145061143E+02 0.11566045495E+02 0.11374011882E+02 0.90619151839E+01 0.53353495709E+01
 0.51330930086E+01 0.20800327100E+01 0.12747675477E+01 0.30801437913E+01 0.64626802271E+01
 0.96561136981E+01 0.11231616511E+02 0.10849664448E+02 0.92410867822E+01 0.74246575584E+01
 0.58423405535E+01 0.46561760154E+01 0.38920465246E+01 0.35129493524E+01 0.34807592262E+01
 0.37896137657E+01 0.44720672802E+01 0.55783671538E+01 0.71254948485E+01 0.90211015972E+01
 0.10981250340E+02 0.12183736013E+02 0.11566247975E+02 0.88882788759E+01 0.93152453570E+01
 0.59869283733E+01 0.36010127678E+01 0.33513096488E+01 0.52350838226E+01 0.80858113271E+01
 0.10336942990E+02 0.10971650644E+02 0.10021711407E+02 0.83333067597E+01 0.66576451866E+01
 0.52729704855E+01 0.42853494801E+01 0.36949910898E+01 0.34635267813E+01 0.35638686938E+01
 0.40038090494E+01 0.48250062033E+01 0.60760341116E+01 0.77564221583E+01 0.97414336381E+01
 0.11693809492E+02 0.12726969201E+02 0.11933301899E+02 0.12480693479E+02 0.10280310473E+02
 0.76696681650E+01 0.60181617677E+01 0.61193901282E+01 0.77025208022E+01 0.96531197869E+01
 0.10764132124E+02 0.10476781118E+02 0.91183381909E+01 0.74717104906E+01 0.59692758471E+01
 0.47929607851E+01 0.39999856065E+01 0.35732158578E+01 0.34779185605E+01 0.36989746709E+01
 0.42553123592E+01 0.51926906599E+01 0.65523969591E+01 0.83141604377E+01 0.10327554417E+02
 0.12232220754E+02 0.13187897026E+02 0.13504045609E+02 0.13074978400E+02 0.11493988912E+02
 0.96799655383E+01 0.86421404967E+01 0.88153841812E+01 0.98035261022E+01 0.10700083466E+02
 0.10730033490E+02 0.97437768761E+01 0.82265195107E+01 0.66975689264E+01 0.53915878078E+01
 0.44229457308E+01 0.38117366929E+01 0.35320935049E+01 0.35563064690E+01 0.38802492242E+01
 0.45299571551E+01 0.55496555057E+01 0.69686127090E+01 0.87472169122E+01 0.10719816089E+02
 0.12542435334E+02 0.12571199201E+02 0.13572803109E+02 0.13493718347E+02 0.12553605657E+02
 0.11433223523E+02 0.10787994152E+02 0.10794803425E+02 0.11070682767E+02 0.11004274260E+02
 0.10230565900E+02 0.88905395165E+01 0.74114203243E+01 0.60472748464E+01 0.49487218670E+01
 0.41766750098E+01 0.37273229065E+01 0.35733868581E+01 0.36956839838E+01 0.40985261278E+01
 0.48101607796E+01 0.58680056117E+01 0.72865602913E+01 0.90104426084E+01 0.10871341276E+02
 0.10757667513E+02 0.12284995204E+02 0.13298000096E+02 0.13522214760E+02 0.13102993435E+02
 0.12473747974E+02 0.12003569125E+02 0.11728628522E+02 0.11374235504E+02 0.10630559814E+02
 0.94474008896E+01 0.80713447023E+01 0.67209627292E+01 0.55525163984E+01 0.46582265419E+01
 0.40623217313E+01 0.37492047142E+01 0.36952863713E+01 0.38895250116E+01 0.43410616368E+01
 0.50756003306E+01 0.61200613859E+01 0.74741617040E+01 0.90728749825E+01 0.89240814035E+01
 0.10383331481E+02 0.11694630525E+02 0.12644964758E+02 0.13050206426E+02 0.12966155885E+02
 0.12619834105E+02 0.12187643976E+02 0.11661609781E+02 0.10910217180E+02 0.98654355640E+01
 0.86374542057E+01 0.73706884659E+01 0.62025424365E+01 0.52395894671E+01 0.45322121999E+01
 0.40838291353E+01 0.38763276140E+01 0.38924266706E+01 0.41274990998E+01 0.45918154751E+01
 0.53049816067E+01 0.62820854720E+01 0.75108172928E+01 0.73914404726E+01 0.85772710964E+01
 0.97831005878E+01 0.10862011452E+02 0.11674462929E+02 0.12123819501E+02 0.12201100283E+02
 0.11992189613E+02 0.11568089141E+02 0.10932717469E+02 0.10078668523E+02 0.90566980405E+01
 0.79478425498E+01 0.68601937982E+01 0.58977597752E+01 0.51288781154E+01 0.45784963001E+01
 0.42418356445E+01 0.41043241411E+01 0.41557381818E+01 0.43956644225E+01 0.48326059303E+01
 0.54784943711E+01 0.63379179899E+01 0.62818661606E+01 0.71279363154E+01 0.80676602763E+01
 0.90167124360E+01 0.98700844606E+01 0.10529525442E+02 0.10931892545E+02 0.11060262423E+02
 0.10931317596E+02 0.10571737986E+02 0.10005566862E+02 0.92622972771E+01 0.83933460635E+01
 0.74765683903E+01 0.66003949968E+01 0.58387136808E+01 0.52345238537E+01 0.48008608086E+01
 0.45336180887E+01 0.44252431603E+01 0.44723334308E+01 0.46769580096E+01 0.50446410499E+01
 0.55804330710E+01 0.56015270817E+01 0.61197155112E+01 0.67471996828E+01 0.74464295714E+01
 0.81588210513E+01 0.88133279539E+01 0.93428179333E+01 0.96996510015E+01 0.98614313102E+01
 0.98252649683E+01 0.95983699087E+01 0.91952480129E+01 0.86435795911E+01 0.79904605485E+01
 0.72989306617E+01 0.66337765624E+01 0.60456154462E+01 0.55634110002E+01 0.51980944707E+01
 0.49519610611E+01 0.48264969782E+01 0.48250889962E+01 0.49519846466E+01 0.52105335751E+01
 0.53162032780E+01 0.55400995515E+01 0.58676343028E+01 0.62864961212E+01 0.67720722936E+01
 0.72867423703E+01 0.77851777520E+01 0.82234479789E+01 0.85667778896E+01 0.87919146147E+01
 0.88846052395E+01 0.88369833179E+01 0.86493406221E+01 0.83353696385E+01 0.79248950301E+01
 0.74592512304E+01 0.69809614147E+01 0.65243820260E+01 0.61127095196E+01 0.57612587022E+01
 0.54826206139E+01 0.52892731361E+01 0.51925514550E+01 0.52003307233E+01 0.54021006311E+01
 0.53524648955E+01 0.54021877123E+01 0.55494142954E+01 0.57872684052E+01 0.61013515458E+01
 0.64695677800E+01 0.68654190281E+01 0.72625381368E+01 0.76371075617E+01 0.79668094822E+01
 0.82284445651E+01 0.83983134223E+01 0.84573763911E+01 0.83982605703E+01 0.82284389327E+01
 0.79668703310E+01 0.76371314978E+01 0.72624730276E+01 0.68653579521E+01 0.64696070426E+01
 0.61014444617E+01 0.57872936272E+01 0.55493390417E+01 0.58675868052E+01 0.55400076016E+01
 0.53161673533E+01 0.52003882389E+01 0.51926389774E+01 0.52892880988E+01 0.54825457663E+01
 0.57611970527E+01 0.61127446329E+01 0.65244510218E+01 0.69809545890E+01 0.74591910010E+01
 0.79248915762E+01 0.83354254113E+01 0.86493481939E+01 0.88369230237E+01 0.88845873299E+01
 0.87919836999E+01 0.85668241866E+01 0.82233862821E+01 0.77850914894E+01 0.72867566937E+01
 0.67721700685E+01 0.62865528432E+01 0.67472725049E+01 0.61197108289E+01 0.56014553642E+01
 0.52104649379E+01 0.49519969577E+01 0.48251777891E+01 0.48265512258E+01 0.49519054915E+01
 0.51980150588E+01 0.55634296138E+01 0.60456905640E+01 0.66337762184E+01 0.72988635835E+01
 0.79904553349E+01 0.86436466945E+01 0.91952588014E+01 0.95982947159E+01 0.98252358330E+01
 0.98615108126E+01 0.96997173597E+01 0.93427642510E+01 0.88132294805E+01 0.81588097079E+01
 0.74465097515E+01 0.80676984813E+01 0.71280080694E+01 0.62819131468E+01 0.55803984595E+01
 0.50445458029E+01 0.46769235851E+01 0.44724190038E+01 0.44253264552E+01 0.45335735264E+01
 0.48007707136E+01 0.52345402619E+01 0.58387950248E+01 0.66003889229E+01 0.74764916012E+01
 0.83933480828E+01 0.92623785549E+01 0.10005575068E+02 0.10571647808E+02 0.10931280973E+02
 0.11060345265E+02 0.10931969182E+02 0.10529489909E+02 0.98699961097E+01 0.90166767328E+01
 0.97830443508E+01 0.85772499722E+01 0.73914974283E+01 0.63380152556E+01 0.54785004188E+01
 0.48324923835E+01 0.43955953701E+01 0.41558212577E+01 0.41044201075E+01 0.42417903810E+01
 0.45784049082E+01 0.51289051638E+01 0.58978431871E+01 0.68601724273E+01 0.79477592232E+01
 0.90567138519E+01 0.10078759851E+02 0.10932719896E+02 0.11567993492E+02 0.11992150107E+02
 0.12201170364E+02 0.12123891364E+02 0.11674458021E+02 0.10861957997E+02 0.11694630851E+02
 0.10383261248E+02 0.89239973599E+01 0.75108527209E+01 0.62822209311E+01 0.53050188123E+01
 0.45916931620E+01 0.41274158305E+01 0.38925098128E+01 0.38764185831E+01 0.40837743969E+01
 0.45321299611E+01 0.52396338647E+01 0.62026202217E+01 0.73706482636E+01 0.86373720028E+01
 0.98654655164E+01 0.10910308270E+02 0.11661608422E+02 0.12187560722E+02 0.12619796260E+02
 0.12966192785E+02 0.13050256869E+02 0.12644999796E+02 0.13298076252E+02 0.12285055876E+02
 0.10757591807E+02 0.90727398020E+01 0.74741766816E+01 0.61202155975E+01 0.50756511391E+01
 0.43409401893E+01 0.38894487414E+01 0.36953705785E+01 0.37492763583E+01 0.40622554547E+01
 0.46581626781E+01 0.55525769969E+01 0.67210266268E+01 0.80712897636E+01 0.94473290345E+01
 0.10630596647E+02 0.11374312175E+02 0.11728629870E+02 0.12003519774E+02 0.12473716456E+02