       N       E                     dE             d eps       ncg     rms          rms(c)
DAV:   1    -0.408053135123E+01   -0.40805E+01   -0.18081E+03    96   0.318E+02
DAV:   2    -0.986910215413E+01   -0.57886E+01   -0.53640E+01   152   0.408E+01
DAV:   3    -0.989838981723E+01   -0.29288E-01   -0.29288E-01   112   0.374E+00
DAV:   4    -0.989841472954E+01   -0.24912E-04   -0.24911E-04   176   0.103E-01
DAV:   5    -0.989841472973E+01   -0.18991E-09   -0.69627E-09    96   0.472E-04    0.160E+00
DAV:   6    -0.988956065964E+01    0.88541E-02   -0.21412E-03   128   0.283E-01    0.100E+00
DAV:   7    -0.988251651385E+01    0.70441E-02   -0.61217E-03   104   0.500E-01    0.387E-02
DAV:   8    -0.988248730858E+01    0.29205E-04   -0.11171E-04    96   0.736E-02
   1 F= -.98824873E+01 E0= -.98691266E+01  d E =-.988249E+01
       N       E                     dE             d eps       ncg     rms          rms(c)
DAV:   1    -0.101585186917E+02   -0.27600E+00   -0.14084E+01   152   0.218E+01    0.216E+00
DAV:   2    -0.100237637024E+02    0.13475E+00   -0.25295E-01    96   0.367E+00    0.122E+00
DAV:   3    -0.995801660444E+01    0.65747E-01   -0.17181E-01   144   0.220E+00    0.106E-01
DAV:   4    -0.995827499610E+01   -0.25839E-03   -0.36417E-03    88   0.464E-01
   2 F= -.99582750E+01 E0= -.99449209E+01  d E =-.757877E-01
       N       E                     dE             d eps       ncg     rms          rms(c)
DAV:   1    -0.100789050530E+02   -0.12089E+00   -0.24846E+00   128   0.894E+00    0.901E-01
DAV:   2    -0.100577704670E+02    0.21135E-01   -0.47341E-02    96   0.163E+00    0.517E-01
DAV:   3    -0.100462407989E+02    0.11530E-01   -0.30754E-02   128   0.949E-01    0.471E-02
DAV:   4    -0.100462780881E+02   -0.37289E-04   -0.85115E-04    88   0.223E-01
   3 F= -.10046278E+02 E0= -.10032962E+02  d E =-.163791E+00
       N       E                     dE             d eps       ncg     rms          rms(c)
DAV:   1    -0.100462687644E+02   -0.27966E-04   -0.12381E-04    56   0.661E-02    0.167E-02
DAV:   2    -0.100462700374E+02   -0.12730E-05   -0.46478E-06    48   0.161E-02
   4 F= -.10046270E+02 E0= -.10032954E+02  d E =-.163783E+00
       N       E                     dE             d eps       ncg     rms          rms(c)
DAV:   1    -0.100462779267E+02   -0.91623E-05   -0.50069E-05    48   0.410E-02    0.364E-03
DAV:   2    -0.100462777205E+02    0.20615E-06   -0.20824E-06    48   0.116E-02
   5 F= -.10046278E+02 E0= -.10032962E+02  d E =-.163790E+00
       N       E                     dE             d eps       ncg     rms          rms(c)
DAV:   1    -0.100462801666E+02   -0.22399E-05   -0.12313E-05    48   0.202E-02    0.217E-03
DAV:   2    -0.100462800572E+02    0.10944E-06   -0.43875E-07    48   0.505E-03
   6 F= -.10046280E+02 E0= -.10032964E+02  d E =-.163793E+00
       N       E                     dE             d eps       ncg     rms          rms(c)
DAV:   1    -0.100462807948E+02   -0.62818E-06   -0.28320E-06    48   0.978E-03    0.108E-03
DAV:   2    -0.100462807688E+02    0.25952E-07   -0.10442E-07    48   0.242E-03
   7 F= -.10046281E+02 E0= -.10032965E+02  d E =-.163793E+00
       N       E                     dE             d eps       ncg     rms          rms(c)
DAV:   1    -0.100470670434E+02   -0.78625E-03   -0.19291E-02   112   0.781E-01    0.891E-02
DAV:   2    -0.100468282164E+02    0.23883E-03   -0.12692E-04    80   0.814E-02
   8 F= -.10046828E+02 E0= -.10033513E+02  d E =-.547448E-03
       N       E                     dE             d eps       ncg     rms          rms(c)
DAV:   1    -0.100467054917E+02    0.36155E-03   -0.27488E-04    48   0.948E-02    0.409E-03
DAV:   2    -0.100467049717E+02    0.52007E-06   -0.66953E-06    48   0.232E-02
   9 F= -.10046705E+02 E0= -.10033389E+02  d E =-.424203E-03
       N       E                     dE             d eps       ncg     rms          rms(c)
DAV:   1    -0.100468082592E+02   -0.10277E-03   -0.14293E-03   104   0.213E-01    0.246E-02
DAV:   2    -0.100467908691E+02    0.17390E-04   -0.10466E-05    48   0.241E-02
  10 F= -.10046791E+02 E0= -.10033475E+02  d E =-.510100E-03
       N       E                     dE             d eps       ncg     rms          rms(c)
DAV:   1    -0.100467764592E+02    0.31800E-04   -0.10402E-04    48   0.590E-02    0.872E-03
DAV:   2    -0.100467746618E+02    0.17974E-05   -0.32680E-06    48   0.143E-02
  11 F= -.10046775E+02 E0= -.10033459E+02  d E =-.493893E-03
       N       E                     dE             d eps       ncg     rms          rms(c)
DAV:   1    -0.100467816512E+02   -0.51920E-05   -0.52253E-05    48   0.411E-02    0.378E-03
DAV:   2    -0.100467813061E+02    0.34509E-06   -0.10934E-06    48   0.885E-03
  12 F= -.10046781E+02 E0= -.10033466E+02  d E =-.500537E-03
       N       E                     dE             d eps       ncg     rms          rms(c)
DAV:   1    -0.100467830895E+02   -0.14383E-05   -0.97471E-06    48   0.178E-02    0.243E-03
DAV:   2    -0.100467828524E+02    0.23712E-06   -0.31545E-07    48   0.447E-03
  13 F= -.10046783E+02 E0= -.10033467E+02  d E =-.502084E-03
       N       E                     dE             d eps       ncg     rms          rms(c)
DAV:   1    -0.100467831096E+02   -0.20051E-07   -0.22577E-06    48   0.858E-03    0.123E-03
DAV:   2    -0.100467830244E+02    0.85157E-07   -0.77929E-08    48   0.219E-03
  14 F= -.10046783E+02 E0= -.10033467E+02  d E =-.502256E-03
       N       E                     dE             d eps       ncg     rms          rms(c)
DAV:   1    -0.100467830315E+02    0.78058E-07   -0.56339E-07    48   0.429E-03    0.619E-04
DAV:   2    -0.100467829980E+02    0.33493E-07   -0.19136E-08    48   0.107E-03
  15 F= -.10046783E+02 E0= -.10033467E+02  d E =-.502229E-03
