<?xml version="1.0" encoding="ISO-8859-1"?>
<modeling>
 <generator>
  <i name="program" type="string">vasp </i>
  <i name="version" type="string">5.4.4.18Apr17-6-g9f103f2a35  </i>
  <i name="subversion" type="string">(build Dec 09 2018 21:25:21) complex            parallel </i>
  <i name="platform" type="string">IFC18.0.1.163_CrayMPICH7.7.0_MKL18.0.1.163 </i>
  <i name="date" type="string">2019 03 20 </i>
  <i name="time" type="string">09:07:14 </i>
 </generator>
 <incar>
  <i type="string" name="PREC">normal</i>
  <i type="int" name="IBRION">     2</i>
  <i name="EDIFF">      0.00040000</i>
  <i name="EDIFFG">     -0.01000000</i>
  <i type="int" name="NSW">    15</i>
  <i type="int" name="ISIF">     3</i>
  <i name="ENCUT">    150.00000000</i>
  <i type="int" name="NBANDS">     8</i>
  <i type="logical" name="LREAL"> F  </i>
  <i type="int" name="ISMEAR">     0</i>
  <i name="SIGMA">      0.20000000</i>
  <v type="int" name="KPOINT_BSE">    -1     0     0     0</v>
 </incar>
 <structure name="primitive_cell" >
  <crystal>
   <varray name="basis" >
    <v>      -2.45000000       2.45000000       1.27400000 </v>
    <v>       2.45000000      -2.45000000       1.27400000 </v>
    <v>       2.45000000       2.45000000      -1.27400000 </v>
   </varray>
   <i name="volume">     30.58874000 </i>
   <varray name="rec_basis" >
    <v>       0.00000000       0.20408163       0.39246468 </v>
    <v>       0.20408163       0.00000000       0.39246468 </v>
    <v>       0.20408163       0.20408163      -0.00000000 </v>
   </varray>
  </crystal>
  <varray name="positions" >
   <v>       0.25000000      -0.25000000      -0.50000000 </v>
   <v>       0.00000000       0.00000000       0.00000000 </v>
  </varray>
 </structure>
 <varray name="primitive_index" >
  <v type="int" >        1 </v>
  <v type="int" >        2 </v>
 </varray>
 <kpoints>
  <generation param="Monkhorst-Pack">
   <v type="int" name="divisions">       3        3        3 </v>
   <v name="usershift">      0.00000000       0.00000000       0.00000000 </v>
   <v name="genvec1">      0.33333333      -0.00000000       0.00000000 </v>
   <v name="genvec2">     -0.00000000       0.33333333       0.00000000 </v>
   <v name="genvec3">     -0.00000000      -0.00000000       0.33333333 </v>
   <v name="shift">      0.00000000       0.00000000       0.00000000 </v>
  </generation>
  <varray name="kpointlist" >
   <v>       0.00000000       0.00000000       0.00000000 </v>
   <v>       0.33333333      -0.00000000       0.00000000 </v>
   <v>       0.33333333       0.33333333       0.00000000 </v>
   <v>      -0.33333333       0.33333333       0.00000000 </v>
   <v>      -0.33333333       0.33333333       0.33333333 </v>
   <v>      -0.33333333      -0.33333333       0.33333333 </v>
  </varray>
  <varray name="weights" >
   <v>       0.03703704 </v>
   <v>       0.29629630 </v>
   <v>       0.29629630 </v>
   <v>       0.14814815 </v>
   <v>       0.14814815 </v>
   <v>       0.07407407 </v>
  </varray>
 </kpoints>
 <parameters>
  <separator name="general" >
   <i type="string" name="SYSTEM">unknown system</i>
   <i type="logical" name="LCOMPAT"> F  </i>
  </separator>
  <separator name="electronic" >
   <i type="string" name="PREC">normal</i>
   <i name="ENMAX">    150.00000000</i>
   <i name="ENAUG">    322.06900000</i>
   <i name="EDIFF">      0.00040000</i>
   <i type="int" name="IALGO">    38</i>
   <i type="int" name="IWAVPR">    11</i>
   <i type="int" name="NBANDS">     8</i>
   <i name="NELECT">      8.00000000</i>
   <i type="int" name="TURBO">     0</i>
   <i type="int" name="IRESTART">     0</i>
   <i type="int" name="NREBOOT">     0</i>
   <i type="int" name="NMIN">     0</i>
   <i name="EREF">      0.00000000</i>
   <separator name="electronic smearing" >
    <i type="int" name="ISMEAR">     0</i>
    <i name="SIGMA">      0.20000000</i>
    <i name="KSPACING">      0.50000000</i>
    <i type="logical" name="KGAMMA"> T  </i>
   </separator>
   <separator name="electronic projectors" >
    <i type="logical" name="LREAL"> F  </i>
    <v name="ROPT">      0.00000000</v>
    <i type="int" name="LMAXPAW">  -100</i>
    <i type="int" name="LMAXMIX">     2</i>
    <i type="logical" name="NLSPLINE"> F  </i>
   </separator>
   <separator name="electronic startup" >
    <i type="int" name="ISTART">     0</i>
    <i type="int" name="ICHARG">     2</i>
    <i type="int" name="INIWAV">     1</i>
   </separator>
   <separator name="electronic spin" >
    <i type="int" name="ISPIN">     1</i>
    <i type="logical" name="LNONCOLLINEAR"> F  </i>
    <v name="MAGMOM">      1.00000000      1.00000000</v>
    <i name="NUPDOWN">     -1.00000000</i>
    <i type="logical" name="LSORBIT"> F  </i>
    <v name="SAXIS">      0.00000000      0.00000000      1.00000000</v>
    <i type="logical" name="LSPIRAL"> F  </i>
    <v name="QSPIRAL">      0.00000000      0.00000000      0.00000000</v>
    <i type="logical" name="LZEROZ"> F  </i>
   </separator>
   <separator name="electronic exchange-correlation" >
    <i type="logical" name="LASPH"> F  </i>
    <i type="logical" name="LMETAGGA"> F  </i>
   </separator>
   <separator name="electronic convergence" >
    <i type="int" name="NELM">    60</i>
    <i type="int" name="NELMDL">    -5</i>
    <i type="int" name="NELMIN">     2</i>
    <i name="ENINI">    150.00000000</i>
    <separator name="electronic convergence detail" >
     <i type="logical" name="LDIAG"> T  </i>
     <i type="logical" name="LSUBROT"> F  </i>
     <i name="WEIMIN">      0.00100000</i>
     <i name="EBREAK">      0.00001250</i>
     <i name="DEPER">      0.30000000</i>
     <i type="int" name="NRMM">     4</i>
     <i name="TIME">      0.40000000</i>
    </separator>
   </separator>
   <separator name="electronic mixer" >
    <i name="AMIX">      0.40000000</i>
    <i name="BMIX">      1.00000000</i>
    <i name="AMIN">      0.10000000</i>
    <i name="AMIX_MAG">      1.60000000</i>
    <i name="BMIX_MAG">      1.00000000</i>
    <separator name="electronic mixer details" >
     <i type="int" name="IMIX">     4</i>
     <i type="logical" name="MIXFIRST"> F  </i>
     <i type="int" name="MAXMIX">   -45</i>
     <i name="WC">    100.00000000</i>
     <i type="int" name="INIMIX">     1</i>
     <i type="int" name="MIXPRE">     1</i>
     <i type="int" name="MREMOVE">     5</i>
    </separator>
   </separator>
   <separator name="electronic dipolcorrection" >
    <i type="logical" name="LDIPOL"> F  </i>
    <i type="logical" name="LMONO"> F  </i>
    <i type="int" name="IDIPOL">     0</i>
    <i name="EPSILON">      1.00000000</i>
    <v name="DIPOL">   -100.00000000   -100.00000000   -100.00000000</v>
    <i name="EFIELD">      0.00000000</i>
   </separator>
  </separator>
  <separator name="grids" >
   <i type="int" name="NGX">    12</i>
   <i type="int" name="NGY">    12</i>
   <i type="int" name="NGZ">    12</i>
   <i type="int" name="NGXF">    24</i>
   <i type="int" name="NGYF">    24</i>
   <i type="int" name="NGZF">    24</i>
   <i type="logical" name="ADDGRID"> F  </i>
  </separator>
  <separator name="ionic" >
   <i type="int" name="NSW">    15</i>
   <i type="int" name="IBRION">     2</i>
   <i type="int" name="MDALGO">     0</i>
   <i type="int" name="ISIF">     3</i>
   <i name="PSTRESS">      0.00000000</i>
   <i name="EDIFFG">     -0.01000000</i>
   <i type="int" name="NFREE">     1</i>
   <i name="POTIM">      0.50000000</i>
   <i name="SMASS">     -3.00000000</i>
   <i name="SCALEE">      1.00000000</i>
  </separator>
  <separator name="ionic md" >
   <i name="TEBEG">      0.00010000</i>
   <i name="TEEND">      0.00010000</i>
   <i type="int" name="NBLOCK">     1</i>
   <i type="int" name="KBLOCK">    15</i>
   <i type="int" name="NPACO">   256</i>
   <i name="APACO">     16.00000000</i>
  </separator>
  <separator name="symmetry" >
   <i type="int" name="ISYM">     2</i>
   <i name="SYMPREC">      0.00001000</i>
  </separator>
  <separator name="dos" >
   <i type="int" name="LORBIT">     0</i>
   <v name="RWIGS">     -1.00000000</v>
   <i type="int" name="NEDOS">   301</i>
   <i name="EMIN">     10.00000000</i>
   <i name="EMAX">    -10.00000000</i>
   <i name="EFERMI">      0.00000000</i>
  </separator>
  <separator name="writing" >
   <i type="int" name="NWRITE">     2</i>
   <i type="logical" name="LWAVE"> T  </i>
   <i type="logical" name="LDOWNSAMPLE"> F  </i>
   <i type="logical" name="LCHARG"> T  </i>
   <i type="logical" name="LPARD"> F  </i>
   <i type="logical" name="LVTOT"> F  </i>
   <i type="logical" name="LVHAR"> F  </i>
   <i type="logical" name="LELF"> F  </i>
   <i type="logical" name="LOPTICS"> F  </i>
   <v name="STM">      0.00000000      0.00000000      0.00000000      0.00000000      0.00000000      0.00000000      0.00000000</v>
  </separator>
  <separator name="performance" >
   <i type="int" name="NPAR">     8</i>
   <i type="int" name="NSIM">     4</i>
   <i type="int" name="NBLK">    -1</i>
   <i type="logical" name="LPLANE"> T  </i>
   <i type="logical" name="LSCALAPACK"> T  </i>
   <i type="logical" name="LSCAAWARE"> F  </i>
   <i type="logical" name="LSCALU"> F  </i>
   <i type="logical" name="LASYNC"> F  </i>
   <i type="logical" name="LORBITALREAL"> F  </i>
  </separator>
  <separator name="miscellaneous" >
   <i type="int" name="IDIOT">     3</i>
   <i type="int" name="ISPECIAL">     0</i>
   <i type="logical" name="LMUSIC"> F  </i>
   <v name="POMASS">     28.08500000</v>
   <v name="DARWINR">      0.00000000</v>
   <v name="DARWINV">      1.00000000</v>
   <i type="logical" name="LCORR"> T  </i>
  </separator>
  <i type="logical" name="GGA_COMPAT"> T  </i>
  <i type="logical" name="LBERRY"> F  </i>
  <i type="int" name="ICORELEVEL">     0</i>
  <i type="logical" name="LDAU"> F  </i>
  <i type="int" name="I_CONSTRAINED_M">     0</i>
  <separator name="electronic exchange-correlation" >
   <i type="string" name="GGA">--</i>
   <i type="int" name="VOSKOWN">     0</i>
   <i type="logical" name="LHFCALC"> F  </i>
   <i type="string" name="PRECFOCK"></i>
   <i type="logical" name="LSYMGRAD"> F  </i>
   <i type="logical" name="LHFONE"> F  </i>
   <i type="logical" name="LRHFCALC"> F  </i>
   <i type="logical" name="LTHOMAS"> F  </i>
   <i type="logical" name="LMODELHF"> F  </i>
   <i name="ENCUT4O">     -1.00000000</i>
   <i type="int" name="EXXOEP">     0</i>
   <i type="int" name="FOURORBIT">     0</i>
   <i name="AEXX">      0.00000000</i>
   <i name="HFALPHA">      0.00000000</i>
   <i name="MCALPHA">      0.00000000</i>
   <i name="ALDAX">      1.00000000</i>
   <i name="AGGAX">      1.00000000</i>
   <i name="ALDAC">      1.00000000</i>
   <i name="AGGAC">      1.00000000</i>
   <i type="int" name="NKREDX">     1</i>
   <i type="int" name="NKREDY">     1</i>
   <i type="int" name="NKREDZ">     1</i>
   <i type="logical" name="SHIFTRED"> F  </i>
   <i type="logical" name="ODDONLY"> F  </i>
   <i type="logical" name="EVENONLY"> F  </i>
   <i type="int" name="LMAXFOCK">     0</i>
   <i type="int" name="NMAXFOCKAE">     0</i>
   <i type="logical" name="LFOCKAEDFT"> F  </i>
   <i name="HFSCREEN">      0.00000000</i>
   <i name="HFSCREENC">      0.00000000</i>
   <i type="int" name="NBANDSGWLOW">     0</i>
  </separator>
  <separator name="vdW DFT" >
   <i type="logical" name="LUSE_VDW"> F  </i>
   <i name="Zab_VDW">     -0.84910000</i>
   <i name="PARAM1">      0.12340000</i>
   <i name="PARAM2">      1.00000000</i>
   <i name="PARAM3">      0.00000000</i>
  </separator>
  <separator name="model GW" >
   <i type="int" name="MODEL_GW">     0</i>
   <i name="MODEL_EPS0">      9.17662200</i>
   <i name="MODEL_ALPHA">      1.00000000</i>
  </separator>
  <separator name="linear response parameters" >
   <i type="logical" name="LEPSILON"> F  </i>
   <i type="logical" name="LRPA"> F  </i>
   <i type="logical" name="LNABLA"> F  </i>
   <i type="logical" name="LVEL"> F  </i>
   <i type="int" name="KINTER">     0</i>
   <i name="CSHIFT">      0.10000000</i>
   <i name="OMEGAMAX">     -1.00000000</i>
   <i name="DEG_THRESHOLD">      0.00200000</i>
   <i name="RTIME">     -0.10000000</i>
   <i name="WPLASMAI">      0.00000000</i>
   <v name="DFIELD">      0.00000000      0.00000000      0.00000000</v>
   <v name="WPLASMA">      0.00000000      0.00000000      0.00000000      0.00000000      0.00000000      0.00000000      0.00000000      0.00000000      0.00000000</v>
  </separator>
  <separator name="orbital magnetization" >
   <i type="logical" name="NUCIND"> F  </i>
   <v name="MAGPOS">      0.00000000      0.00000000      0.00000000</v>
   <i type="logical" name="LNICSALL"> T  </i>
   <i type="logical" name="ORBITALMAG"> F  </i>
   <i type="logical" name="LMAGBLOCH"> F  </i>
   <i type="logical" name="LCHIMAG"> F  </i>
   <i type="logical" name="LGAUGE"> T  </i>
   <i type="int" name="MAGATOM">     0</i>
   <v name="MAGDIPOL">      0.00000000      0.00000000      0.00000000</v>
   <v name="AVECCONST">      0.00000000      0.00000000      0.00000000</v>
  </separator>
  <separator name="response functions" >
   <i type="logical" name="LADDER"> F  </i>
   <i type="logical" name="LRPAFORCE"> F  </i>
   <i type="logical" name="LFXC"> F  </i>
   <i type="logical" name="LHARTREE"> T  </i>
   <i type="int" name="IBSE">     0</i>
   <v type="int" name="KPOINT">    -1     0     0     0</v>
   <i type="logical" name="LTCTE"> F  </i>
   <i type="logical" name="LTETE"> F  </i>
   <i type="logical" name="LTRIPLET"> F  </i>
   <i type="logical" name="LFXCEPS"> F  </i>
   <i type="logical" name="LFXHEG"> F  </i>
   <i type="int" name="NATURALO">     2</i>
   <i type="logical" name="L2ORDER"> F  </i>
   <i type="logical" name="LMP2LT"> F  </i>
   <i type="logical" name="LUSEW"> F  </i>
   <i name="ENCUTGW">     -2.00000000</i>
   <i name="ENCUTGWSOFT">     -2.00000000</i>
   <i name="ENCUTLF">     -1.00000000</i>
   <i type="int" name="LMAXMP2">    -1</i>
   <i name="SCISSOR">      0.00000000</i>
   <i type="int" name="NOMEGA">     0</i>
   <i type="int" name="NOMEGAR">     0</i>
   <i type="int" name="NBANDSGW">    -1</i>
   <i type="int" name="NBANDSO">    -1</i>
   <i type="int" name="NBANDSV">    -1</i>
   <i type="int" name="NELM">     1</i>
   <i type="int" name="NELMHF">     1</i>
   <i type="int" name="DIM">     3</i>
   <i type="int" name="ANTIRES">     0</i>
   <i name="OMEGAMAX">    -30.00000000</i>
   <i name="OMEGAMIN">    -30.00000000</i>
   <i name="OMEGATL">   -200.00000000</i>
   <i type="int" name="OMEGAGRID">   140</i>
   <i name="CSHIFT">     -0.10000000</i>
   <i type="logical" name="SELFENERGY"> F  </i>
   <i type="logical" name="LSPECTRAL"> F  </i>
   <i type="logical" name="LSPECTRALGW"> F  </i>
   <i type="logical" name="LSINGLES"> F  </i>
   <i type="logical" name="LFERMIGW"> F  </i>
   <i type="logical" name="ODDONLYGW"> F  </i>
   <i type="logical" name="EVENONLYGW"> F  </i>
   <i type="int" name="NKREDLFX">     1</i>
   <i type="int" name="NKREDLFY">     1</i>
   <i type="int" name="NKREDLFZ">     1</i>
   <i type="int" name="MAXMEM">  2800</i>
   <i type="int" name="TELESCOPE">     0</i>
   <i type="int" name="TAUPAR">     1</i>
   <i type="int" name="OMEGAPAR">    -1</i>
   <i name="LAMBDA">      1.00000000</i>
  </separator>
  <separator name="External order field" >
   <i name="OFIELD_KAPPA">      0.00000000</i>
   <v name="OFIELD_K">      0.00000000      0.00000000      0.00000000</v>
   <i name="OFIELD_Q6_NEAR">      0.00000000</i>
   <i name="OFIELD_Q6_FAR">      0.00000000</i>
   <i name="OFIELD_A">      0.00000000</i>
  </separator>
 </parameters>
 <atominfo>
  <atoms>       2 </atoms>
  <types>       1 </types>
  <array name="atoms" >
   <dimension dim="1">ion</dimension>
   <field type="string">element</field>
   <field type="int">atomtype</field>
   <set>
    <rc><c>Si</c><c>   1</c></rc>
    <rc><c>Si</c><c>   1</c></rc>
   </set>
  </array>
  <array name="atomtypes" >
   <dimension dim="1">type</dimension>
   <field type="int">atomspertype</field>
   <field type="string">element</field>
   <field>mass</field>
   <field>valence</field>
   <field type="string">pseudopotential</field>
   <set>
    <rc><c>   2</c><c>Si</c><c>     28.08500000</c><c>      4.00000000</c><c> PAW_PBE Si 05Jan2001                   </c></rc>
   </set>
  </array>
 </atominfo>
 <structure name="initialpos" >
  <crystal>
   <varray name="basis" >
    <v>      -2.45000000       2.45000000       1.27400000 </v>
    <v>       2.45000000      -2.45000000       1.27400000 </v>
    <v>       2.45000000       2.45000000      -1.27400000 </v>
   </varray>
   <i name="volume">     30.58874000 </i>
   <varray name="rec_basis" >
    <v>       0.00000000       0.20408163       0.39246468 </v>
    <v>       0.20408163       0.00000000       0.39246468 </v>
    <v>       0.20408163       0.20408163      -0.00000000 </v>
   </varray>
  </crystal>
  <varray name="positions" >
   <v>       0.25000000       0.75000000       0.50000000 </v>
   <v>       0.00000000       0.00000000       0.00000000 </v>
  </varray>
 </structure>
 <calculation>
  <scstep>
   <time name="dav">    0.05    0.06</time>
   <time name="total">    0.08    0.10</time>
   <energy>
    <i name="alphaZ">      4.40202223 </i>
    <i name="ewald">   -265.18101312 </i>
    <i name="hartreedc">     -2.30415367 </i>
    <i name="XCdc">    -17.81530915 </i>
    <i name="pawpsdc">     65.95520812 </i>
    <i name="pawaedc">    -30.76852678 </i>
    <i name="eentropy">     -0.02450151 </i>
    <i name="bandstr">     35.56390610 </i>
    <i name="atom">    206.09183643 </i>
    <i name="e_fr_energy">     -4.08053135 </i>
    <i name="e_wo_entrp">     -4.05602985 </i>
    <i name="e_0_energy">     -4.06828060 </i>
   </energy>
  </scstep>
  <scstep>
   <time name="dav">    0.08    0.09</time>
   <time name="total">    0.08    0.09</time>
   <energy>
    <i name="e_fr_energy">     -9.86910215 </i>
    <i name="e_wo_entrp">     -9.84235974 </i>
    <i name="e_0_energy">     -9.85573094 </i>
   </energy>
  </scstep>
  <scstep>
   <time name="dav">    0.05    0.06</time>
   <time name="total">    0.06    0.06</time>
   <energy>
    <i name="e_fr_energy">     -9.89838982 </i>
    <i name="e_wo_entrp">     -9.87165274 </i>
    <i name="e_0_energy">     -9.88502128 </i>
   </energy>
  </scstep>
  <scstep>
   <time name="dav">    0.09    0.10</time>
   <time name="total">    0.09    0.10</time>
   <energy>
    <i name="e_fr_energy">     -9.89841473 </i>
    <i name="e_wo_entrp">     -9.87167765 </i>
    <i name="e_0_energy">     -9.88504619 </i>
   </energy>
  </scstep>
  <scstep>
   <time name="dav">    0.05    0.06</time>
   <time name="total">    0.06    0.07</time>
   <energy>
    <i name="e_fr_energy">     -9.89841473 </i>
    <i name="e_wo_entrp">     -9.87167765 </i>
    <i name="e_0_energy">     -9.88504619 </i>
   </energy>
  </scstep>
  <scstep>
   <time name="dav">    0.06    0.06</time>
   <time name="total">    0.09    0.10</time>
   <energy>
    <i name="e_fr_energy">     -9.88956066 </i>
    <i name="e_wo_entrp">     -9.86283153 </i>
    <i name="e_0_energy">     -9.87619610 </i>
   </energy>
  </scstep>
  <scstep>
   <time name="dav">    0.04    0.05</time>
   <time name="total">    0.08    0.08</time>
   <energy>
    <i name="e_fr_energy">     -9.88251651 </i>
    <i name="e_wo_entrp">     -9.85579606 </i>
    <i name="e_0_energy">     -9.86915629 </i>
   </energy>
  </scstep>
  <scstep>
   <time name="dav">    0.05    0.05</time>
   <time name="total">    0.07    0.08</time>
   <energy>
    <i name="alphaZ">      4.40202223 </i>
    <i name="ewald">   -265.18101312 </i>
    <i name="hartreedc">     -2.51766521 </i>
    <i name="XCdc">    -17.52786465 </i>
    <i name="pawpsdc">     72.06187746 </i>
    <i name="pawaedc">    -36.98304479 </i>
    <i name="eentropy">     -0.02672140 </i>
    <i name="bandstr">     29.79808574 </i>
    <i name="atom">    206.09183643 </i>
    <i name="e_fr_energy">     -9.88248731 </i>
    <i name="e_wo_entrp">     -9.85576591 </i>
    <i name="e_0_energy">     -9.86912661 </i>
   </energy>
  </scstep>
  <structure>
   <crystal>
    <varray name="basis" >
     <v>      -2.45000000       2.45000000       1.27400000 </v>
     <v>       2.45000000      -2.45000000       1.27400000 </v>
     <v>       2.45000000       2.45000000      -1.27400000 </v>
    </varray>
    <i name="volume">     30.58874000 </i>
    <varray name="rec_basis" >
     <v>       0.00000000       0.20408163       0.39246468 </v>
     <v>       0.20408163       0.00000000       0.39246468 </v>
     <v>       0.20408163       0.20408163      -0.00000000 </v>
    </varray>
   </crystal>
   <varray name="positions" >
    <v>       0.25000000       0.75000000       0.50000000 </v>
    <v>       0.00000000       0.00000000       0.00000000 </v>
   </varray>
  </structure>
  <varray name="forces" >
   <v>      -0.00000000       0.00000000      -0.00000000 </v>
   <v>       0.00000000      -0.00000000       0.00000000 </v>
  </varray>
  <varray name="stress" >
   <v>    -115.73960367      -0.00000000       0.00000000 </v>
   <v>      -0.00000000    -115.73960367       0.00000000 </v>
   <v>       0.00000000      -0.00000000     204.50456463 </v>
  </varray>
  <energy>
   <i name="e_fr_energy">     -9.88248731 </i>
   <i name="e_wo_entrp">     -9.86912661 </i>
   <i name="e_0_energy">     -0.02672140 </i>
  </energy>
  <time name="totalsc">    1.02    1.30</time>
 </calculation>
 <calculation>
  <scstep>
   <time name="dav">    0.08    0.07</time>
   <time name="total">    0.10    0.11</time>
   <energy>
    <i name="alphaZ">      4.48889856 </i>
    <i name="ewald">   -266.54533199 </i>
    <i name="hartreedc">     -2.46140342 </i>
    <i name="XCdc">    -17.43928393 </i>
    <i name="pawpsdc">     72.07677335 </i>
    <i name="pawaedc">    -36.99843798 </i>
    <i name="eentropy">     -0.02664034 </i>
    <i name="bandstr">     30.65507064 </i>
    <i name="atom">    206.09183643 </i>
    <i name="e_fr_energy">    -10.15851869 </i>
    <i name="e_wo_entrp">    -10.13187836 </i>
    <i name="e_0_energy">    -10.14519852 </i>
   </energy>
  </scstep>
  <scstep>
   <time name="dav">    0.04    0.04</time>
   <time name="total">    0.08    0.08</time>
   <energy>
    <i name="e_fr_energy">    -10.02376370 </i>
    <i name="e_wo_entrp">     -9.99711029 </i>
    <i name="e_0_energy">    -10.01043699 </i>
   </energy>
  </scstep>
  <scstep>
   <time name="dav">    0.07    0.07</time>
   <time name="total">    0.10    0.10</time>
   <energy>
    <i name="e_fr_energy">     -9.95801660 </i>
    <i name="e_wo_entrp">     -9.93130726 </i>
    <i name="e_0_energy">     -9.94466193 </i>
   </energy>
  </scstep>
  <scstep>
   <time name="dav">    0.04    0.04</time>
   <time name="total">    0.06    0.07</time>
   <energy>
    <i name="alphaZ">      4.48889856 </i>
    <i name="ewald">   -266.54533199 </i>
    <i name="hartreedc">     -2.73916653 </i>
    <i name="XCdc">    -17.37319376 </i>
    <i name="pawpsdc">     73.88015030 </i>
    <i name="pawaedc">    -38.85080729 </i>
    <i name="eentropy">     -0.02670817 </i>
    <i name="bandstr">     31.11604747 </i>
    <i name="atom">    206.09183643 </i>
    <i name="e_fr_energy">     -9.95827500 </i>
    <i name="e_wo_entrp">     -9.93156682 </i>
    <i name="e_0_energy">     -9.94492091 </i>
   </energy>
  </scstep>
  <structure>
   <crystal>
    <varray name="basis" >
     <v>      -2.31941290       2.31941290       1.39398436 </v>
     <v>       2.31941290      -2.31941290       1.39398436 </v>
     <v>       2.31941290       2.31941290      -1.39398436 </v>
    </varray>
    <i name="volume">     29.99673792 </i>
    <varray name="rec_basis" >
     <v>      -0.00000000       0.21557179       0.35868408 </v>
     <v>       0.21557179      -0.00000000       0.35868408 </v>
     <v>       0.21557179       0.21557179       0.00000000 </v>
    </varray>
   </crystal>
   <varray name="positions" >
    <v>       0.25000000       0.75000000       0.50000000 </v>
    <v>      -0.00000000       0.00000000      -0.00000000 </v>
   </varray>
  </structure>
  <varray name="forces" >
   <v>       0.00000000      -0.00000000       0.00000000 </v>
   <v>      -0.00000000       0.00000000      -0.00000000 </v>
  </varray>
  <varray name="stress" >
   <v>     115.55441771       0.00000000       0.00000000 </v>
   <v>       0.00000000     115.55441771      -0.00000000 </v>
   <v>       0.00000000      -0.00000000    -100.29208822 </v>
  </varray>
  <energy>
   <i name="e_fr_energy">     -9.95827500 </i>
   <i name="e_wo_entrp">     -9.94492091 </i>
   <i name="e_0_energy">     -0.02670817 </i>
  </energy>
  <time name="totalsc">    0.46    0.54</time>
 </calculation>
 <calculation>
  <scstep>
   <time name="dav">    0.06    0.06</time>
   <time name="total">    0.09    0.09</time>
   <energy>
    <i name="alphaZ">      4.44316659 </i>
    <i name="ewald">   -266.05351178 </i>
    <i name="hartreedc">     -2.66961867 </i>
    <i name="XCdc">    -17.42912243 </i>
    <i name="pawpsdc">     73.80609503 </i>
    <i name="pawaedc">    -38.77382799 </i>
    <i name="eentropy">     -0.02663134 </i>
    <i name="bandstr">     30.53270911 </i>
    <i name="atom">    206.09183643 </i>
    <i name="e_fr_energy">    -10.07890505 </i>
    <i name="e_wo_entrp">    -10.05227371 </i>
    <i name="e_0_energy">    -10.06558938 </i>
   </energy>
  </scstep>
  <scstep>
   <time name="dav">    0.04    0.04</time>
   <time name="total">    0.07    0.08</time>
   <energy>
    <i name="e_fr_energy">    -10.05777047 </i>
    <i name="e_wo_entrp">    -10.03113912 </i>
    <i name="e_0_energy">    -10.04445479 </i>
   </energy>
  </scstep>
  <scstep>
   <time name="dav">    0.06    0.06</time>
   <time name="total">    0.09    0.10</time>
   <energy>
    <i name="e_fr_energy">    -10.04624080 </i>
    <i name="e_wo_entrp">    -10.01960945 </i>
    <i name="e_0_energy">    -10.03292513 </i>
   </energy>
  </scstep>
  <scstep>
   <time name="dav">    0.04    0.04</time>
   <time name="total">    0.06    0.07</time>
   <energy>
    <i name="alphaZ">      4.44316659 </i>
    <i name="ewald">   -266.05351178 </i>
    <i name="hartreedc">     -2.49291388 </i>
    <i name="XCdc">    -17.46422392 </i>
    <i name="pawpsdc">     72.76613544 </i>
    <i name="pawaedc">    -37.70639382 </i>
    <i name="eentropy">     -0.02663134 </i>
    <i name="bandstr">     30.39625820 </i>
    <i name="atom">    206.09183643 </i>
    <i name="e_fr_energy">    -10.04627809 </i>
    <i name="e_wo_entrp">    -10.01964674 </i>
    <i name="e_0_energy">    -10.03296242 </i>
   </energy>
  </scstep>
  <structure>
   <crystal>
    <varray name="basis" >
     <v>      -2.37627166       2.37627166       1.34174212 </v>
     <v>       2.37627166      -2.37627166       1.34174212 </v>
     <v>       2.37627166       2.37627166      -1.34174212 </v>
    </varray>
    <i name="volume">     30.30548394 </i>
    <varray name="rec_basis" >
     <v>      -0.00000000       0.21041365       0.37264985 </v>
     <v>       0.21041365      -0.00000000       0.37264985 </v>
     <v>       0.21041365       0.21041365       0.00000000 </v>
    </varray>
   </crystal>
   <varray name="positions" >
    <v>       0.25000000       0.75000000       0.50000000 </v>
    <v>      -0.00000000       0.00000000      -0.00000000 </v>
   </varray>
  </structure>
  <varray name="forces" >
   <v>       0.00000000       0.00000000      -0.00000000 </v>
   <v>      -0.00000000      -0.00000000       0.00000000 </v>
  </varray>
  <varray name="stress" >
   <v>       7.39135498       0.00000000      -0.00000000 </v>
   <v>       0.00000000       7.39135498      -0.00000000 </v>
   <v>       0.00000000       0.00000000      10.39320367 </v>
  </varray>
  <energy>
   <i name="e_fr_energy">    -10.04627809 </i>
   <i name="e_wo_entrp">    -10.03296242 </i>
   <i name="e_0_energy">     -0.02663134 </i>
  </energy>
  <time name="totalsc">    0.43    0.52</time>
 </calculation>
 <calculation>
  <scstep>
   <time name="dav">    0.03    0.03</time>
   <time name="total">    0.06    0.06</time>
   <energy>
    <i name="alphaZ">      4.44351515 </i>
    <i name="ewald">   -266.05839783 </i>
    <i name="hartreedc">     -2.50461983 </i>
    <i name="XCdc">    -17.46346541 </i>
    <i name="pawpsdc">     72.75521621 </i>
    <i name="pawaedc">    -37.69534812 </i>
    <i name="eentropy">     -0.02663134 </i>
    <i name="bandstr">     30.41162598 </i>
    <i name="atom">    206.09183643 </i>
    <i name="e_fr_energy">    -10.04626876 </i>
    <i name="e_wo_entrp">    -10.01963742 </i>
    <i name="e_0_energy">    -10.03295309 </i>
   </energy>
  </scstep>
  <scstep>
   <time name="dav">    0.02    0.02</time>
   <time name="total">    0.05    0.06</time>
   <energy>
    <i name="alphaZ">      4.44351515 </i>
    <i name="ewald">   -266.05839783 </i>
    <i name="hartreedc">     -2.50373648 </i>
    <i name="XCdc">    -17.46339448 </i>
    <i name="pawpsdc">     72.75918853 </i>
    <i name="pawaedc">    -37.69935700 </i>
    <i name="eentropy">     -0.02663134 </i>
    <i name="bandstr">     30.41070698 </i>
    <i name="atom">    206.09183643 </i>
    <i name="e_fr_energy">    -10.04627004 </i>
    <i name="e_wo_entrp">    -10.01963869 </i>
    <i name="e_0_energy">    -10.03295437 </i>
   </energy>
  </scstep>
  <structure>
   <crystal>
    <varray name="basis" >
     <v>      -2.37577224       2.37577224       1.34220100 </v>
     <v>       2.37577224      -2.37577224       1.34220100 </v>
     <v>       2.37577224       2.37577224      -1.34220100 </v>
    </varray>
    <i name="volume">     30.30310668 </i>
    <varray name="rec_basis" >
     <v>      -0.00000000       0.21045788       0.37252245 </v>
     <v>       0.21045788      -0.00000000       0.37252245 </v>
     <v>       0.21045788       0.21045788      -0.00000000 </v>
    </varray>
   </crystal>
   <varray name="positions" >
    <v>       0.25000000       0.75000000       0.50000000 </v>
    <v>      -0.00000000       0.00000000      -0.00000000 </v>
   </varray>
  </structure>
  <varray name="forces" >
   <v>       0.00000000       0.00000000      -0.00000000 </v>
   <v>      -0.00000000      -0.00000000       0.00000000 </v>
  </varray>
  <varray name="stress" >
   <v>       8.10702336       0.00000000       0.00000000 </v>
   <v>       0.00000000       8.10702336       0.00000000 </v>
   <v>       0.00000000       0.00000000       7.63159890 </v>
  </varray>
  <energy>
   <i name="e_fr_energy">    -10.04627004 </i>
   <i name="e_wo_entrp">    -10.03295437 </i>
   <i name="e_0_energy">     -0.02663134 </i>
  </energy>
  <time name="totalsc">    0.23    0.30</time>
 </calculation>
 <calculation>
  <scstep>
   <time name="dav">    0.02    0.02</time>
   <time name="total">    0.06    0.06</time>
   <energy>
    <i name="alphaZ">      4.44336429 </i>
    <i name="ewald">   -266.05628611 </i>
    <i name="hartreedc">     -2.50246850 </i>
    <i name="XCdc">    -17.46340193 </i>
    <i name="pawpsdc">     72.76580599 </i>
    <i name="pawaedc">    -37.70602819 </i>
    <i name="eentropy">     -0.02663134 </i>
    <i name="bandstr">     30.40753144 </i>
    <i name="atom">    206.09183643 </i>
    <i name="e_fr_energy">    -10.04627793 </i>
    <i name="e_wo_entrp">    -10.01964658 </i>
    <i name="e_0_energy">    -10.03296225 </i>
   </energy>
  </scstep>
  <scstep>
   <time name="dav">    0.02    0.02</time>
   <time name="total">    0.05    0.06</time>
   <energy>
    <i name="alphaZ">      4.44336429 </i>
    <i name="ewald">   -266.05628611 </i>
    <i name="hartreedc">     -2.50220240 </i>
    <i name="XCdc">    -17.46344051 </i>
    <i name="pawpsdc">     72.76464691 </i>
    <i name="pawaedc">    -37.70483798 </i>
    <i name="eentropy">     -0.02663134 </i>
    <i name="bandstr">     30.40727301 </i>
    <i name="atom">    206.09183643 </i>
    <i name="e_fr_energy">    -10.04627772 </i>
    <i name="e_wo_entrp">    -10.01964638 </i>
    <i name="e_0_energy">    -10.03296205 </i>
   </energy>
  </scstep>
  <structure>
   <crystal>
    <varray name="basis" >
     <v>      -2.37598823       2.37598823       1.34200254 </v>
     <v>       2.37598823      -2.37598823       1.34200254 </v>
     <v>       2.37598823       2.37598823      -1.34200254 </v>
    </varray>
    <i name="volume">     30.30413554 </i>
    <varray name="rec_basis" >
     <v>      -0.00000000       0.21043875       0.37257754 </v>
     <v>       0.21043875      -0.00000000       0.37257754 </v>
     <v>       0.21043875       0.21043875      -0.00000000 </v>
    </varray>
   </crystal>
   <varray name="positions" >
    <v>       0.25000000       0.75000000       0.50000000 </v>
    <v>      -0.00000000       0.00000000      -0.00000000 </v>
   </varray>
  </structure>
  <varray name="forces" >
   <v>      -0.00000000       0.00000000       0.00000000 </v>
   <v>       0.00000000      -0.00000000      -0.00000000 </v>
  </varray>
  <varray name="stress" >
   <v>       7.96943663       0.00000000      -0.00000000 </v>
   <v>       0.00000000       7.96943663       0.00000000 </v>
   <v>      -0.00000000       0.00000000       7.88101163 </v>
  </varray>
  <energy>
   <i name="e_fr_energy">    -10.04627772 </i>
   <i name="e_wo_entrp">    -10.03296205 </i>
   <i name="e_0_energy">     -0.02663134 </i>
  </energy>
  <time name="totalsc">    0.22    0.29</time>
 </calculation>
 <calculation>
  <scstep>
   <time name="dav">    0.03    0.02</time>
   <time name="total">    0.06    0.06</time>
   <energy>
    <i name="alphaZ">      4.44326540 </i>
    <i name="ewald">   -266.05489941 </i>
    <i name="hartreedc">     -2.50179404 </i>
    <i name="XCdc">    -17.46361675 </i>
    <i name="pawpsdc">     72.76348492 </i>
    <i name="pawaedc">    -37.70365610 </i>
    <i name="eentropy">     -0.02663134 </i>
    <i name="bandstr">     30.40573072 </i>
    <i name="atom">    206.09183643 </i>
    <i name="e_fr_energy">    -10.04628017 </i>
    <i name="e_wo_entrp">    -10.01964882 </i>
    <i name="e_0_energy">    -10.03296449 </i>
   </energy>
  </scstep>
  <scstep>
   <time name="dav">    0.02    0.02</time>
   <time name="total">    0.05    0.06</time>
   <energy>
    <i name="alphaZ">      4.44326540 </i>
    <i name="ewald">   -266.05489941 </i>
    <i name="hartreedc">     -2.50168986 </i>
    <i name="XCdc">    -17.46364191 </i>
    <i name="pawpsdc">     72.76259278 </i>
    <i name="pawaedc">    -37.70273917 </i>
    <i name="eentropy">     -0.02663134 </i>
    <i name="bandstr">     30.40562703 </i>
    <i name="atom">    206.09183643 </i>
    <i name="e_fr_energy">    -10.04628006 </i>
    <i name="e_wo_entrp">    -10.01964871 </i>
    <i name="e_0_energy">    -10.03296438 </i>
   </energy>
  </scstep>
  <structure>
   <crystal>
    <varray name="basis" >
     <v>      -2.37612995       2.37612995       1.34187233 </v>
     <v>       2.37612995      -2.37612995       1.34187233 </v>
     <v>       2.37612995       2.37612995      -1.34187233 </v>
    </varray>
    <i name="volume">     30.30480998 </i>
    <varray name="rec_basis" >
     <v>       0.00000000       0.21042620       0.37261369 </v>
     <v>       0.21042620       0.00000000       0.37261369 </v>
     <v>       0.21042620       0.21042620       0.00000000 </v>
    </varray>
   </crystal>
   <varray name="positions" >
    <v>       0.25000000       0.75000000       0.50000000 </v>
    <v>      -0.00000000       0.00000000      -0.00000000 </v>
   </varray>
  </structure>
  <varray name="forces" >
   <v>       0.00000000      -0.00000000       0.00000000 </v>
   <v>      -0.00000000       0.00000000      -0.00000000 </v>
  </varray>
  <varray name="stress" >
   <v>       7.69516660       0.00000000      -0.00000000 </v>
   <v>       0.00000000       7.69516660       0.00000000 </v>
   <v>      -0.00000000       0.00000000       8.25739744 </v>
  </varray>
  <energy>
   <i name="e_fr_energy">    -10.04628006 </i>
   <i name="e_wo_entrp">    -10.03296438 </i>
   <i name="e_0_energy">     -0.02663134 </i>
  </energy>
  <time name="totalsc">    0.23    0.29</time>
 </calculation>
 <calculation>
  <scstep>
   <time name="dav">    0.02    0.02</time>
   <time name="total">    0.06    0.06</time>
   <energy>
    <i name="alphaZ">      4.44321720 </i>
    <i name="ewald">   -266.05422276 </i>
    <i name="hartreedc">     -2.50153982 </i>
    <i name="XCdc">    -17.46373426 </i>
    <i name="pawpsdc">     72.76160945 </i>
    <i name="pawaedc">    -37.70173242 </i>
    <i name="eentropy">     -0.02663134 </i>
    <i name="bandstr">     30.40491673 </i>
    <i name="atom">    206.09183643 </i>
    <i name="e_fr_energy">    -10.04628079 </i>
    <i name="e_wo_entrp">    -10.01964945 </i>
    <i name="e_0_energy">    -10.03296512 </i>
   </energy>
  </scstep>
  <scstep>
   <time name="dav">    0.02    0.02</time>
   <time name="total">    0.05    0.06</time>
   <energy>
    <i name="alphaZ">      4.44321720 </i>
    <i name="ewald">   -266.05422276 </i>
    <i name="hartreedc">     -2.50149484 </i>
    <i name="XCdc">    -17.46374651 </i>
    <i name="pawpsdc">     72.76116863 </i>
    <i name="pawaedc">    -37.70127924 </i>
    <i name="eentropy">     -0.02663134 </i>
    <i name="bandstr">     30.40487168 </i>
    <i name="atom">    206.09183643 </i>
    <i name="e_fr_energy">    -10.04628077 </i>
    <i name="e_wo_entrp">    -10.01964942 </i>
    <i name="e_0_energy">    -10.03296510 </i>
   </energy>
  </scstep>
  <structure>
   <crystal>
    <varray name="basis" >
     <v>      -2.37619906       2.37619906       1.34180883 </v>
     <v>       2.37619906      -2.37619906       1.34180883 </v>
     <v>       2.37619906       2.37619906      -1.34180883 </v>
    </varray>
    <i name="volume">     30.30513874 </i>
    <varray name="rec_basis" >
     <v>       0.00000000       0.21042008       0.37263132 </v>
     <v>       0.21042008       0.00000000       0.37263132 </v>
     <v>       0.21042008       0.21042008       0.00000000 </v>
    </varray>
   </crystal>
   <varray name="positions" >
    <v>       0.25000000       0.75000000       0.50000000 </v>
    <v>      -0.00000000       0.00000000      -0.00000000 </v>
   </varray>
  </structure>
  <varray name="forces" >
   <v>      -0.00000000       0.00000000      -0.00000000 </v>
   <v>       0.00000000      -0.00000000       0.00000000 </v>
  </varray>
  <varray name="stress" >
   <v>       7.55403248      -0.00000000       0.00000000 </v>
   <v>      -0.00000000       7.55403248       0.00000000 </v>
   <v>       0.00000000       0.00000000       8.44773738 </v>
  </varray>
  <energy>
   <i name="e_fr_energy">    -10.04628077 </i>
   <i name="e_wo_entrp">    -10.03296510 </i>
   <i name="e_0_energy">     -0.02663134 </i>
  </energy>
  <time name="totalsc">    0.22    0.30</time>
 </calculation>
 <calculation>
  <scstep>
   <time name="dav">    0.05    0.05</time>
   <time name="total">    0.08    0.09</time>
   <energy>
    <i name="alphaZ">      4.40004875 </i>
    <i name="ewald">   -265.18690836 </i>
    <i name="hartreedc">     -2.49338625 </i>
    <i name="XCdc">    -17.51398039 </i>
    <i name="pawpsdc">     72.76067512 </i>
    <i name="pawaedc">    -37.70077330 </i>
    <i name="eentropy">     -0.02663134 </i>
    <i name="bandstr">     29.62205230 </i>
    <i name="atom">    206.09183643 </i>
    <i name="e_fr_energy">    -10.04706704 </i>
    <i name="e_wo_entrp">    -10.02043570 </i>
    <i name="e_0_energy">    -10.03375137 </i>
   </energy>
  </scstep>
  <scstep>
   <time name="dav">    0.04    0.04</time>
   <time name="total">    0.06    0.07</time>
   <energy>
    <i name="alphaZ">      4.40004875 </i>
    <i name="ewald">   -265.18690836 </i>
    <i name="hartreedc">     -2.51692112 </i>
    <i name="XCdc">    -17.51522901 </i>
    <i name="pawpsdc">     72.67825632 </i>
    <i name="pawaedc">    -37.61641675 </i>
    <i name="eentropy">     -0.02663134 </i>
    <i name="bandstr">     29.64513687 </i>
    <i name="atom">    206.09183643 </i>
    <i name="e_fr_energy">    -10.04682822 </i>
    <i name="e_wo_entrp">    -10.02019687 </i>
    <i name="e_0_energy">    -10.03351254 </i>
   </energy>
  </scstep>
  <structure>
   <crystal>
    <varray name="basis" >
     <v>      -2.38333459       2.38333459       1.34687194 </v>
     <v>       2.38333459      -2.38333459       1.34687194 </v>
     <v>       2.38333459       2.38333459      -1.34687194 </v>
    </varray>
    <i name="volume">     30.60245947 </i>
    <varray name="rec_basis" >
     <v>      -0.00000000       0.20979010       0.37123054 </v>
     <v>       0.20979010      -0.00000000       0.37123054 </v>
     <v>       0.20979010       0.20979010       0.00000000 </v>
    </varray>
   </crystal>
   <varray name="positions" >
    <v>       0.25000000       0.75000000       0.50000000 </v>
    <v>      -0.00000000       0.00000000      -0.00000000 </v>
   </varray>
  </structure>
  <varray name="forces" >
   <v>      -0.00000000       0.00000000       0.00000000 </v>
   <v>       0.00000000      -0.00000000      -0.00000000 </v>
  </varray>
  <varray name="stress" >
   <v>      -1.61389565       0.00000000      -0.00000000 </v>
   <v>       0.00000000      -1.61389565       0.00000000 </v>
   <v>      -0.00000000       0.00000000       1.94789059 </v>
  </varray>
  <energy>
   <i name="e_fr_energy">    -10.04682822 </i>
   <i name="e_wo_entrp">    -10.03351254 </i>
   <i name="e_0_energy">     -0.02663134 </i>
  </energy>
  <time name="totalsc">    0.25    0.32</time>
 </calculation>
 <calculation>
  <scstep>
   <time name="dav">    0.01    0.01</time>
   <time name="total">    0.02    0.03</time>
   <energy>
    <i name="alphaZ">      4.40132344 </i>
    <i name="ewald">   -265.21260033 </i>
    <i name="hartreedc">     -2.55027587 </i>
    <i name="XCdc">    -17.51598785 </i>
    <i name="pawpsdc">     72.53450347 </i>
    <i name="pawaedc">    -37.46898548 </i>
    <i name="eentropy">     -0.02663134 </i>
    <i name="bandstr">     29.70011203 </i>
    <i name="atom">    206.09183643 </i>
    <i name="e_fr_energy">    -10.04670549 </i>
    <i name="e_wo_entrp">    -10.02007415 </i>
    <i name="e_0_energy">    -10.03338982 </i>
   </energy>
  </scstep>
  <scstep>
   <time name="dav">    0.01    0.01</time>
   <time name="total">    0.02    0.03</time>
   <energy>
    <i name="alphaZ">      4.40132344 </i>
    <i name="ewald">   -265.21260033 </i>
    <i name="hartreedc">     -2.54925505 </i>
    <i name="XCdc">    -17.51627890 </i>
    <i name="pawpsdc">     72.52363521 </i>
    <i name="pawaedc">    -37.45764291 </i>
    <i name="eentropy">     -0.02663134 </i>
    <i name="bandstr">     29.69890848 </i>
    <i name="atom">    206.09183643 </i>
    <i name="e_fr_energy">    -10.04670497 </i>
    <i name="e_wo_entrp">    -10.02007363 </i>
    <i name="e_0_energy">    -10.03338930 </i>
   </energy>
  </scstep>
  <structure>
   <crystal>
    <varray name="basis" >
     <v>      -2.38312255       2.38312255       1.34672149 </v>
     <v>       2.38312255      -2.38312255       1.34672149 </v>
     <v>       2.38312255       2.38312255      -1.34672149 </v>
    </varray>
    <i name="volume">     30.59359653 </i>
    <varray name="rec_basis" >
     <v>      -0.00000000       0.20980876       0.37127201 </v>
     <v>       0.20980876      -0.00000000       0.37127201 </v>
     <v>       0.20980876       0.20980876       0.00000000 </v>
    </varray>
   </crystal>
   <varray name="positions" >
    <v>       0.25000000       0.75000000       0.50000000 </v>
    <v>      -0.00000000       0.00000000      -0.00000000 </v>
   </varray>
  </structure>
  <varray name="forces" >
   <v>      -0.00000000      -0.00000000       0.00000000 </v>
   <v>       0.00000000       0.00000000      -0.00000000 </v>
  </varray>
  <varray name="stress" >
   <v>      -3.80751421       0.00000000       0.00000000 </v>
   <v>       0.00000000      -3.80751421       0.00000000 </v>
   <v>      -0.00000000       0.00000000      -1.82127215 </v>
  </varray>
  <energy>
   <i name="e_fr_energy">    -10.04670497 </i>
   <i name="e_wo_entrp">    -10.03338930 </i>
   <i name="e_0_energy">     -0.02663134 </i>
  </energy>
  <time name="totalsc">    0.11    0.18</time>
 </calculation>
 <calculation>
  <scstep>
   <time name="dav">    0.02    0.02</time>
   <time name="total">    0.04    0.04</time>
   <energy>
    <i name="alphaZ">      4.41299552 </i>
    <i name="ewald">   -265.44762439 </i>
    <i name="hartreedc">     -2.55066170 </i>
    <i name="XCdc">    -17.50288653 </i>
    <i name="pawpsdc">     72.51420264 </i>
    <i name="pawaedc">    -37.44767906 </i>
    <i name="eentropy">     -0.02663134 </i>
    <i name="bandstr">     29.90964017 </i>
    <i name="atom">    206.09183643 </i>
    <i name="e_fr_energy">    -10.04680826 </i>
    <i name="e_wo_entrp">    -10.02017691 </i>
    <i name="e_0_energy">    -10.03349259 </i>
   </energy>
  </scstep>
  <scstep>
   <time name="dav">    0.01    0.01</time>
   <time name="total">    0.02    0.03</time>
   <energy>
    <i name="alphaZ">      4.41299552 </i>
    <i name="ewald">   -265.44762439 </i>
    <i name="hartreedc">     -2.54403075 </i>
    <i name="XCdc">    -17.50257178 </i>
    <i name="pawpsdc">     72.53520756 </i>
    <i name="pawaedc">    -37.46913656 </i>
    <i name="eentropy">     -0.02663134 </i>
    <i name="bandstr">     29.90316445 </i>
    <i name="atom">    206.09183643 </i>
    <i name="e_fr_energy">    -10.04679087 </i>
    <i name="e_wo_entrp">    -10.02015952 </i>
    <i name="e_0_energy">    -10.03347520 </i>
   </energy>
  </scstep>
  <structure>
   <crystal>
    <varray name="basis" >
     <v>      -2.38118476       2.38118476       1.34534650 </v>
     <v>       2.38118476      -2.38118476       1.34534650 </v>
     <v>       2.38118476       2.38118476      -1.34534650 </v>
    </varray>
    <i name="volume">     30.51267852 </i>
    <varray name="rec_basis" >
     <v>       0.00000000       0.20997951       0.37165147 </v>
     <v>       0.20997951       0.00000000       0.37165147 </v>
     <v>       0.20997951       0.20997951       0.00000000 </v>
    </varray>
   </crystal>
   <varray name="positions" >
    <v>       0.25000000       0.75000000       0.50000000 </v>
    <v>      -0.00000000       0.00000000      -0.00000000 </v>
   </varray>
  </structure>
  <varray name="forces" >
   <v>      -0.00000000       0.00000000       0.00000000 </v>
   <v>       0.00000000      -0.00000000      -0.00000000 </v>
  </varray>
  <varray name="stress" >
   <v>      -1.40319984       0.00000000       0.00000000 </v>
   <v>       0.00000000      -1.40319984       0.00000000 </v>
   <v>       0.00000000       0.00000000       0.00608250 </v>
  </varray>
  <energy>
   <i name="e_fr_energy">    -10.04679087 </i>
   <i name="e_wo_entrp">    -10.03347520 </i>
   <i name="e_0_energy">     -0.02663134 </i>
  </energy>
  <time name="totalsc">    0.12    0.19</time>
 </calculation>
 <calculation>
  <scstep>
   <time name="dav">    0.01    0.01</time>
   <time name="total">    0.02    0.03</time>
   <energy>
    <i name="alphaZ">      4.41713412 </i>
    <i name="ewald">   -265.53085730 </i>
    <i name="hartreedc">     -2.53568897 </i>
    <i name="XCdc">    -17.49715503 </i>
    <i name="pawpsdc">     72.57260863 </i>
    <i name="pawaedc">    -37.50743352 </i>
    <i name="eentropy">     -0.02663134 </i>
    <i name="bandstr">     29.96941052 </i>
    <i name="atom">    206.09183643 </i>
    <i name="e_fr_energy">    -10.04677646 </i>
    <i name="e_wo_entrp">    -10.02014511 </i>
    <i name="e_0_energy">    -10.03346079 </i>
   </energy>
  </scstep>
  <scstep>
   <time name="dav">    0.01    0.01</time>
   <time name="total">    0.02    0.03</time>
   <energy>
    <i name="alphaZ">      4.41713412 </i>
    <i name="ewald">   -265.53085730 </i>
    <i name="hartreedc">     -2.53335995 </i>
    <i name="XCdc">    -17.49699792 </i>
    <i name="pawpsdc">     72.58383288 </i>
    <i name="pawaedc">    -37.51901032 </i>
    <i name="eentropy">     -0.02663134 </i>
    <i name="bandstr">     29.96727874 </i>
    <i name="atom">    206.09183643 </i>
    <i name="e_fr_energy">    -10.04677466 </i>
    <i name="e_wo_entrp">    -10.02014332 </i>
    <i name="e_0_energy">    -10.03345899 </i>
   </energy>
  </scstep>
  <structure>
   <crystal>
    <varray name="basis" >
     <v>      -2.38049932       2.38049932       1.34486013 </v>
     <v>       2.38049932      -2.38049932       1.34486013 </v>
     <v>       2.38049932       2.38049932      -1.34486013 </v>
    </varray>
    <i name="volume">     30.48408989 </i>
    <varray name="rec_basis" >
     <v>      -0.00000000       0.21003997       0.37178587 </v>
     <v>       0.21003997      -0.00000000       0.37178587 </v>
     <v>       0.21003997       0.21003997      -0.00000000 </v>
    </varray>
   </crystal>
   <varray name="positions" >
    <v>       0.25000000       0.75000000       0.50000000 </v>
    <v>      -0.00000000       0.00000000      -0.00000000 </v>
   </varray>
  </structure>
  <varray name="forces" >
   <v>       0.00000000       0.00000000      -0.00000000 </v>
   <v>      -0.00000000      -0.00000000       0.00000000 </v>
  </varray>
  <varray name="stress" >
   <v>       0.18144889       0.00000000       0.00000000 </v>
   <v>       0.00000000       0.18144889       0.00000000 </v>
   <v>       0.00000000       0.00000000       1.76818033 </v>
  </varray>
  <energy>
   <i name="e_fr_energy">    -10.04677466 </i>
   <i name="e_wo_entrp">    -10.03345899 </i>
   <i name="e_0_energy">     -0.02663134 </i>
  </energy>
  <time name="totalsc">    0.25    0.49</time>
 </calculation>
 <calculation>
  <scstep>
   <time name="dav">    0.01    0.01</time>
   <time name="total">    0.02    0.03</time>
   <energy>
    <i name="alphaZ">      4.41514741 </i>
    <i name="ewald">   -265.49090838 </i>
    <i name="hartreedc">     -2.53008897 </i>
    <i name="XCdc">    -17.49897163 </i>
    <i name="pawpsdc">     72.60230576 </i>
    <i name="pawaedc">    -37.53804091 </i>
    <i name="eentropy">     -0.02663134 </i>
    <i name="bandstr">     29.92857000 </i>
    <i name="atom">    206.09183643 </i>
    <i name="e_fr_energy">    -10.04678165 </i>
    <i name="e_wo_entrp">    -10.02015031 </i>
    <i name="e_0_energy">    -10.03346598 </i>
   </energy>
  </scstep>
  <scstep>
   <time name="dav">    0.01    0.01</time>
   <time name="total">    0.02    0.03</time>
   <energy>
    <i name="alphaZ">      4.41514741 </i>
    <i name="ewald">   -265.49090838 </i>
    <i name="hartreedc">     -2.53117239 </i>
    <i name="XCdc">    -17.49896986 </i>
    <i name="pawpsdc">     72.59993413 </i>
    <i name="pawaedc">    -37.53561944 </i>
    <i name="eentropy">     -0.02663134 </i>
    <i name="bandstr">     29.92960214 </i>
    <i name="atom">    206.09183643 </i>
    <i name="e_fr_energy">    -10.04678131 </i>
    <i name="e_wo_entrp">    -10.02014996 </i>
    <i name="e_0_energy">    -10.03346563 </i>
   </energy>
  </scstep>
  <structure>
   <crystal>
    <varray name="basis" >
     <v>      -2.38082825       2.38082825       1.34509353 </v>
     <v>       2.38082825      -2.38082825       1.34509353 </v>
     <v>       2.38082825       2.38082825      -1.34509353 </v>
    </varray>
    <i name="volume">     30.49780700 </i>
    <varray name="rec_basis" >
     <v>      -0.00000000       0.21001095       0.37172136 </v>
     <v>       0.21001095      -0.00000000       0.37172136 </v>
     <v>       0.21001095       0.21001095      -0.00000000 </v>
    </varray>
   </crystal>
   <varray name="positions" >
    <v>       0.25000000       0.75000000       0.50000000 </v>
    <v>      -0.00000000       0.00000000      -0.00000000 </v>
   </varray>
  </structure>
  <varray name="forces" >
   <v>       0.00000000      -0.00000000       0.00000000 </v>
   <v>      -0.00000000       0.00000000      -0.00000000 </v>
  </varray>
  <varray name="stress" >
   <v>      -0.03635914       0.00000000      -0.00000000 </v>
   <v>       0.00000000      -0.03635914      -0.00000000 </v>
   <v>      -0.00000000      -0.00000000       1.77516307 </v>
  </varray>
  <energy>
   <i name="e_fr_energy">    -10.04678131 </i>
   <i name="e_wo_entrp">    -10.03346563 </i>
   <i name="e_0_energy">     -0.02663134 </i>
  </energy>
  <time name="totalsc">    0.10    0.18</time>
 </calculation>
 <calculation>
  <scstep>
   <time name="dav">    0.01    0.01</time>
   <time name="total">    0.02    0.03</time>
   <energy>
    <i name="alphaZ">      4.41407129 </i>
    <i name="ewald">   -265.46926463 </i>
    <i name="hartreedc">     -2.53225702 </i>
    <i name="XCdc">    -17.50029258 </i>
    <i name="pawpsdc">     72.59509407 </i>
    <i name="pawaedc">    -37.53068866 </i>
    <i name="eentropy">     -0.02663134 </i>
    <i name="bandstr">     29.91134937 </i>
    <i name="atom">    206.09183643 </i>
    <i name="e_fr_energy">    -10.04678309 </i>
    <i name="e_wo_entrp">    -10.02015174 </i>
    <i name="e_0_energy">    -10.03346742 </i>
   </energy>
  </scstep>
  <scstep>
   <time name="dav">    0.01    0.01</time>
   <time name="total">    0.02    0.03</time>
   <energy>
    <i name="alphaZ">      4.41407129 </i>
    <i name="ewald">   -265.46926463 </i>
    <i name="hartreedc">     -2.53291809 </i>
    <i name="XCdc">    -17.50032569 </i>
    <i name="pawpsdc">     72.59259268 </i>
    <i name="pawaedc">    -37.52811742 </i>
    <i name="eentropy">     -0.02663134 </i>
    <i name="bandstr">     29.91197393 </i>
    <i name="atom">    206.09183643 </i>
    <i name="e_fr_energy">    -10.04678285 </i>
    <i name="e_wo_entrp">    -10.02015151 </i>
    <i name="e_0_energy">    -10.03346718 </i>
   </energy>
  </scstep>
  <structure>
   <crystal>
    <varray name="basis" >
     <v>      -2.38100651       2.38100651       1.34522002 </v>
     <v>       2.38100651      -2.38100651       1.34522002 </v>
     <v>       2.38100651       2.38100651      -1.34522002 </v>
    </varray>
    <i name="volume">     30.50524216 </i>
    <varray name="rec_basis" >
     <v>      -0.00000000       0.20999523       0.37168641 </v>
     <v>       0.20999523      -0.00000000       0.37168641 </v>
     <v>       0.20999523       0.20999523       0.00000000 </v>
    </varray>
   </crystal>
   <varray name="positions" >
    <v>       0.25000000       0.75000000       0.50000000 </v>
    <v>      -0.00000000       0.00000000      -0.00000000 </v>
   </varray>
  </structure>
  <varray name="forces" >
   <v>      -0.00000000      -0.00000000      -0.00000000 </v>
   <v>       0.00000000       0.00000000       0.00000000 </v>
  </varray>
  <varray name="stress" >
   <v>      -0.34874120       0.00000000       0.00000000 </v>
   <v>       0.00000000      -0.34874120       0.00000000 </v>
   <v>       0.00000000       0.00000000       1.45593373 </v>
  </varray>
  <energy>
   <i name="e_fr_energy">    -10.04678285 </i>
   <i name="e_wo_entrp">    -10.03346718 </i>
   <i name="e_0_energy">     -0.02663134 </i>
  </energy>
  <time name="totalsc">    0.10    0.18</time>
 </calculation>
 <calculation>
  <scstep>
   <time name="dav">    0.01    0.01</time>
   <time name="total">    0.02    0.03</time>
   <energy>
    <i name="alphaZ">      4.41353336 </i>
    <i name="ewald">   -265.45844407 </i>
    <i name="hartreedc">     -2.53361755 </i>
    <i name="XCdc">    -17.50103443 </i>
    <i name="pawpsdc">     72.58824156 </i>
    <i name="pawaedc">    -37.52365141 </i>
    <i name="eentropy">     -0.02663134 </i>
    <i name="bandstr">     29.90298434 </i>
    <i name="atom">    206.09183643 </i>
    <i name="e_fr_energy">    -10.04678311 </i>
    <i name="e_wo_entrp">    -10.02015176 </i>
    <i name="e_0_energy">    -10.03346744 </i>
   </energy>
  </scstep>
  <scstep>
   <time name="dav">    0.01    0.01</time>
   <time name="total">    0.02    0.03</time>
   <energy>
    <i name="alphaZ">      4.41353336 </i>
    <i name="ewald">   -265.45844407 </i>
    <i name="hartreedc">     -2.53394687 </i>
    <i name="XCdc">    -17.50105428 </i>
    <i name="pawpsdc">     72.58689040 </i>
    <i name="pawaedc">    -37.52226050 </i>
    <i name="eentropy">     -0.02663134 </i>
    <i name="bandstr">     29.90329386 </i>
    <i name="atom">    206.09183643 </i>
    <i name="e_fr_energy">    -10.04678302 </i>
    <i name="e_wo_entrp">    -10.02015168 </i>
    <i name="e_0_energy">    -10.03346735 </i>
   </energy>
  </scstep>
  <structure>
   <crystal>
    <varray name="basis" >
     <v>      -2.38109563       2.38109563       1.34528326 </v>
     <v>       2.38109563      -2.38109563       1.34528326 </v>
     <v>       2.38109563       2.38109563      -1.34528326 </v>
    </varray>
    <i name="volume">     30.50896019 </i>
    <varray name="rec_basis" >
     <v>       0.00000000       0.20998737       0.37166894 </v>
     <v>       0.20998737       0.00000000       0.37166894 </v>
     <v>       0.20998737       0.20998737      -0.00000000 </v>
    </varray>
   </crystal>
   <varray name="positions" >
    <v>       0.25000000       0.75000000       0.50000000 </v>
    <v>      -0.00000000       0.00000000      -0.00000000 </v>
   </varray>
  </structure>
  <varray name="forces" >
   <v>      -0.00000000       0.00000000       0.00000000 </v>
   <v>       0.00000000      -0.00000000      -0.00000000 </v>
  </varray>
  <varray name="stress" >
   <v>      -0.52452619       0.00000000       0.00000000 </v>
   <v>       0.00000000      -0.52452619       0.00000000 </v>
   <v>       0.00000000       0.00000000       1.27878368 </v>
  </varray>
  <energy>
   <i name="e_fr_energy">    -10.04678302 </i>
   <i name="e_wo_entrp">    -10.03346735 </i>
   <i name="e_0_energy">     -0.02663134 </i>
  </energy>
  <time name="totalsc">    0.11    0.18</time>
 </calculation>
 <calculation>
  <scstep>
   <time name="dav">    0.01    0.01</time>
   <time name="total">    0.02    0.03</time>
   <energy>
    <i name="alphaZ">      4.41326443 </i>
    <i name="ewald">   -265.45303412 </i>
    <i name="hartreedc">     -2.53429554 </i>
    <i name="XCdc">    -17.50141239 </i>
    <i name="pawpsdc">     72.58458871 </i>
    <i name="pawaedc">    -37.51989438 </i>
    <i name="eentropy">     -0.02663134 </i>
    <i name="bandstr">     29.89879518 </i>
    <i name="atom">    206.09183643 </i>
    <i name="e_fr_energy">    -10.04678303 </i>
    <i name="e_wo_entrp">    -10.02015169 </i>
    <i name="e_0_energy">    -10.03346736 </i>
   </energy>
  </scstep>
  <scstep>
   <time name="dav">    0.01    0.01</time>
   <time name="total">    0.02    0.03</time>
   <energy>
    <i name="alphaZ">      4.41326443 </i>
    <i name="ewald">   -265.45303412 </i>
    <i name="hartreedc">     -2.53445979 </i>
    <i name="XCdc">    -17.50142245 </i>
    <i name="pawpsdc">     72.58391178 </i>
    <i name="pawaedc">    -37.51919733 </i>
    <i name="eentropy">     -0.02663134 </i>
    <i name="bandstr">     29.89894941 </i>
    <i name="atom">    206.09183643 </i>
    <i name="e_fr_energy">    -10.04678300 </i>
    <i name="e_wo_entrp">    -10.02015165 </i>
    <i name="e_0_energy">    -10.03346733 </i>
   </energy>
  </scstep>
  <structure>
   <crystal>
    <varray name="basis" >
     <v>      -2.38114020       2.38114020       1.34531488 </v>
     <v>       2.38114020      -2.38114020       1.34531488 </v>
     <v>       2.38114020       2.38114020      -1.34531488 </v>
    </varray>
    <i name="volume">     30.51081931 </i>
    <varray name="rec_basis" >
     <v>       0.00000000       0.20998344       0.37166020 </v>
     <v>       0.20998344       0.00000000       0.37166020 </v>
     <v>       0.20998344       0.20998344      -0.00000000 </v>
    </varray>
   </crystal>
   <varray name="positions" >
    <v>       0.25000000       0.75000000       0.50000000 </v>
    <v>      -0.00000000       0.00000000      -0.00000000 </v>
   </varray>
  </structure>
  <varray name="forces" >
   <v>       0.00000000      -0.00000000      -0.00000000 </v>
   <v>      -0.00000000       0.00000000       0.00000000 </v>
  </varray>
  <varray name="stress" >
   <v>      -0.61304076       0.00000000       0.00000000 </v>
   <v>       0.00000000      -0.61304076       0.00000000 </v>
   <v>       0.00000000       0.00000000       1.19024590 </v>
  </varray>
  <energy>
   <i name="e_fr_energy">    -10.04678300 </i>
   <i name="e_wo_entrp">    -10.03346733 </i>
   <i name="e_0_energy">     -0.02663134 </i>
  </energy>
  <time name="totalsc">    0.11    0.22</time>
  <eigenvalues>
   <array>
    <dimension dim="1">band</dimension>
    <dimension dim="2">kpoint</dimension>
    <dimension dim="3">spin</dimension>
    <field>eigene</field>
    <field>occ</field>
    <set>
     <set comment="spin 1">
      <set comment="kpoint 1">
       <r>   -4.5853    1.0000 </r>
       <r>    6.7887    1.0000 </r>
       <r>    6.7888    1.0000 </r>
       <r>    7.4717    1.0000 </r>
       <r>   10.9521    0.0000 </r>
       <r>   16.7388    0.0000 </r>
       <r>   18.1966    0.0000 </r>
       <r>   18.1966    0.0000 </r>
      </set>
      <set comment="kpoint 2">
       <r>   -1.7026    1.0000 </r>
       <r>    5.5916    1.0000 </r>
       <r>    6.7734    1.0000 </r>
       <r>    7.0713    1.0000 </r>
       <r>   10.0539    0.0000 </r>
       <r>   12.1511    0.0000 </r>
       <r>   13.6004    0.0000 </r>
       <r>   14.5063    0.0000 </r>
      </set>
      <set comment="kpoint 3">
       <r>    0.9907    1.0000 </r>
       <r>    1.0508    1.0000 </r>
       <r>    5.5081    1.0000 </r>
       <r>    8.2621    1.0000 </r>
       <r>    9.2261    0.2500 </r>
       <r>   10.8238    0.0000 </r>
       <r>   16.1342    0.0000 </r>
       <r>   16.8887    0.0000 </r>
      </set>
      <set comment="kpoint 4">
       <r>   -3.1823    1.0000 </r>
       <r>    0.9441    1.0000 </r>
       <r>    8.0682    1.0000 </r>
       <r>   10.3510    0.0000 </r>
       <r>   11.8360    0.0000 </r>
       <r>   14.2176    0.0000 </r>
       <r>   17.1126    0.0000 </r>
       <r>   17.4065    0.0000 </r>
      </set>
      <set comment="kpoint 5">
       <r>   -1.8029    1.0000 </r>
       <r>    1.7063    1.0000 </r>
       <r>    3.0747    1.0000 </r>
       <r>    6.4877    1.0000 </r>
       <r>   14.7556    0.0000 </r>
       <r>   15.1176    0.0000 </r>
       <r>   18.0114    0.0000 </r>
       <r>   19.8385    0.0000 </r>
      </set>
      <set comment="kpoint 6">
       <r>    2.7003    1.0000 </r>
       <r>    3.2012    1.0000 </r>
       <r>    4.4826    1.0000 </r>
       <r>    4.4826    1.0000 </r>
       <r>    4.7202    1.0000 </r>
       <r>   15.4182    0.0000 </r>
       <r>   15.7880    0.0000 </r>
       <r>   15.7881    0.0000 </r>
      </set>
     </set>
    </set>
   </array>
  </eigenvalues>
  <separator name="orbital magnetization" >
   <v name="MAGDIPOLOUT">      0.00000000      0.00000000      0.00000000</v>
  </separator>
  <dos>
   <i name="efermi">      9.13073960 </i>
   <total>
    <array>
     <dimension dim="1">gridpoints</dimension>
     <dimension dim="2">spin</dimension>
     <field>energy</field>
     <field>total</field>
     <field>integrated</field>
     <set>
      <set comment="spin 1">
       <r>    -6.5853     0.0000     0.0000 </r>
       <r>    -6.4906     0.0000     0.0000 </r>
       <r>    -6.3958     0.0000     0.0000 </r>
       <r>    -6.3011     0.0000     0.0000 </r>
       <r>    -6.2063     0.0000     0.0000 </r>
       <r>    -6.1116     0.0000     0.0000 </r>
       <r>    -6.0168     0.0000     0.0000 </r>
       <r>    -5.9221     0.0000     0.0000 </r>
       <r>    -5.8273     0.0000     0.0000 </r>
       <r>    -5.7326     0.0000     0.0000 </r>
       <r>    -5.6378     0.0000     0.0000 </r>
       <r>    -5.5431     0.0000     0.0000 </r>
       <r>    -5.4483     0.0000     0.0000 </r>
       <r>    -5.3536     0.0000     0.0000 </r>
       <r>    -5.2589     0.0000     0.0000 </r>
       <r>    -5.1641     0.0000     0.0000 </r>
       <r>    -5.0694     0.0002     0.0000 </r>
       <r>    -4.9746     0.0021     0.0002 </r>
       <r>    -4.8799     0.0123     0.0014 </r>
       <r>    -4.7851     0.0471     0.0058 </r>
       <r>    -4.6904     0.1172     0.0169 </r>
       <r>    -4.5956     0.1893     0.0349 </r>
       <r>    -4.5009     0.1984     0.0537 </r>
       <r>    -4.4061     0.1350     0.0665 </r>
       <r>    -4.3114     0.0596     0.0721 </r>
       <r>    -4.2166     0.0171     0.0737 </r>
       <r>    -4.1219     0.0032     0.0740 </r>
       <r>    -4.0272     0.0004     0.0741 </r>
       <r>    -3.9324     0.0000     0.0741 </r>
       <r>    -3.8377     0.0000     0.0741 </r>
       <r>    -3.7429     0.0001     0.0741 </r>
       <r>    -3.6482     0.0014     0.0742 </r>
       <r>    -3.5534     0.0120     0.0754 </r>
       <r>    -3.4587     0.0656     0.0816 </r>
       <r>    -3.3639     0.2319     0.1035 </r>
       <r>    -3.2692     0.5314     0.1539 </r>
       <r>    -3.1744     0.7901     0.2287 </r>
       <r>    -3.0797     0.7624     0.3010 </r>
       <r>    -2.9849     0.4775     0.3462 </r>
       <r>    -2.8902     0.1940     0.3646 </r>
       <r>    -2.7955     0.0511     0.3694 </r>
       <r>    -2.7007     0.0087     0.3703 </r>
       <r>    -2.6060     0.0010     0.3704 </r>
       <r>    -2.5112     0.0001     0.3704 </r>
       <r>    -2.4165     0.0000     0.3704 </r>
       <r>    -2.3217     0.0004     0.3704 </r>
       <r>    -2.2270     0.0045     0.3708 </r>
       <r>    -2.1322     0.0336     0.3740 </r>
       <r>    -2.0375     0.1694     0.3901 </r>
       <r>    -1.9427     0.5768     0.4447 </r>
       <r>    -1.8480     1.3383     0.5715 </r>
       <r>    -1.7532     2.1223     0.7726 </r>
       <r>    -1.6585     2.2944     0.9900 </r>
       <r>    -1.5638     1.6798     1.1491 </r>
       <r>    -1.4690     0.8254     1.2273 </r>
       <r>    -1.3743     0.2697     1.2529 </r>
       <r>    -1.2795     0.0581     1.2584 </r>
       <r>    -1.1848     0.0082     1.2592 </r>
       <r>    -1.0900     0.0008     1.2593 </r>
       <r>    -0.9953     0.0000     1.2593 </r>
       <r>    -0.9005     0.0000     1.2593 </r>
       <r>    -0.8058     0.0000     1.2593 </r>
       <r>    -0.7110     0.0000     1.2593 </r>
       <r>    -0.6163     0.0000     1.2593 </r>
       <r>    -0.5215     0.0000     1.2593 </r>
       <r>    -0.4268     0.0000     1.2593 </r>
       <r>    -0.3321     0.0000     1.2593 </r>
       <r>    -0.2373     0.0000     1.2593 </r>
       <r>    -0.1426     0.0000     1.2593 </r>
       <r>    -0.0478     0.0000     1.2593 </r>
       <r>     0.0469     0.0000     1.2593 </r>
       <r>     0.1417     0.0000     1.2593 </r>
       <r>     0.2364     0.0000     1.2593 </r>
       <r>     0.3312     0.0000     1.2593 </r>
       <r>     0.4259     0.0006     1.2593 </r>
       <r>     0.5207     0.0070     1.2600 </r>
       <r>     0.6154     0.0552     1.2652 </r>
       <r>     0.7102     0.2884     1.2925 </r>
       <r>     0.8049     1.0043     1.3877 </r>
       <r>     0.8996     2.3393     1.6093 </r>
       <r>     0.9944     3.6539     1.9555 </r>
       <r>     1.0891     3.8310     2.3185 </r>
       <r>     1.1839     2.6948     2.5738 </r>
       <r>     1.2786     1.2719     2.6943 </r>
       <r>     1.3734     0.4233     2.7344 </r>
       <r>     1.4681     0.1981     2.7532 </r>
       <r>     1.5629     0.3530     2.7867 </r>
       <r>     1.6576     0.6582     2.8490 </r>
       <r>     1.7524     0.8205     2.9268 </r>
       <r>     1.8471     0.6648     2.9897 </r>
       <r>     1.9419     0.3495     3.0229 </r>
       <r>     2.0366     0.1192     3.0341 </r>
       <r>     2.1313     0.0264     3.0366 </r>
       <r>     2.2261     0.0044     3.0371 </r>
       <r>     2.3208     0.0054     3.0376 </r>
       <r>     2.4156     0.0288     3.0403 </r>
       <r>     2.5103     0.1057     3.0503 </r>
       <r>     2.6051     0.2527     3.0743 </r>
       <r>     2.6998     0.3997     3.1121 </r>
       <r>     2.7946     0.4538     3.1551 </r>
       <r>     2.8893     0.4937     3.2019 </r>
       <r>     2.9841     0.7013     3.2683 </r>
       <r>     3.0788     1.0184     3.3648 </r>
       <r>     3.1736     1.1333     3.4722 </r>
       <r>     3.2683     0.8974     3.5572 </r>
       <r>     3.3630     0.5019     3.6048 </r>
       <r>     3.4578     0.1972     3.6235 </r>
       <r>     3.5525     0.0537     3.6286 </r>
       <r>     3.6473     0.0099     3.6295 </r>
       <r>     3.7420     0.0012     3.6296 </r>
       <r>     3.8368     0.0001     3.6296 </r>
       <r>     3.9315     0.0001     3.6296 </r>
       <r>     4.0263     0.0018     3.6298 </r>
       <r>     4.1210     0.0146     3.6312 </r>
       <r>     4.2158     0.0762     3.6384 </r>
       <r>     4.3105     0.2597     3.6630 </r>
       <r>     4.4053     0.5814     3.7181 </r>
       <r>     4.5000     0.8760     3.8011 </r>
       <r>     4.5947     0.9415     3.8903 </r>
       <r>     4.6895     0.7989     3.9660 </r>
       <r>     4.7842     0.5804     4.0210 </r>
       <r>     4.8790     0.3479     4.0540 </r>
       <r>     4.9737     0.1550     4.0686 </r>
       <r>     5.0685     0.0531     4.0737 </r>
       <r>     5.1632     0.0567     4.0790 </r>
       <r>     5.2580     0.2453     4.1023 </r>
       <r>     5.3527     0.8374     4.1816 </r>
       <r>     5.4475     1.9173     4.3633 </r>
       <r>     5.5422     2.9438     4.6422 </r>
       <r>     5.6370     3.0395     4.9302 </r>
       <r>     5.7317     2.1109     5.1302 </r>
       <r>     5.8264     0.9836     5.2234 </r>
       <r>     5.9212     0.3062     5.2524 </r>
       <r>     6.0159     0.0645     5.2585 </r>
       <r>     6.1107     0.0193     5.2603 </r>
       <r>     6.2054     0.0608     5.2661 </r>
       <r>     6.3002     0.2201     5.2869 </r>
       <r>     6.3949     0.5359     5.3377 </r>
       <r>     6.4897     0.9206     5.4249 </r>
       <r>     6.5844     1.2918     5.5473 </r>
       <r>     6.6792     1.7522     5.7134 </r>
       <r>     6.7739     2.2313     5.9248 </r>
       <r>     6.8687     2.3729     6.1496 </r>
       <r>     6.9634     2.2112     6.3591 </r>
       <r>     7.0581     2.0521     6.5535 </r>
       <r>     7.1529     1.7550     6.7198 </r>
       <r>     7.2476     1.1612     6.8298 </r>
       <r>     7.3424     0.5913     6.8858 </r>
       <r>     7.4371     0.3172     6.9159 </r>
       <r>     7.5319     0.2313     6.9378 </r>
       <r>     7.6266     0.1611     6.9531 </r>
       <r>     7.7214     0.0966     6.9622 </r>
       <r>     7.8161     0.1237     6.9739 </r>
       <r>     7.9109     0.3396     7.0061 </r>
       <r>     8.0056     0.7912     7.0811 </r>
       <r>     8.1004     1.3883     7.2126 </r>
       <r>     8.1951     1.9021     7.3928 </r>
       <r>     8.2898     2.0207     7.5843 </r>
       <r>     8.3846     1.5760     7.7336 </r>
       <r>     8.4793     0.8529     7.8144 </r>
       <r>     8.5741     0.3089     7.8437 </r>
       <r>     8.6688     0.0738     7.8507 </r>
       <r>     8.7636     0.0145     7.8521 </r>
       <r>     8.8583     0.0269     7.8546 </r>
       <r>     8.9531     0.1383     7.8677 </r>
       <r>     9.0478     0.4811     7.9133 </r>
       <r>     9.1426     1.0858     8.0162 </r>
       <r>     9.2373     1.5900     8.1668 </r>
       <r>     9.3321     1.5109     8.3100 </r>
       <r>     9.4268     0.9318     8.3983 </r>
       <r>     9.5215     0.3733     8.4336 </r>
       <r>     9.6163     0.1023     8.4433 </r>
       <r>     9.7110     0.0580     8.4488 </r>
       <r>     9.8058     0.2021     8.4680 </r>
       <r>     9.9005     0.6237     8.5270 </r>
       <r>     9.9953     1.2681     8.6472 </r>
       <r>    10.0900     1.7189     8.8101 </r>
       <r>    10.1848     1.6608     8.9674 </r>
       <r>    10.2795     1.3477     9.0951 </r>
       <r>    10.3743     1.0859     9.1980 </r>
       <r>    10.4690     0.8242     9.2761 </r>
       <r>    10.5638     0.6046     9.3334 </r>
       <r>    10.6585     0.7261     9.4022 </r>
       <r>    10.7532     1.2610     9.5216 </r>
       <r>    10.8480     1.7441     9.6869 </r>
       <r>    10.9427     1.6411     9.8424 </r>
       <r>    11.0375     1.0412     9.9410 </r>
       <r>    11.1322     0.4520     9.9838 </r>
       <r>    11.2270     0.1366     9.9968 </r>
       <r>    11.3217     0.0295     9.9996 </r>
       <r>    11.4165     0.0086    10.0004 </r>
       <r>    11.5112     0.0296    10.0032 </r>
       <r>    11.6060     0.1289    10.0154 </r>
       <r>    11.7007     0.3716    10.0506 </r>
       <r>    11.7955     0.7139    10.1183 </r>
       <r>    11.8902     0.9858    10.2117 </r>
       <r>    11.9849     1.1873    10.3242 </r>
       <r>    12.0797     1.4926    10.4656 </r>
       <r>    12.1744     1.7249    10.6290 </r>
       <r>    12.2692     1.4773    10.7690 </r>
       <r>    12.3639     0.8516    10.8497 </r>
       <r>    12.4587     0.3213    10.8801 </r>
       <r>    12.5534     0.0788    10.8876 </r>
       <r>    12.6482     0.0125    10.8888 </r>
       <r>    12.7429     0.0013    10.8889 </r>
       <r>    12.8377     0.0001    10.8889 </r>
       <r>    12.9324     0.0000    10.8889 </r>
       <r>    13.0272     0.0002    10.8889 </r>
       <r>    13.1219     0.0021    10.8891 </r>
       <r>    13.2166     0.0186    10.8909 </r>
       <r>    13.3114     0.1074    10.9010 </r>
       <r>    13.4061     0.4020    10.9391 </r>
       <r>    13.5009     0.9759    11.0316 </r>
       <r>    13.5956     1.5369    11.1772 </r>
       <r>    13.6904     1.5711    11.3261 </r>
       <r>    13.7851     1.0451    11.4251 </r>
       <r>    13.8799     0.4714    11.4697 </r>
       <r>    13.9746     0.2332    11.4918 </r>
       <r>    14.0694     0.3548    11.5254 </r>
       <r>    14.1641     0.6871    11.5905 </r>
       <r>    14.2589     1.0227    11.6874 </r>
       <r>    14.3536     1.3111    11.8117 </r>
       <r>    14.4483     1.6609    11.9690 </r>
       <r>    14.5431     1.9251    12.1514 </r>
       <r>    14.6378     1.8389    12.3256 </r>
       <r>    14.7326     1.5006    12.4678 </r>
       <r>    14.8273     1.1320    12.5751 </r>
       <r>    14.9221     0.8438    12.6550 </r>
       <r>    15.0168     0.7689    12.7279 </r>
       <r>    15.1116     0.8697    12.8103 </r>
       <r>    15.2063     0.8850    12.8941 </r>
       <r>    15.3011     0.7419    12.9644 </r>
       <r>    15.3958     0.6001    13.0213 </r>
       <r>    15.4906     0.5146    13.0700 </r>
       <r>    15.5853     0.4842    13.1159 </r>
       <r>    15.6800     0.5994    13.1727 </r>
       <r>    15.7748     0.8224    13.2506 </r>
       <r>    15.8695     0.9631    13.3418 </r>
       <r>    15.9643     1.0776    13.4439 </r>
       <r>    16.0590     1.3894    13.5756 </r>
       <r>    16.1538     1.6822    13.7350 </r>
       <r>    16.2485     1.4865    13.8758 </r>
       <r>    16.3433     0.8777    13.9590 </r>
       <r>    16.4380     0.3517    13.9923 </r>
       <r>    16.5328     0.1602    14.0075 </r>
       <r>    16.6275     0.2917    14.0351 </r>
       <r>    16.7223     0.7408    14.1053 </r>
       <r>    16.8170     1.4150    14.2394 </r>
       <r>    16.9117     1.9447    14.4236 </r>
       <r>    17.0065     1.9920    14.6123 </r>
       <r>    17.1012     1.6657    14.7702 </r>
       <r>    17.1960     1.2866    14.8921 </r>
       <r>    17.2907     1.0554    14.9921 </r>
       <r>    17.3855     0.9867    15.0855 </r>
       <r>    17.4802     0.8777    15.1687 </r>
       <r>    17.5750     0.5922    15.2248 </r>
       <r>    17.6697     0.2902    15.2523 </r>
       <r>    17.7645     0.1838    15.2697 </r>
       <r>    17.8592     0.3417    15.3021 </r>
       <r>    17.9540     0.6859    15.3671 </r>
       <r>    18.0487     0.9824    15.4601 </r>
       <r>    18.1434     1.0119    15.5560 </r>
       <r>    18.2382     0.7877    15.6307 </r>
       <r>    18.3329     0.4732    15.6755 </r>
       <r>    18.4277     0.2129    15.6956 </r>
       <r>    18.5224     0.0680    15.7021 </r>
       <r>    18.6172     0.0147    15.7035 </r>
       <r>    18.7119     0.0021    15.7037 </r>
       <r>    18.8067     0.0002    15.7037 </r>
       <r>    18.9014     0.0000    15.7037 </r>
       <r>    18.9962     0.0000    15.7037 </r>
       <r>    19.0909     0.0000    15.7037 </r>
       <r>    19.1857     0.0000    15.7037 </r>
       <r>    19.2804     0.0001    15.7037 </r>
       <r>    19.3751     0.0015    15.7039 </r>
       <r>    19.4699     0.0126    15.7051 </r>
       <r>    19.5646     0.0682    15.7115 </r>
       <r>    19.6594     0.2384    15.7341 </r>
       <r>    19.7541     0.5400    15.7853 </r>
       <r>    19.8489     0.7938    15.8605 </r>
       <r>    19.9436     0.7572    15.9322 </r>
       <r>    20.0384     0.4688    15.9766 </r>
       <r>    20.1331     0.1883    15.9945 </r>
       <r>    20.2279     0.0490    15.9991 </r>
       <r>    20.3226     0.0083    15.9999 </r>
       <r>    20.4174     0.0009    16.0000 </r>
       <r>    20.5121     0.0001    16.0000 </r>
       <r>    20.6068     0.0000    16.0000 </r>
       <r>    20.7016     0.0000    16.0000 </r>
       <r>    20.7963     0.0000    16.0000 </r>
       <r>    20.8911     0.0000    16.0000 </r>
       <r>    20.9858     0.0000    16.0000 </r>
       <r>    21.0806     0.0000    16.0000 </r>
       <r>    21.1753     0.0000    16.0000 </r>
       <r>    21.2701     0.0000    16.0000 </r>
       <r>    21.3648     0.0000    16.0000 </r>
       <r>    21.4596     0.0000    16.0000 </r>
       <r>    21.5543     0.0000    16.0000 </r>
       <r>    21.6491     0.0000    16.0000 </r>
       <r>    21.7438     0.0000    16.0000 </r>
       <r>    21.8385     0.0000    16.0000 </r>
      </set>
     </set>
    </array>
   </total>
  </dos>
 </calculation>
 <structure name="finalpos" >
  <crystal>
   <varray name="basis" >
    <v>      -2.38114020       2.38114020       1.34531488 </v>
    <v>       2.38114020      -2.38114020       1.34531488 </v>
    <v>       2.38114020       2.38114020      -1.34531488 </v>
   </varray>
   <i name="volume">     30.51081931 </i>
   <varray name="rec_basis" >
    <v>       0.00000000       0.20998344       0.37166020 </v>
    <v>       0.20998344       0.00000000       0.37166020 </v>
    <v>       0.20998344       0.20998344      -0.00000000 </v>
   </varray>
  </crystal>
  <varray name="positions" >
   <v>       0.25000000       0.75000000       0.50000000 </v>
   <v>      -0.00000000       0.00000000      -0.00000000 </v>
  </varray>
 </structure>
</modeling>
