unknown system                          
   1.00000000000000     
     0.000000    2.736840    2.736840
     2.736840   -0.000000    2.736840
     2.736840    2.736840   -0.000000
   Si
     2
Direct
  0.500000  0.500000  0.500000
  0.750000  0.750000  0.750000
 
   32   32   32
 0.77250106851E+00 0.79402661966E+00 0.85991216389E+00 0.97398602976E+00 0.11423597122E+01
 0.13731239663E+01 0.16757688597E+01 0.20597799426E+01 0.25318184036E+01 0.30914012503E+01
 0.37259533900E+01 0.44069977368E+01 0.50894684612E+01 0.57154245192E+01 0.62220928550E+01
 0.65527270003E+01 0.66676826842E+01 0.65527176856E+01 0.62220770366E+01 0.57154106112E+01
 0.50894671117E+01 0.44070107919E+01 0.37259682573E+01 0.30914016885E+01 0.25318019774E+01
 0.20597608695E+01 0.16757620647E+01 0.13731302116E+01 0.11423688083E+01 0.97399032800E+00
 0.85991212446E+00 0.79402572767E+00 0.79402661966E+00 0.83125438720E+00 0.90785267233E+00
 0.10278285518E+01 0.11966270249E+01 0.14206936504E+01 0.17068262617E+01 0.20608012861E+01
 0.24847990950E+01 0.29737270451E+01 0.35114378637E+01 0.40685155724E+01 0.46032203819E+01
 0.50662528168E+01 0.54086386052E+01 0.55908659626E+01 0.55908633698E+01 0.54086313532E+01
 0.50662411657E+01 0.46032045157E+01 0.40685002692E+01 0.35114336228E+01 0.29737404462E+01
 0.24848221810E+01 0.20608166098E+01 0.17068249688E+01 0.14206840449E+01 0.11966220937E+01
 0.10278297351E+01 0.90785177474E+00 0.83124855509E+00 0.79402293788E+00 0.85991216389E+00
 0.90785267233E+00 0.99054691832E+00 0.11117286765E+01 0.12759240882E+01 0.14879827434E+01
 0.17523590695E+01 0.20717264797E+01 0.24446531432E+01 0.28626422814E+01 0.33075737149E+01
 0.37509638409E+01 0.41561111379E+01 0.44831980957E+01 0.46962743756E+01 0.47702926306E+01
 0.46962748816E+01 0.44832020667E+01 0.41561189581E+01 0.37509698260E+01 0.33075707382E+01
 0.28626305461E+01 0.24446422622E+01 0.20717266385E+01 0.17523705687E+01 0.14879960385E+01
 0.12759299531E+01 0.11117264304E+01 0.99054244004E+00 0.90785068293E+00 0.85991236280E+00
 0.84422712684E+00 0.97398602976E+00 0.10278285518E+01 0.11117286765E+01 0.12289607826E+01
 0.13832025407E+01 0.15780100176E+01 0.18159696007E+01 0.20972788387E+01 0.24177314889E+01
 0.27665665948E+01 0.31251187293E+01 0.34672962149E+01 0.37624206531E+01 0.39800690289E+01
 0.40957305198E+01 0.40957295588E+01 0.39800676529E+01 0.37624239133E+01 0.34673097661E+01
 0.31251400117E+01 0.27665812296E+01 0.24177250690E+01 0.20972534330E+01 0.18159437648E+01
 0.15780003998E+01 0.13832090091E+01 0.12289715307E+01 0.11117354215E+01 0.10278319695E+01
 0.97398882358E+00 0.94773393925E+00 0.94773255871E+00 0.11423597122E+01 0.11966270249E+01
 0.12759240882E+01 0.13832025407E+01 0.15215941470E+01 0.16937405317E+01 0.19007924280E+01
 0.21410284262E+01 0.24082659531E+01 0.26905700596E+01 0.29699833500E+01 0.32238743973E+01
 0.34279854839E+01 0.35605753867E+01 0.36065679938E+01 0.35605721434E+01 0.34279800262E+01
 0.32238690396E+01 0.29699816487E+01 0.26905751559E+01 0.24082771500E+01 0.21410392059E+01
 0.19007939140E+01 0.16937290748E+01 0.15215755830E+01 0.13831876993E+01 0.12759196542E+01
 0.11966312130E+01 0.11423661897E+01 0.11107882501E+01 0.11004270735E+01 0.11107842465E+01
 0.13731239663E+01 0.14206936504E+01 0.14879827434E+01 0.15780100176E+01 0.16937405317E+01
 0.18372230653E+01 0.20085102904E+01 0.22044682212E+01 0.24177318537E+01 0.26362414150E+01
 0.28438202420E+01 0.30220058076E+01 0.31528836889E+01 0.32222457928E+01 0.32222441096E+01
 0.31528806325E+01 0.30220034556E+01 0.28438159563E+01 0.26362315600E+01 0.24177199877E+01
 0.22044649960E+01 0.20085223702E+01 0.18372436356E+01 0.16937535615E+01 0.15780048947E+01
 0.14879642034E+01 0.14206768249E+01 0.13731197274E+01 0.13427960235E+01 0.13280338083E+01
 0.13280298993E+01 0.13427904985E+01 0.16757688597E+01 0.17068262617E+01 0.17523590695E+01
 0.18159696007E+01 0.19007924280E+01 0.20085102904E+01 0.21383658417E+01 0.22863287987E+01
 0.24446531432E+01 0.26021245488E+01 0.27451982885E+01 0.28599257743E+01 0.29342307721E+01
 0.29599564317E+01 0.29342298050E+01 0.28599288028E+01 0.27452072055E+01 0.26021334863E+01
 0.24446537528E+01 0.22863188828E+01 0.21383513896E+01 0.20084999117E+01 0.19007908704E+01
 0.18159756613E+01 0.17523678883E+01 0.17068331648E+01 0.16757719716E+01 0.16559400182E+01
 0.16449538320E+01 0.16414381173E+01 0.16449543717E+01 0.16559397383E+01 0.20597799426E+01
 0.20608012861E+01 0.20717264797E+01 0.20972788387E+01 0.21410284262E+01 0.22044682212E+01
 0.22863287987E+01 0.23822263036E+01 0.24847987303E+01 0.25844864851E+01 0.26709198903E+01
 0.27345876467E+01 0.27683282819E+01 0.27683308174E+01 0.27345951286E+01 0.26709303286E+01
 0.25844954611E+01 0.24848036474E+01 0.23822289840E+01 0.22863300287E+01 0.22044620913E+01
 0.21410087656E+01 0.20972522286E+01 0.20717117372E+01 0.20608107348E+01 0.20598049255E+01
 0.20638340553E+01 0.20688254053E+01 0.20720035808E+01 0.20720030965E+01 0.20688180526E+01
 0.20638133331E+01 0.25318184036E+01 0.24847990950E+01 0.24446531432E+01 0.24177314889E+01
 0.24082659531E+01 0.24177318537E+01 0.24446531432E+01 0.24847987303E+01 0.25318184036E+01
 0.25783346926E+01 0.26172682945E+01 0.26429835974E+01 0.26519555258E+01 0.26429945980E+01
 0.26172800676E+01 0.25783364348E+01 0.25318082756E+01 0.24847849627E+01 0.24446469640E+01
 0.24177381964E+01 0.24082788302E+01 0.24177385611E+01 0.24446469640E+01 0.24847845980E+01
 0.25318082756E+01 0.25783367996E+01 0.26172800676E+01 0.26429942333E+01 0.26519555258E+01
 0.26429839621E+01 0.26172682945E+01 0.25783343279E+01 0.30914012503E+01 0.29737270451E+01
 0.28626422814E+01 0.27665665948E+01 0.26905700596E+01 0.26362414150E+01 0.26021245488E+01
 0.25844864851E+01 0.25783346926E+01 0.25785760423E+01 0.25810195363E+01 0.25829008699E+01
 0.25829075199E+01 0.25810305614E+01 0.25785761409E+01 0.25783201858E+01 0.25844664443E+01
 0.26021090019E+01 0.26362359042E+01 0.26905784840E+01 0.27665895666E+01 0.28626708897E+01
 0.29737455330E+01 0.30914003431E+01 0.32048269327E+01 0.33024851564E+01 0.33740096258E+01
 0.34117680989E+01 0.34117706980E+01 0.33740189511E+01 0.33025012780E+01 0.32048418878E+01
 0.37259533900E+01 0.35114378637E+01 0.33075737149E+01 0.31251187293E+01 0.29699833500E+01
 0.28438202420E+01 0.27451982885E+01 0.26709198903E+01 0.26172682945E+01 0.25810195363E+01
 0.25600000533E+01 0.25531028947E+01 0.25600060831E+01 0.25810182643E+01 0.26172520106E+01
 0.26708985711E+01 0.27451895679E+01 0.28438310396E+01 0.29700042540E+01 0.31251347609E+01
 0.33075788542E+01 0.35114392734E+01 0.37259611109E+01 0.39360623242E+01 0.41242045367E+01
 0.42731456449E+01 0.43686734129E+01 0.44015784194E+01 0.43686845827E+01 0.42731531365E+01
 0.41241984636E+01 0.39360493770E+01 0.44069977368E+01 0.40685155724E+01 0.37509638409E+01
 0.34672962149E+01 0.32238743973E+01 0.30220058076E+01 0.28599257743E+01 0.27345876467E+01
 0.26429835974E+01 0.25829008699E+01 0.25531028947E+01 0.25531026059E+01 0.25828942070E+01
 0.26429632604E+01 0.27345607811E+01 0.28599129895E+01 0.30220225973E+01 0.32239153006E+01
 0.34673375389E+01 0.37509818304E+01 0.40685044305E+01 0.44069726468E+01 0.47466395520E+01
 0.50626801488E+01 0.53286912787E+01 0.55208771624E+01 0.56216053442E+01 0.56216013737E+01
 0.55208665182E+01 0.53286802759E+01 0.50626802137E+01 0.47466569976E+01 0.50894684612E+01
 0.46032203819E+01 0.41561111379E+01 0.37624206531E+01 0.34279854839E+01 0.31528836889E+01
 0.29342307721E+01 0.27683282819E+01 0.26519555258E+01 0.25829075199E+01 0.25600060831E+01
 0.25828942070E+01 0.26519280581E+01 0.27682958433E+01 0.29342133302E+01 0.31528951889E+01
 0.34280197793E+01 0.37624589077E+01 0.41561400229E+01 0.46032375208E+01 0.50894733152E+01
 0.55907796556E+01 0.60744506971E+01 0.65030272382E+01 0.68399309877E+01 0.70550872183E+01
 0.71290368916E+01 0.70550930452E+01 0.68399477795E+01 0.65030536765E+01 0.60744749897E+01
 0.55907902880E+01 0.57154245192E+01 0.50662528168E+01 0.44831980957E+01 0.39800690289E+01
 0.35605753867E+01 0.32222457928E+01 0.29599564317E+01 0.27683308174E+01 0.26429945980E+01
 0.25810305614E+01 0.25810182643E+01 0.26429632604E+01 0.27682958433E+01 0.29599376535E+01
 0.32222559740E+01 0.35606084817E+01 0.39801026512E+01 0.44832145940E+01 0.50662575208E+01
 0.57154362138E+01 0.64039900612E+01 0.70920911961E+01 0.77303950743E+01 0.82667048999E+01
 0.86538838711E+01 0.88567836885E+01 0.88567969912E+01 0.86539160702E+01 0.82667354578E+01
 0.77304029821E+01 0.70920738904E+01 0.64039665736E+01 0.62220928550E+01 0.54086386052E+01
 0.46962743756E+01 0.40957305198E+01 0.36065679938E+01 0.32222441096E+01 0.29342298050E+01
 0.27345951286E+01 0.26172800676E+01 0.25785761409E+01 0.26172520106E+01 0.27345607811E+01
 0.29342133302E+01 0.32222559740E+01 0.36066026759E+01 0.40957708427E+01 0.46963010023E+01
 0.54086453559E+01 0.62220920093E+01 0.71102342734E+01 0.80289700618E+01 0.89185799912E+01
 0.97101704317E+01 0.10335229147E+02 0.10735961324E+02 0.10874000703E+02 0.10735947289E+02
 0.10335214628E+02 0.97101616451E+01 0.89185706996E+01 0.80289585239E+01 0.71102285007E+01
 0.65527270003E+01 0.55908659626E+01 0.47702926306E+01 0.40957295588E+01 0.35605721434E+01
 0.31528806325E+01 0.28599288028E+01 0.26709303286E+01 0.25783364348E+01 0.25783201858E+01
 0.26708985711E+01 0.28599129895E+01 0.31528951889E+01 0.35606084817E+01 0.40957708427E+01
 0.47703257227E+01 0.55908869477E+01 0.65527419044E+01 0.76337814386E+01 0.87903597976E+01
 0.99569331208E+01 0.11050480795E+02 0.11979636588E+02 0.12657398415E+02 0.13015198832E+02
 0.13015178264E+02 0.12657361671E+02 0.11979623454E+02 0.11050494443E+02 0.99569457592E+01
 0.87903553606E+01 0.76337677631E+01 0.66676826842E+01 0.55908633698E+01 0.46962748816E+01
 0.39800676529E+01 0.34279800262E+01 0.30220034556E+01 0.27452072055E+01 0.25844954611E+01
 0.25318082756E+01 0.25844664443E+01 0.27451895679E+01 0.30220225973E+01 0.34280197793E+01
 0.39801026512E+01 0.46963010023E+01 0.55908869477E+01 0.66677035062E+01 0.79129168788E+01
 0.92889884374E+01 0.10731550141E+02 0.12150336316E+02 0.13435080883E+02 0.14467394275E+02
 0.15138639075E+02 0.15371434755E+02 0.15138651896E+02 0.14467416222E+02 0.13435099468E+02
 0.12150338942E+02 0.10731538345E+02 0.92889725311E+01 0.79128999800E+01 0.65527176856E+01
 0.54086313532E+01 0.44832020667E+01 0.37624239133E+01 0.32238690396E+01 0.28438159563E+01
 0.26021334863E+01 0.24848036474E+01 0.24847849627E+01 0.26021090019E+01 0.28438310396E+01
 0.32239153006E+01 0.37624589077E+01 0.44832145940E+01 0.54086453559E+01 0.65527419044E+01
 0.79129168788E+01 0.94627032106E+01 0.11146478727E+02 0.12876668050E+02 0.14534233886E+02
 0.15974033651E+02 0.17036775638E+02 0.17599358124E+02 0.17599370023E+02 0.17036796111E+02
 0.15974035987E+02 0.14534213807E+02 0.12876648409E+02 0.11146476106E+02 0.94627040263E+01
 0.79129013901E+01 0.62220770366E+01 0.50662411657E+01 0.41561189581E+01 0.34673097661E+01
 0.29699816487E+01 0.26362315600E+01 0.24446537528E+01 0.23822289840E+01 0.24446469640E+01
 0.26362359042E+01 0.29700042540E+01 0.34673375389E+01 0.41561400229E+01 0.50662575208E+01
 0.62220920093E+01 0.76337814386E+01 0.92889884374E+01 0.11146478727E+02 0.13130933872E+02
 0.15128191561E+02 0.16975941740E+02 0.18468458859E+02 0.19435411214E+02 0.19769857242E+02
 0.19435380067E+02 0.18468420410E+02 0.16975916006E+02 0.15128180040E+02 0.13130930434E+02
 0.11146478874E+02 0.92889863411E+01 0.76337718522E+01 0.57154106112E+01 0.46032045157E+01
 0.37509698260E+01 0.31251400117E+01 0.26905751559E+01 0.24177199877E+01 0.22863188828E+01
 0.22863300287E+01 0.24177381964E+01 0.26905784840E+01 0.31251347609E+01 0.37509818304E+01
 0.46032375208E+01 0.57154362138E+01 0.71102342734E+01 0.87903597976E+01 0.10731550141E+02
 0.12876668050E+02 0.15128191561E+02 0.17327309215E+02 0.19238770380E+02 0.20646291165E+02
 0.21392008129E+02 0.21391991338E+02 0.20646263093E+02 0.19238762251E+02 0.17327313442E+02
 0.15128179770E+02 0.12876641625E+02 0.10731537922E+02 0.87903686114E+01 0.71102356274E+01
 0.50894671117E+01 0.40685002692E+01 0.33075707382E+01 0.27665812296E+01 0.24082771500E+01
 0.22044649960E+01 0.21383513896E+01 0.22044620913E+01 0.24082788302E+01 0.27665895666E+01
 0.33075788542E+01 0.40685044305E+01 0.50894733152E+01 0.64039900612E+01 0.80289700618E+01
 0.99569331208E+01 0.12150336316E+02 0.14534233886E+02 0.16975941740E+02 0.19238770380E+02
 0.21069484324E+02 0.22260876316E+02 0.22674419365E+02 0.22260894701E+02 0.21069496834E+02
 0.19238761012E+02 0.16975921888E+02 0.14534223436E+02 0.12150336867E+02 0.99569307172E+01
 0.80289583451E+01 0.64039774361E+01 0.44070107919E+01 0.35114336228E+01 0.28626305461E+01
 0.24177250690E+01 0.21410392059E+01 0.20085223702E+01 0.20084999117E+01 0.21410087656E+01
 0.24177385611E+01 0.28626708897E+01 0.35114392734E+01 0.44069726468E+01 0.55907796556E+01
 0.70920911961E+01 0.89185799912E+01 0.11050480795E+02 0.13435080883E+02 0.15974033651E+02
 0.18468458859E+02 0.20646291165E+02 0.22260876316E+02 0.23121365147E+02 0.23121375933E+02
 0.22260875893E+02 0.20646242841E+02 0.18468400035E+02 0.15974030606E+02 0.13435126712E+02
 0.11050503108E+02 0.89185502733E+01 0.70920639309E+01 0.55908021817E+01 0.37259682573E+01
 0.29737404462E+01 0.24446422622E+01 0.20972534330E+01 0.19007939140E+01 0.18372436356E+01
 0.19007908704E+01 0.20972522286E+01 0.24446469640E+01 0.29737455330E+01 0.37259611109E+01
 0.47466395520E+01 0.60744506971E+01 0.77303950743E+01 0.97101704317E+01 0.11979636588E+02
 0.14467394275E+02 0.17036775638E+02 0.19435411214E+02 0.21392008129E+02 0.22674419365E+02
 0.23121375933E+02 0.22674396111E+02 0.21391961494E+02 0.19435359149E+02 0.17036746404E+02
 0.14467394224E+02 0.11979645850E+02 0.97101753366E+01 0.77304041777E+01 0.60744717907E+01
 0.47466611046E+01 0.30914016885E+01 0.24848221810E+01 0.20717266385E+01 0.18159437648E+01
 0.16937290748E+01 0.16937535615E+01 0.18159756613E+01 0.20717117372E+01 0.24847845980E+01
 0.30914003431E+01 0.39360623242E+01 0.50626801488E+01 0.65030272382E+01 0.82667048999E+01
 0.10335229147E+02 0.12657398415E+02 0.15138639075E+02 0.17599358124E+02 0.19769857242E+02
 0.21391991338E+02 0.22260894701E+02 0.22260875893E+02 0.21391961494E+02 0.19769853117E+02
 0.17599365134E+02 0.15138612179E+02 0.12657341061E+02 0.10335205180E+02 0.82667503486E+01
 0.65030910201E+01 0.50626934730E+01 0.39360369964E+01 0.25318019774E+01 0.20608166098E+01
 0.17523705687E+01 0.15780003998E+01 0.15215755830E+01 0.15780048947E+01 0.17523678883E+01
 0.20608107348E+01 0.25318082756E+01 0.32048269327E+01 0.41242045367E+01 0.53286912787E+01
 0.68399309877E+01 0.86538838711E+01 0.10735961324E+02 0.13015198832E+02 0.15371434755E+02
 0.17599370023E+02 0.19435380067E+02 0.20646263093E+02 0.21069496834E+02 0.20646242841E+02
 0.19435359149E+02 0.17599365134E+02 0.15371439205E+02 0.13015193623E+02 0.10735948445E+02
 0.86538908400E+01 0.68399705065E+01 0.53287353007E+01 0.41242189267E+01 0.32048163837E+01
 0.20597608695E+01 0.17068249688E+01 0.14879960385E+01 0.13832090091E+01 0.13831876993E+01
 0.14879642034E+01 0.17068331648E+01 0.20598049255E+01 0.25783367996E+01 0.33024851564E+01
 0.42731456449E+01 0.55208771624E+01 0.70550872183E+01 0.88567836885E+01 0.10874000703E+02
 0.13015178264E+02 0.15138651896E+02 0.17036796111E+02 0.18468420410E+02 0.19238762251E+02
 0.19238761012E+02 0.18468400035E+02 0.17036746404E+02 0.15138612179E+02 0.13015193623E+02
 0.10874055304E+02 0.88568240443E+01 0.70551009383E+01 0.55209003257E+01 0.42731909271E+01
 0.33025118614E+01 0.25783125893E+01 0.16757620647E+01 0.14206840449E+01 0.12759299531E+01
 0.12289715307E+01 0.12759196542E+01 0.14206768249E+01 0.16757719716E+01 0.20638340553E+01
 0.26172800676E+01 0.33740096258E+01 0.43686734129E+01 0.56216053442E+01 0.71290368916E+01
 0.88567969912E+01 0.10735947289E+02 0.12657361671E+02 0.14467416222E+02 0.15974035987E+02
 0.16975916006E+02 0.17327313442E+02 0.16975921888E+02 0.15974030606E+02 0.14467394224E+02
 0.12657341061E+02 0.10735948445E+02 0.88568240443E+01 0.71290822765E+01 0.56216574332E+01
 0.43687146496E+01 0.33740222055E+01 0.26172635917E+01 0.20638097529E+01 0.13731302116E+01
 0.11966220937E+01 0.11117264304E+01 0.11117354215E+01 0.11966312130E+01 0.13731197274E+01
 0.16559400182E+01 0.20688254053E+01 0.26429942333E+01 0.34117680989E+01 0.44015784194E+01
 0.56216013737E+01 0.70550930452E+01 0.86539160702E+01 0.10335214628E+02 0.11979623454E+02
 0.13435099468E+02 0.14534213807E+02 0.15128180040E+02 0.15128179770E+02 0.14534223436E+02
 0.13435126712E+02 0.11979645850E+02 0.10335205180E+02 0.86538908400E+01 0.70551009383E+01
 0.56216574332E+01 0.44016357387E+01 0.34117763589E+01 0.26429643166E+01 0.20688073074E+01
 0.16559508249E+01 0.11423688083E+01 0.10278297351E+01 0.99054244004E+00 0.10278319695E+01
 0.11423661897E+01 0.13427960235E+01 0.16449538320E+01 0.20720035808E+01 0.26519555258E+01
 0.34117706980E+01 0.43686845827E+01 0.55208665182E+01 0.68399477795E+01 0.82667354578E+01
 0.97101616451E+01 0.11050494443E+02 0.12150338942E+02 0.12876648409E+02 0.13130930434E+02
 0.12876641625E+02 0.12150336867E+02 0.11050503108E+02 0.97101753366E+01 0.82667503486E+01
 0.68399705065E+01 0.55209003257E+01 0.43687146496E+01 0.34117763589E+01 0.26519363758E+01
 0.20719817914E+01 0.16449476500E+01 0.13428011732E+01 0.97399032800E+00 0.90785177474E+00
 0.90785068293E+00 0.97398882358E+00 0.11107882501E+01 0.13280338083E+01 0.16414381173E+01
 0.20720030965E+01 0.26429839621E+01 0.33740189511E+01 0.42731531365E+01 0.53286802759E+01
 0.65030536765E+01 0.77304029821E+01 0.89185706996E+01 0.99569457592E+01 0.10731538345E+02
 0.11146476106E+02 0.11146478874E+02 0.10731537922E+02 0.99569307172E+01 0.89185502733E+01
 0.77304041777E+01 0.65030910201E+01 0.53287353007E+01 0.42731909271E+01 0.33740222055E+01
 0.26429643166E+01 0.20719817914E+01 0.16414253471E+01 0.13280284094E+01 0.11107872898E+01
 0.85991212446E+00 0.83124855509E+00 0.85991236280E+00 0.94773393925E+00 0.11004270735E+01
 0.13280298993E+01 0.16449543717E+01 0.20688180526E+01 0.26172682945E+01 0.33025012780E+01
 0.41241984636E+01 0.50626802137E+01 0.60744749897E+01 0.70920738904E+01 0.80289585239E+01
 0.87903553606E+01 0.92889725311E+01 0.94627040263E+01 0.92889863411E+01 0.87903686114E+01
 0.80289583451E+01 0.70920639309E+01 0.60744717907E+01 0.50626934730E+01 0.41242189267E+01
 0.33025118614E+01 0.26172635917E+01 0.20688073074E+01 0.16449476500E+01 0.13280284094E+01
 0.11004271391E+01 0.94773371068E+00 0.79402572767E+00 0.79402293788E+00 0.84422712684E+00
 0.94773255871E+00 0.11107842465E+01 0.13427904985E+01 0.16559397383E+01 0.20638133331E+01
 0.25783343279E+01 0.32048418878E+01 0.39360493770E+01 0.47466569976E+01 0.55907902880E+01
 0.64039665736E+01 0.71102285007E+01 0.76337677631E+01 0.79128999800E+01 0.79129013901E+01
 0.76337718522E+01 0.71102356274E+01 0.64039774361E+01 0.55908021817E+01 0.47466611046E+01
 0.39360369964E+01 0.32048163837E+01 0.25783125893E+01 0.20638097529E+01 0.16559508249E+01
 0.13428011732E+01 0.11107872898E+01 0.94773371068E+00 0.84423127653E+00 0.79402701335E+00
 0.83125452478E+00 0.90785276475E+00 0.10278287472E+01 0.11966271875E+01 0.14206936646E+01
 0.17068262584E+01 0.20608013625E+01 0.24847991240E+01 0.29737269873E+01 0.35114379823E+01
 0.40685161318E+01 0.46032214214E+01 0.50662543911E+01 0.54086408819E+01 0.55908688041E+01
 0.55908660869E+01 0.54086331157E+01 0.50662414556E+01 0.46032031083E+01 0.40684972045E+01
 0.35114294763E+01 0.29737362949E+01 0.24848189640E+01 0.20608146519E+01 0.17068241993E+01
 0.14206843087E+01 0.11966230499E+01 0.10278308332E+01 0.90785265280E+00 0.83124925104E+00
 0.79402354059E+00 0.83125452478E+00 0.87796764589E+00 0.95867769550E+00 0.10771575474E+01
 0.12378987966E+01 0.14456247976E+01 0.17045998027E+01 0.20173084009E+01 0.23822268059E+01
 0.27909728073E+01 0.32258312081E+01 0.36590239699E+01 0.40547722679E+01 0.43742438498E+01
 0.45823560822E+01 0.46546506896E+01 0.45823532374E+01 0.43742319601E+01 0.40547487016E+01
 0.36589982084E+01 0.32258209678E+01 0.27909886403E+01 0.23822598335E+01 0.20173358516E+01
 0.17046053575E+01 0.14456127376E+01 0.12378859884E+01 0.10771533120E+01 0.95867651605E+00
 0.87796194395E+00 0.83124744984E+00 0.81598287344E+00 0.90785276475E+00 0.95867769550E+00
 0.10382489540E+01 0.11499204186E+01 0.12972924654E+01 0.14836788632E+01 0.17113513038E+01
 0.19802851982E+01 0.22863288911E+01 0.26191974242E+01 0.29611711843E+01 0.32874884845E+01
 0.35689757692E+01 0.37766221977E+01 0.38869942562E+01 0.38869937947E+01 0.37766203237E+01
 0.35689716186E+01 0.32874822412E+01 0.29611652717E+01 0.26191960277E+01 0.22863350532E+01
 0.19802973654E+01 0.17113633875E+01 0.14836850752E+01 0.12972920611E+01 0.11499167931E+01
 0.10382448624E+01 0.95867339214E+00 0.90784863913E+00 0.88315703565E+00 0.88315887276E+00
 0.10278287472E+01 0.10771575474E+01 0.11499204186E+01 0.12491537523E+01 0.13778595458E+01
 0.15383726717E+01 0.17315241326E+01 0.19554998469E+01 0.22044680519E+01 0.24673866573E+01
 0.27276714653E+01 0.29643398575E+01 0.31547730437E+01 0.32785797202E+01 0.33215489314E+01
 0.32785814011E+01 0.31547730310E+01 0.29643400758E+01 0.27276787152E+01 0.24674000312E+01
 0.22044746298E+01 0.19554898214E+01 0.17315056136E+01 0.15383633289E+01 0.13778651115E+01
 0.12491630485E+01 0.11499224401E+01 0.10771547464E+01 0.10278290521E+01 0.99937533884E+00
 0.99008706809E+00 0.99937215283E+00 0.11966271875E+01 0.12378987966E+01 0.12972924654E+01
 0.13778595458E+01 0.14823826374E+01 0.16126167215E+01 0.17684169524E+01 0.19467914441E+01
 0.21410285887E+01 0.23402424599E+01 0.25297819229E+01 0.26927829347E+01 0.28127204663E+01
 0.28763688375E+01 0.28763708508E+01 0.28127217261E+01 0.26927776303E+01 0.25297750940E+01
 0.23402453044E+01 0.21410423344E+01 0.19468033336E+01 0.17684151707E+01 0.16126038605E+01
 0.14823701221E+01 0.13778531260E+01 0.12972893272E+01 0.12378965343E+01 0.11966278101E+01
 0.11707691238E+01 0.11583479327E+01 0.11583455666E+01 0.11707652935E+01 0.14206936646E+01
 0.14456247976E+01 0.14836788632E+01 0.15383726717E+01 0.16126167215E+01 0.17078793832E+01
 0.18233938557E+01 0.19555000303E+01 0.20972792176E+01 0.22387250617E+01 0.23676589304E+01
 0.24713790632E+01 0.25387300963E+01 0.25620823690E+01 0.25387276157E+01 0.24713759359E+01
 0.23676557254E+01 0.22387209308E+01 0.20972755609E+01 0.19555012514E+01 0.18234021343E+01
 0.17078901269E+01 0.16126216149E+01 0.15383673680E+01 0.14836666938E+01 0.14456132076E+01
 0.14206879177E+01 0.14055316099E+01 0.13975139831E+01 0.13950193569E+01 0.13975122013E+01
 0.14055316323E+01 0.17068262584E+01 0.17045998027E+01 0.17113513038E+01 0.17315241326E+01
 0.17684169524E+01 0.18233938557E+01 0.18953200685E+01 0.19802851024E+01 0.20717264763E+01
 0.21610798453E+01 0.22389470836E+01 0.22965588791E+01 0.23271835484E+01 0.23271825591E+01
 0.22965581219E+01 0.22389509354E+01 0.21610896318E+01 0.20717368963E+01 0.19802872335E+01
 0.18953099897E+01 0.18233781034E+01 0.17684072096E+01 0.17315256872E+01 0.17113585090E+01
 0.17046038927E+01 0.17068252620E+01 0.17133553788E+01 0.17201285538E+01 0.17242502975E+01
 0.17242493396E+01 0.17201277611E+01 0.17133569269E+01 0.20608013625E+01 0.20173084009E+01
 0.19802851982E+01 0.19554998469E+01 0.19467914441E+01 0.19555000303E+01 0.19802851024E+01
 0.20173079750E+01 0.20608009978E+01 0.21040129036E+01 0.21403581681E+01 0.21644671581E+01
 0.21728966510E+01 0.21644704368E+01 0.21403674212E+01 0.21040302083E+01 0.20608227644E+01
 0.20173233463E+01 0.19802823011E+01 0.19554767070E+01 0.19467585810E+01 0.19554743326E+01
 0.19802778600E+01 0.20173180020E+01 0.20608180894E+01 0.21040269620E+01 0.21403654082E+01
 0.21644694540E+01 0.21728967096E+01 0.21644678416E+01 0.21403587455E+01 0.21040131993E+01
 0.24847991240E+01 0.23822268059E+01 0.22863288911E+01 0.22044680519E+01 0.21410285887E+01
 0.20972792176E+01 0.20717264763E+01 0.20608009978E+01 0.20597799715E+01 0.20638136400E+01
 0.20688181711E+01 0.20720032911E+01 0.20720046203E+01 0.20688273444E+01 0.20638363321E+01
 0.20598074022E+01 0.20608134520E+01 0.20717138644E+01 0.20972525185E+01 0.21410069934E+01
 0.22044590266E+01 0.22863262470E+01 0.23822248328E+01 0.24848000656E+01 0.25844935032E+01
 0.26709299238E+01 0.27345953924E+01 0.27683314089E+01 0.27683293800E+01 0.27345888895E+01
 0.26709205863E+01 0.25844867231E+01 0.29737269873E+01 0.27909728073E+01 0.26191974242E+01
 0.24673866573E+01 0.23402424599E+01 0.22387250617E+01 0.21610798453E+01 0.21040129036E+01
 0.20638136400E+01 0.20372568444E+01 0.20221084803E+01 0.20171792089E+01 0.20221179381E+01
 0.20372794088E+01 0.20638431695E+01 0.21040283757E+01 0.21610626415E+01 0.22386822558E+01
 0.23402059969E+01 0.24673841539E+01 0.26192260533E+01 0.27910055115E+01 0.29737414037E+01
 0.31545328827E+01 0.33179728262E+01 0.34484375856E+01 0.35326358664E+01 0.35617298201E+01
 0.35326352490E+01 0.34484409848E+01 0.33179812497E+01 0.31545367691E+01 0.35114379823E+01
 0.32258312081E+01 0.29611711843E+01 0.27276714653E+01 0.25297819229E+01 0.23676589304E+01
 0.22389470836E+01 0.21403581681E+01 0.20688181711E+01 0.20221084803E+01 0.19989977241E+01
 0.19990067779E+01 0.20221339294E+01 0.20688501430E+01 0.21403758253E+01 0.22389324856E+01
 0.23676174328E+01 0.25297427509E+01 0.27276627283E+01 0.29611958634E+01 0.32258697133E+01
 0.35114697908E+01 0.38015899409E+01 0.40747695182E+01 0.43072622944E+01 0.44767821045E+01
 0.45661812270E+01 0.45661851120E+01 0.44767899232E+01 0.43072665957E+01 0.40747647879E+01
 0.38015724764E+01 0.40685161318E+01 0.36590239699E+01 0.32874884845E+01 0.29643398575E+01
 0.26927829347E+01 0.24713790632E+01 0.22965588791E+01 0.21644671581E+01 0.20720032911E+01
 0.20171792089E+01 0.19990067779E+01 0.20172033087E+01 0.20720387307E+01 0.21644880981E+01
 0.22965431332E+01 0.24713343909E+01 0.26927473745E+01 0.29643457297E+01 0.32875298431E+01
 0.36590667963E+01 0.40685361126E+01 0.44966740072E+01 0.49156839498E+01 0.52920559557E+01
 0.55914557063E+01 0.57843693874E+01 0.58509927939E+01 0.57843703060E+01 0.55914550300E+01
 0.52920551447E+01 0.49156862806E+01 0.44966730714E+01 0.46032214214E+01 0.40547722679E+01
 0.35689757692E+01 0.31547730437E+01 0.28127204663E+01 0.25387300963E+01 0.23271835484E+01
 0.21728966510E+01 0.20720046203E+01 0.20221179381E+01 0.20221339294E+01 0.20720387307E+01
 0.21729167033E+01 0.23271648724E+01 0.25386813748E+01 0.28126816862E+01 0.31547807705E+01
 0.35690301974E+01 0.40548399486E+01 0.46032655804E+01 0.51938229920E+01 0.57933544511E+01
 0.63581291870E+01 0.68393085198E+01 0.71905920312E+01 0.73760200277E+01 0.73760206011E+01
 0.71905993905E+01 0.68393307212E+01 0.63581620371E+01 0.57933791621E+01 0.51938177564E+01
 0.50662543911E+01 0.43742438498E+01 0.37766221977E+01 0.32785797202E+01 0.28763688375E+01
 0.25620823690E+01 0.23271825591E+01 0.21644704368E+01 0.20688273444E+01 0.20372794088E+01
 0.20688501430E+01 0.21644880981E+01 0.23271648724E+01 0.25620311597E+01 0.28763252345E+01
 0.32785870155E+01 0.37766819384E+01 0.43743175823E+01 0.50663050513E+01 0.58336850714E+01
 0.66405514393E+01 0.74344320625E+01 0.81512156480E+01 0.87241069568E+01 0.90946143103E+01
 0.92228393515E+01 0.90946338588E+01 0.87241393699E+01 0.81512486901E+01 0.74344544607E+01
 0.66405568867E+01 0.58336664895E+01 0.54086408819E+01 0.45823560822E+01 0.38869942562E+01
 0.33215489314E+01 0.28763708508E+01 0.25387276157E+01 0.22965581219E+01 0.21403674212E+01
 0.20638363321E+01 0.20638431695E+01 0.21403758253E+01 0.22965431332E+01 0.25386813748E+01
 0.28763252345E+01 0.33215538127E+01 0.38870628085E+01 0.45824441938E+01 0.54086926438E+01
 0.63518343243E+01 0.73774682998E+01 0.84284601626E+01 0.94276868941E+01 0.10286565572E+02
 0.10918377691E+02 0.11253639527E+02 0.11253642239E+02 0.10918384016E+02 0.10286572095E+02
 0.94276945784E+01 0.84284753915E+01 0.73774878501E+01 0.63518320291E+01 0.55908688041E+01
 0.46546506896E+01 0.38869937947E+01 0.32785814011E+01 0.28127217261E+01 0.24713759359E+01
 0.22389509354E+01 0.21040302083E+01 0.20598074022E+01 0.21040283757E+01 0.22389324856E+01
 0.24713343909E+01 0.28126816862E+01 0.32785870155E+01 0.38870628085E+01 0.46547468923E+01
 0.55909337655E+01 0.66900792364E+01 0.79243187228E+01 0.92381331872E+01 0.10547457984E+02
 0.11745225037E+02 0.12714363722E+02 0.13347235303E+02 0.13567422091E+02 0.13347218508E+02
 0.12714350642E+02 0.11745232506E+02 0.10547486519E+02 0.92381730012E+01 0.79243501842E+01
 0.66900715850E+01 0.55908660869E+01 0.45823532374E+01 0.37766203237E+01 0.31547730310E+01
 0.26927776303E+01 0.23676557254E+01 0.21610896318E+01 0.20608227644E+01 0.20608134520E+01
 0.21610626415E+01 0.23676174328E+01 0.26927473745E+01 0.31547807705E+01 0.37766819384E+01
 0.45824441938E+01 0.55909337655E+01 0.68077043531E+01 0.82160726006E+01 0.97691682860E+01
 0.11384923709E+02 0.12946457661E+02 0.14310925928E+02 0.15329206669E+02 0.15874919002E+02
 0.15874923306E+02 0.15329219667E+02 0.14310945666E+02 0.12946481527E+02 0.11384954859E+02
 0.97692087987E+01 0.82161044143E+01 0.68076930248E+01 0.54086331157E+01 0.43742319601E+01
 0.35689716186E+01 0.29643400758E+01 0.25297750940E+01 0.22387209308E+01 0.20717368963E+01
 0.20173233463E+01 0.20717138644E+01 0.22386822558E+01 0.25297427509E+01 0.29643457297E+01
 0.35690301974E+01 0.43743175823E+01 0.54086926438E+01 0.66900792364E+01 0.82160726006E+01
 0.99543207471E+01 0.11834189781E+02 0.13741394861E+02 0.15519456553E+02 0.16984008454E+02
 0.17953870437E+02 0.18293911004E+02 0.17953881124E+02 0.16984023493E+02 0.15519468393E+02
 0.13741406098E+02 0.11834215605E+02 0.99543680746E+01 0.82161172685E+01 0.66900794296E+01
 0.50662414556E+01 0.40547487016E+01 0.32874822412E+01 0.27276787152E+01 0.23402453044E+01
 0.20972755609E+01 0.19802872335E+01 0.19802823011E+01 0.20972525185E+01 0.23402059969E+01
 0.27276627283E+01 0.32875298431E+01 0.40548399486E+01 0.50663050513E+01 0.63518343243E+01
 0.79243187228E+01 0.97691682860E+01 0.11834189781E+02 0.14019955576E+02 0.16173222465E+02
 0.18091095327E+02 0.19544746439E+02 0.20329745853E+02 0.20329724104E+02 0.19544704702E+02
 0.18091073279E+02 0.16173230197E+02 0.14019978664E+02 0.11834225835E+02 0.97692258316E+01