    2    2   15    1
  0.2001288E+02  0.3839590E-09  0.3839590E-09  0.3839590E-09  0.5000000E-15
  1.000000000000000E-004
  CAR 
 unknown system                          
      8      2      8
 
  0.2500000E+00  0.2500000E+00  0.2500000E+00  0.2500000E+00
    1       -5.394260   1.000000
    2        1.742438   1.000000
    3        4.886449   1.000000
    4        4.886449   1.000000
    5        7.580880   0.000000
    6        9.117510   0.000000
    7        9.117510   0.000000
    8       12.365029   0.000000
 
 -0.2500000E+00  0.2500000E+00  0.2500000E+00  0.7500000E+00
    1       -3.518451   1.000000
    2       -0.694289   1.000000
    3        2.165675   1.000000
    4        3.467452   1.000000
    5        7.175995   0.000000
    6       10.070834   0.000000
    7       11.272868   0.000000
    8       11.514915   0.000000
