       N       E                     dE             d eps       ncg     rms          rms(c)
DAV:   1     0.219540332937E+01    0.21954E+01   -0.27290E+03    32   0.494E+02
DAV:   2    -0.107257036685E+02   -0.12921E+02   -0.12921E+02    48   0.677E+01
DAV:   3    -0.108585330872E+02   -0.13283E+00   -0.13283E+00    40   0.891E+00
DAV:   4    -0.108586942304E+02   -0.16114E-03   -0.16114E-03    48   0.338E-01
DAV:   5    -0.108586948185E+02   -0.58818E-06   -0.58818E-06    40   0.197E-02    0.312E+00
DAV:   6    -0.107213272113E+02    0.13737E+00   -0.88697E-02    32   0.157E+00    0.185E+00
DAV:   7    -0.106593948383E+02    0.61932E-01   -0.16607E-01    40   0.229E+00    0.164E-01
DAV:   8    -0.106612225389E+02   -0.18277E-02   -0.47119E-03    32   0.515E-01    0.264E-02
DAV:   9    -0.106613453797E+02   -0.12284E-03   -0.12157E-04    40   0.865E-02
   1 F= -.10661345E+02 E0= -.10661345E+02  d E =-.106613E+02
       N       E                     dE             d eps       ncg     rms          rms(c)
DAV:   1    -0.106732224778E+02   -0.12000E-01   -0.33765E-01    40   0.323E+00    0.369E-01
DAV:   2    -0.106675927755E+02    0.56297E-02   -0.45170E-03    32   0.440E-01    0.212E-01
DAV:   3    -0.106645444484E+02    0.30483E-02   -0.58835E-03    40   0.390E-01    0.258E-02
DAV:   4    -0.106645351428E+02    0.93056E-05   -0.58830E-05    16   0.688E-02
   2 F= -.10664535E+02 E0= -.10664535E+02  d E =-.318976E-02
       N       E                     dE             d eps       ncg     rms          rms(c)
DAV:   1    -0.106691141857E+02   -0.45697E-02   -0.55785E-02    40   0.133E+00    0.151E-01
DAV:   2    -0.106681623330E+02    0.95185E-03   -0.72812E-04    32   0.176E-01    0.866E-02
DAV:   3    -0.106677036312E+02    0.45870E-03   -0.97089E-04    32   0.159E-01    0.104E-02
DAV:   4    -0.106677075048E+02   -0.38737E-05   -0.10349E-05    16   0.291E-02
   3 F= -.10667708E+02 E0= -.10667708E+02  d E =-.636213E-02
