   2   2   0   0
  0.2001288E+02  0.3839590E-09  0.3839590E-09  0.3839590E-09  0.5000000E-15
  1.000000000000000E-004
  CAR 
 unknown system                          
     16.22215701     -8.18610743  301      5.92915560      1.00000000
     -8.186  0.0000E+00  0.0000E+00
     -8.105  0.0000E+00  0.0000E+00
     -8.023  0.0000E+00  0.0000E+00
     -7.942  0.0000E+00  0.0000E+00
     -7.861  0.0000E+00  0.0000E+00
     -7.779  0.0000E+00  0.0000E+00
     -7.698  0.0000E+00  0.0000E+00
     -7.617  0.0000E+00  0.0000E+00
     -7.535  0.0000E+00  0.0000E+00
     -7.454  0.0000E+00  0.0000E+00
     -7.372  0.0000E+00  0.0000E+00
     -7.291  0.3639E-16  0.2961E-17
     -7.210  0.2939E-14  0.2421E-15
     -7.128  0.1727E-12  0.1430E-13
     -7.047  0.7327E-11  0.6104E-12
     -6.966  0.2244E-09  0.1887E-10
     -6.884  0.4963E-08  0.4227E-09
     -6.803  0.7933E-07  0.6877E-08
     -6.722  0.9167E-06  0.8146E-07
     -6.640  0.7661E-05  0.7048E-06
     -6.559  0.4633E-04  0.4475E-05
     -6.478  0.2029E-03  0.2098E-04
     -6.396  0.6432E-03  0.7331E-04
     -6.315  0.1478E-02  0.1935E-03
     -6.233  0.2463E-02  0.3939E-03
     -6.152  0.3003E-02  0.6382E-03
     -6.071  0.2841E-02  0.8693E-03
     -5.989  0.2832E-02  0.1100E-02
     -5.908  0.4904E-02  0.1499E-02
     -5.827  0.1091E-01  0.2387E-02
     -5.745  0.2052E-01  0.4056E-02
     -5.664  0.3000E-01  0.6496E-02
     -5.583  0.3461E-01  0.9312E-02
     -5.501  0.3228E-01  0.1194E-01
     -5.420  0.2454E-01  0.1393E-01
     -5.338  0.1499E-01  0.1515E-01
     -5.257  0.7438E-02  0.1576E-01
     -5.176  0.4241E-02  0.1610E-01
     -5.094  0.6549E-02  0.1664E-01
     -5.013  0.1482E-01  0.1784E-01
     -4.932  0.2664E-01  0.2001E-01
     -4.850  0.3509E-01  0.2287E-01
     -4.769  0.3425E-01  0.2565E-01
     -4.688  0.2761E-01  0.2790E-01
     -4.606  0.2740E-01  0.3013E-01
     -4.525  0.4354E-01  0.3367E-01
     -4.444  0.7189E-01  0.3952E-01
     -4.362  0.9277E-01  0.4707E-01
     -4.281  0.8812E-01  0.5424E-01
     -4.199  0.6104E-01  0.5920E-01
     -4.118  0.3081E-01  0.6171E-01
     -4.037  0.1137E-01  0.6264E-01
     -3.955  0.3420E-02  0.6291E-01
     -3.874  0.2744E-02  0.6314E-01
     -3.793  0.8710E-02  0.6385E-01
     -3.711  0.2504E-01  0.6588E-01
     -3.630  0.5265E-01  0.7017E-01
     -3.549  0.8037E-01  0.7671E-01
     -3.467  0.8968E-01  0.8400E-01
     -3.386  0.7588E-01  0.9018E-01
     -3.304  0.5696E-01  0.9481E-01
     -3.223  0.5342E-01  0.9916E-01
     -3.142  0.6486E-01  0.1044E+00
     -3.060  0.7236E-01  0.1103E+00
     -2.979  0.6182E-01  0.1154E+00
     -2.898  0.3870E-01  0.1185E+00
     -2.816  0.1764E-01  0.1199E+00
     -2.735  0.6201E-02  0.1204E+00
     -2.654  0.3294E-02  0.1207E+00
     -2.572  0.6667E-02  0.1212E+00
     -2.491  0.1567E-01  0.1225E+00
     -2.409  0.2758E-01  0.1248E+00
     -2.328  0.3523E-01  0.1276E+00
     -2.247  0.3264E-01  0.1303E+00
     -2.165  0.2209E-01  0.1321E+00
     -2.084  0.1170E-01  0.1330E+00
     -2.003  0.7808E-02  0.1337E+00
     -1.921  0.1223E-01  0.1347E+00
     -1.840  0.2288E-01  0.1365E+00
     -1.759  0.3314E-01  0.1392E+00
     -1.677  0.3501E-01  0.1421E+00
     -1.596  0.2682E-01  0.1443E+00
     -1.515  0.1492E-01  0.1455E+00
     -1.433  0.6267E-02  0.1460E+00
     -1.352  0.3378E-02  0.1463E+00
     -1.270  0.7410E-02  0.1469E+00
     -1.189  0.2249E-01  0.1487E+00
     -1.108  0.5319E-01  0.1530E+00
     -1.026  0.9460E-01  0.1607E+00
     -0.945  0.1273E+00  0.1711E+00
     -0.864  0.1309E+00  0.1817E+00
     -0.782  0.1058E+00  0.1903E+00
     -0.701  0.7357E-01  0.1963E+00
     -0.620  0.5424E-01  0.2007E+00
     -0.538  0.4762E-01  0.2046E+00
     -0.457  0.4132E-01  0.2080E+00
     -0.375  0.2916E-01  0.2103E+00
     -0.294  0.1550E-01  0.2116E+00
     -0.213  0.6083E-02  0.2121E+00
     -0.131  0.1809E-02  0.2122E+00
     -0.050  0.8144E-03  0.2123E+00
      0.031  0.2379E-02  0.2125E+00
      0.113  0.8740E-02  0.2132E+00
      0.194  0.2378E-01  0.2151E+00
      0.275  0.4692E-01  0.2190E+00
      0.357  0.6709E-01  0.2244E+00
      0.438  0.6951E-01  0.2301E+00
      0.520  0.5220E-01  0.2343E+00
      0.601  0.2841E-01  0.2366E+00
      0.682  0.1123E-01  0.2375E+00
      0.764  0.3401E-02  0.2378E+00
      0.845  0.1736E-02  0.2380E+00
      0.926  0.4207E-02  0.2383E+00
      1.008  0.1139E-01  0.2392E+00
      1.089  0.2283E-01  0.2411E+00
      1.170  0.3324E-01  0.2438E+00
      1.252  0.3533E-01  0.2467E+00
      1.333  0.2865E-01  0.2490E+00
      1.414  0.2258E-01  0.2508E+00
      1.496  0.2914E-01  0.2532E+00
      1.577  0.5304E-01  0.2575E+00
      1.659  0.8466E-01  0.2644E+00
      1.740  0.1029E+00  0.2728E+00
      1.821  0.9320E-01  0.2804E+00
      1.903  0.6362E-01  0.2855E+00
      1.984  0.3689E-01  0.2885E+00
      2.065  0.2984E-01  0.2910E+00
      2.147  0.4336E-01  0.2945E+00
      2.228  0.6381E-01  0.2997E+00
      2.309  0.7294E-01  0.3056E+00
      2.391  0.6606E-01  0.3110E+00
      2.472  0.5990E-01  0.3159E+00
      2.554  0.7469E-01  0.3220E+00
      2.635  0.1085E+00  0.3308E+00
      2.716  0.1366E+00  0.3419E+00
      2.798  0.1418E+00  0.3534E+00
      2.879  0.1381E+00  0.3647E+00
      2.960  0.1469E+00  0.3766E+00
      3.042  0.1609E+00  0.3897E+00
      3.123  0.1521E+00  0.4021E+00
      3.204  0.1123E+00  0.4112E+00
      3.286  0.6308E-01  0.4164E+00
      3.367  0.2948E-01  0.4188E+00
      3.448  0.2046E-01  0.4204E+00
      3.530  0.3286E-01  0.4231E+00
      3.611  0.5697E-01  0.4277E+00
      3.693  0.7857E-01  0.4341E+00
      3.774  0.8870E-01  0.4413E+00
      3.855  0.9154E-01  0.4488E+00
      3.937  0.9337E-01  0.4564E+00
      4.018  0.9119E-01  0.4638E+00
      4.099  0.8095E-01  0.4704E+00
      4.181  0.6567E-01  0.4757E+00
      4.262  0.5095E-01  0.4799E+00
      4.343  0.4213E-01  0.4833E+00
      4.425  0.4316E-01  0.4868E+00
      4.506  0.5072E-01  0.4909E+00
      4.588  0.5566E-01  0.4955E+00
      4.669  0.5448E-01  0.4999E+00
      4.750  0.5185E-01  0.5041E+00
      4.832  0.5138E-01  0.5083E+00
      4.913  0.5281E-01  0.5126E+00
      4.994  0.5543E-01  0.5171E+00
      5.076  0.5581E-01  0.5217E+00
      5.157  0.4804E-01  0.5256E+00
      5.238  0.3233E-01  0.5282E+00
      5.320  0.1652E-01  0.5295E+00
      5.401  0.7253E-02  0.5301E+00
      5.483  0.5010E-02  0.5305E+00
      5.564  0.6702E-02  0.5311E+00
      5.645  0.8683E-02  0.5318E+00
      5.727  0.8466E-02  0.5325E+00
      5.808  0.6049E-02  0.5330E+00
      5.889  0.3389E-02  0.5332E+00
      5.971  0.2465E-02  0.5334E+00
      6.052  0.4406E-02  0.5338E+00
      6.133  0.9290E-02  0.5346E+00
      6.215  0.1510E-01  0.5358E+00
      6.296  0.1807E-01  0.5373E+00
      6.377  0.1658E-01  0.5386E+00
      6.459  0.1431E-01  0.5398E+00
      6.540  0.1710E-01  0.5412E+00
      6.622  0.2623E-01  0.5433E+00
      6.703  0.3585E-01  0.5462E+00
      6.784  0.3926E-01  0.5494E+00
      6.866  0.3759E-01  0.5525E+00
      6.947  0.3826E-01  0.5556E+00
      7.028  0.4498E-01  0.5592E+00
      7.110  0.5409E-01  0.5636E+00
      7.191  0.6134E-01  0.5686E+00
      7.272  0.6823E-01  0.5742E+00
      7.354  0.7829E-01  0.5805E+00
      7.435  0.8880E-01  0.5878E+00
      7.517  0.9478E-01  0.5955E+00
      7.598  0.9872E-01  0.6035E+00
      7.679  0.1035E+00  0.6119E+00
      7.761  0.1006E+00  0.6201E+00
      7.842  0.8099E-01  0.6267E+00
      7.923  0.5118E-01  0.6309E+00
      8.005  0.2626E-01  0.6330E+00
      8.086  0.1398E-01  0.6341E+00
      8.167  0.1176E-01  0.6351E+00
      8.249  0.1463E-01  0.6363E+00
      8.330  0.2093E-01  0.6380E+00
      8.412  0.3022E-01  0.6404E+00
      8.493  0.3874E-01  0.6436E+00
      8.574  0.4269E-01  0.6471E+00
      8.656  0.4561E-01  0.6508E+00
      8.737  0.5671E-01  0.6554E+00
      8.818  0.8251E-01  0.6621E+00
      8.900  0.1218E+00  0.6720E+00
      8.981  0.1608E+00  0.6851E+00
      9.062  0.1743E+00  0.6993E+00
      9.144  0.1501E+00  0.7115E+00
      9.225  0.1094E+00  0.7204E+00
      9.306  0.8727E-01  0.7275E+00
      9.388  0.9580E-01  0.7353E+00
      9.469  0.1184E+00  0.7449E+00
      9.551  0.1351E+00  0.7559E+00
      9.632  0.1404E+00  0.7674E+00
      9.713  0.1374E+00  0.7785E+00
      9.795  0.1309E+00  0.7892E+00
      9.876  0.1287E+00  0.7996E+00
      9.957  0.1348E+00  0.8106E+00
     10.039  0.1424E+00  0.8222E+00
     10.120  0.1434E+00  0.8339E+00
     10.201  0.1398E+00  0.8452E+00
     10.283  0.1428E+00  0.8569E+00
     10.364  0.1606E+00  0.8699E+00
     10.446  0.1822E+00  0.8847E+00
     10.527  0.1797E+00  0.8994E+00
     10.608  0.1401E+00  0.9108E+00
     10.690  0.8393E-01  0.9176E+00
     10.771  0.4243E-01  0.9210E+00
     10.852  0.3057E-01  0.9235E+00
     10.934  0.4387E-01  0.9271E+00
     11.015  0.6639E-01  0.9325E+00
     11.096  0.8021E-01  0.9390E+00
     11.178  0.7851E-01  0.9454E+00
     11.259  0.6849E-01  0.9510E+00
     11.341  0.5857E-01  0.9558E+00
     11.422  0.5018E-01  0.9598E+00
     11.503  0.4144E-01  0.9632E+00
     11.585  0.3105E-01  0.9657E+00
     11.666  0.1962E-01  0.9673E+00
     11.747  0.9778E-02  0.9681E+00
     11.829  0.3683E-02  0.9684E+00
     11.910  0.1024E-02  0.9685E+00
     11.991  0.2081E-03  0.9685E+00
     12.073  0.3070E-04  0.9685E+00
     12.154  0.3283E-05  0.9685E+00
     12.235  0.2540E-06  0.9685E+00
     12.317  0.1496E-07  0.9685E+00
     12.398  0.2069E-07  0.9685E+00
     12.480  0.3892E-06  0.9685E+00
     12.561  0.5442E-05  0.9685E+00
     12.642  0.5506E-04  0.9685E+00
     12.724  0.4033E-03  0.9686E+00
     12.805  0.2144E-02  0.9687E+00
     12.886  0.8295E-02  0.9694E+00
     12.968  0.2354E-01  0.9713E+00
     13.049  0.4978E-01  0.9754E+00
     13.130  0.8090E-01  0.9820E+00
     13.212  0.1065E+00  0.9906E+00
     13.293  0.1209E+00  0.1000E+01
     13.375  0.1225E+00  0.1010E+01
     13.456  0.1108E+00  0.1019E+01
     13.537  0.9015E-01  0.1027E+01
     13.619  0.6878E-01  0.1032E+01
     13.700  0.5044E-01  0.1036E+01
     13.781  0.3531E-01  0.1039E+01
     13.863  0.2710E-01  0.1042E+01
     13.944  0.3037E-01  0.1044E+01
     14.025  0.4287E-01  0.1048E+01
     14.107  0.5555E-01  0.1052E+01
     14.188  0.5968E-01  0.1057E+01
     14.269  0.5222E-01  0.1061E+01
     14.351  0.3653E-01  0.1064E+01
     14.432  0.1988E-01  0.1066E+01
     14.514  0.8195E-02  0.1066E+01
     14.595  0.2511E-02  0.1067E+01
     14.676  0.5649E-03  0.1067E+01
     14.758  0.9268E-04  0.1067E+01
     14.839  0.1105E-04  0.1067E+01
     14.920  0.9539E-06  0.1067E+01
     15.002  0.5962E-07  0.1067E+01
     15.083  0.2694E-08  0.1067E+01
     15.164  0.8795E-10  0.1067E+01
     15.246  0.2073E-11  0.1067E+01
     15.327  0.3526E-13  0.1067E+01
     15.409  0.4367E-15  0.1067E+01
     15.490  0.0000E+00  0.1067E+01
     15.571  0.0000E+00  0.1067E+01
     15.653  0.0000E+00  0.1067E+01
     15.734  0.0000E+00  0.1067E+01
     15.815  0.0000E+00  0.1067E+01
     15.897  0.0000E+00  0.1067E+01
     15.978  0.0000E+00  0.1067E+01
     16.059  0.0000E+00  0.1067E+01
     16.141  0.0000E+00  0.1067E+01
     16.222  0.0000E+00  0.1067E+01
