unknown system                          
   1.00000000000000     
     0.000000    2.715000    2.715000
     2.715000    0.000000    2.715000
     2.715000    2.715000    0.000000
   Si
     2
Direct
  0.500000  0.500000  0.500000
  0.750000  0.750000  0.750000
 
   36   36   36
 0.69910315849E+00 0.71560815288E+00 0.76628016265E+00 0.85441644756E+00 0.98500545669E+00
 0.11641568625E+01 0.13985400814E+01 0.16948017793E+01 0.20587320440E+01 0.24938573311E+01
 0.29992773510E+01 0.35669511130E+01 0.41791500643E+01 0.48071700387E+01 0.54123282724E+01
 0.59496603858E+01 0.63738164079E+01 0.66458931914E+01 0.67396642581E+01 0.66458811637E+01
 0.63738026720E+01 0.59496647211E+01 0.54123708223E+01 0.48072545019E+01 0.41792542813E+01
 0.35670375663E+01 0.29993176308E+01 0.24938494725E+01 0.20586969037E+01 0.16947650146E+01
 0.13985166551E+01 0.11641479561E+01 0.98500503371E+00 0.85441850458E+00 0.76628178183E+00
 0.71560883484E+00 0.71560815288E+00 0.74460302006E+00 0.80446140747E+00 0.89868057743E+00
 0.10319469672E+01 0.12096088845E+01 0.14371067690E+01 0.17192990627E+01 0.20595153720E+01
 0.24581633012E+01 0.29108775070E+01 0.34065160834E+01 0.39256633030E+01 0.44404772039E+01
 0.49165220329E+01 0.53166317314E+01 0.56061206950E+01 0.57581690724E+01 0.57581676610E+01
 0.56061197741E+01 0.53166419811E+01 0.49165570215E+01 0.44405392457E+01 0.39257330582E+01
 0.34065621983E+01 0.29108800532E+01 0.24581274017E+01 0.20594637787E+01 0.17192549612E+01
 0.14370821873E+01 0.12096029534E+01 0.10319504337E+01 0.89868293961E+00 0.80445776747E+00
 0.74459628402E+00 0.71560482128E+00 0.76628016265E+00 0.80446140747E+00 0.87056586549E+00
 0.96800415320E+00 0.11009808389E+01 0.12739897473E+01 0.14912084450E+01 0.17557438384E+01
 0.20686466209E+01 0.24276530527E+01 0.28257576500E+01 0.32499426455E+01 0.36805928177E+01
 0.40921598487E+01 0.44553906865E+01 0.47409369475E+01 0.49236436275E+01 0.49865424249E+01
 0.49236457047E+01 0.47409452597E+01 0.44554106038E+01 0.40921899896E+01 0.36806190041E+01
 0.32499448298E+01 0.28257265300E+01 0.24275985347E+01 0.20685896416E+01 0.17557022248E+01
 0.14911897839E+01 0.12739916417E+01 0.11009932485E+01 0.96801378284E+00 0.87056406301E+00
 0.80445018549E+00 0.76626989627E+00 0.75380467611E+00 0.85441644756E+00 0.89868057743E+00
 0.96800415320E+00 0.10655658366E+01 0.11950184524E+01 0.13599715430E+01 0.15633439399E+01
 0.18065852540E+01 0.20887647631E+01 0.24055660365E+01 0.27483273680E+01 0.31034074994E+01
 0.34522573944E+01 0.37725398742E+01 0.40403997033E+01 0.42336034828E+01 0.43349141167E+01
 0.43349144818E+01 0.42336057709E+01 0.40404047003E+01 0.37725431352E+01 0.34522490888E+01
 0.31033796460E+01 0.27482820987E+01 0.24055157469E+01 0.20887240781E+01 0.18065634190E+01
 0.15633431967E+01 0.13599882744E+01 0.11950432555E+01 0.10655855256E+01 0.96800879361E+00
 0.89867051572E+00 0.85440198510E+00 0.83288330224E+00 0.83288989207E+00 0.98500545669E+00
 0.10319469672E+01 0.11009808389E+01 0.11950184524E+01 0.13171504991E+01 0.14700996115E+01
 0.16555704836E+01 0.18735454713E+01 0.21215613055E+01 0.23940137416E+01 0.26816060537E+01
 0.29711596752E+01 0.32460616171E+01 0.34875542006E+01 0.36768553402E+01 0.37977957962E+01
 0.38394044809E+01 0.37977947204E+01 0.36768523633E+01 0.34875448146E+01 0.32460396368E+01
 0.29711250110E+01 0.26815684466E+01 0.23939864204E+01 0.21215519907E+01 0.18735542886E+01
 0.16555938627E+01 0.14701323995E+01 0.13171845210E+01 0.11950432226E+01 0.11009890411E+01
 0.10319395655E+01 0.98499111084E+00 0.95781914610E+00 0.94893620655E+00 0.95782975061E+00
 0.11641568625E+01 0.12096088845E+01 0.12739897473E+01 0.13599715430E+01 0.14700996115E+01
 0.16062428468E+01 0.17690253680E+01 0.19572971820E+01 0.21676540273E+01 0.23940136554E+01
 0.26273343705E+01 0.28556683647E+01 0.30647779735E+01 0.32394450038E+01 0.33653860922E+01
 0.34314297818E+01 0.34314295042E+01 0.33653836845E+01 0.32394362007E+01 0.30647592596E+01
 0.28556433003E+01 0.26273147478E+01 0.23940113079E+01 0.21676720751E+01 0.19573303451E+01
 0.17690661307E+01 0.16062840323E+01 0.14701331805E+01 0.13599903017E+01 0.12739919527E+01
 0.12095994817E+01 0.11641437168E+01 0.11352779671E+01 0.11212932841E+01 0.11212971331E+01
 0.11352883332E+01 0.13985400814E+01 0.14371067690E+01 0.14912084450E+01 0.15633439399E+01
 0.16555704836E+01 0.17690253680E+01 0.19035293996E+01 0.20572793199E+01 0.22265761760E+01
 0.24055660021E+01 0.25860892590E+01 0.27578490912E+01 0.29091057334E+01 0.30279569636E+01
 0.31040344829E+01 0.31302376230E+01 0.31040359612E+01 0.30279554018E+01 0.29090974180E+01
 0.27578371633E+01 0.25860836310E+01 0.24055759275E+01 0.22266032143E+01 0.20573177663E+01
 0.19035711088E+01 0.17690616228E+01 0.16555921939E+01 0.15633457951E+01 0.14911942044E+01
 0.14370874164E+01 0.13985253004E+01 0.13730444406E+01 0.13586265476E+01 0.13539701626E+01
 0.13586291082E+01 0.13730519758E+01 0.16948017793E+01 0.17192990627E+01 0.17557438384E+01
 0.18065852540E+01 0.18735454713E+01 0.19572971820E+01 0.20572793199E+01 0.21715735937E+01
 0.22967463214E+01 0.24276532806E+01 0.25573554389E+01 0.26773760390E+01 0.27784572748E+01
 0.28517756847E+01 0.28903636901E+01 0.28903665625E+01 0.28517812253E+01 0.27784602434E+01
 0.26773757514E+01 0.25573565842E+01 0.24276609671E+01 0.22967622236E+01 0.21715961221E+01
 0.20573040325E+01 0.19573155005E+01 0.18735467046E+01 0.18065645375E+01 0.17557086620E+01
 0.17192654162E+01 0.16947822198E+01 0.16795206450E+01 0.16709516616E+01 0.16671714420E+01
 0.16671692879E+01 0.16709485589E+01 0.16795250212E+01 0.20587320440E+01 0.20595153720E+01
 0.20686466209E+01 0.20887647631E+01 0.21215613055E+01 0.21676540273E+01 0.22265761760E+01
 0.22967463214E+01 0.23753450919E+01 0.24581635353E+01 0.25396144046E+01 0.26131049634E+01
 0.26718258029E+01 0.27098058641E+01 0.27229546797E+01 0.27098149851E+01 0.26718384353E+01
 0.26131154917E+01 0.25396200965E+01 0.24581630893E+01 0.23753387684E+01 0.22967377389E+01
 0.22265689378E+01 0.21676445104E+01 0.21215393333E+01 0.20887250206E+01 0.20685975932E+01
 0.20594743435E+01 0.20587116881E+01 0.20630436359E+01 0.20691094355E+01 0.20740314317E+01
 0.20758915391E+01 0.20740219113E+01 0.20690983107E+01 0.20630432585E+01 0.24938573311E+01
 0.24581633012E+01 0.24276530527E+01 0.24055660365E+01 0.23940137416E+01 0.23940136554E+01
 0.24055660021E+01 0.24276532806E+01 0.24581635353E+01 0.24938573386E+01 0.25305447203E+01
 0.25635642339E+01 0.25884945222E+01 0.26018994792E+01 0.26019068546E+01 0.25885129515E+01
 0.25635846735E+01 0.25305562312E+01 0.24938501721E+01 0.24581341950E+01 0.24276090057E+01
 0.24055199413E+01 0.23939723008E+01 0.23939727361E+01 0.24055208856E+01 0.24276099099E+01
 0.24581349457E+01 0.24938507660E+01 0.25305563644E+01 0.25635841815E+01 0.25885122158E+01
 0.26019062795E+01 0.26018989789E+01 0.25884939497E+01 0.25635638300E+01 0.25305446654E+01
 0.29992773510E+01 0.29108775070E+01 0.28257576500E+01 0.27483273680E+01 0.26816060537E+01
 0.26273343705E+01 0.25860892590E+01 0.25573554389E+01 0.25396144046E+01 0.25305447203E+01
 0.25273837417E+01 0.25274047949E+01 0.25283756210E+01 0.25288680104E+01 0.25283931084E+01
 0.25274309083E+01 0.25274016469E+01 0.25305353029E+01 0.25395678457E+01 0.25572805445E+01
 0.25860086016E+01 0.26272672920E+01 0.26815579196E+01 0.27482958140E+01 0.28257437567E+01
 0.29108844658E+01 0.29993016713E+01 0.30852489944E+01 0.31620735832E+01 0.32230175154E+01
 0.32622366549E+01 0.32757715638E+01 0.32622242504E+01 0.32229955578E+01 0.31620448893E+01
 0.30852178404E+01 0.35669511130E+01 0.34065160834E+01 0.32499426455E+01 0.31034074994E+01
 0.29711596752E+01 0.28556683647E+01 0.27578490912E+01 0.26773760390E+01 0.26131049634E+01
 0.25635642339E+01 0.25274047949E+01 0.25036843004E+01 0.24919147433E+01 0.24919250315E+01
 0.25037093219E+01 0.25274263083E+01 0.25635562420E+01 0.26130499916E+01 0.26772818349E+01
 0.27577462913E+01 0.28555890982E+01 0.29711190763E+01 0.31034042755E+01 0.32499700155E+01
 0.34065657049E+01 0.35670094312E+01 0.37232288924E+01 0.38656778158E+01 0.39842297195E+01
 0.40694636630E+01 0.41140758517E+01 0.41140742992E+01 0.40694576825E+01 0.39842143050E+01
 0.38656457146E+01 0.37231786150E+01 0.41791500643E+01 0.39256633030E+01 0.36805928177E+01
 0.34522573944E+01 0.32460616171E+01 0.30647779735E+01 0.29091057334E+01 0.27784572748E+01
 0.26718258029E+01 0.25884945222E+01 0.25283756210E+01 0.24919147433E+01 0.24796838254E+01
 0.24919329412E+01 0.25283959297E+01 0.25884881559E+01 0.26717687451E+01 0.27783541676E+01
 0.29089931017E+01 0.30646988098E+01 0.32460373580E+01 0.34522834899E+01 0.36806528184E+01
 0.39257392923E+01 0.41792239805E+01 0.44299305658E+01 0.46643502119E+01 0.48677252794E+01
 0.50256400516E+01 0.51258910812E+01 0.51602769861E+01 0.51259012253E+01 0.50256516082E+01
 0.48677241111E+01 0.46643237352E+01 0.44298756775E+01 0.48071700387E+01 0.44404772039E+01
 0.40921598487E+01 0.37725398742E+01 0.34875542006E+01 0.32394450038E+01 0.30279569636E+01
 0.28517756847E+01 0.27098058641E+01 0.26018994792E+01 0.25288680104E+01 0.24919250315E+01
 0.24919329412E+01 0.25288815290E+01 0.26018912191E+01 0.27097478923E+01 0.28516681889E+01
 0.30278394381E+01 0.32393694405E+01 0.34875454966E+01 0.37725852292E+01 0.40922304258E+01
 0.44405496705E+01 0.48072299591E+01 0.51775309222E+01 0.55329850823E+01 0.58528293541E+01
 0.61160324160E+01 0.63036809736E+01 0.64014035516E+01 0.64014143345E+01 0.63037073340E+01
 0.61160600433E+01 0.58528431013E+01 0.55329744996E+01 0.51774932393E+01 0.54123282724E+01
 0.49165220329E+01 0.44553906865E+01 0.40403997033E+01 0.36768553402E+01 0.33653860922E+01
 0.31040344829E+01 0.28903636901E+01 0.27229546797E+01 0.26019068546E+01 0.25283931084E+01
 0.25037093219E+01 0.25283959297E+01 0.26018912191E+01 0.27228931447E+01 0.28902524636E+01
 0.31039122007E+01 0.33653107655E+01 0.36768554204E+01 0.40404535971E+01 0.44554549368E+01
 0.49165686528E+01 0.54123523000E+01 0.59247363035E+01 0.64297830912E+01 0.68995567126E+01
 0.73047583444E+01 0.76177553750E+01 0.78157100800E+01 0.78834738601E+01 0.78157271434E+01
 0.76177833010E+01 0.73047884113E+01 0.68995806456E+01 0.64297944453E+01 0.59247314270E+01
 0.59496603858E+01 0.53166317314E+01 0.47409369475E+01 0.42336034828E+01 0.37977957962E+01
 0.34314297818E+01 0.31302376230E+01 0.28903665625E+01 0.27098149851E+01 0.25885129515E+01
 0.25274309083E+01 0.25274263083E+01 0.25884881559E+01 0.27097478923E+01 0.28902524636E+01
 0.31301121769E+01 0.34313527149E+01 0.37977992166E+01 0.42336611121E+01 0.47409924451E+01
 0.53166504397E+01 0.59496458269E+01 0.66197779200E+01 0.72980907505E+01 0.79490527465E+01
 0.85338520957E+01 0.90141623433E+01 0.93560586624E+01 0.95339305814E+01 0.95339263951E+01
 0.93560512801E+01 0.90141627304E+01 0.85338671298E+01 0.79490798686E+01 0.72981227853E+01
 0.66198074396E+01 0.63738164079E+01 0.56061206950E+01 0.49236436275E+01 0.43349141167E+01
 0.38394044809E+01 0.34314295042E+01 0.31040359612E+01 0.28517812253E+01 0.26718384353E+01
 0.25635846735E+01 0.25274016469E+01 0.25635562420E+01 0.26717687451E+01 0.28516681889E+01
 0.31039122007E+01 0.34313527149E+01 0.38394091311E+01 0.43349743037E+01 0.49236960288E+01
 0.56061235541E+01 0.63737764527E+01 0.72064710271E+01 0.80719568709E+01 0.89280123261E+01
 0.97261861798E+01 0.10416159264E+02 0.10950332298E+02 0.11288839141E+02 0.11404824985E+02
 0.11288782381E+02 0.10950253751E+02 0.10416102128E+02 0.97261720228E+01 0.89280353576E+01
 0.80720019614E+01 0.72065243437E+01 0.66458931914E+01 0.57581690724E+01 0.49865424249E+01
 0.43349144818E+01 0.37977947204E+01 0.33653836845E+01 0.30279554018E+01 0.27784602434E+01
 0.26131154917E+01 0.25305562312E+01 0.25305353029E+01 0.26130499916E+01 0.27783541676E+01
 0.30278394381E+01 0.33653107655E+01 0.37977992166E+01 0.43349743037E+01 0.49865946531E+01
 0.57581680988E+01 0.66458448685E+01 0.76322129213E+01 0.86846317720E+01 0.97567068700E+01
 0.10792023066E+02 0.11728639565E+02 0.12503773845E+02 0.13059478374E+02 0.13350051921E+02
 0.13349987250E+02 0.13059318001E+02 0.12503595981E+02 0.11728515175E+02 0.10791976140E+02
 0.97567197034E+01 0.86846785054E+01 0.76322741109E+01 0.67396642581E+01 0.57581676610E+01
 0.49236457047E+01 0.42336057709E+01 0.36768523633E+01 0.32394362007E+01 0.29090974180E+01
 0.26773757514E+01 0.25396200965E+01 0.24938501721E+01 0.25395678457E+01 0.26772818349E+01
 0.29089931017E+01 0.32393694405E+01 0.36768554204E+01 0.42336611121E+01 0.49236960288E+01
 0.57581680988E+01 0.67396192514E+01 0.78562173110E+01 0.90784870205E+01 0.10359686103E+02
 0.11639048349E+02 0.12845832614E+02 0.13903120410E+02 0.14732824895E+02 0.15263867680E+02
 0.15446540356E+02 0.15263701989E+02 0.14732563912E+02 0.13902866864E+02 0.12845662877E+02
 0.11638976714E+02 0.10359683422E+02 0.90785230768E+01 0.78562722920E+01 0.66458811637E+01
 0.56061197741E+01 0.47409452597E+01 0.40404047003E+01 0.34875448146E+01 0.30647592596E+01
 0.27578371633E+01 0.25573565842E+01 0.24581630893E+01 0.24581341950E+01 0.25572805445E+01
 0.27577462913E+01 0.30646988098E+01 0.34875454966E+01 0.40404535971E+01 0.47409924451E+01
 0.56061235541E+01 0.66458448685E+01 0.78562173110E+01 0.92143943035E+01 0.10677582171E+02
 0.12185496562E+02 0.13663668102E+02 0.15025508322E+02 0.16171234263E+02 0.16998744214E+02
 0.17432439743E+02 0.17432355776E+02 0.16998518881E+02 0.16170941668E+02 0.15025241839E+02
 0.13663490136E+02 0.12185411230E+02 0.10677559773E+02 0.92144113007E+01 0.78562584684E+01
 0.63738026720E+01 0.53166419811E+01 0.44554106038E+01 0.37725431352E+01 0.32460396368E+01
 0.28556433003E+01 0.25860836310E+01 0.24276609671E+01 0.23753387684E+01 0.24276090057E+01
 0.25860086016E+01 0.28555890982E+01 0.32460373580E+01 0.37725852292E+01 0.44554549368E+01
 0.53166504397E+01 0.63737764527E+01 0.76322129213E+01 0.90784870205E+01 0.10677582171E+02
 0.12374467395E+02 0.14096860311E+02 0.15754970696E+02 0.17228593208E+02 0.18388957230E+02
 0.19131766881E+02 0.19387555548E+02 0.19131657839E+02 0.18388754068E+02 0.17228342710E+02
 0.15754741055E+02 0.14096697792E+02 0.12374374680E+02 0.10677540873E+02 0.90784857628E+01
 0.76322403626E+01 0.59496647211E+01 0.49165570215E+01 0.40921899896E+01 0.34522490888E+01
 0.29711250110E+01 0.26273147478E+01 0.24055759275E+01 0.22967622236E+01 0.22967377389E+01
 0.24055199413E+01 0.26272672920E+01 0.29711190763E+01 0.34522834899E+01 0.40922304258E+01
 0.49165686528E+01 0.59496458269E+01 0.72064710271E+01 0.86846317720E+01 0.10359686103E+02
 0.12185496562E+02 0.14096860311E+02 0.16008045257E+02 0.17789297716E+02 0.19290646407E+02
 0.20379802793E+02 0.20953494470E+02 0.20953476757E+02 0.20379734031E+02 0.19290507531E+02
 0.17789108410E+02 0.16007857818E+02 0.14096714781E+02 0.12185401320E+02 0.10359635202E+02
 0.86846218514E+01 0.72064908061E+01 0.54123708223E+01 0.44405392457E+01 0.36806190041E+01
 0.31033796460E+01 0.26815684466E+01 0.23940113079E+01 0.22266032143E+01 0.21715961221E+01
 0.22265689378E+01 0.23939723008E+01 0.26815579196E+01 0.31034042755E+01 0.36806528184E+01
 0.44405496705E+01 0.54123523000E+01 0.66197779200E+01 0.80719568709E+01 0.97567068700E+01
 0.11639048349E+02 0.13663668102E+02 0.15754970696E+02 0.17789297716E+02 0.19603361031E+02
 0.21042443732E+02 0.21971305027E+02 0.22292899002E+02 0.21971324254E+02 0.21042427797E+02
 0.19603266542E+02 0.17789141116E+02 0.15754806378E+02 0.13663535562E+02 0.11638958124E+02
 0.97566583982E+01 0.80719499583E+01 0.66197993838E+01 0.48072545019E+01 0.39257330582E+01
 0.32499448298E+01 0.27482820987E+01 0.23939864204E+01 0.21676720751E+01 0.20573177663E+01
 0.20573040325E+01 0.21676445104E+01 0.23939727361E+01 0.27482958140E+01 0.32499700155E+01
 0.39257392923E+01 0.48072299591E+01 0.59247363035E+01 0.72980907505E+01 0.89280123261E+01
 0.10792023066E+02 0.12845832614E+02 0.15025508322E+02 0.17228593208E+02 0.19290646407E+02
 0.21042443732E+02 0.22324968489E+02 0.23005363354E+02 0.23005400996E+02 0.22325034947E+02
 0.21042451680E+02 0.19290557141E+02 0.17228443681E+02 0.15025358227E+02 0.12845713751E+02
 0.10791942514E+02 0.89279745367E+01 0.72980979564E+01 0.59247698031E+01 0.41792542813E+01
 0.34065621983E+01 0.28257265300E+01 0.24055157469E+01 0.21215519907E+01 0.19573303451E+01
 0.19035711088E+01 0.19573155005E+01 0.21215393333E+01 0.24055208856E+01 0.28257437567E+01
 0.34065657049E+01 0.41792239805E+01 0.51775309222E+01 0.64297830912E+01 0.79490527465E+01
 0.97261861798E+01 0.11728639565E+02 0.13903120410E+02 0.16171234263E+02 0.18388957230E+02
 0.20379802793E+02 0.21971305027E+02 0.23005363354E+02 0.23364758365E+02 0.23005452547E+02
 0.21971392493E+02 0.20379802079E+02 0.18388861652E+02 0.16171097585E+02 0.13902989946E+02
 0.11728534383E+02 0.97261181194E+01 0.79490366154E+01 0.64298170843E+01 0.51775826817E+01
 0.35670375663E+01 0.29108800532E+01 0.24275985347E+01 0.20887240781E+01 0.18735542886E+01
 0.17690661307E+01 0.17690616228E+01 0.18735467046E+01 0.20887250206E+01 0.24276099099E+01
 0.29108844658E+01 0.35670094312E+01 0.44299305658E+01 0.55329850823E+01 0.68995567126E+01
 0.85338520957E+01 0.10416159264E+02 0.12503773845E+02 0.14732824895E+02 0.16998744214E+02
 0.19131766881E+02 0.20953494470E+02 0.22292899002E+02 0.23005400996E+02 0.23005452547E+02
 0.22293006718E+02 0.20953567405E+02 0.19131756136E+02 0.16998667404E+02 0.14732720327E+02
 0.12503666059E+02 0.10416070325E+02 0.85338115802E+01 0.68995818593E+01 0.55330541574E+01
 0.44299955936E+01 0.29993176308E+01 0.24581274017E+01 0.20685896416E+01 0.18065634190E+01
 0.16555938627E+01 0.16062840323E+01 0.16555921939E+01 0.18065645375E+01 0.20685975932E+01
 0.24581349457E+01 0.29993016713E+01 0.37232288924E+01 0.46643502119E+01 0.58528293541E+01
 0.73047583444E+01 0.90141623433E+01 0.10950332298E+02 0.13059478374E+02 0.15263867680E+02
 0.17432439743E+02 0.19387555548E+02 0.20953476757E+02 0.21971324254E+02 0.22325034947E+02
 0.21971392493E+02 0.20953567405E+02 0.19387619080E+02 0.17432455099E+02 0.15263835633E+02
 0.13059406957E+02 0.10950246771E+02 0.90141077458E+01 0.73047730713E+01 0.58529081506E+01
 0.46644441463E+01 0.37232894952E+01 0.24938494725E+01 0.20594637787E+01 0.17557022248E+01
 0.15633431967E+01 0.14701323995E+01 0.14701331805E+01 0.15633457951E+01 0.17557086620E+01
 0.20594743435E+01 0.24938507660E+01 0.30852489944E+01 0.38656778158E+01 0.48677252794E+01
 0.61160324160E+01 0.76177553750E+01 0.93560586624E+01 0.11288839141E+02 0.13350051921E+02
 0.15446540356E+02 0.17432355776E+02 0.19131657839E+02 0.20379734031E+02 0.21042427797E+02
 0.21042451680E+02 0.20379802079E+02 0.19131756136E+02 0.17432455099E+02 0.15446601754E+02
 0.13350048142E+02 0.11288783747E+02 0.93560058751E+01 0.76177626780E+01 0.61161138247E+01
 0.48678387095E+01 0.38657652681E+01 0.30852843939E+01 0.20586969037E+01 0.17192549612E+01
 0.14911897839E+01 0.13599882744E+01 0.13171845210E+01 0.13599903017E+01 0.14911942044E+01
 0.17192654162E+01 0.20587116881E+01 0.25305563644E+01 0.31620735832E+01 0.39842297195E+01
 0.50256400516E+01 0.63036809736E+01 0.78157100800E+01 0.95339305814E+01 0.11404824985E+02
 0.13349987250E+02 0.15263701989E+02 0.16998518881E+02 0.18388754068E+02 0.19290507531E+02
 0.19603266542E+02 0.19290557141E+02 0.18388861652E+02 0.16998667404E+02 0.15263835633E+02
 0.13350048142E+02 0.11404807061E+02 0.95338877769E+01 0.78157115818E+01 0.63037565962E+01
 0.50257589881E+01 0.39843323407E+01 0.31621220882E+01 0.25305578571E+01 0.16947650146E+01
 0.14370821873E+01 0.12739916417E+01 0.11950432555E+01 0.11950432226E+01 0.12739919527E+01
 0.14370874164E+01 0.16947822198E+01 0.20630436359E+01 0.25635841815E+01 0.32230175154E+01
 0.40694636630E+01 0.51258910812E+01 0.64014035516E+01 0.78834738601E+01 0.95339263951E+01
 0.11288782381E+02 0.13059318001E+02 0.14732563912E+02 0.16170941668E+02 0.17228342710E+02
 0.17789108410E+02 0.17789141116E+02 0.17228443681E+02 0.16171097585E+02 0.14732720327E+02
 0.13059406957E+02 0.11288783747E+02 0.95338877769E+01 0.78834676296E+01 0.64014676255E+01
 0.51260038023E+01 0.40695689484E+01 0.32230713811E+01 0.25635844946E+01 0.20630208406E+01
 0.13985166551E+01 0.12096029534E+01 0.11009932485E+01 0.10655855256E+01 0.11009890411E+01
 0.12095994817E+01 0.13985253004E+01 0.16795206450E+01 0.20691094355E+01 0.25885122158E+01
 0.32622366549E+01 0.41140758517E+01 0.51602769861E+01 0.64014143345E+01 0.78157271434E+01
 0.93560512801E+01 0.10950253751E+02 0.12503595981E+02 0.13902866864E+02 0.15025241839E+02
 0.15754741055E+02 0.16007857818E+02 0.15754806378E+02 0.15025358227E+02 0.13902989946E+02
 0.12503666059E+02 0.10950246771E+02 0.93560058751E+01 0.78157115818E+01 0.64014676255E+01
 0.51603815915E+01 0.41141792818E+01 0.32622929662E+01 0.25885115286E+01 0.20690779495E+01
 0.16794930279E+01 0.11641479561E+01 0.10319504337E+01 0.96801378284E+00 0.96800879361E+00
 0.10319395655E+01 0.11641437168E+01 0.13730444406E+01 0.16709516616E+01 0.20740314317E+01
 0.26019062795E+01 0.32757715638E+01 0.41140742992E+01 0.51259012253E+01 0.63037073340E+01
 0.76177833010E+01 0.90141627304E+01 0.10416102128E+02 0.11728515175E+02 0.12845662877E+02
 0.13663490136E+02 0.14096697792E+02 0.14096714781E+02 0.13663535562E+02 0.12845713751E+02
 0.11728534383E+02 0.10416070325E+02 0.90141077458E+01 0.76177626780E+01 0.63037565962E+01
 0.51260038023E+01 0.41141792818E+01 0.32758327595E+01 0.26019091896E+01 0.20739961629E+01
 0.16709135984E+01 0.13730276012E+01 0.98500503371E+00 0.89868293961E+00 0.87056406301E+00
 0.89867051572E+00 0.98499111084E+00 0.11352779671E+01 0.13586265476E+01 0.16671714420E+01
 0.20758915391E+01 0.26018989789E+01 0.32622242504E+01 0.40694576825E+01 0.50256516082E+01
 0.61160600433E+01 0.73047884113E+01 0.85338671298E+01 0.97261720228E+01 0.10791976140E+02
 0.11638976714E+02 0.12185411230E+02 0.12374374680E+02 0.12185401320E+02 0.11638958124E+02
 0.10791942514E+02 0.97261181194E+01 0.85338115802E+01 0.73047730713E+01 0.61161138247E+01
 0.50257589881E+01 0.40695689484E+01 0.32622929662E+01 0.26019091896E+01 0.20758592419E+01
 0.16671284470E+01 0.13586001922E+01 0.11352767905E+01 0.85441850458E+00 0.80445776747E+00
 0.80445018549E+00 0.85440198510E+00 0.95781914610E+00 0.11212932841E+01 0.13539701626E+01
 0.16671692879E+01 0.20740219113E+01 0.25884939497E+01 0.32229955578E+01 0.39842143050E+01
 0.48677241111E+01 0.58528431013E+01 0.68995806456E+01 0.79490798686E+01 0.89280353576E+01
 0.97567197034E+01 0.10359683422E+02 0.10677559773E+02 0.10677540873E+02 0.10359635202E+02
 0.97566583982E+01 0.89279745367E+01 0.79490366154E+01 0.68995818593E+01 0.58529081506E+01
 0.48678387095E+01 0.39843323407E+01 0.32230713811E+01 0.25885115286E+01 0.20739961629E+01
 0.16671284470E+01 0.13539391304E+01 0.11212844597E+01 0.95782980993E+00 0.76628178183E+00
 0.74459628402E+00 0.76626989627E+00 0.83288330224E+00 0.94893620655E+00 0.11212971331E+01
 0.13586291082E+01 0.16709485589E+01 0.20690983107E+01 0.25635638300E+01 0.31620448893E+01
 0.38656457146E+01 0.46643237352E+01 0.55329744996E+01 0.64297944453E+01 0.72981227853E+01
 0.80720019614E+01 0.86846785054E+01 0.90785230768E+01 0.92144113007E+01 0.90784857628E+01
 0.86846218514E+01 0.80719499583E+01 0.72980979564E+01 0.64298170843E+01 0.55330541574E+01
 0.46644441463E+01 0.38657652681E+01 0.31621220882E+01 0.25635844946E+01 0.20690779495E+01
 0.16709135984E+01 0.13586001922E+01 0.11212844597E+01 0.94894068622E+00 0.83289757951E+00
 0.71560883484E+00 0.71560482128E+00 0.75380467611E+00 0.83288989207E+00 0.95782975061E+00
 0.11352883332E+01 0.13730519758E+01 0.16795250212E+01 0.20630432585E+01 0.25305446654E+01
 0.30852178404E+01 0.37231786150E+01 0.44298756775E+01 0.51774932393E+01 0.59247314270E+01
 0.66198074396E+01 0.72065243437E+01 0.76322741109E+01 0.78562722920E+01 0.78562584684E+01
 0.76322403626E+01 0.72064908061E+01 0.66197993838E+01 0.59247698031E+01 0.51775826817E+01
 0.44299955936E+01 0.37232894952E+01 0.30852843939E+01 0.25305578571E+01 0.20630208406E+01
 0.16794930279E+01 0.13730276012E+01 0.11352767905E+01 0.95782980993E+00 0.83289757951E+00
 0.75381380006E+00 0.71560827184E+00 0.74460302468E+00 0.80446145391E+00 0.89868066062E+00
 0.10319469569E+01 0.12096087812E+01 0.14371067071E+01 0.17192990765E+01 0.20595153871E+01
 0.24581633349E+01 0.29108776280E+01 0.34065161764E+01 0.39256631157E+01 0.44404766446E+01
 0.49165212184E+01 0.53166307810E+01 0.56061197278E+01 0.57581683852E+01 0.57581676138E+01
 0.56061204240E+01 0.53166430028E+01 0.49165579806E+01 0.44405397719E+01 0.39257328482E+01
 0.34065611729E+01 0.29108785652E+01 0.24581260551E+01 0.20594629892E+01 0.17192548272E+01
 0.14370826930E+01 0.12096040107E+01 0.10319517401E+01 0.89868409002E+00 0.80445857689E+00
 0.74459682101E+00 0.71560515031E+00 0.74460302468E+00 0.78205855172E+00 0.84687371820E+00
 0.94236596655E+00 0.10726586993E+01 0.12422091338E+01 0.14552184121E+01 0.17148672238E+01
 0.20223012677E+01 0.23753448527E+01 0.27670684219E+01 0.31845478389E+01 0.36083370332E+01
 0.40131901128E+01 0.43703083719E+01 0.46509011937E+01 0.48303630997E+01 0.48921300685E+01
 0.48303634223E+01 0.46509070033E+01 0.43703273307E+01 0.40132240433E+01 0.36083739953E+01
 0.31845667658E+01 0.27670552310E+01 0.23753035763E+01 0.20222496523E+01 0.17148239717E+01
 0.14551942809E+01 0.12422046371E+01 0.10726654807E+01 0.94237160839E+00 0.84686994245E+00
 0.78204701336E+00 0.74459306599E+00 0.73236088857E+00 0.80446145391E+00 0.84687371820E+00
 0.91323555331E+00 0.10065819170E+01 0.11304815421E+01 0.12885654531E+01 0.14838836991E+01
 0.17180823968E+01 0.19904254055E+01 0.22967462222E+01 0.26285078674E+01 0.29722528420E+01
 0.33097866032E+01 0.36193740336E+01 0.38779922761E+01 0.40643368920E+01 0.41619806402E+01
 0.41619792253E+01 0.40643350202E+01 0.38779945405E+01 0.36193815431E+01 0.33097930339E+01
 0.29722475590E+01 0.26284844518E+01 0.22967081665E+01 0.19903837283E+01 0.17180489016E+01
 0.14838660880E+01 0.12885651010E+01 0.11304924154E+01 0.10065925518E+01 0.91323598802E+00
 0.84686274739E+00 0.80444736817E+00 0.78381190441E+00 0.78381822175E+00 0.89868066062E+00
 0.94236596655E+00 0.10065819170E+01 0.10941216364E+01 0.12080768908E+01 0.13513232376E+01
 0.15258376917E+01 0.17319050940E+01 0.19673022989E+01 0.22265762403E+01 0.25005661442E+01
 0.27763593822E+01 0.30378783682E+01 0.32672191173E+01 0.34466790108E+01 0.35611709992E+01
 0.36005292999E+01 0.35611663258E+01 0.34466724186E+01 0.32672115491E+01 0.30378668713E+01
 0.27763408995E+01 0.25005418809E+01 0.22265511586E+01 0.19672815652E+01 0.17318924605E+01
 0.15258359535E+01 0.13513330398E+01 0.12080939320E+01 0.10941369475E+01 0.10065872462E+01
 0.94235964832E+00 0.89866853312E+00 0.87335664781E+00 0.86507542899E+00 0.87336576163E+00
 0.10319469569E+01 0.10726586993E+01 0.11304815421E+01 0.12080768908E+01 0.13081397222E+01
 0.14328439157E+01 0.15831941057E+01 0.17583756801E+01 0.19551901532E+01 0.21676540549E+01
 0.23868547071E+01 0.26011863286E+01 0.27970895378E+01 0.29603433893E+01 0.30778060067E+01
 0.31393132758E+01 0.31393111730E+01 0.30778002346E+01 0.29603340251E+01 0.27970752931E+01
 0.26011680355E+01 0.23868380283E+01 0.21676458647E+01 0.19551928001E+01 0.17583868770E+01
 0.15832111398E+01 0.14328648199E+01 0.13081606912E+01 0.12080919921E+01 0.11304866899E+01
 0.10726548756E+01 0.10319390294E+01 0.10061093567E+01 0.99359678989E+00 0.99359941807E+00
 0.10061162384E+01 0.12096087812E+01 0.12422091338E+01 0.12885654531E+01 0.13513232376E+01
 0.14328439157E+01 0.15346747341E+01 0.16570381837E+01 0.17984065951E+01 0.19551901353E+01
 0.21215612491E+01 0.22894813036E+01 0.24490426909E+01 0.25892299006E+01 0.26991091806E+01
 0.27693027030E+01 0.27934518431E+01 0.27693022988E+01 0.26991060175E+01 0.25892217130E+01
 0.24490312134E+01 0.22894733593E+01 0.21215641938E+01 0.19552059354E+01 0.17984313221E+01
 0.16570660607E+01 0.15347004255E+01 0.14328621522E+01 0.13513302285E+01 0.12885622197E+01
 0.12422014136E+01 0.12096023561E+01 0.11882961843E+01 0.11763331878E+01 0.11724847712E+01
 0.11763341141E+01 0.11882993395E+01 0.14371067071E+01 0.14552184121E+01 0.14838836991E+01
 0.15258376917E+01 0.15831941057E+01 0.16570381837E+01 0.17471286827E+01 0.18516962909E+01
 0.19673022808E+01 0.20887648051E+01 0.22092430728E+01 0.23206147161E+01 0.24142314593E+01
 0.24820050184E+01 0.25176263185E+01 0.25176283783E+01 0.24820084468E+01 0.24142313685E+01
 0.23206102458E+01 0.22092390670E+01 0.20887675956E+01 0.19673147574E+01 0.18517169042E+01
 0.17471528442E+01 0.16570589712E+01 0.15832036734E+01 0.15258318953E+01 0.14838666771E+01
 0.14552006207E+01 0.14370968254E+01 0.14266632145E+01 0.14213156259E+01 0.14191439616E+01
 0.14191422870E+01 0.14213126381E+01 0.14266641973E+01 0.17192990765E+01 0.17148672238E+01
 0.17180823968E+01 0.17319050940E+01 0.17583756801E+01 0.17984065951E+01 0.18516962909E+01
 0.19166740890E+01 0.19904254396E+01 0.20686467936E+01 0.21457674097E+01 0.22153735571E+01
 0.22709611238E+01 0.23068915703E+01 0.23193252625E+01 0.23068975072E+01 0.22709675305E+01
 0.22153753737E+01 0.21457641102E+01 0.20686413171E+01 0.19904216494E+01 0.19166754800E+01
 0.18517036069E+01 0.17984146391E+01 0.17583747918E+01 0.17318889823E+01 0.17180549413E+01
 0.17148403076E+01 0.17192834865E+01 0.17278770171E+01 0.17370957145E+01 0.17439540713E+01
 0.17464685355E+01 0.17439478754E+01 0.17370891982E+01 0.17278787509E+01 0.20595153871E+01
 0.20223012677E+01 0.19904254055E+01 0.19673022989E+01 0.19551901532E+01 0.19551901353E+01
 0.19673022808E+01 0.19904254396E+01 0.20223013509E+01 0.20595154705E+01 0.20977041921E+01
 0.21320453674E+01 0.21579682634E+01 0.21719076576E+01 0.21719121589E+01 0.21579782395E+01
 0.21320529522E+01 0.20977022114E+01 0.20595009543E+01 0.20222773844E+01 0.19904008305E+01
 0.19672858171E+01 0.19551822142E+01 0.19551817519E+01 0.19672846157E+01 0.19903993863E+01
 0.20222762999E+01 0.20595006445E+01 0.20977027365E+01 0.21320540944E+01 0.21579796728E+01
 0.21719135434E+01 0.21719087058E+01 0.21579688489E+01 0.21320455689E+01 0.20977041839E+01
 0.24581633349E+01 0.23753448527E+01 0.22967462222E+01 0.22265762403E+01 0.21676540549E+01
 0.21215612491E+01 0.20887648051E+01 0.20686467936E+01 0.20595154705E+01 0.20587319923E+01