    2    2   15    1
  0.2001288E+02  0.3839590E-09  0.3839590E-09  0.3839590E-09  0.5000000E-15
  1.000000000000000E-004
  CAR 
 unknown system                          
      8     10      8
 
  0.1250000E+00  0.1250000E+00  0.1250000E+00  0.3125000E-01
    1       -5.929748   1.000000
    2        4.262435   1.000000
    3        5.583385   0.999989
    4        5.583385   0.999989
    5        8.385541   0.000000
    6        8.886311   0.000000
    7        8.886311   0.000000
    8       10.569995   0.000000
 
  0.3750000E+00  0.1250000E+00  0.1250000E+00  0.9375000E-01
    1       -4.881843   1.000000
    2        1.218068   1.000000
    3        3.542789   1.000000
    4        5.088462   1.000000
    5        8.618510   0.000000
    6        9.597650   0.000000
    7        9.789011   0.000000
    8       12.220193   0.000000
 
 -0.3750000E+00  0.1250000E+00  0.1250000E+00  0.9375000E-01
    1       -3.711356   1.000000
    2       -0.914109   1.000000
    3        3.569942   1.000000
    4        4.291816   1.000000
    5        8.091371   0.000000
    6        9.434823   0.000000
    7       10.053910   0.000000
    8       13.323912   0.000000
 
 -0.1250000E+00  0.1250000E+00  0.1250000E+00  0.9375000E-01
    1       -5.391376   1.000000
    2        2.627286   1.000000
    3        4.539669   1.000000
    4        4.619018   1.000000
    5        8.048333   0.000000
    6        9.605141   0.000000
    7       10.396907   0.000000
    8       10.717415   0.000000
 
  0.3750000E+00  0.3750000E+00  0.1250000E+00  0.9375000E-01
    1       -4.338901   1.000000
    2        0.903589   1.000000
    3        3.177696   1.000000
    4        3.638711   1.000000
    5        7.254254   0.000000
    6        8.814526   0.000000
    7       11.940568   0.000000
    8       12.234862   0.000000
 
 -0.3750000E+00  0.3750000E+00  0.1250000E+00  0.1875000E+00
    1       -2.659114   1.000000
    2       -1.095646   1.000000
    3        1.782124   1.000000
    4        2.885622   1.000000
    5        8.303251   0.000000
    6       10.219059   0.000000
    7       11.206579   0.000000
    8       13.388631   0.000000
 
 -0.1250000E+00  0.3750000E+00  0.1250000E+00  0.1875000E+00
    1       -3.912340   1.000000
    2       -0.002419   1.000000
    3        2.525591   1.000000
    4        3.920862   1.000000
    5        8.792846   0.000000
    6        9.475504   0.000000
    7       10.948714   0.000000
    8       11.901438   0.000000
 
 -0.3750000E+00 -0.3750000E+00  0.1250000E+00  0.9375000E-01
    1       -2.836202   1.000000
    2       -0.992780   1.000000
    3        2.406589   1.000000
    4        3.157906   1.000000
    5        6.799210   0.000007
    6        7.873906   0.000000
    7       14.243104   0.000000
    8       14.301633   0.000000
 
  0.3750000E+00  0.3750000E+00  0.3750000E+00  0.3125000E-01
    1       -4.437924   1.000000
    2       -0.109836   1.000000
    3        4.770369   1.000000
    4        4.770370   1.000000
    5        7.542779   0.000000
    6        9.393231   0.000000
    7        9.393231   0.000000
    8       13.759965   0.000000
 
 -0.3750000E+00  0.3750000E+00  0.3750000E+00  0.9375000E-01
    1       -3.206280   1.000000
    2       -0.805555   1.000000
    3        1.849813   1.000000
    4        3.958569   1.000000
    5        7.750502   0.000000
    6       11.402195   0.000000
    7       11.431679   0.000000
    8       12.908753   0.000000
