    2    2   15    1
  0.2001288E+02  0.3839590E-09  0.3839590E-09  0.3839590E-09  0.5000000E-15
  1.000000000000000E-004
  CAR 
 unknown system                          
      8      4      8
 
  0.0000000E+00  0.0000000E+00  0.0000000E+00  0.3703704E-01
    1       -6.176425   1.000000
    2        5.580326   0.995626
    3        5.580326   0.995626
    4        5.580664   0.995595
    5        8.098804   0.000000
    6        8.098804   0.000000
    7        8.099053   0.000000
    8        8.453136   0.000000
 
  0.3333333E+00  0.6723763E-17  0.1473614E-18  0.2962963E+00
    1       -4.845903   1.000000
    2        0.308307   1.000000
    3        4.581334   1.000000
    4        4.581597   1.000000
    5        7.198715   0.000000
    6        9.084466   0.000000
    7        9.084931   0.000000
    8       13.262907   0.000000
 
  0.3333333E+00  0.3333333E+00  0.1682863E-16  0.2222222E+00
    1       -4.332089   1.000000
    2        0.562229   1.000000
    3        3.200652   1.000000
    4        3.200810   1.000000
    5        6.354014   0.002192
    6        7.615418   0.000000
    7       12.726546   0.000000
    8       12.726845   0.000000
 
 -0.3333333E+00  0.3333333E+00  0.1344753E-16  0.4444444E+00
    1       -3.027803   1.000000
    2       -1.140730   1.000000
    3        1.289333   1.000000
    4        3.494302   1.000000
    5        7.173324   0.000000
    6       11.409092   0.000000
    7       11.942210   0.000000
    8       12.505326   0.000000
