 running on    8 total cores
 distrk:  each k-point on    8 cores,    1 groups
 distr:  one band on    1 cores,    8 groups
 using from now: INCAR     
 vasp.5.4.4.18Apr17-6-g9f103f2a35 (build Dec 09 2018 21:25:21) complex          
  
 POSCAR found type information on POSCAR  Si
 POSCAR found :  1 types and       2 ions
 scaLAPACK will be used

 ----------------------------------------------------------------------------- 
|                                                                             |
|           W    W    AA    RRRRR   N    N  II  N    N   GGGG   !!!           |
|           W    W   A  A   R    R  NN   N  II  NN   N  G    G  !!!           |
|           W    W  A    A  R    R  N N  N  II  N N  N  G       !!!           |
|           W WW W  AAAAAA  RRRRR   N  N N  II  N  N N  G  GGG   !            |
|           WW  WW  A    A  R   R   N   NN  II  N   NN  G    G                |
|           W    W  A    A  R    R  N    N  II  N    N   GGGG   !!!           |
|                                                                             |
|      For optimal performance we recommend to set                            |
|        NCORE= 4 - approx SQRT( number of cores)                             |
|      NCORE specifies how many cores store one orbital (NPAR=cpu/NCORE).     |
|      This setting can  greatly improve the performance of VASP for DFT.     |
|      The default,   NCORE=1            might be grossly inefficient         |
|      on modern multi-core architectures or massively parallel machines.     |
|      Do your own testing !!!!                                               |
|      Unfortunately you need to use the default for GW and RPA calculations. |
|      (for HF NCORE is supported but not extensively tested yet)             |
|                                                                             |
 ----------------------------------------------------------------------------- 

 LDA part: xc-table for Pade appr. of Perdew
 POSCAR, INCAR and KPOINTS ok, starting setup
 FFT: planning ...
 WAVECAR not read
 entering main loop
       N       E                     dE             d eps       ncg     rms          rms(c)
DAV:   1    -0.465140533657E+01   -0.46514E+01   -0.17301E+03    72   0.307E+02
DAV:   2    -0.103366463687E+02   -0.56852E+01   -0.55565E+01   104   0.426E+01
DAV:   3    -0.103715694789E+02   -0.34923E-01   -0.34923E-01    88   0.404E+00
DAV:   4    -0.103716008152E+02   -0.31336E-04   -0.31337E-04    96   0.107E-01
DAV:   5    -0.103716008186E+02   -0.34173E-08   -0.31975E-08    80   0.107E-03    0.330E+00
DAV:   6    -0.102060190250E+02    0.16558E+00   -0.99506E-02    80   0.164E+00    0.196E+00
DAV:   7    -0.101308814688E+02    0.75138E-01   -0.19286E-01    72   0.243E+00    0.176E-01
DAV:   8    -0.101336015284E+02   -0.27201E-02   -0.56222E-03    72   0.510E-01    0.293E-02
DAV:   9    -0.101337655704E+02   -0.16404E-03   -0.17865E-04    64   0.996E-02
   1 F= -.10133766E+02 E0= -.10133018E+02  d E =-.101338E+02
 curvature:   0.00 expect dE= 0.000E+00 dE for cont linesearch  0.000E+00
 trial: gam= 0.00000 g(F)=  0.217E-43 g(S)=  0.702E-01 ort = 0.000E+00 (trialstep = 0.100E+01)
 search vector abs. value=  0.702E-01
 bond charge predicted
       N       E                     dE             d eps       ncg     rms          rms(c)
DAV:   1    -0.101691735749E+02   -0.35572E-01   -0.10186E+00    72   0.547E+00    0.635E-01
DAV:   2    -0.101521798195E+02    0.16994E-01   -0.11220E-02    64   0.637E-01    0.363E-01
DAV:   3    -0.101429627210E+02    0.92171E-02   -0.17534E-02    72   0.670E-01    0.426E-02
DAV:   4    -0.101429769814E+02   -0.14260E-04   -0.17268E-04    40   0.974E-02
   2 F= -.10142977E+02 E0= -.10142697E+02  d E =-.921141E-02
 trial-energy change:   -0.009211  1 .order   -0.011387   -0.070208    0.047435
 step:   0.5696(harm=  0.5968)  dis= 0.00000  next Energy=   -10.153359 (dE=-0.196E-01)
 bond charge predicted
       N       E                     dE             d eps       ncg     rms          rms(c)
DAV:   1    -0.101581538866E+02   -0.15191E-01   -0.19592E-01    72   0.245E+00    0.280E-01
DAV:   2    -0.101549423154E+02    0.32116E-02   -0.20813E-03    64   0.274E-01    0.160E-01
DAV:   3    -0.101532378943E+02    0.17044E-02   -0.32596E-03    72   0.290E-01    0.188E-02
DAV:   4    -0.101532476570E+02   -0.97627E-05   -0.31202E-05    40   0.423E-02
   3 F= -.10153248E+02 E0= -.10152829E+02  d E =-.194821E-01
 curvature:  -0.30 expect dE=-0.221E-07 dE for cont linesearch -0.221E-07
 trial: gam= 0.00000 g(F)=  0.229E-42 g(S)=  0.743E-07 ort =-0.722E-04 (trialstep = 0.914E+00)
 search vector abs. value=  0.744E-07
 reached required accuracy - stopping structural energy minimisation
 writing wavefunctions
