<?xml version="1.0" encoding="ISO-8859-1"?>
<modeling>
 <generator>
  <i name="program" type="string">vasp </i>
  <i name="version" type="string">5.4.4.18Apr17-6-g9f103f2a35  </i>
  <i name="subversion" type="string">(build Dec 09 2018 21:25:21) complex            parallel </i>
  <i name="platform" type="string">IFC18.0.1.163_CrayMPICH7.7.0_MKL18.0.1.163 </i>
  <i name="date" type="string">2019 03 20 </i>
  <i name="time" type="string">09:42:37 </i>
 </generator>
 <incar>
  <i type="string" name="PREC">normal</i>
  <i type="int" name="IBRION">     2</i>
  <i name="EDIFF">      0.00040000</i>
  <i name="EDIFFG">     -0.01000000</i>
  <i type="int" name="NSW">    15</i>
  <i type="int" name="ISIF">     3</i>
  <i name="ENCUT">    150.00000000</i>
  <i type="int" name="NBANDS">     8</i>
  <i type="logical" name="LREAL"> F  </i>
  <i type="int" name="ISMEAR">     0</i>
  <i name="SIGMA">      0.20000000</i>
  <v type="int" name="KPOINT_BSE">    -1     0     0     0</v>
 </incar>
 <structure name="primitive_cell" >
  <crystal>
   <varray name="basis" >
    <v>       0.00000000       2.71500000       2.71500000 </v>
    <v>       2.71500000       0.00000000       2.71500000 </v>
    <v>       2.71500000       2.71500000       0.00000000 </v>
   </varray>
   <i name="volume">     40.02575175 </i>
   <varray name="rec_basis" >
    <v>      -0.18416206       0.18416206       0.18416206 </v>
    <v>       0.18416206      -0.18416206       0.18416206 </v>
    <v>       0.18416206       0.18416206      -0.18416206 </v>
   </varray>
  </crystal>
  <varray name="positions" >
   <v>      -0.50000000      -0.50000000      -0.50000000 </v>
   <v>      -0.25000000      -0.25000000      -0.25000000 </v>
  </varray>
 </structure>
 <varray name="primitive_index" >
  <v type="int" >        1 </v>
  <v type="int" >        2 </v>
 </varray>
 <kpoints>
  <generation param="Monkhorst-Pack">
   <v type="int" name="divisions">       3        3        3 </v>
   <v name="usershift">      0.00000000       0.00000000       0.00000000 </v>
   <v name="genvec1">      0.33333333      -0.00000000       0.00000000 </v>
   <v name="genvec2">     -0.00000000       0.33333333      -0.00000000 </v>
   <v name="genvec3">      0.00000000       0.00000000       0.33333333 </v>
   <v name="shift">      0.00000000       0.00000000       0.00000000 </v>
  </generation>
  <varray name="kpointlist" >
   <v>       0.00000000       0.00000000       0.00000000 </v>
   <v>       0.33333333       0.00000000       0.00000000 </v>
   <v>       0.33333333       0.33333333       0.00000000 </v>
   <v>      -0.33333333       0.33333333       0.00000000 </v>
  </varray>
  <varray name="weights" >
   <v>       0.03703704 </v>
   <v>       0.29629630 </v>
   <v>       0.22222222 </v>
   <v>       0.44444444 </v>
  </varray>
 </kpoints>
 <parameters>
  <separator name="general" >
   <i type="string" name="SYSTEM">unknown system</i>
   <i type="logical" name="LCOMPAT"> F  </i>
  </separator>
  <separator name="electronic" >
   <i type="string" name="PREC">normal</i>
   <i name="ENMAX">    150.00000000</i>
   <i name="ENAUG">    322.06900000</i>
   <i name="EDIFF">      0.00040000</i>
   <i type="int" name="IALGO">    38</i>
   <i type="int" name="IWAVPR">    11</i>
   <i type="int" name="NBANDS">     8</i>
   <i name="NELECT">      8.00000000</i>
   <i type="int" name="TURBO">     0</i>
   <i type="int" name="IRESTART">     0</i>
   <i type="int" name="NREBOOT">     0</i>
   <i type="int" name="NMIN">     0</i>
   <i name="EREF">      0.00000000</i>
   <separator name="electronic smearing" >
    <i type="int" name="ISMEAR">     0</i>
    <i name="SIGMA">      0.20000000</i>
    <i name="KSPACING">      0.50000000</i>
    <i type="logical" name="KGAMMA"> T  </i>
   </separator>
   <separator name="electronic projectors" >
    <i type="logical" name="LREAL"> F  </i>
    <v name="ROPT">      0.00000000</v>
    <i type="int" name="LMAXPAW">  -100</i>
    <i type="int" name="LMAXMIX">     2</i>
    <i type="logical" name="NLSPLINE"> F  </i>
   </separator>
   <separator name="electronic startup" >
    <i type="int" name="ISTART">     0</i>
    <i type="int" name="ICHARG">     2</i>
    <i type="int" name="INIWAV">     1</i>
   </separator>
   <separator name="electronic spin" >
    <i type="int" name="ISPIN">     1</i>
    <i type="logical" name="LNONCOLLINEAR"> F  </i>
    <v name="MAGMOM">      1.00000000      1.00000000</v>
    <i name="NUPDOWN">     -1.00000000</i>
    <i type="logical" name="LSORBIT"> F  </i>
    <v name="SAXIS">      0.00000000      0.00000000      1.00000000</v>
    <i type="logical" name="LSPIRAL"> F  </i>
    <v name="QSPIRAL">      0.00000000      0.00000000      0.00000000</v>
    <i type="logical" name="LZEROZ"> F  </i>
   </separator>
   <separator name="electronic exchange-correlation" >
    <i type="logical" name="LASPH"> F  </i>
    <i type="logical" name="LMETAGGA"> F  </i>
   </separator>
   <separator name="electronic convergence" >
    <i type="int" name="NELM">    60</i>
    <i type="int" name="NELMDL">    -5</i>
    <i type="int" name="NELMIN">     2</i>
    <i name="ENINI">    150.00000000</i>
    <separator name="electronic convergence detail" >
     <i type="logical" name="LDIAG"> T  </i>
     <i type="logical" name="LSUBROT"> F  </i>
     <i name="WEIMIN">      0.00100000</i>
     <i name="EBREAK">      0.00001250</i>
     <i name="DEPER">      0.30000000</i>
     <i type="int" name="NRMM">     4</i>
     <i name="TIME">      0.40000000</i>
    </separator>
   </separator>
   <separator name="electronic mixer" >
    <i name="AMIX">      0.40000000</i>
    <i name="BMIX">      1.00000000</i>
    <i name="AMIN">      0.10000000</i>
    <i name="AMIX_MAG">      1.60000000</i>
    <i name="BMIX_MAG">      1.00000000</i>
    <separator name="electronic mixer details" >
     <i type="int" name="IMIX">     4</i>
     <i type="logical" name="MIXFIRST"> F  </i>
     <i type="int" name="MAXMIX">   -45</i>
     <i name="WC">    100.00000000</i>
     <i type="int" name="INIMIX">     1</i>
     <i type="int" name="MIXPRE">     1</i>
     <i type="int" name="MREMOVE">     5</i>
    </separator>
   </separator>
   <separator name="electronic dipolcorrection" >
    <i type="logical" name="LDIPOL"> F  </i>
    <i type="logical" name="LMONO"> F  </i>
    <i type="int" name="IDIPOL">     0</i>
    <i name="EPSILON">      1.00000000</i>
    <v name="DIPOL">   -100.00000000   -100.00000000   -100.00000000</v>
    <i name="EFIELD">      0.00000000</i>
   </separator>
  </separator>
  <separator name="grids" >
   <i type="int" name="NGX">    12</i>
   <i type="int" name="NGY">    12</i>
   <i type="int" name="NGZ">    12</i>
   <i type="int" name="NGXF">    24</i>
   <i type="int" name="NGYF">    24</i>
   <i type="int" name="NGZF">    24</i>
   <i type="logical" name="ADDGRID"> F  </i>
  </separator>
  <separator name="ionic" >
   <i type="int" name="NSW">    15</i>
   <i type="int" name="IBRION">     2</i>
   <i type="int" name="MDALGO">     0</i>
   <i type="int" name="ISIF">     3</i>
   <i name="PSTRESS">      0.00000000</i>
   <i name="EDIFFG">     -0.01000000</i>
   <i type="int" name="NFREE">     1</i>
   <i name="POTIM">      0.50000000</i>
   <i name="SMASS">     -3.00000000</i>
   <i name="SCALEE">      1.00000000</i>
  </separator>
  <separator name="ionic md" >
   <i name="TEBEG">      0.00010000</i>
   <i name="TEEND">      0.00010000</i>
   <i type="int" name="NBLOCK">     1</i>
   <i type="int" name="KBLOCK">    15</i>
   <i type="int" name="NPACO">   256</i>
   <i name="APACO">     16.00000000</i>
  </separator>
  <separator name="symmetry" >
   <i type="int" name="ISYM">     2</i>
   <i name="SYMPREC">      0.00001000</i>
  </separator>
  <separator name="dos" >
   <i type="int" name="LORBIT">     0</i>
   <v name="RWIGS">     -1.00000000</v>
   <i type="int" name="NEDOS">   301</i>
   <i name="EMIN">     10.00000000</i>
   <i name="EMAX">    -10.00000000</i>
   <i name="EFERMI">      0.00000000</i>
  </separator>
  <separator name="writing" >
   <i type="int" name="NWRITE">     2</i>
   <i type="logical" name="LWAVE"> T  </i>
   <i type="logical" name="LDOWNSAMPLE"> F  </i>
   <i type="logical" name="LCHARG"> T  </i>
   <i type="logical" name="LPARD"> F  </i>
   <i type="logical" name="LVTOT"> F  </i>
   <i type="logical" name="LVHAR"> F  </i>
   <i type="logical" name="LELF"> F  </i>
   <i type="logical" name="LOPTICS"> F  </i>
   <v name="STM">      0.00000000      0.00000000      0.00000000      0.00000000      0.00000000      0.00000000      0.00000000</v>
  </separator>
  <separator name="performance" >
   <i type="int" name="NPAR">     8</i>
   <i type="int" name="NSIM">     4</i>
   <i type="int" name="NBLK">    -1</i>
   <i type="logical" name="LPLANE"> T  </i>
   <i type="logical" name="LSCALAPACK"> T  </i>
   <i type="logical" name="LSCAAWARE"> F  </i>
   <i type="logical" name="LSCALU"> F  </i>
   <i type="logical" name="LASYNC"> F  </i>
   <i type="logical" name="LORBITALREAL"> F  </i>
  </separator>
  <separator name="miscellaneous" >
   <i type="int" name="IDIOT">     3</i>
   <i type="int" name="ISPECIAL">     0</i>
   <i type="logical" name="LMUSIC"> F  </i>
   <v name="POMASS">     28.08500000</v>
   <v name="DARWINR">      0.00000000</v>
   <v name="DARWINV">      1.00000000</v>
   <i type="logical" name="LCORR"> T  </i>
  </separator>
  <i type="logical" name="GGA_COMPAT"> T  </i>
  <i type="logical" name="LBERRY"> F  </i>
  <i type="int" name="ICORELEVEL">     0</i>
  <i type="logical" name="LDAU"> F  </i>
  <i type="int" name="I_CONSTRAINED_M">     0</i>
  <separator name="electronic exchange-correlation" >
   <i type="string" name="GGA">--</i>
   <i type="int" name="VOSKOWN">     0</i>
   <i type="logical" name="LHFCALC"> F  </i>
   <i type="string" name="PRECFOCK"></i>
   <i type="logical" name="LSYMGRAD"> F  </i>
   <i type="logical" name="LHFONE"> F  </i>
   <i type="logical" name="LRHFCALC"> F  </i>
   <i type="logical" name="LTHOMAS"> F  </i>
   <i type="logical" name="LMODELHF"> F  </i>
   <i name="ENCUT4O">     -1.00000000</i>
   <i type="int" name="EXXOEP">     0</i>
   <i type="int" name="FOURORBIT">     0</i>
   <i name="AEXX">      0.00000000</i>
   <i name="HFALPHA">      0.00000000</i>
   <i name="MCALPHA">      0.00000000</i>
   <i name="ALDAX">      1.00000000</i>
   <i name="AGGAX">      1.00000000</i>
   <i name="ALDAC">      1.00000000</i>
   <i name="AGGAC">      1.00000000</i>
   <i type="int" name="NKREDX">     1</i>
   <i type="int" name="NKREDY">     1</i>
   <i type="int" name="NKREDZ">     1</i>
   <i type="logical" name="SHIFTRED"> F  </i>
   <i type="logical" name="ODDONLY"> F  </i>
   <i type="logical" name="EVENONLY"> F  </i>
   <i type="int" name="LMAXFOCK">     0</i>
   <i type="int" name="NMAXFOCKAE">     0</i>
   <i type="logical" name="LFOCKAEDFT"> F  </i>
   <i name="HFSCREEN">      0.00000000</i>
   <i name="HFSCREENC">      0.00000000</i>
   <i type="int" name="NBANDSGWLOW">     0</i>
  </separator>
  <separator name="vdW DFT" >
   <i type="logical" name="LUSE_VDW"> F  </i>
   <i name="Zab_VDW">     -0.84910000</i>
   <i name="PARAM1">      0.12340000</i>
   <i name="PARAM2">      1.00000000</i>
   <i name="PARAM3">      0.00000000</i>
  </separator>
  <separator name="model GW" >
   <i type="int" name="MODEL_GW">     0</i>
   <i name="MODEL_EPS0">     12.00772552</i>
   <i name="MODEL_ALPHA">      1.00000000</i>
  </separator>
  <separator name="linear response parameters" >
   <i type="logical" name="LEPSILON"> F  </i>
   <i type="logical" name="LRPA"> F  </i>
   <i type="logical" name="LNABLA"> F  </i>
   <i type="logical" name="LVEL"> F  </i>
   <i type="int" name="KINTER">     0</i>
   <i name="CSHIFT">      0.10000000</i>
   <i name="OMEGAMAX">     -1.00000000</i>
   <i name="DEG_THRESHOLD">      0.00200000</i>
   <i name="RTIME">     -0.10000000</i>
   <i name="WPLASMAI">      0.00000000</i>
   <v name="DFIELD">      0.00000000      0.00000000      0.00000000</v>
   <v name="WPLASMA">      0.00000000      0.00000000      0.00000000      0.00000000      0.00000000      0.00000000      0.00000000      0.00000000      0.00000000</v>
  </separator>
  <separator name="orbital magnetization" >
   <i type="logical" name="NUCIND"> F  </i>
   <v name="MAGPOS">      0.00000000      0.00000000      0.00000000</v>
   <i type="logical" name="LNICSALL"> T  </i>
   <i type="logical" name="ORBITALMAG"> F  </i>
   <i type="logical" name="LMAGBLOCH"> F  </i>
   <i type="logical" name="LCHIMAG"> F  </i>
   <i type="logical" name="LGAUGE"> T  </i>
   <i type="int" name="MAGATOM">     0</i>
   <v name="MAGDIPOL">      0.00000000      0.00000000      0.00000000</v>
   <v name="AVECCONST">      0.00000000      0.00000000      0.00000000</v>
  </separator>
  <separator name="response functions" >
   <i type="logical" name="LADDER"> F  </i>
   <i type="logical" name="LRPAFORCE"> F  </i>
   <i type="logical" name="LFXC"> F  </i>
   <i type="logical" name="LHARTREE"> T  </i>
   <i type="int" name="IBSE">     0</i>
   <v type="int" name="KPOINT">    -1     0     0     0</v>
   <i type="logical" name="LTCTE"> F  </i>
   <i type="logical" name="LTETE"> F  </i>
   <i type="logical" name="LTRIPLET"> F  </i>
   <i type="logical" name="LFXCEPS"> F  </i>
   <i type="logical" name="LFXHEG"> F  </i>
   <i type="int" name="NATURALO">     2</i>
   <i type="logical" name="L2ORDER"> F  </i>
   <i type="logical" name="LMP2LT"> F  </i>
   <i type="logical" name="LUSEW"> F  </i>
   <i name="ENCUTGW">     -2.00000000</i>
   <i name="ENCUTGWSOFT">     -2.00000000</i>
   <i name="ENCUTLF">     -1.00000000</i>
   <i type="int" name="LMAXMP2">    -1</i>
   <i name="SCISSOR">      0.00000000</i>
   <i type="int" name="NOMEGA">     0</i>
   <i type="int" name="NOMEGAR">     0</i>
   <i type="int" name="NBANDSGW">    -1</i>
   <i type="int" name="NBANDSO">    -1</i>
   <i type="int" name="NBANDSV">    -1</i>
   <i type="int" name="NELM">     1</i>
   <i type="int" name="NELMHF">     1</i>
   <i type="int" name="DIM">     3</i>
   <i type="int" name="ANTIRES">     0</i>
   <i name="OMEGAMAX">    -30.00000000</i>
   <i name="OMEGAMIN">    -30.00000000</i>
   <i name="OMEGATL">   -200.00000000</i>
   <i type="int" name="OMEGAGRID">   140</i>
   <i name="CSHIFT">     -0.10000000</i>
   <i type="logical" name="SELFENERGY"> F  </i>
   <i type="logical" name="LSPECTRAL"> F  </i>
   <i type="logical" name="LSPECTRALGW"> F  </i>
   <i type="logical" name="LSINGLES"> F  </i>
   <i type="logical" name="LFERMIGW"> F  </i>
   <i type="logical" name="ODDONLYGW"> F  </i>
   <i type="logical" name="EVENONLYGW"> F  </i>
   <i type="int" name="NKREDLFX">     1</i>
   <i type="int" name="NKREDLFY">     1</i>
   <i type="int" name="NKREDLFZ">     1</i>
   <i type="int" name="MAXMEM">  2800</i>
   <i type="int" name="TELESCOPE">     0</i>
   <i type="int" name="TAUPAR">     1</i>
   <i type="int" name="OMEGAPAR">    -1</i>
   <i name="LAMBDA">      1.00000000</i>
  </separator>
  <separator name="External order field" >
   <i name="OFIELD_KAPPA">      0.00000000</i>
   <v name="OFIELD_K">      0.00000000      0.00000000      0.00000000</v>
   <i name="OFIELD_Q6_NEAR">      0.00000000</i>
   <i name="OFIELD_Q6_FAR">      0.00000000</i>
   <i name="OFIELD_A">      0.00000000</i>
  </separator>
 </parameters>
 <atominfo>
  <atoms>       2 </atoms>
  <types>       1 </types>
  <array name="atoms" >
   <dimension dim="1">ion</dimension>
   <field type="string">element</field>
   <field type="int">atomtype</field>
   <set>
    <rc><c>Si</c><c>   1</c></rc>
    <rc><c>Si</c><c>   1</c></rc>
   </set>
  </array>
  <array name="atomtypes" >
   <dimension dim="1">type</dimension>
   <field type="int">atomspertype</field>
   <field type="string">element</field>
   <field>mass</field>
   <field>valence</field>
   <field type="string">pseudopotential</field>
   <set>
    <rc><c>   2</c><c>Si</c><c>     28.08500000</c><c>      4.00000000</c><c> PAW_PBE Si 05Jan2001                   </c></rc>
   </set>
  </array>
 </atominfo>
 <structure name="initialpos" >
  <crystal>
   <varray name="basis" >
    <v>       0.00000000       2.71500000       2.71500000 </v>
    <v>       2.71500000       0.00000000       2.71500000 </v>
    <v>       2.71500000       2.71500000       0.00000000 </v>
   </varray>
   <i name="volume">     40.02575175 </i>
   <varray name="rec_basis" >
    <v>      -0.18416206       0.18416206       0.18416206 </v>
    <v>       0.18416206      -0.18416206       0.18416206 </v>
    <v>       0.18416206       0.18416206      -0.18416206 </v>
   </varray>
  </crystal>
  <varray name="positions" >
   <v>       0.50000000       0.50000000       0.50000000 </v>
   <v>       0.75000000       0.75000000       0.75000000 </v>
  </varray>
 </structure>
 <calculation>
  <scstep>
   <time name="dav">    0.04    0.04</time>
   <time name="total">    0.06    0.09</time>
   <energy>
    <i name="alphaZ">      3.36414203 </i>
    <i name="ewald">   -228.56352493 </i>
    <i name="hartreedc">    -11.00108243 </i>
    <i name="XCdc">    -18.60155909 </i>
    <i name="pawpsdc">     65.95520812 </i>
    <i name="pawaedc">    -30.76852678 </i>
    <i name="eentropy">     -0.02311889 </i>
    <i name="bandstr">      8.89522021 </i>
    <i name="atom">    206.09183643 </i>
    <i name="e_fr_energy">     -4.65140534 </i>
    <i name="e_wo_entrp">     -4.62828645 </i>
    <i name="e_0_energy">     -4.63984589 </i>
   </energy>
  </scstep>
  <scstep>
   <time name="dav">    0.06    0.06</time>
   <time name="total">    0.06    0.07</time>
   <energy>
    <i name="e_fr_energy">    -10.33664637 </i>
    <i name="e_wo_entrp">    -10.33659847 </i>
    <i name="e_0_energy">    -10.33662242 </i>
   </energy>
  </scstep>
  <scstep>
   <time name="dav">    0.04    0.05</time>
   <time name="total">    0.04    0.05</time>
   <energy>
    <i name="e_fr_energy">    -10.37156948 </i>
    <i name="e_wo_entrp">    -10.37152872 </i>
    <i name="e_0_energy">    -10.37154910 </i>
   </energy>
  </scstep>
  <scstep>
   <time name="dav">    0.04    0.05</time>
   <time name="total">    0.04    0.05</time>
   <energy>
    <i name="e_fr_energy">    -10.37160082 </i>
    <i name="e_wo_entrp">    -10.37156007 </i>
    <i name="e_0_energy">    -10.37158044 </i>
   </energy>
  </scstep>
  <scstep>
   <time name="dav">    0.04    0.04</time>
   <time name="total">    0.05    0.05</time>
   <energy>
    <i name="e_fr_energy">    -10.37160082 </i>
    <i name="e_wo_entrp">    -10.37156008 </i>
    <i name="e_0_energy">    -10.37158045 </i>
   </energy>
  </scstep>
  <scstep>
   <time name="dav">    0.04    0.03</time>
   <time name="total">    0.06    0.07</time>
   <energy>
    <i name="e_fr_energy">    -10.20601902 </i>
    <i name="e_wo_entrp">    -10.20574721 </i>
    <i name="e_0_energy">    -10.20588312 </i>
   </energy>
  </scstep>
  <scstep>
   <time name="dav">    0.03    0.03</time>
   <time name="total">    0.06    0.06</time>
   <energy>
    <i name="e_fr_energy">    -10.13088147 </i>
    <i name="e_wo_entrp">    -10.12891981 </i>
    <i name="e_0_energy">    -10.12990064 </i>
   </energy>
  </scstep>
  <scstep>
   <time name="dav">    0.03    0.03</time>
   <time name="total">    0.06    0.06</time>
   <energy>
    <i name="e_fr_energy">    -10.13360153 </i>
    <i name="e_wo_entrp">    -10.13210472 </i>
    <i name="e_0_energy">    -10.13285312 </i>
   </energy>
  </scstep>
  <scstep>
   <time name="dav">    0.03    0.03</time>
   <time name="total">    0.05    0.06</time>
   <energy>
    <i name="alphaZ">      3.36414203 </i>
    <i name="ewald">   -228.56352493 </i>
    <i name="hartreedc">    -15.66798842 </i>
    <i name="XCdc">    -17.82722120 </i>
    <i name="pawpsdc">     77.23300143 </i>
    <i name="pawaedc">    -42.30665798 </i>
    <i name="eentropy">     -0.00149425 </i>
    <i name="bandstr">      7.54414132 </i>
    <i name="atom">    206.09183643 </i>
    <i name="e_fr_energy">    -10.13376557 </i>
    <i name="e_wo_entrp">    -10.13227132 </i>
    <i name="e_0_energy">    -10.13301844 </i>
   </energy>
  </scstep>
  <structure>
   <crystal>
    <varray name="basis" >
     <v>       0.00000000       2.71500000       2.71500000 </v>
     <v>       2.71500000       0.00000000       2.71500000 </v>
     <v>       2.71500000       2.71500000       0.00000000 </v>
    </varray>
    <i name="volume">     40.02575175 </i>
    <varray name="rec_basis" >
     <v>      -0.18416206       0.18416206       0.18416206 </v>
     <v>       0.18416206      -0.18416206       0.18416206 </v>
     <v>       0.18416206       0.18416206      -0.18416206 </v>
    </varray>
   </crystal>
   <varray name="positions" >
    <v>       0.50000000       0.50000000       0.50000000 </v>
    <v>       0.75000000       0.75000000       0.75000000 </v>
   </varray>
  </structure>
  <varray name="forces" >
   <v>       0.00000000       0.00000000       0.00000000 </v>
   <v>      -0.00000000      -0.00000000      -0.00000000 </v>
  </varray>
  <varray name="stress" >
   <v>      39.42797361       0.00000000      -0.00000000 </v>
   <v>      -0.00000000      39.42797361      -0.00000000 </v>
   <v>       0.00000000      -0.00000000      39.42797361 </v>
  </varray>
  <energy>
   <i name="e_fr_energy">    -10.13376557 </i>
   <i name="e_wo_entrp">    -10.13301844 </i>
   <i name="e_0_energy">     -0.00149425 </i>
  </energy>
  <time name="totalsc">    0.82    1.34</time>
 </calculation>
 <calculation>
  <scstep>
   <time name="dav">    0.03    0.03</time>
   <time name="total">    0.06    0.06</time>
   <energy>
    <i name="alphaZ">      3.13531137 </i>
    <i name="ewald">   -223.25903520 </i>
    <i name="hartreedc">    -15.31399916 </i>
    <i name="XCdc">    -18.17522556 </i>
    <i name="pawpsdc">     77.22425509 </i>
    <i name="pawaedc">    -42.29885957 </i>
    <i name="eentropy">     -0.00019544 </i>
    <i name="bandstr">      2.42673846 </i>
    <i name="atom">    206.09183643 </i>
    <i name="e_fr_energy">    -10.16917357 </i>
    <i name="e_wo_entrp">    -10.16897814 </i>
    <i name="e_0_energy">    -10.16907586 </i>
   </energy>
  </scstep>
  <scstep>
   <time name="dav">    0.02    0.03</time>
   <time name="total">    0.06    0.06</time>
   <energy>
    <i name="e_fr_energy">    -10.15217982 </i>
    <i name="e_wo_entrp">    -10.15186006 </i>
    <i name="e_0_energy">    -10.15201994 </i>
   </energy>
  </scstep>
  <scstep>
   <time name="dav">    0.03    0.03</time>
   <time name="total">    0.06    0.06</time>
   <energy>
    <i name="e_fr_energy">    -10.14296272 </i>
    <i name="e_wo_entrp">    -10.14237549 </i>
    <i name="e_0_energy">    -10.14266910 </i>
   </energy>
  </scstep>
  <scstep>
   <time name="dav">    0.02    0.02</time>
   <time name="total">    0.04    0.05</time>
   <energy>
    <i name="alphaZ">      3.13531137 </i>
    <i name="ewald">   -223.25903520 </i>
    <i name="hartreedc">    -16.50315493 </i>
    <i name="XCdc">    -18.14678641 </i>
    <i name="pawpsdc">     74.88555000 </i>
    <i name="pawaedc">    -39.89634770 </i>
    <i name="eentropy">     -0.00055946 </i>
    <i name="bandstr">      3.55020891 </i>
    <i name="atom">    206.09183643 </i>
    <i name="e_fr_energy">    -10.14297698 </i>
    <i name="e_wo_entrp">    -10.14241752 </i>
    <i name="e_0_energy">    -10.14269725 </i>
   </energy>
  </scstep>
  <structure>
   <crystal>
    <varray name="basis" >
     <v>      -0.00000000       2.77950664       2.77950664 </v>
     <v>       2.77950664      -0.00000000       2.77950664 </v>
     <v>       2.77950664       2.77950664      -0.00000000 </v>
    </varray>
    <i name="volume">     42.94703064 </i>
    <varray name="rec_basis" >
     <v>      -0.17988804       0.17988804       0.17988804 </v>
     <v>       0.17988804      -0.17988804       0.17988804 </v>
     <v>       0.17988804       0.17988804      -0.17988804 </v>
    </varray>
   </crystal>
   <varray name="positions" >
    <v>       0.50000000       0.50000000       0.50000000 </v>
    <v>       0.75000000       0.75000000       0.75000000 </v>
   </varray>
  </structure>
  <varray name="forces" >
   <v>      -0.00000000      -0.00000000      -0.00000000 </v>
   <v>       0.00000000       0.00000000       0.00000000 </v>
  </varray>
  <varray name="stress" >
   <v>     -24.82673629      -0.00000000       0.00000000 </v>
   <v>       0.00000000     -24.82673629       0.00000000 </v>
   <v>       0.00000000      -0.00000000     -24.82673629 </v>
  </varray>
  <energy>
   <i name="e_fr_energy">    -10.14297698 </i>
   <i name="e_wo_entrp">    -10.14269725 </i>
   <i name="e_0_energy">     -0.00055946 </i>
  </energy>
  <time name="totalsc">    0.31    0.41</time>
 </calculation>
 <calculation>
  <scstep>
   <time name="dav">    0.03    0.03</time>
   <time name="total">    0.06    0.06</time>
   <energy>
    <i name="alphaZ">      3.23117507 </i>
    <i name="ewald">   -225.51164901 </i>
    <i name="hartreedc">    -16.68042953 </i>
    <i name="XCdc">    -18.00180240 </i>
    <i name="pawpsdc">     74.80691909 </i>
    <i name="pawaedc">    -39.81477021 </i>
    <i name="eentropy">     -0.00124842 </i>
    <i name="bandstr">      5.72181509 </i>
    <i name="atom">    206.09183643 </i>
    <i name="e_fr_energy">    -10.15815389 </i>
    <i name="e_wo_entrp">    -10.15690546 </i>
    <i name="e_0_energy">    -10.15752968 </i>
   </energy>
  </scstep>
  <scstep>
   <time name="dav">    0.02    0.03</time>
   <time name="total">    0.05    0.06</time>
   <energy>
    <i name="e_fr_energy">    -10.15494232 </i>
    <i name="e_wo_entrp">    -10.15389739 </i>
    <i name="e_0_energy">    -10.15441985 </i>
   </energy>
  </scstep>
  <scstep>
   <time name="dav">    0.03    0.03</time>
   <time name="total">    0.06    0.07</time>
   <energy>
    <i name="e_fr_energy">    -10.15323789 </i>
    <i name="e_wo_entrp">    -10.15241635 </i>
    <i name="e_0_energy">    -10.15282712 </i>
   </energy>
  </scstep>
  <scstep>
   <time name="dav">    0.02    0.02</time>
   <time name="total">    0.04    0.05</time>
   <energy>
    <i name="alphaZ">      3.23117507 </i>
    <i name="ewald">   -225.51164901 </i>
    <i name="hartreedc">    -16.15769693 </i>
    <i name="XCdc">    -18.01170339 </i>
    <i name="pawpsdc">     75.79985727 </i>
    <i name="pawaedc">    -40.83486569 </i>
    <i name="eentropy">     -0.00083730 </i>
    <i name="bandstr">      5.24063590 </i>
    <i name="atom">    206.09183643 </i>
    <i name="e_fr_energy">    -10.15324766 </i>
    <i name="e_wo_entrp">    -10.15241036 </i>
    <i name="e_0_energy">    -10.15282901 </i>
   </energy>
  </scstep>
  <structure>
   <crystal>
    <varray name="basis" >
     <v>      -0.00000000       2.75174242       2.75174242 </v>
     <v>       2.75174242      -0.00000000       2.75174242 </v>
     <v>       2.75174242       2.75174242      -0.00000000 </v>
    </varray>
    <i name="volume">     41.67286229 </i>
    <varray name="rec_basis" >
     <v>      -0.18170305       0.18170305       0.18170305 </v>
     <v>       0.18170305      -0.18170305       0.18170305 </v>
     <v>       0.18170305       0.18170305      -0.18170305 </v>
    </varray>
   </crystal>
   <varray name="positions" >
    <v>       0.50000000       0.50000000       0.50000000 </v>
    <v>       0.75000000       0.75000000       0.75000000 </v>
   </varray>
  </structure>
  <varray name="forces" >
   <v>      -0.00000000      -0.00000000      -0.00000000 </v>
   <v>       0.00000000       0.00000000       0.00000000 </v>
  </varray>
  <varray name="stress" >
   <v>      -0.03896022      -0.00000000       0.00000000 </v>
   <v>      -0.00000000      -0.03896022      -0.00000000 </v>
   <v>       0.00000000       0.00000000      -0.03896022 </v>
  </varray>
  <energy>
   <i name="e_fr_energy">    -10.15324766 </i>
   <i name="e_wo_entrp">    -10.15282901 </i>
   <i name="e_0_energy">     -0.00083730 </i>
  </energy>
  <time name="totalsc">    0.32    0.46</time>
  <eigenvalues>
   <array>
    <dimension dim="1">band</dimension>
    <dimension dim="2">kpoint</dimension>
    <dimension dim="3">spin</dimension>
    <field>eigene</field>
    <field>occ</field>
    <set>
     <set comment="spin 1">
      <set comment="kpoint 1">
       <r>   -6.1764    1.0000 </r>
       <r>    5.5803    0.9956 </r>
       <r>    5.5803    0.9956 </r>
       <r>    5.5807    0.9956 </r>
       <r>    8.0988    0.0000 </r>
       <r>    8.0988    0.0000 </r>
       <r>    8.0991    0.0000 </r>
       <r>    8.4531    0.0000 </r>
      </set>
      <set comment="kpoint 2">
       <r>   -4.8459    1.0000 </r>
       <r>    0.3083    1.0000 </r>
       <r>    4.5813    1.0000 </r>
       <r>    4.5816    1.0000 </r>
       <r>    7.1987    0.0000 </r>
       <r>    9.0845    0.0000 </r>
       <r>    9.0849    0.0000 </r>
       <r>   13.2629    0.0000 </r>
      </set>
      <set comment="kpoint 3">
       <r>   -4.3321    1.0000 </r>
       <r>    0.5622    1.0000 </r>
       <r>    3.2007    1.0000 </r>
       <r>    3.2008    1.0000 </r>
       <r>    6.3540    0.0022 </r>
       <r>    7.6154    0.0000 </r>
       <r>   12.7265    0.0000 </r>
       <r>   12.7268    0.0000 </r>
      </set>
      <set comment="kpoint 4">
       <r>   -3.0278    1.0000 </r>
       <r>   -1.1407    1.0000 </r>
       <r>    1.2893    1.0000 </r>
       <r>    3.4943    1.0000 </r>
       <r>    7.1733    0.0000 </r>
       <r>   11.4091    0.0000 </r>
       <r>   11.9422    0.0000 </r>
       <r>   12.5053    0.0000 </r>
      </set>
     </set>
    </set>
   </array>
  </eigenvalues>
  <separator name="orbital magnetization" >
   <v name="MAGDIPOLOUT">      0.00000000      0.00000000      0.00000000</v>
  </separator>
  <dos>
   <i name="efermi">      5.95109384 </i>
   <total>
    <array>
     <dimension dim="1">gridpoints</dimension>
     <dimension dim="2">spin</dimension>
     <field>energy</field>
     <field>total</field>
     <field>integrated</field>
     <set>
      <set comment="spin 1">
       <r>    -8.1764     0.0000     0.0000 </r>
       <r>    -8.0983     0.0000     0.0000 </r>
       <r>    -8.0202     0.0000     0.0000 </r>
       <r>    -7.9420     0.0000     0.0000 </r>
       <r>    -7.8639     0.0000     0.0000 </r>
       <r>    -7.7858     0.0000     0.0000 </r>
       <r>    -7.7076     0.0000     0.0000 </r>
       <r>    -7.6295     0.0000     0.0000 </r>
       <r>    -7.5514     0.0000     0.0000 </r>
       <r>    -7.4732     0.0000     0.0000 </r>
       <r>    -7.3951     0.0000     0.0000 </r>
       <r>    -7.3170     0.0000     0.0000 </r>
       <r>    -7.2389     0.0000     0.0000 </r>
       <r>    -7.1607     0.0000     0.0000 </r>
       <r>    -7.0826     0.0000     0.0000 </r>
       <r>    -7.0045     0.0000     0.0000 </r>
       <r>    -6.9263     0.0000     0.0000 </r>
       <r>    -6.8482     0.0000     0.0000 </r>
       <r>    -6.7701     0.0000     0.0000 </r>
       <r>    -6.6919     0.0001     0.0000 </r>
       <r>    -6.6138     0.0008     0.0001 </r>
       <r>    -6.5357     0.0043     0.0004 </r>
       <r>    -6.4575     0.0170     0.0017 </r>
       <r>    -6.3794     0.0495     0.0056 </r>
       <r>    -6.3013     0.1072     0.0140 </r>
       <r>    -6.2231     0.1725     0.0274 </r>
       <r>    -6.1450     0.2060     0.0435 </r>
       <r>    -6.0669     0.1828     0.0578 </r>
       <r>    -5.9888     0.1205     0.0672 </r>
       <r>    -5.9106     0.0589     0.0718 </r>
       <r>    -5.8325     0.0214     0.0735 </r>
       <r>    -5.7544     0.0058     0.0740 </r>
       <r>    -5.6762     0.0012     0.0741 </r>
       <r>    -5.5981     0.0002     0.0741 </r>
       <r>    -5.5200     0.0000     0.0741 </r>
       <r>    -5.4418     0.0001     0.0741 </r>
       <r>    -5.3637     0.0009     0.0741 </r>
       <r>    -5.2856     0.0062     0.0746 </r>
       <r>    -5.2074     0.0330     0.0772 </r>
       <r>    -5.1293     0.1308     0.0874 </r>
       <r>    -5.0512     0.3852     0.1175 </r>
       <r>    -4.9730     0.8419     0.1833 </r>
       <r>    -4.8949     1.3665     0.2901 </r>
       <r>    -4.8168     1.6482     0.4188 </r>
       <r>    -4.7387     1.4836     0.5348 </r>
       <r>    -4.6605     1.0256     0.6149 </r>
       <r>    -4.5824     0.6443     0.6652 </r>
       <r>    -4.5043     0.5944     0.7117 </r>
       <r>    -4.4261     0.8521     0.7782 </r>
       <r>    -4.3480     1.1598     0.8689 </r>
       <r>    -4.2699     1.2234     0.9644 </r>
       <r>    -4.1917     0.9643     1.0398 </r>
       <r>    -4.1136     0.5649     1.0839 </r>
       <r>    -4.0355     0.2458     1.1031 </r>
       <r>    -3.9573     0.0794     1.1093 </r>
       <r>    -3.8792     0.0190     1.1108 </r>
       <r>    -3.8011     0.0034     1.1111 </r>
       <r>    -3.7230     0.0005     1.1111 </r>
       <r>    -3.6448     0.0001     1.1111 </r>
       <r>    -3.5667     0.0007     1.1112 </r>
       <r>    -3.4886     0.0056     1.1116 </r>
       <r>    -3.4104     0.0324     1.1141 </r>
       <r>    -3.3323     0.1393     1.1250 </r>
       <r>    -3.2542     0.4446     1.1598 </r>
       <r>    -3.1760     1.0530     1.2420 </r>
       <r>    -3.0979     1.8519     1.3867 </r>
       <r>    -3.0198     2.4185     1.5757 </r>
       <r>    -2.9416     2.3457     1.7590 </r>
       <r>    -2.8635     1.6895     1.8910 </r>
       <r>    -2.7854     0.9036     1.9616 </r>
       <r>    -2.7072     0.3588     1.9896 </r>
       <r>    -2.6291     0.1058     1.9979 </r>
       <r>    -2.5510     0.0231     1.9997 </r>
       <r>    -2.4729     0.0038     2.0000 </r>
       <r>    -2.3947     0.0005     2.0000 </r>
       <r>    -2.3166     0.0000     2.0000 </r>
       <r>    -2.2385     0.0000     2.0000 </r>
       <r>    -2.1603     0.0000     2.0000 </r>
       <r>    -2.0822     0.0000     2.0000 </r>
       <r>    -2.0041     0.0000     2.0000 </r>
       <r>    -1.9259     0.0000     2.0000 </r>
       <r>    -1.8478     0.0000     2.0000 </r>
       <r>    -1.7697     0.0000     2.0000 </r>
       <r>    -1.6915     0.0005     2.0000 </r>
       <r>    -1.6134     0.0042     2.0004 </r>
       <r>    -1.5353     0.0253     2.0023 </r>
       <r>    -1.4571     0.1137     2.0112 </r>
       <r>    -1.3790     0.3796     2.0409 </r>
       <r>    -1.3009     0.9411     2.1144 </r>
       <r>    -1.2228     1.7320     2.2497 </r>
       <r>    -1.1446     2.3671     2.4347 </r>
       <r>    -1.0665     2.4025     2.6224 </r>
       <r>    -0.9884     1.8108     2.7639 </r>
       <r>    -0.9102     1.0135     2.8431 </r>
       <r>    -0.8321     0.4212     2.8760 </r>
       <r>    -0.7540     0.1299     2.8861 </r>
       <r>    -0.6758     0.0298     2.8884 </r>
       <r>    -0.5977     0.0051     2.8888 </r>
       <r>    -0.5196     0.0006     2.8889 </r>
       <r>    -0.4414     0.0001     2.8889 </r>
       <r>    -0.3633     0.0000     2.8889 </r>
       <r>    -0.2852     0.0001     2.8889 </r>
       <r>    -0.2071     0.0009     2.8890 </r>
       <r>    -0.1289     0.0065     2.8895 </r>
       <r>    -0.0508     0.0346     2.8922 </r>
       <r>     0.0273     0.1363     2.9028 </r>
       <r>     0.1055     0.3996     2.9341 </r>
       <r>     0.1836     0.8761     3.0025 </r>
       <r>     0.2617     1.4549     3.1162 </r>
       <r>     0.3399     1.8824     3.2633 </r>
       <r>     0.4180     2.0076     3.4201 </r>
       <r>     0.4961     1.9081     3.5692 </r>
       <r>     0.5743     1.6868     3.7010 </r>
       <r>     0.6524     1.3326     3.8051 </r>
       <r>     0.7305     0.8705     3.8731 </r>
       <r>     0.8087     0.4467     3.9080 </r>
       <r>     0.8868     0.1924     3.9230 </r>
       <r>     0.9649     0.1482     3.9346 </r>
       <r>     1.0430     0.3508     3.9620 </r>
       <r>     1.1212     0.8711     4.0301 </r>
       <r>     1.1993     1.6497     4.1590 </r>
       <r>     1.2774     2.3242     4.3406 </r>
       <r>     1.3556     2.4318     4.5306 </r>
       <r>     1.4337     1.8897     4.6782 </r>
       <r>     1.5118     1.0904     4.7634 </r>
       <r>     1.5900     0.4672     4.7999 </r>
       <r>     1.6681     0.1486     4.8115 </r>
       <r>     1.7462     0.0351     4.8143 </r>
       <r>     1.8244     0.0061     4.8147 </r>
       <r>     1.9025     0.0008     4.8148 </r>
       <r>     1.9806     0.0001     4.8148 </r>
       <r>     2.0588     0.0000     4.8148 </r>
       <r>     2.1369     0.0000     4.8148 </r>
       <r>     2.2150     0.0000     4.8148 </r>
       <r>     2.2931     0.0000     4.8148 </r>
       <r>     2.3713     0.0000     4.8148 </r>
       <r>     2.4494     0.0000     4.8148 </r>
       <r>     2.5275     0.0000     4.8148 </r>
       <r>     2.6057     0.0001     4.8148 </r>
       <r>     2.6838     0.0013     4.8149 </r>
       <r>     2.7619     0.0094     4.8157 </r>
       <r>     2.8401     0.0503     4.8196 </r>
       <r>     2.9182     0.1992     4.8352 </r>
       <r>     2.9963     0.5859     4.8809 </r>
       <r>     3.0745     1.2862     4.9814 </r>
       <r>     3.1526     2.1292     5.1478 </r>
       <r>     3.2307     2.7365     5.3616 </r>
       <r>     3.3088     2.9290     5.5904 </r>
       <r>     3.3870     2.9290     5.8193 </r>
       <r>     3.4651     2.9286     6.0481 </r>
       <r>     3.5432     2.7325     6.2616 </r>
       <r>     3.6214     2.1212     6.4273 </r>
       <r>     3.6995     1.2779     6.5272 </r>
       <r>     3.7776     0.5804     6.5725 </r>
       <r>     3.8558     0.1967     6.5879 </r>
       <r>     3.9339     0.0496     6.5918 </r>
       <r>     4.0120     0.0097     6.5925 </r>
       <r>     4.0902     0.0047     6.5929 </r>
       <r>     4.1683     0.0227     6.5947 </r>
       <r>     4.2464     0.1088     6.6032 </r>
       <r>     4.3246     0.3902     6.6336 </r>
       <r>     4.4027     1.0383     6.7148 </r>
       <r>     4.4808     2.0515     6.8750 </r>
       <r>     4.5589     3.0098     7.1102 </r>
       <r>     4.6371     3.2794     7.3664 </r>
       <r>     4.7152     2.6535     7.5737 </r>
       <r>     4.7933     1.5944     7.6983 </r>
       <r>     4.8715     0.7113     7.7539 </r>
       <r>     4.9496     0.2356     7.7723 </r>
       <r>     5.0277     0.0580     7.7768 </r>
       <r>     5.1059     0.0116     7.7777 </r>
       <r>     5.1840     0.0075     7.7783 </r>
       <r>     5.2621     0.0276     7.7805 </r>
       <r>     5.3403     0.0925     7.7877 </r>
       <r>     5.4184     0.2310     7.8058 </r>
       <r>     5.4965     0.4281     7.8392 </r>
       <r>     5.5746     0.5894     7.8853 </r>
       <r>     5.6528     0.6025     7.9323 </r>
       <r>     5.7309     0.4575     7.9681 </r>
       <r>     5.8090     0.2582     7.9882 </r>
       <r>     5.8872     0.1104     7.9969 </r>
       <r>     5.9653     0.0478     8.0006 </r>
       <r>     6.0434     0.0706     8.0061 </r>
       <r>     6.1216     0.2066     8.0223 </r>
       <r>     6.1997     0.4978     8.0612 </r>
       <r>     6.2778     0.8956     8.1311 </r>
       <r>     6.3560     1.1971     8.2247 </r>
       <r>     6.4341     1.1883     8.3175 </r>
       <r>     6.5122     0.8760     8.3859 </r>
       <r>     6.5904     0.4797     8.4234 </r>
       <r>     6.6685     0.1973     8.4388 </r>
       <r>     6.7466     0.0759     8.4448 </r>
       <r>     6.8247     0.1024     8.4528 </r>
       <r>     6.9029     0.3490     8.4800 </r>
       <r>     6.9810     1.0026     8.5584 </r>
       <r>     7.0591     2.1555     8.7268 </r>
       <r>     7.1373     3.4501     8.9963 </r>
       <r>     7.2154     4.1173     9.3180 </r>
       <r>     7.2935     3.6908     9.6064 </r>
       <r>     7.3717     2.5768     9.8077 </r>
       <r>     7.4498     1.6245     9.9347 </r>
       <r>     7.5279     1.2686    10.0338 </r>
       <r>     7.6061     1.2869    10.1343 </r>
       <r>     7.6842     1.2394    10.2312 </r>
       <r>     7.7623     0.9559    10.3058 </r>
       <r>     7.8405     0.6049    10.3531 </r>
       <r>     7.9186     0.4178    10.3857 </r>
       <r>     7.9967     0.4524    10.4211 </r>
       <r>     8.0748     0.5813    10.4665 </r>
       <r>     8.1530     0.6310    10.5158 </r>
       <r>     8.2311     0.5405    10.5580 </r>
       <r>     8.3092     0.3941    10.5888 </r>
       <r>     8.3874     0.2937    10.6118 </r>
       <r>     8.4655     0.2481    10.6312 </r>
       <r>     8.5436     0.2055    10.6472 </r>
       <r>     8.6218     0.1462    10.6586 </r>
       <r>     8.6999     0.1137    10.6675 </r>
       <r>     8.7780     0.2073    10.6837 </r>
       <r>     8.8562     0.5843    10.7294 </r>
       <r>     8.9343     1.3779    10.8370 </r>
       <r>     9.0124     2.4407    11.0277 </r>
       <r>     9.0905     3.2138    11.2788 </r>
       <r>     9.1687     3.1429    11.5244 </r>
       <r>     9.2468     2.2826    11.7027 </r>
       <r>     9.3249     1.2310    11.7989 </r>
       <r>     9.4031     0.4929    11.8374 </r>
       <r>     9.4812     0.1465    11.8489 </r>
       <r>     9.5593     0.0323    11.8514 </r>
       <r>     9.6375     0.0053    11.8518 </r>
       <r>     9.7156     0.0006    11.8518 </r>
       <r>     9.7937     0.0001    11.8519 </r>
       <r>     9.8719     0.0000    11.8519 </r>
       <r>     9.9500     0.0000    11.8519 </r>
       <r>    10.0281     0.0000    11.8519 </r>
       <r>    10.1063     0.0000    11.8519 </r>
       <r>    10.1844     0.0000    11.8519 </r>
       <r>    10.2625     0.0000    11.8519 </r>
       <r>    10.3406     0.0000    11.8519 </r>
       <r>    10.4188     0.0000    11.8519 </r>
       <r>    10.4969     0.0000    11.8519 </r>
       <r>    10.5750     0.0000    11.8519 </r>
       <r>    10.6532     0.0000    11.8519 </r>
       <r>    10.7313     0.0000    11.8519 </r>
       <r>    10.8094     0.0001    11.8519 </r>
       <r>    10.8876     0.0012    11.8520 </r>
       <r>    10.9657     0.0085    11.8526 </r>
       <r>    11.0438     0.0460    11.8562 </r>
       <r>    11.1220     0.1850    11.8707 </r>
       <r>    11.2001     0.5525    11.9138 </r>
       <r>    11.2782     1.2248    12.0095 </r>
       <r>    11.3564     2.0164    12.1671 </r>
       <r>    11.4345     2.4664    12.3598 </r>
       <r>    11.5126     2.2492    12.5355 </r>
       <r>    11.5907     1.5686    12.6581 </r>
       <r>    11.6689     0.9845    12.7350 </r>
       <r>    11.7470     0.9305    12.8077 </r>
       <r>    11.8251     1.4442    12.9205 </r>
       <r>    11.9033     2.1507    13.0886 </r>
       <r>    11.9814     2.4795    13.2823 </r>
       <r>    12.0595     2.1410    13.4496 </r>
       <r>    12.1377     1.4082    13.5596 </r>
       <r>    12.2158     0.8275    13.6242 </r>
       <r>    12.2939     0.7759    13.6849 </r>
       <r>    12.3721     1.3169    13.7878 </r>
       <r>    12.4502     2.2245    13.9616 </r>
       <r>    12.5283     3.0886    14.2029 </r>
       <r>    12.6064     3.5882    14.4832 </r>
       <r>    12.6846     3.6424    14.7678 </r>
       <r>    12.7627     3.2516    15.0219 </r>
       <r>    12.8408     2.4580    15.2139 </r>
       <r>    12.9190     1.5244    15.3330 </r>
       <r>    12.9971     0.8597    15.4002 </r>
       <r>    13.0752     0.7138    15.4560 </r>
       <r>    13.1534     1.0274    15.5362 </r>
       <r>    13.2315     1.4750    15.6515 </r>
       <r>    13.3096     1.6501    15.7804 </r>
       <r>    13.3878     1.3798    15.8882 </r>
       <r>    13.4659     0.8575    15.9552 </r>
       <r>    13.5440     0.3958    15.9861 </r>
       <r>    13.6222     0.1356    15.9967 </r>
       <r>    13.7003     0.0345    15.9994 </r>
       <r>    13.7784     0.0065    15.9999 </r>
       <r>    13.8565     0.0009    16.0000 </r>
       <r>    13.9347     0.0001    16.0000 </r>
       <r>    14.0128     0.0000    16.0000 </r>
       <r>    14.0909     0.0000    16.0000 </r>
       <r>    14.1691     0.0000    16.0000 </r>
       <r>    14.2472     0.0000    16.0000 </r>
       <r>    14.3253     0.0000    16.0000 </r>
       <r>    14.4035     0.0000    16.0000 </r>
       <r>    14.4816     0.0000    16.0000 </r>
       <r>    14.5597     0.0000    16.0000 </r>
       <r>    14.6379     0.0000    16.0000 </r>
       <r>    14.7160     0.0000    16.0000 </r>
       <r>    14.7941     0.0000    16.0000 </r>
       <r>    14.8723     0.0000    16.0000 </r>
       <r>    14.9504     0.0000    16.0000 </r>
       <r>    15.0285     0.0000    16.0000 </r>
       <r>    15.1066     0.0000    16.0000 </r>
       <r>    15.1848     0.0000    16.0000 </r>
       <r>    15.2629     0.0000    16.0000 </r>
      </set>
     </set>
    </array>
   </total>
  </dos>
 </calculation>
 <structure name="finalpos" >
  <crystal>
   <varray name="basis" >
    <v>      -0.00000000       2.75174242       2.75174242 </v>
    <v>       2.75174242      -0.00000000       2.75174242 </v>
    <v>       2.75174242       2.75174242      -0.00000000 </v>
   </varray>
   <i name="volume">     41.67286229 </i>
   <varray name="rec_basis" >
    <v>      -0.18170305       0.18170305       0.18170305 </v>
    <v>       0.18170305      -0.18170305       0.18170305 </v>
    <v>       0.18170305       0.18170305      -0.18170305 </v>
   </varray>
  </crystal>
  <varray name="positions" >
   <v>       0.50000000       0.50000000       0.50000000 </v>
   <v>       0.75000000       0.75000000       0.75000000 </v>
  </varray>
 </structure>
</modeling>
