<?xml version="1.0" encoding="ISO-8859-1"?>
<modeling>
 <generator>
  <i name="program" type="string">vasp </i>
  <i name="version" type="string">5.4.4.18Apr17-6-g9f103f2a35  </i>
  <i name="subversion" type="string">(build Dec 09 2018 21:25:21) complex            parallel </i>
  <i name="platform" type="string">IFC18.0.1.163_CrayMPICH7.7.0_MKL18.0.1.163 </i>
  <i name="date" type="string">2019 03 19 </i>
  <i name="time" type="string">13:21:21 </i>
 </generator>
 <incar>
  <i type="string" name="PREC">normal</i>
  <i type="int" name="IBRION">     2</i>
  <i name="EDIFF">      0.00040000</i>
  <i name="EDIFFG">     -0.01000000</i>
  <i type="int" name="NSW">    15</i>
  <i type="int" name="ISIF">     2</i>
  <i name="ENCUT">    350.00000000</i>
  <i type="int" name="NBANDS">     8</i>
  <i type="logical" name="LREAL"> F  </i>
  <i type="int" name="ISMEAR">     0</i>
  <i name="SIGMA">      0.20000000</i>
  <v type="int" name="KPOINT_BSE">    -1     0     0     0</v>
 </incar>
 <structure name="primitive_cell" >
  <crystal>
   <varray name="basis" >
    <v>      -2.45000000       2.45000000       1.27400000 </v>
    <v>       2.45000000      -2.45000000       1.27400000 </v>
    <v>       2.45000000       2.45000000      -1.27400000 </v>
   </varray>
   <i name="volume">     30.58874000 </i>
   <varray name="rec_basis" >
    <v>       0.00000000       0.20408163       0.39246468 </v>
    <v>       0.20408163       0.00000000       0.39246468 </v>
    <v>       0.20408163       0.20408163      -0.00000000 </v>
   </varray>
  </crystal>
  <varray name="positions" >
   <v>       0.25000000      -0.25000000      -0.50000000 </v>
   <v>       0.00000000       0.00000000       0.00000000 </v>
  </varray>
 </structure>
 <varray name="primitive_index" >
  <v type="int" >        1 </v>
  <v type="int" >        2 </v>
 </varray>
 <kpoints>
  <generation param="Monkhorst-Pack">
   <v type="int" name="divisions">       2        2        2 </v>
   <v name="usershift">      0.00000000       0.00000000       0.00000000 </v>
   <v name="genvec1">      0.50000000       0.00000000      -0.00000000 </v>
   <v name="genvec2">      0.00000000       0.50000000      -0.00000000 </v>
   <v name="genvec3">      0.00000000      -0.00000000       0.50000000 </v>
   <v name="shift">      0.50000000       0.50000000       0.50000000 </v>
  </generation>
  <varray name="kpointlist" >
   <v>       0.25000000       0.25000000       0.25000000 </v>
   <v>      -0.25000000       0.25000000       0.25000000 </v>
   <v>      -0.25000000      -0.25000000       0.25000000 </v>
  </varray>
  <varray name="weights" >
   <v>       0.25000000 </v>
   <v>       0.50000000 </v>
   <v>       0.25000000 </v>
  </varray>
 </kpoints>
 <parameters>
  <separator name="general" >
   <i type="string" name="SYSTEM">unknown system</i>
   <i type="logical" name="LCOMPAT"> F  </i>
  </separator>
  <separator name="electronic" >
   <i type="string" name="PREC">normal</i>
   <i name="ENMAX">    350.00000000</i>
   <i name="ENAUG">    322.06900000</i>
   <i name="EDIFF">      0.00040000</i>
   <i type="int" name="IALGO">    38</i>
   <i type="int" name="IWAVPR">    11</i>
   <i type="int" name="NBANDS">     8</i>
   <i name="NELECT">      8.00000000</i>
   <i type="int" name="TURBO">     0</i>
   <i type="int" name="IRESTART">     0</i>
   <i type="int" name="NREBOOT">     0</i>
   <i type="int" name="NMIN">     0</i>
   <i name="EREF">      0.00000000</i>
   <separator name="electronic smearing" >
    <i type="int" name="ISMEAR">     0</i>
    <i name="SIGMA">      0.20000000</i>
    <i name="KSPACING">      0.50000000</i>
    <i type="logical" name="KGAMMA"> T  </i>
   </separator>
   <separator name="electronic projectors" >
    <i type="logical" name="LREAL"> F  </i>
    <v name="ROPT">      0.00000000</v>
    <i type="int" name="LMAXPAW">  -100</i>
    <i type="int" name="LMAXMIX">     2</i>
    <i type="logical" name="NLSPLINE"> F  </i>
   </separator>
   <separator name="electronic startup" >
    <i type="int" name="ISTART">     1</i>
    <i type="int" name="ICHARG">     0</i>
    <i type="int" name="INIWAV">     1</i>
   </separator>
   <separator name="electronic spin" >
    <i type="int" name="ISPIN">     1</i>
    <i type="logical" name="LNONCOLLINEAR"> F  </i>
    <v name="MAGMOM">      1.00000000      1.00000000</v>
    <i name="NUPDOWN">     -1.00000000</i>
    <i type="logical" name="LSORBIT"> F  </i>
    <v name="SAXIS">      0.00000000      0.00000000      1.00000000</v>
    <i type="logical" name="LSPIRAL"> F  </i>
    <v name="QSPIRAL">      0.00000000      0.00000000      0.00000000</v>
    <i type="logical" name="LZEROZ"> F  </i>
   </separator>
   <separator name="electronic exchange-correlation" >
    <i type="logical" name="LASPH"> F  </i>
    <i type="logical" name="LMETAGGA"> F  </i>
   </separator>
   <separator name="electronic convergence" >
    <i type="int" name="NELM">    60</i>
    <i type="int" name="NELMDL">     0</i>
    <i type="int" name="NELMIN">     2</i>
    <i name="ENINI">    350.00000000</i>
    <separator name="electronic convergence detail" >
     <i type="logical" name="LDIAG"> T  </i>
     <i type="logical" name="LSUBROT"> F  </i>
     <i name="WEIMIN">      0.00100000</i>
     <i name="EBREAK">      0.00001250</i>
     <i name="DEPER">      0.30000000</i>
     <i type="int" name="NRMM">     4</i>
     <i name="TIME">      0.40000000</i>
    </separator>
   </separator>
   <separator name="electronic mixer" >
    <i name="AMIX">      0.40000000</i>
    <i name="BMIX">      1.00000000</i>
    <i name="AMIN">      0.10000000</i>
    <i name="AMIX_MAG">      1.60000000</i>
    <i name="BMIX_MAG">      1.00000000</i>
    <separator name="electronic mixer details" >
     <i type="int" name="IMIX">     4</i>
     <i type="logical" name="MIXFIRST"> F  </i>
     <i type="int" name="MAXMIX">   -45</i>
     <i name="WC">    100.00000000</i>
     <i type="int" name="INIMIX">     1</i>
     <i type="int" name="MIXPRE">     1</i>
     <i type="int" name="MREMOVE">     5</i>
    </separator>
   </separator>
   <separator name="electronic dipolcorrection" >
    <i type="logical" name="LDIPOL"> F  </i>
    <i type="logical" name="LMONO"> F  </i>
    <i type="int" name="IDIPOL">     0</i>
    <i name="EPSILON">      1.00000000</i>
    <v name="DIPOL">   -100.00000000   -100.00000000   -100.00000000</v>
    <i name="EFIELD">      0.00000000</i>
   </separator>
  </separator>
  <separator name="grids" >
   <i type="int" name="NGX">    18</i>
   <i type="int" name="NGY">    18</i>
   <i type="int" name="NGZ">    18</i>
   <i type="int" name="NGXF">    36</i>
   <i type="int" name="NGYF">    36</i>
   <i type="int" name="NGZF">    36</i>
   <i type="logical" name="ADDGRID"> F  </i>
  </separator>
  <separator name="ionic" >
   <i type="int" name="NSW">    15</i>
   <i type="int" name="IBRION">     2</i>
   <i type="int" name="MDALGO">     0</i>
   <i type="int" name="ISIF">     2</i>
   <i name="PSTRESS">      0.00000000</i>
   <i name="EDIFFG">     -0.01000000</i>
   <i type="int" name="NFREE">     1</i>
   <i name="POTIM">      0.50000000</i>
   <i name="SMASS">     -3.00000000</i>
   <i name="SCALEE">      1.00000000</i>
  </separator>
  <separator name="ionic md" >
   <i name="TEBEG">      0.00010000</i>
   <i name="TEEND">      0.00010000</i>
   <i type="int" name="NBLOCK">     1</i>
   <i type="int" name="KBLOCK">    15</i>
   <i type="int" name="NPACO">   256</i>
   <i name="APACO">     16.00000000</i>
  </separator>
  <separator name="symmetry" >
   <i type="int" name="ISYM">     2</i>
   <i name="SYMPREC">      0.00001000</i>
  </separator>
  <separator name="dos" >
   <i type="int" name="LORBIT">     0</i>
   <v name="RWIGS">     -1.00000000</v>
   <i type="int" name="NEDOS">   301</i>
   <i name="EMIN">     10.00000000</i>
   <i name="EMAX">    -10.00000000</i>
   <i name="EFERMI">      0.00000000</i>
  </separator>
  <separator name="writing" >
   <i type="int" name="NWRITE">     2</i>
   <i type="logical" name="LWAVE"> T  </i>
   <i type="logical" name="LDOWNSAMPLE"> F  </i>
   <i type="logical" name="LCHARG"> T  </i>
   <i type="logical" name="LPARD"> F  </i>
   <i type="logical" name="LVTOT"> F  </i>
   <i type="logical" name="LVHAR"> F  </i>
   <i type="logical" name="LELF"> F  </i>
   <i type="logical" name="LOPTICS"> F  </i>
   <v name="STM">      0.00000000      0.00000000      0.00000000      0.00000000      0.00000000      0.00000000      0.00000000</v>
  </separator>
  <separator name="performance" >
   <i type="int" name="NPAR">     8</i>
   <i type="int" name="NSIM">     4</i>
   <i type="int" name="NBLK">    -1</i>
   <i type="logical" name="LPLANE"> T  </i>
   <i type="logical" name="LSCALAPACK"> T  </i>
   <i type="logical" name="LSCAAWARE"> F  </i>
   <i type="logical" name="LSCALU"> F  </i>
   <i type="logical" name="LASYNC"> F  </i>
   <i type="logical" name="LORBITALREAL"> F  </i>
  </separator>
  <separator name="miscellaneous" >
   <i type="int" name="IDIOT">     3</i>
   <i type="int" name="ISPECIAL">     0</i>
   <i type="logical" name="LMUSIC"> F  </i>
   <v name="POMASS">     28.08500000</v>
   <v name="DARWINR">      0.00000000</v>
   <v name="DARWINV">      1.00000000</v>
   <i type="logical" name="LCORR"> T  </i>
  </separator>
  <i type="logical" name="GGA_COMPAT"> T  </i>
  <i type="logical" name="LBERRY"> F  </i>
  <i type="int" name="ICORELEVEL">     0</i>
  <i type="logical" name="LDAU"> F  </i>
  <i type="int" name="I_CONSTRAINED_M">     0</i>
  <separator name="electronic exchange-correlation" >
   <i type="string" name="GGA">--</i>
   <i type="int" name="VOSKOWN">     0</i>
   <i type="logical" name="LHFCALC"> F  </i>
   <i type="string" name="PRECFOCK"></i>
   <i type="logical" name="LSYMGRAD"> F  </i>
   <i type="logical" name="LHFONE"> F  </i>
   <i type="logical" name="LRHFCALC"> F  </i>
   <i type="logical" name="LTHOMAS"> F  </i>
   <i type="logical" name="LMODELHF"> F  </i>
   <i name="ENCUT4O">     -1.00000000</i>
   <i type="int" name="EXXOEP">     0</i>
   <i type="int" name="FOURORBIT">     0</i>
   <i name="AEXX">      0.00000000</i>
   <i name="HFALPHA">      0.00000000</i>
   <i name="MCALPHA">      0.00000000</i>
   <i name="ALDAX">      1.00000000</i>
   <i name="AGGAX">      1.00000000</i>
   <i name="ALDAC">      1.00000000</i>
   <i name="AGGAC">      1.00000000</i>
   <i type="int" name="NKREDX">     1</i>
   <i type="int" name="NKREDY">     1</i>
   <i type="int" name="NKREDZ">     1</i>
   <i type="logical" name="SHIFTRED"> F  </i>
   <i type="logical" name="ODDONLY"> F  </i>
   <i type="logical" name="EVENONLY"> F  </i>
   <i type="int" name="LMAXFOCK">     0</i>
   <i type="int" name="NMAXFOCKAE">     0</i>
   <i type="logical" name="LFOCKAEDFT"> F  </i>
   <i name="HFSCREEN">      0.00000000</i>
   <i name="HFSCREENC">      0.00000000</i>
   <i type="int" name="NBANDSGWLOW">     0</i>
  </separator>
  <separator name="vdW DFT" >
   <i type="logical" name="LUSE_VDW"> F  </i>
   <i name="Zab_VDW">     -0.84910000</i>
   <i name="PARAM1">      0.12340000</i>
   <i name="PARAM2">      1.00000000</i>
   <i name="PARAM3">      0.00000000</i>
  </separator>
  <separator name="model GW" >
   <i type="int" name="MODEL_GW">     0</i>
   <i name="MODEL_EPS0">      9.17662200</i>
   <i name="MODEL_ALPHA">      1.00000000</i>
  </separator>
  <separator name="linear response parameters" >
   <i type="logical" name="LEPSILON"> F  </i>
   <i type="logical" name="LRPA"> F  </i>
   <i type="logical" name="LNABLA"> F  </i>
   <i type="logical" name="LVEL"> F  </i>
   <i type="int" name="KINTER">     0</i>
   <i name="CSHIFT">      0.10000000</i>
   <i name="OMEGAMAX">     -1.00000000</i>
   <i name="DEG_THRESHOLD">      0.00200000</i>
   <i name="RTIME">     -0.10000000</i>
   <i name="WPLASMAI">      0.00000000</i>
   <v name="DFIELD">      0.00000000      0.00000000      0.00000000</v>
   <v name="WPLASMA">      0.00000000      0.00000000      0.00000000      0.00000000      0.00000000      0.00000000      0.00000000      0.00000000      0.00000000</v>
  </separator>
  <separator name="orbital magnetization" >
   <i type="logical" name="NUCIND"> F  </i>
   <v name="MAGPOS">      0.00000000      0.00000000      0.00000000</v>
   <i type="logical" name="LNICSALL"> T  </i>
   <i type="logical" name="ORBITALMAG"> F  </i>
   <i type="logical" name="LMAGBLOCH"> F  </i>
   <i type="logical" name="LCHIMAG"> F  </i>
   <i type="logical" name="LGAUGE"> T  </i>
   <i type="int" name="MAGATOM">     0</i>
   <v name="MAGDIPOL">      0.00000000      0.00000000      0.00000000</v>
   <v name="AVECCONST">      0.00000000      0.00000000      0.00000000</v>
  </separator>
  <separator name="response functions" >
   <i type="logical" name="LADDER"> F  </i>
   <i type="logical" name="LRPAFORCE"> F  </i>
   <i type="logical" name="LFXC"> F  </i>
   <i type="logical" name="LHARTREE"> T  </i>
   <i type="int" name="IBSE">     0</i>
   <v type="int" name="KPOINT">    -1     0     0     0</v>
   <i type="logical" name="LTCTE"> F  </i>
   <i type="logical" name="LTETE"> F  </i>
   <i type="logical" name="LTRIPLET"> F  </i>
   <i type="logical" name="LFXCEPS"> F  </i>
   <i type="logical" name="LFXHEG"> F  </i>
   <i type="int" name="NATURALO">     2</i>
   <i type="logical" name="L2ORDER"> F  </i>
   <i type="logical" name="LMP2LT"> F  </i>
   <i type="logical" name="LUSEW"> F  </i>
   <i name="ENCUTGW">     -2.00000000</i>
   <i name="ENCUTGWSOFT">     -2.00000000</i>
   <i name="ENCUTLF">     -1.00000000</i>
   <i type="int" name="LMAXMP2">    -1</i>
   <i name="SCISSOR">      0.00000000</i>
   <i type="int" name="NOMEGA">     0</i>
   <i type="int" name="NOMEGAR">     0</i>
   <i type="int" name="NBANDSGW">    -1</i>
   <i type="int" name="NBANDSO">    -1</i>
   <i type="int" name="NBANDSV">    -1</i>
   <i type="int" name="NELM">     1</i>
   <i type="int" name="NELMHF">     1</i>
   <i type="int" name="DIM">     3</i>
   <i type="int" name="ANTIRES">     0</i>
   <i name="OMEGAMAX">    -30.00000000</i>
   <i name="OMEGAMIN">    -30.00000000</i>
   <i name="OMEGATL">   -200.00000000</i>
   <i type="int" name="OMEGAGRID">   140</i>
   <i name="CSHIFT">     -0.10000000</i>
   <i type="logical" name="SELFENERGY"> F  </i>
   <i type="logical" name="LSPECTRAL"> F  </i>
   <i type="logical" name="LSPECTRALGW"> F  </i>
   <i type="logical" name="LSINGLES"> F  </i>
   <i type="logical" name="LFERMIGW"> F  </i>
   <i type="logical" name="ODDONLYGW"> F  </i>
   <i type="logical" name="EVENONLYGW"> F  </i>
   <i type="int" name="NKREDLFX">     1</i>
   <i type="int" name="NKREDLFY">     1</i>
   <i type="int" name="NKREDLFZ">     1</i>
   <i type="int" name="MAXMEM">  2800</i>
   <i type="int" name="TELESCOPE">     0</i>
   <i type="int" name="TAUPAR">     1</i>
   <i type="int" name="OMEGAPAR">    -1</i>
   <i name="LAMBDA">      1.00000000</i>
  </separator>
  <separator name="External order field" >
   <i name="OFIELD_KAPPA">      0.00000000</i>
   <v name="OFIELD_K">      0.00000000      0.00000000      0.00000000</v>
   <i name="OFIELD_Q6_NEAR">      0.00000000</i>
   <i name="OFIELD_Q6_FAR">      0.00000000</i>
   <i name="OFIELD_A">      0.00000000</i>
  </separator>
 </parameters>
 <atominfo>
  <atoms>       2 </atoms>
  <types>       1 </types>
  <array name="atoms" >
   <dimension dim="1">ion</dimension>
   <field type="string">element</field>
   <field type="int">atomtype</field>
   <set>
    <rc><c>Si</c><c>   1</c></rc>
    <rc><c>Si</c><c>   1</c></rc>
   </set>
  </array>
  <array name="atomtypes" >
   <dimension dim="1">type</dimension>
   <field type="int">atomspertype</field>
   <field type="string">element</field>
   <field>mass</field>
   <field>valence</field>
   <field type="string">pseudopotential</field>
   <set>
    <rc><c>   2</c><c>Si</c><c>     28.08500000</c><c>      4.00000000</c><c> PAW_PBE Si 05Jan2001                   </c></rc>
   </set>
  </array>
 </atominfo>
 <structure name="initialpos" >
  <crystal>
   <varray name="basis" >
    <v>      -2.45000000       2.45000000       1.27400000 </v>
    <v>       2.45000000      -2.45000000       1.27400000 </v>
    <v>       2.45000000       2.45000000      -1.27400000 </v>
   </varray>
   <i name="volume">     30.58874000 </i>
   <varray name="rec_basis" >
    <v>       0.00000000       0.20408163       0.39246468 </v>
    <v>       0.20408163       0.00000000       0.39246468 </v>
    <v>       0.20408163       0.20408163      -0.00000000 </v>
   </varray>
  </crystal>
  <varray name="positions" >
   <v>       0.25000000       0.75000000       0.50000000 </v>
   <v>       0.00000000       0.00000000       0.00000000 </v>
  </varray>
 </structure>
 <calculation>
  <scstep>
   <time name="dav">    0.05    0.06</time>
   <time name="total">    0.11    0.14</time>
   <energy>
    <i name="alphaZ">      4.40202223 </i>
    <i name="ewald">   -265.18101312 </i>
    <i name="hartreedc">     -2.24826130 </i>
    <i name="XCdc">    -17.62207781 </i>
    <i name="pawpsdc">     69.62757275 </i>
    <i name="pawaedc">    -34.51556919 </i>
    <i name="eentropy">     -0.05641896 </i>
    <i name="bandstr">     27.42548755 </i>
    <i name="atom">    206.13125414 </i>
    <i name="e_fr_energy">    -12.03700369 </i>
    <i name="e_wo_entrp">    -11.98058474 </i>
    <i name="e_0_energy">    -12.00879422 </i>
   </energy>
  </scstep>
  <scstep>
   <time name="dav">    0.04    0.04</time>
   <time name="total">    0.08    0.10</time>
   <energy>
    <i name="alphaZ">      4.40202223 </i>
    <i name="ewald">   -265.18101312 </i>
    <i name="hartreedc">     -2.24829626 </i>
    <i name="XCdc">    -17.62207291 </i>
    <i name="pawpsdc">     69.62714156 </i>
    <i name="pawaedc">    -34.51512674 </i>
    <i name="eentropy">     -0.05641896 </i>
    <i name="bandstr">     27.42550636 </i>
    <i name="atom">    206.13125414 </i>
    <i name="e_fr_energy">    -12.03700369 </i>
    <i name="e_wo_entrp">    -11.98058473 </i>
    <i name="e_0_energy">    -12.00879421 </i>
   </energy>
  </scstep>
  <structure>
   <crystal>
    <varray name="basis" >
     <v>      -2.45000000       2.45000000       1.27400000 </v>
     <v>       2.45000000      -2.45000000       1.27400000 </v>
     <v>       2.45000000       2.45000000      -1.27400000 </v>
    </varray>
    <i name="volume">     30.58874000 </i>
    <varray name="rec_basis" >
     <v>       0.00000000       0.20408163       0.39246468 </v>
     <v>       0.20408163       0.00000000       0.39246468 </v>
     <v>       0.20408163       0.20408163      -0.00000000 </v>
    </varray>
   </crystal>
   <varray name="positions" >
    <v>       0.25000000       0.75000000       0.50000000 </v>
    <v>       0.00000000       0.00000000       0.00000000 </v>
   </varray>
  </structure>
  <varray name="forces" >
   <v>       0.00000000       0.00000000       0.00000000 </v>
   <v>      -0.00000000      -0.00000000      -0.00000000 </v>
  </varray>
  <varray name="stress" >
   <v>    -236.21916727       0.00000000       0.00000000 </v>
   <v>       0.00000000    -236.21916727      -0.00000000 </v>
   <v>       0.00000000      -0.00000000     238.29653168 </v>
  </varray>
  <energy>
   <i name="e_fr_energy">    -12.03700369 </i>
   <i name="e_wo_entrp">    -12.00879421 </i>
   <i name="e_0_energy">     -0.05641896 </i>
  </energy>
  <time name="totalsc">    1.25    2.12</time>
  <eigenvalues>
   <array>
    <dimension dim="1">band</dimension>
    <dimension dim="2">kpoint</dimension>
    <dimension dim="3">spin</dimension>
    <field>eigene</field>
    <field>occ</field>
    <set>
     <set comment="spin 1">
      <set comment="kpoint 1">
       <r>    3.3725    1.0000 </r>
       <r>    3.3725    1.0000 </r>
       <r>    4.0241    1.0000 </r>
       <r>    4.0241    1.0000 </r>
       <r>   13.1778    0.0000 </r>
       <r>   13.1778    0.0000 </r>
       <r>   14.9959    0.0000 </r>
       <r>   14.9959    0.0000 </r>
      </set>
      <set comment="kpoint 2">
       <r>   -3.1662    1.0000 </r>
       <r>    1.8873    1.0000 </r>
       <r>    3.6146    1.0000 </r>
       <r>    8.5121    0.5000 </r>
       <r>   12.8424    0.0000 </r>
       <r>   16.0118    0.0000 </r>
       <r>   17.2041    0.0000 </r>
       <r>   18.2320    0.0000 </r>
      </set>
      <set comment="kpoint 3">
       <r>    0.8255    1.0000 </r>
       <r>    5.7293    1.0000 </r>
       <r>    5.8220    1.0000 </r>
       <r>    7.2488    1.0000 </r>
       <r>    7.2488    1.0000 </r>
       <r>   11.5237    0.0000 </r>
       <r>   12.2270    0.0000 </r>
       <r>   12.2270    0.0000 </r>
      </set>
     </set>
    </set>
   </array>
  </eigenvalues>
  <separator name="orbital magnetization" >
   <v name="MAGDIPOLOUT">      0.00000000      0.00000000      0.00000000</v>
  </separator>
  <dos>
   <i name="efermi">      8.51214597 </i>
   <total>
    <array>
     <dimension dim="1">gridpoints</dimension>
     <dimension dim="2">spin</dimension>
     <field>energy</field>
     <field>total</field>
     <field>integrated</field>
     <set>
      <set comment="spin 1">
       <r>    -5.1662     0.0000     0.0000 </r>
       <r>    -5.0815     0.0000     0.0000 </r>
       <r>    -4.9969     0.0000     0.0000 </r>
       <r>    -4.9122     0.0000     0.0000 </r>
       <r>    -4.8275     0.0000     0.0000 </r>
       <r>    -4.7429     0.0000     0.0000 </r>
       <r>    -4.6582     0.0000     0.0000 </r>
       <r>    -4.5736     0.0000     0.0000 </r>
       <r>    -4.4889     0.0000     0.0000 </r>
       <r>    -4.4042     0.0000     0.0000 </r>
       <r>    -4.3196     0.0000     0.0000 </r>
       <r>    -4.2349     0.0000     0.0000 </r>
       <r>    -4.1502     0.0000     0.0000 </r>
       <r>    -4.0656     0.0000     0.0000 </r>
       <r>    -3.9809     0.0000     0.0000 </r>
       <r>    -3.8963     0.0000     0.0000 </r>
       <r>    -3.8116     0.0000     0.0000 </r>
       <r>    -3.7269     0.0004     0.0000 </r>
       <r>    -3.6423     0.0041     0.0004 </r>
       <r>    -3.5576     0.0288     0.0028 </r>
       <r>    -3.4730     0.1442     0.0150 </r>
       <r>    -3.3883     0.5091     0.0581 </r>
       <r>    -3.3036     1.2684     0.1655 </r>
       <r>    -3.2190     2.2314     0.3544 </r>
       <r>    -3.1343     2.7720     0.5891 </r>
       <r>    -3.0497     2.4320     0.7950 </r>
       <r>    -2.9650     1.5068     0.9226 </r>
       <r>    -2.8803     0.6592     0.9784 </r>
       <r>    -2.7957     0.2035     0.9956 </r>
       <r>    -2.7110     0.0443     0.9994 </r>
       <r>    -2.6264     0.0068     0.9999 </r>
       <r>    -2.5417     0.0007     1.0000 </r>
       <r>    -2.4570     0.0001     1.0000 </r>
       <r>    -2.3724     0.0000     1.0000 </r>
       <r>    -2.2877     0.0000     1.0000 </r>
       <r>    -2.2031     0.0000     1.0000 </r>
       <r>    -2.1184     0.0000     1.0000 </r>
       <r>    -2.0337     0.0000     1.0000 </r>
       <r>    -1.9491     0.0000     1.0000 </r>
       <r>    -1.8644     0.0000     1.0000 </r>
       <r>    -1.7798     0.0000     1.0000 </r>
       <r>    -1.6951     0.0000     1.0000 </r>
       <r>    -1.6104     0.0000     1.0000 </r>
       <r>    -1.5258     0.0000     1.0000 </r>
       <r>    -1.4411     0.0000     1.0000 </r>
       <r>    -1.3565     0.0000     1.0000 </r>
       <r>    -1.2718     0.0000     1.0000 </r>
       <r>    -1.1871     0.0000     1.0000 </r>
       <r>    -1.1025     0.0000     1.0000 </r>
       <r>    -1.0178     0.0000     1.0000 </r>
       <r>    -0.9331     0.0000     1.0000 </r>
       <r>    -0.8485     0.0000     1.0000 </r>
       <r>    -0.7638     0.0000     1.0000 </r>
       <r>    -0.6792     0.0000     1.0000 </r>
       <r>    -0.5945     0.0000     1.0000 </r>
       <r>    -0.5098     0.0000     1.0000 </r>
       <r>    -0.4252     0.0000     1.0000 </r>
       <r>    -0.3405     0.0000     1.0000 </r>
       <r>    -0.2559     0.0000     1.0000 </r>
       <r>    -0.1712     0.0000     1.0000 </r>
       <r>    -0.0865     0.0000     1.0000 </r>
       <r>    -0.0019     0.0000     1.0000 </r>
       <r>     0.0828     0.0000     1.0000 </r>
       <r>     0.1674     0.0000     1.0000 </r>
       <r>     0.2521     0.0001     1.0000 </r>
       <r>     0.3368     0.0015     1.0001 </r>
       <r>     0.4214     0.0110     1.0011 </r>
       <r>     0.5061     0.0580     1.0060 </r>
       <r>     0.5907     0.2157     1.0242 </r>
       <r>     0.6754     0.5659     1.0721 </r>
       <r>     0.7601     1.0485     1.1609 </r>
       <r>     0.8447     1.3718     1.2771 </r>
       <r>     0.9294     1.2676     1.3844 </r>
       <r>     1.0140     0.8271     1.4544 </r>
       <r>     1.0987     0.3811     1.4867 </r>
       <r>     1.1834     0.1240     1.4972 </r>
       <r>     1.2680     0.0285     1.4996 </r>
       <r>     1.3527     0.0055     1.5000 </r>
       <r>     1.4373     0.0082     1.5007 </r>
       <r>     1.5220     0.0492     1.5049 </r>
       <r>     1.6067     0.2209     1.5236 </r>
       <r>     1.6913     0.7002     1.5829 </r>
       <r>     1.7760     1.5670     1.7155 </r>
       <r>     1.8607     2.4760     1.9252 </r>
       <r>     1.9453     2.7629     2.1591 </r>
       <r>     2.0300     2.1774     2.3434 </r>
       <r>     2.1146     1.2117     2.4460 </r>
       <r>     2.1993     0.4761     2.4863 </r>
       <r>     2.2840     0.1320     2.4975 </r>
       <r>     2.3686     0.0258     2.4997 </r>
       <r>     2.4533     0.0036     2.5000 </r>
       <r>     2.5379     0.0003     2.5000 </r>
       <r>     2.6226     0.0000     2.5000 </r>
       <r>     2.7073     0.0000     2.5000 </r>
       <r>     2.7919     0.0002     2.5000 </r>
       <r>     2.8766     0.0024     2.5002 </r>
       <r>     2.9612     0.0188     2.5018 </r>
       <r>     3.0459     0.1025     2.5105 </r>
       <r>     3.1306     0.3945     2.5439 </r>
       <r>     3.2152     1.0816     2.6355 </r>
       <r>     3.2999     2.1433     2.8169 </r>
       <r>     3.3845     3.1775     3.0859 </r>
       <r>     3.4692     3.7692     3.4050 </r>
       <r>     3.5539     3.8911     3.7345 </r>
       <r>     3.6385     3.6142     4.0404 </r>
       <r>     3.7232     2.9340     4.2888 </r>
       <r>     3.8078     2.2131     4.4762 </r>
       <r>     3.8925     2.0677     4.6512 </r>
       <r>     3.9772     2.5227     4.8648 </r>
       <r>     4.0618     2.8300     5.1044 </r>
       <r>     4.1465     2.3873     5.3065 </r>
       <r>     4.2311     1.4398     5.4284 </r>
       <r>     4.3158     0.6145     5.4804 </r>
       <r>     4.4005     0.1852     5.4961 </r>
       <r>     4.4851     0.0394     5.4994 </r>
       <r>     4.5698     0.0059     5.4999 </r>
       <r>     4.6544     0.0006     5.5000 </r>
       <r>     4.7391     0.0000     5.5000 </r>
       <r>     4.8238     0.0000     5.5000 </r>
       <r>     4.9084     0.0000     5.5000 </r>
       <r>     4.9931     0.0000     5.5000 </r>
       <r>     5.0778     0.0000     5.5000 </r>
       <r>     5.1624     0.0002     5.5000 </r>
       <r>     5.2471     0.0019     5.5002 </r>
       <r>     5.3317     0.0141     5.5014 </r>
       <r>     5.4164     0.0756     5.5078 </r>
       <r>     5.5011     0.2916     5.5325 </r>
       <r>     5.5857     0.8121     5.6012 </r>
       <r>     5.6704     1.6417     5.7402 </r>
       <r>     5.7550     2.4207     5.9451 </r>
       <r>     5.8397     2.6113     6.1662 </r>
       <r>     5.9244     2.0622     6.3408 </r>
       <r>     6.0090     1.1899     6.4415 </r>
       <r>     6.0937     0.4997     6.4838 </r>
       <r>     6.1783     0.1519     6.4967 </r>
       <r>     6.2630     0.0332     6.4995 </r>
       <r>     6.3477     0.0052     6.4999 </r>
       <r>     6.4323     0.0006     6.5000 </r>
       <r>     6.5170     0.0000     6.5000 </r>
       <r>     6.6016     0.0000     6.5000 </r>
       <r>     6.6863     0.0004     6.5000 </r>
       <r>     6.7710     0.0039     6.5004 </r>
       <r>     6.8556     0.0278     6.5027 </r>
       <r>     6.9403     0.1401     6.5146 </r>
       <r>     7.0249     0.4982     6.5568 </r>
       <r>     7.1096     1.2499     6.6626 </r>
       <r>     7.1943     2.2140     6.8500 </r>
       <r>     7.2789     2.7694     7.0845 </r>
       <r>     7.3636     2.4466     7.2916 </r>
       <r>     7.4482     1.5263     7.4208 </r>
       <r>     7.5329     0.6724     7.4777 </r>
       <r>     7.6176     0.2091     7.4954 </r>
       <r>     7.7022     0.0459     7.4993 </r>
       <r>     7.7869     0.0071     7.4999 </r>
       <r>     7.8716     0.0008     7.5000 </r>
       <r>     7.9562     0.0005     7.5000 </r>
       <r>     8.0409     0.0046     7.5004 </r>
       <r>     8.1255     0.0319     7.5031 </r>
       <r>     8.2102     0.1564     7.5164 </r>
       <r>     8.2949     0.5414     7.5622 </r>
       <r>     8.3795     1.3224     7.6742 </r>
       <r>     8.4642     2.2805     7.8672 </r>
       <r>     8.5488     2.7772     8.1023 </r>
       <r>     8.6335     2.3887     8.3046 </r>
       <r>     8.7182     1.4508     8.4274 </r>
       <r>     8.8028     0.6222     8.4801 </r>
       <r>     8.8875     0.1883     8.4960 </r>
       <r>     8.9721     0.0402     8.4994 </r>
       <r>     9.0568     0.0061     8.4999 </r>
       <r>     9.1415     0.0006     8.5000 </r>
       <r>     9.2261     0.0000     8.5000 </r>
       <r>     9.3108     0.0000     8.5000 </r>
       <r>     9.3954     0.0000     8.5000 </r>
       <r>     9.4801     0.0000     8.5000 </r>
       <r>     9.5648     0.0000     8.5000 </r>
       <r>     9.6494     0.0000     8.5000 </r>
       <r>     9.7341     0.0000     8.5000 </r>
       <r>     9.8187     0.0000     8.5000 </r>
       <r>     9.9034     0.0000     8.5000 </r>
       <r>     9.9881     0.0000     8.5000 </r>
       <r>    10.0727     0.0000     8.5000 </r>
       <r>    10.1574     0.0000     8.5000 </r>
       <r>    10.2420     0.0000     8.5000 </r>
       <r>    10.3267     0.0000     8.5000 </r>
       <r>    10.4114     0.0000     8.5000 </r>
       <r>    10.4960     0.0000     8.5000 </r>
       <r>    10.5807     0.0000     8.5000 </r>
       <r>    10.6653     0.0000     8.5000 </r>
       <r>    10.7500     0.0000     8.5000 </r>
       <r>    10.8347     0.0000     8.5000 </r>
       <r>    10.9193     0.0001     8.5000 </r>
       <r>    11.0040     0.0006     8.5001 </r>
       <r>    11.0887     0.0055     8.5005 </r>
       <r>    11.1733     0.0329     8.5033 </r>
       <r>    11.2580     0.1389     8.5151 </r>
       <r>    11.3426     0.4141     8.5501 </r>
       <r>    11.4273     0.8714     8.6239 </r>
       <r>    11.5120     1.2946     8.7335 </r>
       <r>    11.5966     1.3585     8.8485 </r>
       <r>    11.6813     1.0073     8.9338 </r>
       <r>    11.7659     0.5326     8.9789 </r>
       <r>    11.8506     0.2339     8.9987 </r>
       <r>    11.9353     0.2358     9.0187 </r>
       <r>    12.0199     0.6234     9.0714 </r>
       <r>    12.1046     1.4395     9.1933 </r>
       <r>    12.1892     2.3788     9.3947 </r>
       <r>    12.2739     2.7783     9.6299 </r>
       <r>    12.3586     2.2947     9.8242 </r>
       <r>    12.4432     1.3591     9.9392 </r>
       <r>    12.5279     0.6752     9.9964 </r>
       <r>    12.6125     0.6200    10.0489 </r>
       <r>    12.6972     1.2202    10.1522 </r>
       <r>    12.7819     2.1809    10.3368 </r>
       <r>    12.8665     2.8911    10.5816 </r>
       <r>    12.9512     2.9772    10.8336 </r>
       <r>    13.0358     2.8158    11.0720 </r>
       <r>    13.1205     2.9054    11.3180 </r>
       <r>    13.2052     2.9942    11.5715 </r>
       <r>    13.2898     2.5224    11.7850 </r>
       <r>    13.3745     1.5677    11.9177 </r>
       <r>    13.4591     0.6959    11.9767 </r>
       <r>    13.5438     0.2187    11.9952 </r>
       <r>    13.6285     0.0485    11.9993 </r>
       <r>    13.7131     0.0076    11.9999 </r>
       <r>    13.7978     0.0008    12.0000 </r>
       <r>    13.8825     0.0001    12.0000 </r>
       <r>    13.9671     0.0000    12.0000 </r>
       <r>    14.0518     0.0000    12.0000 </r>
       <r>    14.1364     0.0000    12.0000 </r>
       <r>    14.2211     0.0000    12.0000 </r>
       <r>    14.3058     0.0000    12.0000 </r>
       <r>    14.3904     0.0001    12.0000 </r>
       <r>    14.4751     0.0013    12.0001 </r>
       <r>    14.5597     0.0107    12.0010 </r>
       <r>    14.6444     0.0644    12.0065 </r>
       <r>    14.7291     0.2731    12.0296 </r>
       <r>    14.8137     0.8180    12.0988 </r>
       <r>    14.8984     1.7293    12.2452 </r>
       <r>    14.9830     2.5814    12.4638 </r>
       <r>    15.0677     2.7214    12.6942 </r>
       <r>    15.1524     2.0262    12.8657 </r>
       <r>    15.2370     1.0653    12.9559 </r>
       <r>    15.3217     0.3954    12.9894 </r>
       <r>    15.4063     0.1037    12.9982 </r>
       <r>    15.4910     0.0204    12.9999 </r>
       <r>    15.5757     0.0132    13.0010 </r>
       <r>    15.6603     0.0645    13.0065 </r>
       <r>    15.7450     0.2730    13.0296 </r>
       <r>    15.8296     0.8177    13.0988 </r>
       <r>    15.9143     1.7289    13.2452 </r>
       <r>    15.9990     2.5812    13.4637 </r>
       <r>    16.0836     2.7215    13.6941 </r>
       <r>    16.1683     2.0265    13.8657 </r>
       <r>    16.2529     1.0655    13.9559 </r>
       <r>    16.3376     0.3955    13.9894 </r>
       <r>    16.4223     0.1036    13.9981 </r>
       <r>    16.5069     0.0192    13.9998 </r>
       <r>    16.5916     0.0026    14.0000 </r>
       <r>    16.6762     0.0013    14.0001 </r>
       <r>    16.7609     0.0091    14.0009 </r>
       <r>    16.8456     0.0562    14.0056 </r>
       <r>    16.9302     0.2455    14.0264 </r>
       <r>    17.0149     0.7568    14.0905 </r>
       <r>    17.0996     1.6468    14.2299 </r>
       <r>    17.1842     2.5303    14.4441 </r>
       <r>    17.2689     2.7456    14.6765 </r>
       <r>    17.3535     2.1041    14.8547 </r>
       <r>    17.4382     1.1386    14.9511 </r>
       <r>    17.5229     0.4350    14.9879 </r>
       <r>    17.6075     0.1174    14.9978 </r>
       <r>    17.6922     0.0231    14.9998 </r>
       <r>    17.7768     0.0098    15.0006 </r>
       <r>    17.8615     0.0446    15.0044 </r>
       <r>    17.9462     0.2036    15.0216 </r>
       <r>    18.0308     0.6592    15.0774 </r>
       <r>    18.1155     1.5068    15.2050 </r>
       <r>    18.2001     2.4320    15.4109 </r>
       <r>    18.2848     2.7720    15.6456 </r>
       <r>    18.3695     2.2314    15.8345 </r>
       <r>    18.4541     1.2684    15.9419 </r>
       <r>    18.5388     0.5091    15.9850 </r>
       <r>    18.6234     0.1442    15.9972 </r>
       <r>    18.7081     0.0288    15.9996 </r>
       <r>    18.7928     0.0041    16.0000 </r>
       <r>    18.8774     0.0004    16.0000 </r>
       <r>    18.9621     0.0000    16.0000 </r>
       <r>    19.0467     0.0000    16.0000 </r>
       <r>    19.1314     0.0000    16.0000 </r>
       <r>    19.2161     0.0000    16.0000 </r>
       <r>    19.3007     0.0000    16.0000 </r>
       <r>    19.3854     0.0000    16.0000 </r>
       <r>    19.4700     0.0000    16.0000 </r>
       <r>    19.5547     0.0000    16.0000 </r>
       <r>    19.6394     0.0000    16.0000 </r>
       <r>    19.7240     0.0000    16.0000 </r>
       <r>    19.8087     0.0000    16.0000 </r>
       <r>    19.8934     0.0000    16.0000 </r>
       <r>    19.9780     0.0000    16.0000 </r>
       <r>    20.0627     0.0000    16.0000 </r>
       <r>    20.1473     0.0000    16.0000 </r>
       <r>    20.2320     0.0000    16.0000 </r>
      </set>
     </set>
    </array>
   </total>
  </dos>
 </calculation>
 <structure name="finalpos" >
  <crystal>
   <varray name="basis" >
    <v>      -2.45000000       2.45000000       1.27400000 </v>
    <v>       2.45000000      -2.45000000       1.27400000 </v>
    <v>       2.45000000       2.45000000      -1.27400000 </v>
   </varray>
   <i name="volume">     30.58874000 </i>
   <varray name="rec_basis" >
    <v>       0.00000000       0.20408163       0.39246468 </v>
    <v>       0.20408163       0.00000000       0.39246468 </v>
    <v>       0.20408163       0.20408163      -0.00000000 </v>
   </varray>
  </crystal>
  <varray name="positions" >
   <v>       0.25000000       0.75000000       0.50000000 </v>
   <v>       0.00000000       0.00000000       0.00000000 </v>
  </varray>
 </structure>
</modeling>
