unknown system                          
   1.00000000000000     
    -2.450000    2.450000    1.274000
     2.450000   -2.450000    1.274000
     2.450000    2.450000   -1.274000
   Si
     2
Direct
  0.250000  0.750000  0.500000
  0.000000  0.000000  0.000000
 
   32   32   32
 -5.3510     -4.1728     -1.0131      3.1645      7.1993      10.151      11.566      11.515      10.460      9.0103    
  7.5727      6.2920      5.2439      4.4534      3.9125      3.6005      3.4989      3.6005      3.9125      4.4534    
  5.2439      6.2920      7.5727      9.0103      10.460      11.515      11.566      10.151      7.1992      3.1644    
 -1.0132     -4.1729     -4.1729     -4.7981     -3.1406     0.27002      4.4036      8.1402      10.657      11.638    
  11.266      10.054      8.5920      7.1919      5.9728      4.9959      4.2758      3.7997      3.5463      3.4992    
  3.6546      4.0227      4.6237      5.4768      6.5842      7.9106      9.3683      10.782      11.677      11.459    
  9.7416      6.5645      2.4953     -1.4619     -1.0132     -3.1406     -3.2145     -1.2174      2.2077      6.0300    
  9.2335      11.152      11.619      10.914      9.5782      8.1302      6.7845      5.6402      4.7433      4.0985    
  3.6892      3.4942      3.4999      3.7060      4.1256      4.7793      5.6841      6.8360      8.1911      9.6517    
  11.013      11.769      11.369      9.5133      6.3408      2.4953      3.1644     0.26999     -1.2174     -.81475    
  1.3362      4.5334      7.8101      10.304      11.529      11.463      10.461      9.0562      7.6428      6.3669    
  5.3079      4.4963      3.9284      3.5847      3.4457      3.5007      3.7526      4.2165      4.9129      5.8561    
  7.0363      8.4016      9.8480      11.152      11.810      11.335      9.5133      6.5645      7.1992      4.4036    
  2.2077      1.3362      2.0831      4.1849      6.9394      9.4991      11.188      11.704      11.150      9.9254    
  8.5085      7.1490      5.9561      4.9889      4.2641      3.7713      3.4899      3.4023      3.5010      3.7918    
  4.2912      5.0187      5.9851      7.1753      8.5320      9.9485      11.198      11.810      11.369      9.7416    
  10.151      8.1401      6.0301      4.5334      4.1850      5.1108      6.9751      9.1303      10.887      11.766    
  11.634      10.692      9.3469      7.9566      6.6684      5.5676      4.6947      4.0546      3.6324      3.4076    
  3.3650      3.5006      3.8223      4.3467      5.0918      6.0649      7.2465      8.5762      9.9485      11.152    
  11.769      11.459      11.566      10.657      9.2335      7.8101      6.9394      6.9751      7.9134      9.3967    
  10.875      11.834      11.983      11.329      10.134      8.7625      7.4235      6.2201      5.2160      4.4354    
  3.8745      3.5158      3.3402      3.3353      3.4998      3.8429      4.3807      5.1291      6.0920      7.2465    
  8.5320      9.8480      11.013      11.677      11.515      11.638      11.152      10.304      9.4991      9.1303    
  9.3968      10.209      11.234      12.041      12.292      11.857      10.847      9.5445      8.1999      6.9319    
  5.8216      4.9134      4.2190      3.7290      3.4251      3.2901      3.3145      3.4990      3.8533      4.3922    
  5.1291      6.0649      7.1753      8.4016      9.6517      10.782      10.460      11.266      11.619      11.529    
  11.188      10.887      10.875      11.234      11.832      12.391      12.611      12.305      11.470      10.282    
  8.9767      7.6865      6.5027      5.4872      4.6692      4.0518      3.6223      3.3630      3.2592      3.3038    
  3.4987      3.8533      4.3807      5.0918      5.9851      7.0363      8.1911      9.3683      9.0103      10.054    
  10.914      11.463      11.704      11.766      11.834      12.041      12.391      12.746      12.898      12.666    
  11.989      10.949      9.7292      8.4638      7.2469      6.1530      5.2281      4.4905      3.9380      3.5570    
  3.3314      3.2488      3.3038      3.4990      3.8429      4.3467      5.0187      5.8561      6.8360      7.9106    
  7.5727      8.5920      9.5782      10.461      11.150      11.634      11.983      12.292      12.611      12.898    
  13.034      12.883      12.365      11.504      10.423      9.2359      8.0349      6.9013      5.8953      5.0516    
  4.3816      3.8805      3.5351      3.3314      3.2592      3.3145      3.4998      3.8223      4.2912      4.9129    
  5.6841      6.5842      6.2920      7.1919      8.1303      9.0562      9.9254      10.692      11.329      11.857    
  12.305      12.666      12.883      12.864      12.538      11.898      11.012      9.9632      8.8362      7.7131    
  6.6638      5.7378      4.9623      4.3451      3.8805      3.5570      3.3630      3.2901      3.3353      3.5006    
  3.7918      4.2165      4.7793      5.4768      5.2439      5.9729      6.7845      7.6429      8.5085      9.3469    
  10.134      10.847      11.470      11.989      12.365      12.538      12.450      12.076      11.441      10.595    
  9.6074      8.5559      7.5141      6.5430      5.6848      4.9623      4.3816      3.9380      3.6223      3.4251    
  3.3402      3.3650      3.5010      3.7526      4.1256      4.6237      4.4534      4.9959      5.6403      6.3669    
  7.1490      7.9566      8.7625      9.5445      10.282      10.949      11.504      11.898      12.076      11.999    
  11.659      11.074      10.294      9.3831      8.4118      7.4469      6.5430      5.7378      5.0516      4.4905    
  4.0518      3.7290      3.5158      3.4076      3.4023      3.5007      3.7060      4.0227      3.9125      4.2758    
  4.7433      5.3080      5.9561      6.6685      7.4235      8.1999      8.9767      9.7292      10.423      11.012    
  11.441      11.659      11.632      11.351      10.839      10.137      9.3065      8.4118      7.5141      6.6638    
  5.8953      5.2281      4.6692      4.2190      3.8745      3.6324      3.4899      3.4457      3.4999      3.6546    
  3.6005      3.7997      4.0985      4.4964      4.9889      5.5676      6.2202      6.9319      7.6865      8.4638    
  9.2359      9.9632      10.595      11.074      11.351      11.393      11.189      10.757      10.137      9.3831    
  8.5559      7.7131      6.9013      6.1530      5.4872      4.9134      4.4354      4.0546      3.7713      3.5847    
  3.4942      3.4992      3.4989      3.5464      3.6893      3.9284      4.2641      4.6947      5.2160      5.8216    
  6.5028      7.2470      8.0349      8.8362      9.6074      10.294      10.839      11.189      11.310      11.189    
  10.839      10.294      9.6074      8.8362      8.0349      7.2469      6.5027      5.8216      5.2160      4.6947    
  4.2641      3.9284      3.6892      3.5463      3.6005      3.4993      3.4943      3.5848      3.7713      4.0547    
  4.4354      4.9134      5.4872      6.1530      6.9013      7.7131      8.5559      9.3831      10.137      10.757    
  11.189      11.393      11.351      11.074      10.595      9.9632      9.2359      8.4638      7.6865      6.9319    
  6.2201      5.5676      4.9889      4.4963      4.0985      3.7997      3.9125      3.6546      3.5000      3.4457    
  3.4900      3.6325      3.8746      4.2190      4.6692      5.2280      5.8953      6.6638      7.5141      8.4118    
  9.3065      10.137      10.839      11.351      11.632      11.659      11.441      11.012      10.423      9.7292    
  8.9767      8.1999      7.4235      6.6684      5.9561      5.3079      4.7433      4.2758      4.4534      4.0227    
  3.7061      3.5007      3.4023      3.4076      3.5159      3.7290      4.0518      4.4905      5.0516      5.7378    
  6.5430      7.4469      8.4118      9.3831      10.294      11.074      11.659      11.999      12.076      11.898    
  11.504      10.949      10.282      9.5445      8.7625      7.9566      7.1490      6.3669      5.6402      4.9959    
  5.2439      4.6237      4.1257      3.7527      3.5010      3.3650      3.3402      3.4251      3.6222      3.9380    
  4.3816      4.9623      5.6848      6.5430      7.5141      8.5559      9.6074      10.595      11.441      12.076    
  12.450      12.538      12.365      11.989      11.470      10.847      10.134      9.3469      8.5085      7.6428    
  6.7845      5.9728      6.2920      5.4768      4.7793      4.2165      3.7919      3.5006      3.3353      3.2901    
  3.3629      3.5570      3.8804      4.3450      4.9623      5.7378      6.6638      7.7131      8.8362      9.9632    
  11.012      11.898      12.538      12.864      12.883      12.666      12.305      11.857      11.329      10.692    
  9.9254      9.0562      8.1302      7.1919      7.5727      6.5842      5.6841      4.9130      4.2912      3.8223    
  3.4998      3.3145      3.2591      3.3313      3.5350      3.8804      4.3816      5.0516      5.8953      6.9013    
  8.0349      9.2359      10.423      11.504      12.365      12.883      13.034      12.898      12.611      12.292    
  11.983      11.634      11.150      10.461      9.5782      8.5920      9.0103      7.9106      6.8360      5.8562    
  5.0187      4.3467      3.8429      3.4990      3.3037      3.2487      3.3313      3.5570      3.9380      4.4905    
  5.2280      6.1530      7.2470      8.4638      9.7292      10.949      11.989      12.666      12.898      12.746    
  12.391      12.041      11.834      11.766      11.704      11.463      10.914      10.054      10.460      9.3683    
  8.1911      7.0363      5.9851      5.0918      4.3807      3.8532      3.4987      3.3037      3.2591      3.3629    
  3.6222      4.0518      4.6692      5.4872      6.5028      7.6865      8.9767      10.282      11.470      12.305    
  12.611      12.391      11.832      11.234      10.875      10.887      11.188      11.529      11.619      11.266    
  11.515      10.782      9.6517      8.4016      7.1753      6.0649      5.1291      4.3922      3.8532      3.4990    
  3.3145      3.2901      3.4251      3.7290      4.2190      4.9134      5.8216      6.9319      8.1999      9.5445    
  10.847      11.857      12.292      12.041      11.234      10.209      9.3967      9.1303      9.4991      10.304    
  11.152      11.638      11.566      11.677      11.013      9.8480      8.5320      7.2466      6.0920      5.1291    
  4.3807      3.8429      3.4998      3.3353      3.3402      3.5159      3.8746      4.4354      5.2160      6.2202    
  7.4235      8.7625      10.134      11.329      11.983      11.834      10.875      9.3968      7.9134      6.9751    
  6.9394      7.8101      9.2335      10.657      10.151      11.459      11.769      11.152      9.9486      8.5763    
  7.2466      6.0649      5.0918      4.3467      3.8223      3.5006      3.3650      3.4076      3.6325      4.0547    
  4.6947      5.5676      6.6685      7.9566      9.3469      10.692      11.634      11.766      10.887      9.1303    
  6.9751      5.1108      4.1849      4.5334      6.0300      8.1402      7.1993      9.7416      11.369      11.810    
  11.198      9.9486      8.5320      7.1753      5.9851      5.0187      4.2912      3.7919      3.5010      3.4023    
  3.4900      3.7713      4.2641      4.9889      5.9561      7.1490      8.5085      9.9254      11.150      11.704    
  11.188      9.4991      6.9394      4.1850      2.0831      1.3362      2.2077      4.4036      3.1645      6.5646    
  9.5134      11.335      11.810      11.152      9.8480      8.4016      7.0363      5.8562      4.9130      4.2165    
  3.7527      3.5007      3.4457      3.5848      3.9284      4.4964      5.3080      6.3669      7.6429      9.0562    
  10.461      11.463      11.529      10.304      7.8101      4.5334      1.3362     -.81475     -1.2174     0.27002    
 -1.0131      2.4954      6.3408      9.5134      11.369      11.769      11.013      9.6517      8.1911      6.8360    
  5.6841      4.7793      4.1257      3.7061      3.5000      3.4943      3.6893      4.0985      4.7433      5.6403    
  6.7845      8.1303      9.5782      10.914      11.619      11.152      9.2335      6.0301      2.2077     -1.2174    
 -3.2145     -3.1406     -4.1728     -1.4618      2.4954      6.5646      9.7416      11.459      11.677      10.782    
  9.3683      7.9106      6.5842      5.4768      4.6237      4.0227      3.6546      3.4993      3.5464      3.7997    
  4.2758      4.9959      5.9729      7.1919      8.5920      10.054      11.266      11.638      10.657      8.1401    
  4.4036     0.26999     -3.1406     -4.7981     -4.1726     -3.3007     -.51929      3.3165      7.1195      9.9678    
  11.378      11.369      10.356      8.9220      7.4848      6.1953      5.1329      4.3253      3.7653      3.4314    
  3.3038      3.3735      3.6458      4.1383      4.8734      5.8634      7.0905      8.4886      9.9313      11.082    
  11.359      10.291      7.7517      4.1130     0.21522     -2.8600     -3.3008     -4.1728     -2.8601     0.21529    
  4.1131      7.7517      10.290      11.359      11.082      9.9313      8.4886      7.0904      5.8634      4.8735    
  4.1383      3.6457      3.3735      3.3039      3.4315      3.7652      4.3252      5.1330      6.1954      7.4847    
  8.9219      10.356      11.369      11.378      9.9677      7.1193      3.3166     -.51922     -.41309     -2.7445    
 -3.1404     -1.4842      1.6835      5.3938      8.6309      10.680      11.303      10.723      9.4511      8.0217    
  6.6777      5.5257      4.6172      3.9598      3.5370      3.3269      3.3146      3.4985      3.8909      4.5133    
  5.3853      6.5082      7.8449      9.3055      10.712      11.598      11.406      9.7976      6.8496      3.1292    
  3.5839     0.52100     -1.2673     -1.2174     0.63577      3.6753      6.9624      9.6009      11.033      11.160    
  10.287      8.9346      7.5376      6.2619      5.1954      4.3739      3.7961      3.4426      3.2929      3.3354    
  3.5720      4.0177      4.6945      5.6197      6.7885      8.1555      9.6233      10.992      11.780      11.479    
  9.8322      6.9960      7.5423      4.6165      2.1527     0.92903      1.3363      3.2118      5.9126      8.5857    
  10.495      11.254      10.896      9.7806      8.4008      7.0531      5.8584      4.8841      4.1517      3.6525    
  3.3655      3.2724      3.3650      3.6486      4.1403      4.8614      5.8260      7.0235      8.4023      9.8606    
  11.188      11.919      11.611      10.080      10.502      8.4049      6.0778      4.2571      3.5508      4.1849    
  5.9068      8.0987      10.038      11.170      11.278      10.502      9.2315      7.8671      6.5853      5.4812    
  4.6025      3.9579      3.5332      3.3077      3.2655      3.4022      3.7257      4.2537      5.0065      5.9945    
  7.2022      8.5731      10.005      11.293      12.012      11.787      11.973      11.025      9.4486      7.7587    
  6.5510      6.2610      6.9750      8.3947      9.9724      11.142      11.534      11.082      10.005      8.6753    
  7.3524      6.1510      5.1434      4.3594      3.7978      3.4414      3.2705      3.2724      3.4456      3.8000    
  4.3533      5.1237      6.1176      7.3153      8.6584      10.047      11.299      12.043      11.991      12.118    
  11.548      10.510      9.4258      8.7427      8.7386      9.3967      10.416      11.352      11.802      11.566    
  10.698      9.4573      8.1370      6.8770      5.7663      4.8560      4.1620      3.6760      3.3795      3.2550    
  3.2929      3.4941      3.8693      4.4353      5.2075      6.1888      7.3567      8.6530      9.9838      11.197    
  10.984      11.833      12.165      11.966      11.426      10.863      10.582      10.732      11.234      11.819    
  12.161      12.012      11.313      10.198      8.9192      7.6414      6.4605      5.4447      4.6281      4.0158    
  3.5955      3.3493      3.2620      3.3269      3.5462      3.9309      4.4960      5.2539      6.2046      7.3237    
  8.5558      9.8156      9.5498      10.662      11.552      12.066      12.193      12.068      11.909      11.901    
  12.096      12.391      12.574      12.431      11.851      10.875      9.6775      8.4242      7.2122      6.1199    
  5.1975      4.4663      3.9246      3.5586      3.3519      3.2918      3.3735      3.6004      3.9825      4.5327    
  5.2605      6.1634      7.2172      8.3711      8.1070      9.1974      10.241      11.145      11.795      12.173    
  12.361      12.485      12.636      12.808      12.898      12.760      12.283      11.455      10.382      9.1997    
  8.0020      6.8707      5.8685      5.0325      4.3749      3.8909      3.5665      3.3875      3.3436      3.4314    
  3.6545      4.0215      4.5431      5.2263      6.0670      7.0422      6.8067      7.7759      8.7742      9.7428    
  10.626      11.356      11.902      12.298      12.599      12.828      12.951      12.883      12.539      11.889    
  10.987      9.9304      8.8004      7.6777      6.6325      5.7156      4.9545      4.3567      3.9157      3.6193    
  3.4556      3.4161      3.4986      3.7061      4.0459      4.5265      5.1528      5.9196      5.7285      6.5223    
  7.3932      8.2985      9.1918      10.032      10.786      11.423      11.940      12.339      12.605      12.691    
  12.538      12.113      11.437      10.566      9.5651      8.5089      7.4698      6.5084      5.6666      4.9661    
  4.4121      3.9988      3.7161      3.5541      3.5067      3.5720      3.7526      4.0542      4.4833      5.0430    
  4.9026      5.5029      6.2023      6.9760      7.7912      8.6120      9.4060      10.148      10.819      11.395    
  11.849      12.143      12.230      12.076      11.675      11.048      10.242      9.3180      8.3460      7.3903    
  6.5041      5.7236      5.0677      4.5408      4.1388      3.8543      3.6803      3.6122      3.6488      3.7919    
  4.0459      4.4154      4.3264      4.7382      5.2535      5.8614      6.5432      7.2746      8.0290      8.7815    
  9.5101      10.192      10.800      11.293      11.627      11.759      11.659      11.322      10.771      10.048    
  9.2113      8.3239      7.4445      6.6211      5.8863      5.2575      4.7400      4.3325      4.0305      3.8302    
  3.7288      3.7257      3.8224      4.0215      3.9825      4.2205      4.5579      4.9918      5.5146      6.1132    
  6.7708      7.4689      8.1887      8.9102      9.6085      10.250      10.790      11.180      11.377      11.351    
  11.099      10.637      10.005      9.2556      8.4467      7.6326      6.8572      6.1512      5.5315      5.0055    
  4.5749      4.2395      3.9988      3.8523      3.8002      3.8430      3.8533      3.9310      4.1030      4.3694    
  4.7287      5.1761      5.7036      6.3009      6.9562      7.6557      8.3809      9.1050      9.7900      10.388    
  10.849      11.126      11.189      11.030      10.662      10.120      9.4519      8.7110      7.9486      7.2060    
  6.5116      5.8829      5.3300      4.8591      4.4749      4.1807      3.9786      3.8693      3.9310      3.8534    
  3.8694      3.9786      4.1807      4.4750      4.8592      5.3300      5.8829      6.5116      7.2060      7.9487    
  8.7110      9.4518      10.120      10.663      11.030      11.189      11.126      10.849      10.388      9.7900    
  9.1050      8.3809      7.6557      6.9562      6.3008      5.7035      5.1761      4.7287      4.3694      4.1029    
  4.2206      3.9825      3.8430      3.8002      3.8524      3.9989      4.2396      4.5749      5.0055      5.5316    
  6.1512      6.8572      7.6325      8.4467      9.2557      10.005      10.637      11.099      11.351      11.377    
  11.180      10.790      10.250      9.6086      8.9102      8.1887      7.4689      6.7708      6.1132      5.5145    
  4.9917      4.5578      4.7383      4.3263      4.0215      3.8224      3.7258      3.7288      3.8302      4.0306    
  4.3325      4.7401      5.2575      5.8863      6.6211      7.4446      8.3239      9.2112      10.048      10.771    
  11.322      11.659      11.759      11.627      11.293      10.800      10.192      9.5101      8.7815      8.0290    
  7.2746      6.5432      5.8614      5.2536      5.5029      4.9026      4.4155      4.0460      3.7920      3.6488    
  3.6122      3.6804      3.8544      4.1388      4.5408      5.0677      5.7237      6.5041      7.3903      8.3460    
  9.3181      10.242      11.048      11.675      12.076      12.230      12.143      11.849      11.395      10.819    
  10.148      9.4060      8.6119      7.7912      6.9761      6.2023      6.5223      5.7285      5.0431      4.4833    
  4.0542      3.7527      3.5721      3.5068      3.5541      3.7161      3.9989      4.4122      4.9661      5.6666    
  6.5084      7.4699      8.5089      9.5650      10.566      11.437      12.113      12.538      12.691      12.605    
  12.339      11.940      11.423      10.786      10.032      9.1918      8.2985      7.3931      7.7759      6.8068    
  5.9196      5.1527      4.5265      4.0459      3.7061      3.4986      3.4161      3.4556      3.6194      3.9156    
  4.3566      4.9545      5.7156      6.6325      7.6777      8.8004      9.9305      10.987      11.889      12.539    
  12.883      12.951      12.828      12.599      12.298      11.903      11.356      10.626      9.7427      8.7742    
  9.1975      8.1070      7.0422      6.0670      5.2264      4.5431      4.0215      3.6545      3.4315      3.3436    
  3.3875      3.5665      3.8908      4.3749      5.0325      5.8685      6.8707      8.0020      9.1997      10.382    
  11.455      12.282      12.760      12.898      12.808      12.635      12.485      12.361      12.173      11.795    
  11.145      10.241      10.662      9.5497      8.3711      7.2173      6.1635      5.2605      4.5326      3.9825    
  3.6004      3.3735      3.2917      3.3518      3.5586      3.9245      4.4662      5.1975      6.1199      7.2123    
  8.4242      9.6775      10.875      11.851      12.431      12.574      12.391      12.096      11.901      11.909    
  12.068      12.193      12.066      11.552      11.832      10.984      9.8157      8.5559      7.3237      6.2046    
  5.2540      4.4960      3.9309      3.5462      3.3268      3.2621      3.3493      3.5954      4.0157      4.6281    
  5.4448      6.4605      7.6413      8.9192      10.198      11.313      12.012      12.160      11.819      11.234    
  10.732      10.582      10.863      11.426      11.966      12.164      12.118      11.991      11.197      9.9837    
  8.6529      7.3568      6.1889      5.2075      4.4353      3.8693      3.4941      3.2929      3.2550      3.3795    
  3.6760      4.1620      4.8560      5.7662      6.8770      8.1370      9.4574      10.698      11.566      11.802    
  11.352      10.416      9.3966      8.7386      8.7428      9.4258      10.510      11.548      11.025      11.973    
  12.043      11.299      10.047      8.6585      7.3153      6.1175      5.1237      4.3534      3.8001      3.4456    
  3.2724      3.2705      3.4414      3.7978      4.3593      5.1433      6.1511      7.3524      8.6752      10.005    
  11.082      11.534      11.142      9.9723      8.3947      6.9750      6.2610      6.5510      7.7587      9.4486    
  8.4049      10.502      11.787      12.012      11.293      10.005      8.5731      7.2022      5.9945      5.0065    
  4.2537      3.7256      3.4022      3.2656      3.3077      3.5332      3.9579      4.6025      5.4812      6.5853    
  7.8670      9.2315      10.502      11.278      11.170      10.038      8.0988      5.9068      4.1849      3.5507    
  4.2571      6.0779      4.6165      7.5422      10.080      11.611      11.919      11.188      9.8606      8.4024    
  7.0236      5.8259      4.8613      4.1403      3.6487      3.3650      3.2724      3.3655      3.6525      4.1518    
  4.8841      5.8583      7.0531      8.4009      9.7806      10.896      11.254      10.495      8.5858      5.9126    
  3.2118      1.3364     0.92920      2.1528     0.52101      3.5840      6.9961      9.8323      11.479      11.780    
  10.992      9.6233      8.1555      6.7884      5.6197      4.6945      4.0177      3.5719      3.3353      3.2930    
  3.4427      3.7960      4.3738      5.1954      6.2620      7.5376      8.9346      10.287      11.160      11.033    
  9.6008      6.9623      3.6753     0.63594     -1.2173     -1.2673     -2.7444     -.41292      3.1293      6.8495    
  9.7976      11.406      11.598      10.712      9.3054      7.8449      6.5082      5.3852      4.5132      3.8909    
  3.4986      3.3146      3.3268      3.5369      3.9598      4.6173      5.5258      6.6776      8.0217      9.4512    
  10.723      11.303      10.680      8.6309      5.3939      1.6835     -1.4843     -3.1404     -1.0127     -.41281    
  1.8297      5.0062      8.1779      10.529      11.616      11.445      10.381      8.9490      7.5208      6.2352    
  5.1691      4.3503      3.7729      3.4160      3.2591      3.2917      3.5167      3.9498      4.6126      5.5204    
  6.6640      7.9907      9.3948      10.645      11.242      10.724      8.9126      6.0622      2.8543     0.21551    
 -.51904     -1.4616     -.51906      1.9985      5.2944      8.4103      10.576      11.432      11.069      9.9085    
  8.4820      7.0976      5.8768      4.8853      4.1417      3.6350      3.3435      3.2487      3.3435      3.6350    
  4.1417      4.8853      5.8768      7.0976      8.4820      9.9085      11.069      11.432      10.576      8.4103    
  5.2944      1.9986      1.8297     -.41282     -1.0127     0.21544      2.8542      6.0621      8.9126      10.724    
  11.242      10.645      9.3948      7.9907      6.6640      5.5204      4.6126      3.9498      3.5167      3.2917    
  3.2591      3.4160      3.7729      4.3503      5.1691      6.2352      7.5208      8.9490      10.381      11.445    
  11.616      10.529      8.1779      5.0062      5.2539      2.3784     0.52118     0.27021      1.6836      4.2650    
  7.1764      9.5729      10.895      11.009      10.170      8.8581      7.4915      6.2354      5.1790      4.3607    
  3.7809      3.4215      3.2620      3.2901      3.5067      3.9254      4.5680      5.4534      6.5819      7.9171    
  9.3735      10.795      11.777      11.822      10.632      8.2773      8.7097      6.0090      3.5691      2.1529    
  2.2078      3.6754      6.0180      8.4506      10.252      11.007      10.701      9.6484      8.3155      7.0004    
  5.8263      4.8638      4.1374      3.6401      3.3521      3.2551      3.3402      3.6121      4.0870      4.7865    
  5.7267      6.9021      8.2691      9.7368      11.137      12.061      12.058      10.898      11.299      9.4159    
  7.1636      5.2350      4.2572      4.5335      5.9125      7.8580      9.6809      10.811      10.987      10.299    
  9.0988      7.7817      6.5325      5.4494      4.5845      3.9492      3.5310      3.3100      3.2705      3.4076    
  3.7288      4.2516      4.9968      5.9770      7.1812      8.5601      10.020      11.392      12.286      12.312    
  12.551      11.775      10.289      8.5508      7.1451      6.5509      6.9392      8.0987      9.5348      10.686    
  11.146      10.798      9.8155      8.5499      7.2723      6.1023      5.1166      4.3490      3.8008      3.4560    
  3.2959      3.3078      3.4900      3.8523      4.4128      5.1902      6.1931      7.4054      8.7743      10.206    
  11.542      12.435      12.482      12.730      12.240      11.190      9.9719      9.0442      8.7427      9.1301    
  9.9722      10.849      11.343      11.208      10.447      9.2867      8.0224      6.8042      5.7241      4.8375    
  4.1635      3.6958      3.4170      3.3101      3.3656      3.5848      3.9786      4.5643      5.3580      6.3642    
  7.5629      8.8993      10.283      11.575      11.479      12.404      12.797      12.604      11.979      11.232    
  10.697      10.582      10.875      11.351      11.688      11.609      11.009      9.9815      8.7647      7.5366    
  6.3947      5.4102      4.6205      4.0330      3.6368      3.4147      3.3522      3.4427      3.6892      4.1030    
  4.6998      5.4925      6.4818      7.6445      8.9266      10.243      10.087      11.251      12.184      12.709    
  12.786      12.533      12.173      11.926      11.900      12.041      12.160      12.036      11.522      10.621    
  9.4830      8.2813      7.1140      6.0597      5.1712      4.4716      3.9606      3.6252      3.4496      3.4217    
  3.5370      3.7997      4.2206      4.8131      5.5869      6.5390      7.6450      8.8533      8.6818      9.8199    
  10.899      11.817      12.442      12.736      12.775      12.702      12.642      12.635      12.611      12.431    
  11.969      11.185      10.155      9.0166      7.8637      6.7747      5.8124      5.0148      4.3950      3.9485    
  3.6620      3.5213      3.5168      3.6458      3.9125      4.3264      4.8987      5.6358      6.5322      7.5634    
  7.4032      8.4203      9.4549      10.442      11.317      11.996      12.440      12.684      12.803      12.852    
  12.828      12.666      12.283      11.630      10.741      9.7108      8.6179      7.5368      6.5351      5.6625    
  4.9463      4.3935      3.9977      3.7466      3.6284      3.6352      3.7653      4.0227      4.4155      4.9521    
  5.6364      6.4612      6.3293      7.1725      8.0818      9.0095      9.9031      10.715      11.403      11.931    
  12.301      12.537      12.647      12.605      12.365      11.889      11.188      10.318      9.3386      8.3168    