unknown system                          
   1.00000000000000     
    -2.450000    2.450000    1.274000
     2.450000   -2.450000    1.274000
     2.450000    2.450000   -1.274000
   Si
     2
Direct
  0.250000  0.750000  0.500000
  0.000000  0.000000  0.000000
 
   32   32   32
 -.53509770790E+01 -.41728182459E+01 -.10131409116E+01 0.31644891354E+01 0.71992536770E+01
 0.10151352446E+02 0.11565942852E+02 0.11515483384E+02 0.10460203497E+02 0.90103137037E+01
 0.75726629052E+01 0.62920034471E+01 0.52439143407E+01 0.44533763022E+01 0.39125150307E+01
 0.36004896892E+01 0.34988557585E+01 0.36004972277E+01 0.39125169414E+01 0.44533730229E+01
 0.52439186115E+01 0.62920132156E+01 0.75726638339E+01 0.90103069533E+01 0.10460202490E+02
 0.11515485500E+02 0.11565932854E+02 0.10151329578E+02 0.71992260542E+01 0.31644491794E+01
 -.10132003075E+01 -.41728690486E+01 -.41728690486E+01 -.47981186089E+01 -.31405836375E+01
 0.27002446724E+00 0.44035899683E+01 0.81401636172E+01 0.10657169127E+02 0.11638106396E+02
 0.11265611884E+02 0.10053893468E+02 0.85920397506E+01 0.71918736802E+01 0.59728338316E+01
 0.49959281587E+01 0.42758013671E+01 0.37997163920E+01 0.35463184042E+01 0.34992256815E+01
 0.36545791850E+01 0.40226897492E+01 0.46236659109E+01 0.54768299627E+01 0.65841707018E+01
 0.79106153390E+01 0.93683187203E+01 0.10782247128E+02 0.11676932841E+02 0.11458768190E+02
 0.97415712939E+01 0.65645288395E+01 0.24953318861E+01 -.14618842813E+01 -.10132003075E+01
 -.31406201060E+01 -.32145244517E+01 -.12173683639E+01 0.22076936769E+01 0.60300499814E+01
 0.92335349254E+01 0.11152337140E+02 0.11619014696E+02 0.10913755989E+02 0.95781895998E+01
 0.81302486668E+01 0.67844810980E+01 0.56402356699E+01 0.47432557564E+01 0.40985006120E+01
 0.36891981861E+01 0.34942055162E+01 0.34999127355E+01 0.37060459648E+01 0.41256175388E+01
 0.47793050077E+01 0.56840647093E+01 0.68360258862E+01 0.81911236258E+01 0.96517254176E+01
 0.11013285066E+02 0.11769023143E+02 0.11369413919E+02 0.95133404397E+01 0.63407932498E+01
 0.24953318861E+01 0.31644491794E+01 0.26998676027E+00 -.12173874114E+01 -.81475109116E+00
 0.13362374994E+01 0.45333991836E+01 0.78101116127E+01 0.10304133434E+02 0.11529345910E+02
 0.11463282781E+02 0.10460568925E+02 0.90561949133E+01 0.76428433720E+01 0.63669095539E+01
 0.53079226170E+01 0.44963203696E+01 0.39283794776E+01 0.35847437138E+01 0.34456713294E+01
 0.35006735378E+01 0.37526014075E+01 0.42164619105E+01 0.49129313424E+01 0.58561388840E+01
 0.70362762821E+01 0.84015708014E+01 0.98480429208E+01 0.11151505338E+02 0.11809887173E+02
 0.11335304157E+02 0.95133404397E+01 0.65645288395E+01 0.71992260542E+01 0.44035653494E+01
 0.22076812667E+01 0.13362402807E+01 0.20831119134E+01 0.41849402771E+01 0.69393646846E+01
 0.94991204574E+01 0.11188291204E+02 0.11704155364E+02 0.11150365176E+02 0.99254150009E+01
 0.85084652429E+01 0.71489949427E+01 0.59560625643E+01 0.49889034648E+01 0.42640831791E+01
 0.37712659260E+01 0.34899314375E+01 0.34022620381E+01 0.35009567615E+01 0.37918031379E+01
 0.42911693747E+01 0.50187250607E+01 0.59851243932E+01 0.71752589335E+01 0.85319566561E+01
 0.99485388986E+01 0.11197553974E+02 0.11809887173E+02 0.11369413919E+02 0.97415712939E+01
 0.10151329578E+02 0.81401492734E+01 0.60300510821E+01 0.45334159844E+01 0.41849588828E+01
 0.51108277321E+01 0.69750512044E+01 0.91302612057E+01 0.10886957547E+02 0.11766169260E+02
 0.11634324807E+02 0.10691981563E+02 0.93468756580E+01 0.79566293408E+01 0.66684457374E+01
 0.55676123878E+01 0.46946720926E+01 0.40546366782E+01 0.36324162379E+01 0.34075717005E+01
 0.33649823842E+01 0.35005807309E+01 0.38222733065E+01 0.43466698011E+01 0.50917808409E+01
 0.60648896342E+01 0.72465123312E+01 0.85762273629E+01 0.99485388986E+01 0.11151505338E+02
 0.11769023143E+02 0.11458768190E+02 0.11565932854E+02 0.10657168558E+02 0.92335449110E+01
 0.78101307584E+01 0.69393912740E+01 0.69750730341E+01 0.79133633378E+01 0.93967394355E+01
 0.10874972644E+02 0.11834034808E+02 0.11982871704E+02 0.11329000764E+02 0.10133778895E+02
 0.87625329207E+01 0.74234596914E+01 0.62201480091E+01 0.52160203131E+01 0.44354058360E+01
 0.38745287147E+01 0.35158196160E+01 0.33401899403E+01 0.33353456511E+01 0.34998199038E+01
 0.38428601260E+01 0.43806845844E+01 0.51291195229E+01 0.60919671129E+01 0.72465123312E+01
 0.85319566561E+01 0.98480429208E+01 0.11013285066E+02 0.11676932841E+02 0.11515485500E+02
 0.11638119374E+02 0.11152352351E+02 0.10304145826E+02 0.94991379235E+01 0.91302880837E+01
 0.93967610446E+01 0.10209451439E+02 0.11233630696E+02 0.12041456585E+02 0.12292086191E+02
 0.11856833667E+02 0.10846863104E+02 0.95445218085E+01 0.81998855336E+01 0.69319127349E+01
 0.58216354623E+01 0.49133846830E+01 0.42189948187E+01 0.37290269436E+01 0.34251357342E+01
 0.32901368711E+01 0.33145259021E+01 0.34989858730E+01 0.38532511988E+01 0.43922153798E+01
 0.51291195229E+01 0.60648896342E+01 0.71752589335E+01 0.84015708014E+01 0.96517254176E+01
 0.10782247128E+02 0.10460202490E+02 0.11265619327E+02 0.11619025593E+02 0.11529356394E+02
 0.11188304070E+02 0.10886978030E+02 0.10874996827E+02 0.11233645874E+02 0.11832396661E+02
 0.12391132610E+02 0.12610910124E+02 0.12304727576E+02 0.11470379052E+02 0.10282162547E+02
 0.89767382603E+01 0.76864945102E+01 0.65027408664E+01 0.54872120683E+01 0.46692196796E+01
 0.40517820414E+01 0.36222684127E+01 0.33629737917E+01 0.32591730699E+01 0.33037969085E+01
 0.34987052490E+01 0.38532511988E+01 0.43806845844E+01 0.50917808409E+01 0.59851243932E+01
 0.70362762821E+01 0.81911236258E+01 0.93683187203E+01 0.90103069533E+01 0.10053882684E+02
 0.10913750943E+02 0.11463291866E+02 0.11704174212E+02 0.11766187391E+02 0.11834048541E+02
 0.12041468131E+02 0.12391140670E+02 0.12746406665E+02 0.12897909751E+02 0.12666463012E+02
 0.11988820638E+02 0.10948710205E+02 0.97292230140E+01 0.84637872942E+01 0.72469455499E+01
 0.61529963970E+01 0.52280558775E+01 0.44904969733E+01 0.39379940218E+01 0.35570052043E+01
 0.33313978440E+01 0.32487520169E+01 0.33037969085E+01 0.34989858730E+01 0.38428601260E+01
 0.43466698011E+01 0.50187250607E+01 0.58561388840E+01 0.68360258862E+01 0.79106153390E+01
 0.75726638339E+01 0.85920292882E+01 0.95781773529E+01 0.10460569543E+02 0.11150379869E+02
 0.11634340672E+02 0.11982879722E+02 0.12292090949E+02 0.12610918070E+02 0.12897917197E+02
 0.13033991545E+02 0.12882942759E+02 0.12364918113E+02 0.11504418696E+02 0.10423029453E+02
 0.92358728933E+01 0.80349021166E+01 0.69013365585E+01 0.58953277617E+01 0.50515722854E+01
 0.43815809858E+01 0.38804645246E+01 0.35351098971E+01 0.33313978440E+01 0.32591730699E+01
 0.33145259021E+01 0.34998199038E+01 0.38222733065E+01 0.42911693747E+01 0.49129313424E+01
 0.56840647093E+01 0.65841707018E+01 0.62920132156E+01 0.71918852459E+01 0.81302537542E+01
 0.90561921238E+01 0.99254115889E+01 0.10691985046E+02 0.11329010132E+02 0.11856843255E+02
 0.12304735754E+02 0.12666471099E+02 0.12882948792E+02 0.12864272438E+02 0.12538404621E+02
 0.11897892885E+02 0.11011629560E+02 0.99631981598E+01 0.88362254580E+01 0.77131307721E+01
 0.66637563391E+01 0.57377709937E+01 0.49623321078E+01 0.43450661086E+01 0.38804645246E+01
 0.35570052043E+01 0.33629737917E+01 0.32901368711E+01 0.33353456511E+01 0.35005807309E+01
 0.37918031379E+01 0.42164619105E+01 0.47793050077E+01 0.54768299627E+01 0.52439186115E+01
 0.59728568544E+01 0.67845072924E+01 0.76428528906E+01 0.85084566254E+01 0.93468687897E+01
 0.10133788051E+02 0.10846879725E+02 0.11470388987E+02 0.11988824612E+02 0.12364924026E+02
 0.12538411050E+02 0.12449884126E+02 0.12075624092E+02 0.11440567938E+02 0.10594749652E+02
 0.96074115540E+01 0.85559204386E+01 0.75141201827E+01 0.65429812078E+01 0.56848450652E+01
 0.49623321078E+01 0.43815809858E+01 0.39379940218E+01 0.36222684127E+01 0.34251357342E+01
 0.33401899403E+01 0.33649823842E+01 0.35009567615E+01 0.37526014075E+01 0.41256175388E+01
 0.46236659109E+01 0.44533730229E+01 0.49959413379E+01 0.56402605509E+01 0.63669334673E+01
 0.71490061615E+01 0.79566320785E+01 0.87625400956E+01 0.95445344295E+01 0.10282170646E+02
 0.10948712264E+02 0.11504423588E+02 0.11897902502E+02 0.12075630347E+02 0.11999445490E+02
 0.11658693984E+02 0.11074330587E+02 0.10294174981E+02 0.93830576239E+01 0.84117519603E+01
 0.74468838758E+01 0.65429812078E+01 0.57377709937E+01 0.50515722854E+01 0.44904969733E+01
 0.40517820414E+01 0.37290269436E+01 0.35158196160E+01 0.34075717005E+01 0.34022620381E+01
 0.35006735378E+01 0.37060459648E+01 0.40226897492E+01 0.39125169414E+01 0.42758114693E+01
 0.47432714443E+01 0.53079500312E+01 0.59560952555E+01 0.66684681433E+01 0.74234681993E+01
 0.81998895964E+01 0.89767436682E+01 0.97292284666E+01 0.10423035781E+02 0.11011638436E+02
 0.11440575037E+02 0.11658695314E+02 0.11631659267E+02 0.11351478257E+02 0.10838586759E+02
 0.10137141362E+02 0.93065339594E+01 0.84117519603E+01 0.75141201827E+01 0.66637563391E+01
 0.58953277617E+01 0.52280558775E+01 0.46692196796E+01 0.42189948187E+01 0.38745287147E+01
 0.36324162379E+01 0.34899314375E+01 0.34456713294E+01 0.34999127355E+01 0.36545791850E+01
 0.36004972277E+01 0.37997436654E+01 0.40985295390E+01 0.44963530024E+01 0.49889416626E+01
 0.55676425610E+01 0.62201601343E+01 0.69319167044E+01 0.76865031962E+01 0.84637981689E+01
 0.92358789661E+01 0.99632023325E+01 0.10594755620E+02 0.11074333329E+02 0.11351475526E+02
 0.11392739686E+02 0.11189061297E+02 0.10757385876E+02 0.10137141362E+02 0.93830576239E+01
 0.85559204386E+01 0.77131307721E+01 0.69013365585E+01 0.61529963970E+01 0.54872120683E+01
 0.49133846830E+01 0.44354058360E+01 0.40546366782E+01 0.37712659260E+01 0.35847437138E+01
 0.34942055162E+01 0.34992256815E+01 0.34988557585E+01 0.35463585972E+01 0.36892547507E+01
 0.39284316402E+01 0.42641253366E+01 0.46947025820E+01 0.52160376544E+01 0.58216462556E+01
 0.65027539322E+01 0.72469576931E+01 0.80349049910E+01 0.88362236698E+01 0.96074163764E+01
 0.10294183487E+02 0.10838586836E+02 0.11189054792E+02 0.11310092829E+02 0.11189061297E+02
 0.10838586759E+02 0.10294174981E+02 0.96074115540E+01 0.88362254580E+01 0.80349021166E+01
 0.72469455499E+01 0.65027408664E+01 0.58216354623E+01 0.52160203131E+01 0.46946720926E+01
 0.42640831791E+01 0.39283794776E+01 0.36891981861E+01 0.35463184042E+01 0.36004896892E+01
 0.34992586483E+01 0.34942720901E+01 0.35848156210E+01 0.37713241046E+01 0.40546793757E+01
 0.44354343570E+01 0.49133995895E+01 0.54872192802E+01 0.61530019215E+01 0.69013388378E+01
 0.77131289009E+01 0.85559219585E+01 0.93830666368E+01 0.10137148507E+02 0.10757382710E+02
 0.11189054792E+02 0.11392739686E+02 0.11351478257E+02 0.11074330587E+02 0.10594749652E+02
 0.99631981598E+01 0.92358728933E+01 0.84637872942E+01 0.76864945102E+01 0.69319127349E+01
 0.62201480091E+01 0.55676123878E+01 0.49889034648E+01 0.44963203696E+01 0.40985006120E+01
 0.37997163920E+01 0.39125150307E+01 0.36546025337E+01 0.34999692600E+01 0.34457463649E+01
 0.34900047609E+01 0.36324771313E+01 0.38745693590E+01 0.42190080688E+01 0.46692127413E+01
 0.52280495177E+01 0.58953321239E+01 0.66637616661E+01 0.75141184082E+01 0.84117507341E+01
 0.93065404121E+01 0.10137148507E+02 0.10838586836E+02 0.11351475526E+02 0.11631659267E+02
 0.11658693984E+02 0.11440567938E+02 0.11011629560E+02 0.10423029453E+02 0.97292230140E+01
 0.89767382603E+01 0.81998855336E+01 0.74234596914E+01 0.66684457374E+01 0.59560625643E+01
 0.53079226170E+01 0.47432557564E+01 0.42758013671E+01 0.44533763022E+01 0.40227133093E+01
 0.37060941871E+01 0.35007418641E+01 0.34023352744E+01 0.34076332602E+01 0.35158567399E+01
 0.37290328978E+01 0.40517645795E+01 0.44904790627E+01 0.50515707374E+01 0.57377781632E+01
 0.65429802433E+01 0.74468755661E+01 0.84117507341E+01 0.93830666368E+01 0.10294183487E+02
 0.11074333329E+02 0.11658695314E+02 0.11999445490E+02 0.12075624092E+02 0.11897892885E+02
 0.11504418696E+02 0.10948710205E+02 0.10282162547E+02 0.95445218085E+01 0.87625329207E+01
 0.79566293408E+01 0.71489949427E+01 0.63669095539E+01 0.56402356699E+01 0.49959281587E+01
 0.52439143407E+01 0.46236846703E+01 0.41256599946E+01 0.37526629922E+01 0.35010205469E+01
 0.33650270026E+01 0.33402057431E+01 0.34251268877E+01 0.36222437930E+01 0.39379642477E+01
 0.43815585357E+01 0.49623234002E+01 0.56848445113E+01 0.65429802433E+01 0.75141184082E+01
 0.85559219585E+01 0.96074163764E+01 0.10594755620E+02 0.11440575037E+02 0.12075630347E+02
 0.12449884126E+02 0.12538404621E+02 0.12364918113E+02 0.11988820638E+02 0.11470379052E+02
 0.10846863104E+02 0.10133778895E+02 0.93468756580E+01 0.85084652429E+01 0.76428433720E+01
 0.67844810980E+01 0.59728338316E+01 0.62920034471E+01 0.54768326640E+01 0.47793300471E+01
 0.42165096200E+01 0.37918558023E+01 0.35006122128E+01 0.33353439831E+01 0.32901103228E+01
 0.33629339784E+01 0.35569565659E+01 0.38804146322E+01 0.43450316934E+01 0.49623234002E+01
 0.57377781632E+01 0.66637616661E+01 0.77131289009E+01 0.88362236698E+01 0.99632023325E+01
 0.11011638436E+02 0.11897902502E+02 0.12538411050E+02 0.12864272438E+02 0.12882942759E+02
 0.12666463012E+02 0.12304727576E+02 0.11856833667E+02 0.11329000764E+02 0.10691981563E+02
 0.99254150009E+01 0.90561949133E+01 0.81302486668E+01 0.71918736802E+01 0.75726629052E+01
 0.65841654454E+01 0.56840710177E+01 0.49129574377E+01 0.42912066275E+01 0.38223009263E+01
 0.34998190884E+01 0.33144913784E+01 0.32591127747E+01 0.33313254553E+01 0.35350409149E+01
 0.38804146322E+01 0.43815585357E+01 0.50515707374E+01 0.58953321239E+01 0.69013388378E+01
 0.80349049910E+01 0.92358789661E+01 0.10423035781E+02 0.11504423588E+02 0.12364924026E+02
 0.12882948792E+02 0.13033991545E+02 0.12897909751E+02 0.12610910124E+02 0.12292086191E+02
 0.11982871704E+02 0.11634324807E+02 0.11150365176E+02 0.10460568925E+02 0.95781895998E+01
 0.85920397506E+01 0.90103137037E+01 0.79106189607E+01 0.68360338788E+01 0.58561550673E+01
 0.50187475140E+01 0.43466915998E+01 0.38428663529E+01 0.34989582363E+01 0.33037314522E+01
 0.32486688976E+01 0.33313254553E+01 0.35569565659E+01 0.39379642477E+01 0.44904790627E+01
 0.52280495177E+01 0.61530019215E+01 0.72469576931E+01 0.84637981689E+01 0.97292284666E+01
 0.10948712264E+02 0.11988824612E+02 0.12666471099E+02 0.12897917197E+02 0.12746406665E+02
 0.12391132610E+02 0.12041456585E+02 0.11834034808E+02 0.11766169260E+02 0.11704155364E+02
 0.11463282781E+02 0.10913755989E+02 0.10053893468E+02 0.10460203497E+02 0.93683300525E+01
 0.81911435500E+01 0.70362998208E+01 0.59851462017E+01 0.50917980305E+01 0.43806921820E+01
 0.38532370794E+01 0.34986602115E+01 0.33037314522E+01 0.32591127747E+01 0.33629339784E+01
 0.36222437930E+01 0.40517645795E+01 0.46692127413E+01 0.54872192802E+01 0.65027539322E+01
 0.76865031962E+01 0.89767436682E+01 0.10282170646E+02 0.11470388987E+02 0.12304735754E+02
 0.12610918070E+02 0.12391140670E+02 0.11832396661E+02 0.11233630696E+02 0.10874972644E+02
 0.10886957547E+02 0.11188291204E+02 0.11529345910E+02 0.11619014696E+02 0.11265611884E+02
 0.11515483384E+02 0.10782255360E+02 0.96517407012E+01 0.84015946297E+01 0.71752896373E+01
 0.60649165750E+01 0.51291330459E+01 0.43922145076E+01 0.38532370794E+01 0.34989582363E+01
 0.33144913784E+01 0.32901103228E+01 0.34251268877E+01 0.37290328978E+01 0.42190080688E+01
 0.49133995895E+01 0.58216462556E+01 0.69319167044E+01 0.81998895964E+01 0.95445344295E+01
 0.10846879725E+02 0.11856843255E+02 0.12292090949E+02 0.12041468131E+02 0.11233645874E+02
 0.10209451439E+02 0.93967394355E+01 0.91302612057E+01 0.94991204574E+01 0.10304133434E+02
 0.11152337140E+02 0.11638106396E+02 0.11565942852E+02 0.11676941498E+02 0.11013285690E+02
 0.98480488855E+01 0.85319844990E+01 0.72465537689E+01 0.60919981782E+01 0.51291330459E+01
 0.43806921820E+01 0.38428663529E+01 0.34998190884E+01 0.33353439831E+01 0.33402057431E+01
 0.35158567399E+01 0.38745693590E+01 0.44354343570E+01 0.52160376544E+01 0.62201601343E+01
 0.74234681993E+01 0.87625400956E+01 0.10133788051E+02 0.11329010132E+02 0.11982879722E+02
 0.11834048541E+02 0.10874996827E+02 0.93967610446E+01 0.79133633378E+01 0.69750512044E+01
 0.69393646846E+01 0.78101116127E+01 0.92335349254E+01 0.10657169127E+02 0.10151352446E+02
 0.11458788024E+02 0.11769028902E+02 0.11151502934E+02 0.99485508508E+01 0.85762633442E+01
 0.72465537689E+01 0.60649165750E+01 0.50917980305E+01 0.43466915998E+01 0.38223009263E+01
 0.35006122128E+01 0.33650270026E+01 0.34076332602E+01 0.36324771313E+01 0.40546793757E+01
 0.46947025820E+01 0.55676425610E+01 0.66684681433E+01 0.79566320785E+01 0.93468687897E+01
 0.10691985046E+02 0.11634340672E+02 0.11766187391E+02 0.10886978030E+02 0.91302880837E+01
 0.69750730341E+01 0.51108277321E+01 0.41849402771E+01 0.45333991836E+01 0.60300499814E+01
 0.81401636172E+01 0.71992536770E+01 0.97416022086E+01 0.11369445174E+02 0.11809906316E+02
 0.11197560301E+02 0.99485508508E+01 0.85319844990E+01 0.71752896373E+01 0.59851462017E+01
 0.50187475140E+01 0.42912066275E+01 0.37918558023E+01 0.35010205469E+01 0.34023352744E+01
 0.34900047609E+01 0.37713241046E+01 0.42641253366E+01 0.49889416626E+01 0.59560952555E+01
 0.71490061615E+01 0.85084566254E+01 0.99254115889E+01 0.11150379869E+02 0.11704174212E+02
 0.11188304070E+02 0.94991379235E+01 0.69393912740E+01 0.41849588828E+01 0.20831119134E+01
 0.13362374994E+01 0.22076936769E+01 0.44035899683E+01 0.31644891354E+01 0.65645698511E+01
 0.95133906141E+01 0.11335350518E+02 0.11809906316E+02 0.11151502934E+02 0.98480488855E+01
 0.84015946297E+01 0.70362998208E+01 0.58561550673E+01 0.49129574377E+01 0.42165096200E+01
 0.37526629922E+01 0.35007418641E+01 0.34457463649E+01 0.35848156210E+01 0.39284316402E+01
 0.44963530024E+01 0.53079500312E+01 0.63669334673E+01 0.76428528906E+01 0.90561921238E+01
 0.10460569543E+02 0.11463291866E+02 0.11529356394E+02 0.10304145826E+02 0.78101307584E+01
 0.45334159844E+01 0.13362402807E+01 -.81475109116E+00 -.12173683639E+01 0.27002446724E+00
 -.10131409116E+01 0.24953915362E+01 0.63408483657E+01 0.95133906141E+01 0.11369445174E+02
 0.11769028902E+02 0.11013285690E+02 0.96517407012E+01 0.81911435500E+01 0.68360338788E+01
 0.56840710177E+01 0.47793300471E+01 0.41256599946E+01 0.37060941871E+01 0.34999692600E+01
 0.34942720901E+01 0.36892547507E+01 0.40985295390E+01 0.47432714443E+01 0.56402605509E+01
 0.67845072924E+01 0.81302537542E+01 0.95781773529E+01 0.10913750943E+02 0.11619025593E+02
 0.11152352351E+02 0.92335449110E+01 0.60300510821E+01 0.22076812667E+01 -.12173874114E+01
 -.32145244517E+01 -.31405836375E+01 -.41728182459E+01 -.14618115205E+01 0.24953915362E+01
 0.65645698511E+01 0.97416022086E+01 0.11458788024E+02 0.11676941498E+02 0.10782255360E+02
 0.93683300525E+01 0.79106189607E+01 0.65841654454E+01 0.54768326640E+01 0.46236846703E+01
 0.40227133093E+01 0.36546025337E+01 0.34992586483E+01 0.35463585972E+01 0.37997436654E+01
 0.42758114693E+01 0.49959413379E+01 0.59728568544E+01 0.71918852459E+01 0.85920292882E+01
 0.10053882684E+02 0.11265619327E+02 0.11638119374E+02 0.10657168558E+02 0.81401492734E+01
 0.44035653494E+01 0.26998676027E+00 -.31406201060E+01 -.47981186089E+01 -.41726392856E+01
 -.33007339873E+01 -.51929039140E+00 0.33165435492E+01 0.71194627810E+01 0.99678159162E+01
 0.11377505876E+02 0.11369383390E+02 0.10355944511E+02 0.89219952125E+01 0.74847648463E+01
 0.61952958572E+01 0.51329135551E+01 0.43252683475E+01 0.37652730576E+01 0.34314326490E+01
 0.33038421442E+01 0.33735143753E+01 0.36457753952E+01 0.41383296626E+01 0.48734405259E+01
 0.58633687091E+01 0.70905032808E+01 0.84886406346E+01 0.99312906764E+01 0.11082090567E+02
 0.11359473970E+02 0.10290525825E+02 0.77516897791E+01 0.41130060273E+01 0.21521946922E+00
 -.28599880042E+01 -.33007712465E+01 -.41727739679E+01 -.28600565476E+01 0.21528566769E+00
 0.41130923662E+01 0.77516825823E+01 0.10290474946E+02 0.11359496758E+02 0.11082181066E+02
 0.99313290830E+01 0.84885812528E+01 0.70904453734E+01 0.58633991011E+01 0.48734969154E+01
 0.41383053993E+01 0.36456992570E+01 0.33735079537E+01 0.33039167497E+01 0.34314639667E+01
 0.37652079976E+01 0.43252221771E+01 0.51329825790E+01 0.61953900444E+01 0.74847472161E+01
 0.89219044328E+01 0.10355927950E+02 0.11369447491E+02 0.11377500906E+02 0.99676858755E+01
 0.71193491083E+01 0.33165680092E+01 -.51921642798E+00 -.41309359262E+00 -.27445238971E+01
 -.31404199814E+01 -.14842324870E+01 0.16834755261E+01 0.53937522634E+01 0.86309112914E+01
 0.10679662401E+02 0.11303276953E+02 0.10723177449E+02 0.94510923096E+01 0.80216948175E+01
 0.66777106670E+01 0.55257430689E+01 0.46172104298E+01 0.39597789168E+01 0.35369985216E+01
 0.33268844620E+01 0.33145686278E+01 0.34984893122E+01 0.38909360057E+01 0.45132737039E+01
 0.53852596281E+01 0.65081516395E+01 0.78448599247E+01 0.93054972067E+01 0.10712350838E+02
 0.11597869336E+02 0.11405705828E+02 0.97976212834E+01 0.68495917886E+01 0.31292476377E+01
 0.35838582973E+01 0.52099703320E+00 -.12672901167E+01 -.12173910829E+01 0.63576689528E+00
 0.36752573698E+01 0.69623891674E+01 0.96008783757E+01 0.11032642335E+02 0.11160016497E+02
 0.10286657972E+02 0.89346459344E+01 0.75375864807E+01 0.62619015315E+01 0.51953565585E+01
 0.43739161247E+01 0.37960934261E+01 0.34426124584E+01 0.32928961363E+01 0.33353627882E+01
 0.35719743947E+01 0.40176683115E+01 0.46944776951E+01 0.56196941605E+01 0.67885179559E+01
 0.81555088426E+01 0.96232642060E+01 0.10992066084E+02 0.11779599953E+02 0.11479267588E+02
 0.98322179867E+01 0.69959551654E+01 0.75422569266E+01 0.46165498384E+01 0.21527498460E+01
 0.92903034757E+00 0.13362915019E+01 0.32118436702E+01 0.59125613103E+01 0.85857040885E+01
 0.10494862783E+02 0.11254062684E+02 0.10895600196E+02 0.97806131536E+01 0.84007895917E+01
 0.70530984614E+01 0.58583757438E+01 0.48841328388E+01 0.41517489926E+01 0.36524580008E+01
 0.33655472828E+01 0.32724247843E+01 0.33649875465E+01 0.36486291701E+01 0.41402501253E+01
 0.48613675561E+01 0.58259513963E+01 0.70235419139E+01 0.84023136306E+01 0.98606272373E+01
 0.11188204662E+02 0.11919421347E+02 0.11610601886E+02 0.10079513204E+02 0.10502249448E+02
 0.84048553722E+01 0.60778291399E+01 0.42570599319E+01 0.35507749544E+01 0.41849137801E+01
 0.59067752297E+01 0.80987263433E+01 0.10037979195E+02 0.11169789605E+02 0.11277502840E+02
 0.10502098490E+02 0.92314760275E+01 0.78670556439E+01 0.65853167583E+01 0.54811565631E+01
 0.46024672752E+01 0.39578920996E+01 0.35332161726E+01 0.33076706722E+01 0.32655067738E+01
 0.34021655373E+01 0.37256599602E+01 0.42537012771E+01 0.50064936524E+01 0.59945081293E+01
 0.72021922149E+01 0.85731315122E+01 0.10004881539E+02 0.11293008812E+02 0.12012293902E+02
 0.11787312842E+02 0.11973441303E+02 0.11024723227E+02 0.94485688026E+01 0.77587479310E+01
 0.65510349210E+01 0.62609727324E+01 0.69749790407E+01 0.83946937858E+01 0.99723737101E+01
 0.11142366555E+02 0.11534286049E+02 0.11082155374E+02 0.10004560060E+02 0.86752637061E+01
 0.73523662576E+01 0.61510247706E+01 0.51433510225E+01 0.43594251661E+01 0.37978435588E+01
 0.34413543468E+01 0.32704612139E+01 0.32724119580E+01 0.34456407386E+01 0.38000383319E+01
 0.43533483718E+01 0.51236606794E+01 0.61175650250E+01 0.73152971636E+01 0.86583976792E+01
 0.10047265762E+02 0.11298601684E+02 0.12043344881E+02 0.11990864531E+02 0.12117853203E+02
 0.11547673513E+02 0.10509806273E+02 0.94257715761E+01 0.87427361841E+01 0.87386283676E+01
 0.93967062073E+01 0.10416343499E+02 0.11351542178E+02 0.11802051869E+02 0.11566260575E+02
 0.10697870656E+02 0.94573306835E+01 0.81369966846E+01 0.68770287585E+01 0.57662729901E+01
 0.48560105982E+01 0.41619833654E+01 0.36759592833E+01 0.33794990485E+01 0.32550464519E+01
 0.32929018849E+01 0.34940585277E+01 0.38693178178E+01 0.44353321608E+01 0.52074730796E+01
 0.61888048261E+01 0.73567170164E+01 0.86529710879E+01 0.99837600337E+01 0.11197191288E+02
 0.10984484531E+02 0.11832565225E+02 0.12164523401E+02 0.11966314062E+02 0.11426438716E+02
 0.10863087789E+02 0.10581976710E+02 0.10731870378E+02 0.11233515603E+02 0.11819448485E+02
 0.12160507803E+02 0.12012074182E+02 0.11312512320E+02 0.10197741410E+02 0.89191904426E+01
 0.76413563455E+01 0.64604987156E+01 0.54447201111E+01 0.46280980612E+01 0.40157923400E+01
 0.35955125796E+01 0.33492620093E+01 0.32620427391E+01 0.33268519850E+01 0.35462376423E+01
 0.39309376165E+01 0.44959923836E+01 0.52539226577E+01 0.62045749573E+01 0.73237408356E+01
 0.85558184862E+01 0.98156119206E+01 0.95497611728E+01 0.10662091801E+02 0.11551574429E+02
 0.12065814974E+02 0.12192634231E+02 0.12068352090E+02 0.11909483794E+02 0.11900540324E+02
 0.12096147414E+02 0.12391109830E+02 0.12573682616E+02 0.12430871889E+02 0.11850674742E+02
 0.10874565842E+02 0.96775402623E+01 0.84242273174E+01 0.72122415927E+01 0.61198595689E+01
 0.51975402502E+01 0.44662986693E+01 0.39245742938E+01 0.35586015732E+01 0.33518631438E+01
 0.32918021439E+01 0.33734918342E+01 0.36003624823E+01 0.39824573604E+01 0.45326534024E+01
 0.52604965437E+01 0.61633967355E+01 0.72172433326E+01 0.83710509005E+01 0.81069880245E+01
 0.91973965311E+01 0.10240904555E+02 0.11144582291E+02 0.11795343192E+02 0.12173328963E+02
 0.12360859389E+02 0.12484875090E+02 0.12635558836E+02 0.12807594818E+02 0.12897849459E+02
 0.12759673795E+02 0.12282525460E+02 0.11455176656E+02 0.10381770179E+02 0.91997057879E+01
 0.80020159147E+01 0.68706867662E+01 0.58685178207E+01 0.50324709141E+01 0.43749449589E+01
 0.38908547956E+01 0.35665496569E+01 0.33875262492E+01 0.33436196353E+01 0.34314486123E+01
 0.36545047280E+01 0.40215038658E+01 0.45430903626E+01 0.52263096607E+01 0.60669730600E+01
 0.70422106163E+01 0.68067332209E+01 0.77758838652E+01 0.87741741151E+01 0.97427737888E+01
 0.10626269649E+02 0.11356434942E+02 0.11902479739E+02 0.12298031712E+02 0.12598604287E+02
 0.12828472168E+02 0.12951283620E+02 0.12882963158E+02 0.12539087232E+02 0.11889138557E+02
 0.10987199421E+02 0.99304453370E+01 0.88004277977E+01 0.76777061829E+01 0.66325280244E+01
 0.57155959402E+01 0.49545404626E+01 0.43566517972E+01 0.39156668731E+01 0.36193450100E+01
 0.34555577935E+01 0.34161340817E+01 0.34985804589E+01 0.37060553054E+01 0.40458794632E+01
 0.45265132536E+01 0.51527588985E+01 0.59196311169E+01 0.57284897870E+01 0.65223416627E+01
 0.73931615278E+01 0.82984598525E+01 0.91917661046E+01 0.10031809320E+02 0.10785933295E+02
 0.11423364183E+02 0.11939531851E+02 0.12339033545E+02 0.12605331272E+02 0.12691292155E+02
 0.12538408412E+02 0.12113222904E+02 0.11437134396E+02 0.10565954537E+02 0.95650524447E+01
 0.85088665159E+01 0.74698455706E+01 0.65084492484E+01 0.56665964986E+01 0.49661377504E+01
 0.44121250513E+01 0.39988368830E+01 0.37160862786E+01 0.35541499859E+01 0.35067190964E+01
 0.35720250726E+01 0.37526348812E+01 0.40542436762E+01 0.44832813815E+01 0.50429991766E+01
 0.49025994651E+01 0.55029269813E+01 0.62022909133E+01 0.69760255010E+01 0.77911996551E+01
 0.86119736778E+01 0.94060205378E+01 0.10148381177E+02 0.10819238490E+02 0.11395418344E+02
 0.11849267870E+02 0.12142685213E+02 0.12229720717E+02 0.12075652938E+02 0.11674639325E+02
 0.11047949367E+02 0.10241575099E+02 0.93180253972E+01 0.83459690321E+01 0.73903134617E+01
 0.65041064089E+01 0.57236221055E+01 0.50676548288E+01 0.45407768764E+01 0.41388252872E+01
 0.38543241513E+01 0.36802958657E+01 0.36122308489E+01 0.36488151032E+01 0.37919314849E+01
 0.40458781382E+01 0.44154212001E+01 0.43263996921E+01 0.47382397066E+01 0.52534978240E+01
 0.58613764663E+01 0.65432435301E+01 0.72746018156E+01 0.80289510245E+01 0.87814985759E+01
 0.95101466648E+01 0.10192370546E+02 0.10799546483E+02 0.11293175219E+02 0.11627455922E+02
 0.11758886431E+02 0.11658707427E+02 0.11322122928E+02 0.10770615929E+02 0.10047757112E+02
 0.92112654639E+01 0.83238759628E+01 0.74445257707E+01 0.66211098252E+01 0.58863072055E+01
 0.52574734697E+01 0.47400432673E+01 0.43324573142E+01 0.40305173816E+01 0.38301575681E+01
 0.37287796154E+01 0.37257385017E+01 0.38223668744E+01 0.40215286319E+01 0.39824727991E+01
 0.42205102146E+01 0.45578511225E+01 0.49917875077E+01 0.55145599901E+01 0.61131771083E+01
 0.67708028906E+01 0.74689198643E+01 0.81887360700E+01 0.89102318858E+01 0.96085292605E+01
 0.10249707862E+02 0.10789883433E+02 0.11180210483E+02 0.11376817276E+02 0.11351477209E+02
 0.11098628287E+02 0.10636776647E+02 0.10004910918E+02 0.92556442725E+01 0.84467366744E+01
 0.76325568932E+01 0.68572440479E+01 0.61512006581E+01 0.55315359963E+01 0.50055081575E+01
 0.45749136035E+01 0.42395160626E+01 0.39987718449E+01 0.38523237884E+01 0.38001743148E+01
 0.38430199142E+01 0.38533401741E+01 0.39309843565E+01 0.41029609762E+01 0.43694468917E+01
 0.47287406992E+01 0.51761008896E+01 0.57035842800E+01 0.63008846237E+01 0.69561914330E+01
 0.76556842409E+01 0.83809280245E+01 0.91050305558E+01 0.97900359279E+01 0.10388263234E+02
 0.10848531650E+02 0.11125540136E+02 0.11189070888E+02 0.11030097647E+02 0.10662479243E+02
 0.10120327538E+02 0.94518577161E+01 0.87109963128E+01 0.79486459238E+01 0.72059684613E+01
 0.65115834540E+01 0.58829189960E+01 0.53299934266E+01 0.48591114366E+01 0.44748910414E+01
 0.41807049248E+01 0.39785725559E+01 0.38693471692E+01 0.39309603541E+01 0.38534089789E+01
 0.38694155144E+01 0.39785687923E+01 0.41806902168E+01 0.44749542371E+01 0.48592167759E+01
 0.53300347563E+01 0.58828877877E+01 0.65115706384E+01 0.72060094548E+01 0.79486753926E+01
 0.87109725297E+01 0.94518305168E+01 0.10120345231E+02 0.10662509433E+02 0.11030089614E+02
 0.11189037635E+02 0.11125527190E+02 0.10848542916E+02 0.10388265725E+02 0.97900182692E+01
 0.91050169851E+01 0.83809365922E+01 0.76556962222E+01 0.69561733470E+01 0.63008361258E+01
 0.57035469898E+01 0.51761007199E+01 0.47287371647E+01 0.43693845915E+01 0.41028693784E+01
 0.42205511394E+01 0.39824815225E+01 0.38429889479E+01 0.38001658822E+01 0.38523815532E+01
 0.39988673575E+01 0.42395865070E+01 0.45749354035E+01 0.50055160790E+01 0.55315645512E+01
 0.61512305614E+01 0.68572381995E+01 0.76325313599E+01 0.84467417732E+01 0.92556773779E+01
 0.10004914610E+02 0.10636737480E+02 0.11098603319E+02 0.11351491686E+02 0.11376814762E+02
 0.11180155753E+02 0.10789838367E+02 0.10249732771E+02 0.96085739432E+01 0.89102137434E+01
 0.81886781445E+01 0.74689101737E+01 0.67708424395E+01 0.61131747122E+01 0.55144810266E+01