   2   2   0   0
  0.1529437E+02  0.3691622E-09  0.3691622E-09  0.3691622E-09  0.5000000E-15
  1.000000000000000E-004
  CAR 
 unknown system                          
     20.93001318     -6.61564593  301      8.70525800      1.00000000
     -6.616  0.0000E+00  0.0000E+00
     -6.524  0.0000E+00  0.0000E+00
     -6.432  0.0000E+00  0.0000E+00
     -6.340  0.0000E+00  0.0000E+00
     -6.248  0.0000E+00  0.0000E+00
     -6.157  0.0000E+00  0.0000E+00
     -6.065  0.0000E+00  0.0000E+00
     -5.973  0.0000E+00  0.0000E+00
     -5.881  0.0000E+00  0.0000E+00
     -5.789  0.2986E-17  0.2741E-18
     -5.697  0.5404E-15  0.4989E-16
     -5.606  0.6814E-13  0.6306E-14
     -5.514  0.5682E-11  0.5280E-12
     -5.422  0.3131E-09  0.2927E-10
     -5.330  0.1141E-07  0.1077E-08
     -5.238  0.2750E-06  0.2633E-07
     -5.147  0.4393E-05  0.4297E-06
     -5.055  0.4653E-04  0.4702E-05
     -4.963  0.3271E-03  0.3474E-04
     -4.871  0.1528E-02  0.1750E-03
     -4.779  0.4744E-02  0.6106E-03
     -4.687  0.9798E-02  0.1510E-02
     -4.596  0.1347E-01  0.2747E-02
     -4.504  0.1233E-01  0.3879E-02
     -4.412  0.7508E-02  0.4568E-02
     -4.320  0.3043E-02  0.4848E-02
     -4.228  0.8205E-03  0.4923E-02
     -4.137  0.1470E-03  0.4937E-02
     -4.045  0.1750E-04  0.4938E-02
     -3.953  0.1753E-05  0.4938E-02
     -3.861  0.6951E-05  0.4939E-02
     -3.769  0.8431E-04  0.4947E-02
     -3.677  0.6856E-03  0.5010E-02
     -3.586  0.3703E-02  0.5350E-02
     -3.494  0.1329E-01  0.6570E-02
     -3.402  0.3173E-01  0.9484E-02
     -3.310  0.5041E-01  0.1411E-01
     -3.218  0.5331E-01  0.1901E-01
     -3.127  0.3753E-01  0.2245E-01
     -3.035  0.1758E-01  0.2407E-01
     -2.943  0.5480E-02  0.2457E-01
     -2.851  0.1135E-02  0.2468E-01
     -2.759  0.1563E-03  0.2469E-01
     -2.667  0.1464E-04  0.2469E-01
     -2.576  0.7622E-05  0.2469E-01
     -2.484  0.8308E-04  0.2470E-01
     -2.392  0.6772E-03  0.2476E-01
     -2.300  0.3667E-02  0.2510E-01
     -2.208  0.1320E-01  0.2631E-01
     -2.117  0.3160E-01  0.2921E-01
     -2.025  0.5038E-01  0.3384E-01
     -1.933  0.5385E-01  0.3878E-01
     -1.841  0.4091E-01  0.4254E-01
     -1.749  0.3210E-01  0.4549E-01
     -1.657  0.4802E-01  0.4989E-01
     -1.566  0.8456E-01  0.5766E-01
     -1.474  0.1091E+00  0.6768E-01
     -1.382  0.9478E-01  0.7638E-01
     -1.290  0.5486E-01  0.8142E-01
     -1.198  0.2113E-01  0.8336E-01
     -1.107  0.5412E-02  0.8386E-01
     -1.015  0.9213E-03  0.8394E-01
     -0.923  0.1041E-03  0.8395E-01
     -0.831  0.7808E-05  0.8395E-01
     -0.739  0.3880E-06  0.8395E-01
     -0.647  0.1277E-07  0.8395E-01
     -0.556  0.2778E-09  0.8395E-01
     -0.464  0.4028E-11  0.8395E-01
     -0.372  0.3227E-11  0.8395E-01
     -0.280  0.2122E-09  0.8395E-01
     -0.188  0.9332E-08  0.8395E-01
     -0.097  0.2715E-06  0.8395E-01
     -0.005  0.5232E-05  0.8395E-01
      0.087  0.6682E-04  0.8396E-01
      0.179  0.5661E-03  0.8401E-01
      0.271  0.3185E-02  0.8430E-01
      0.363  0.1191E-01  0.8540E-01
      0.454  0.2963E-01  0.8812E-01
      0.546  0.4917E-01  0.9263E-01
      0.638  0.5540E-01  0.9772E-01
      0.730  0.4852E-01  0.1022E+00
      0.822  0.5743E-01  0.1074E+00
      0.914  0.1152E+00  0.1180E+00
      1.005  0.2102E+00  0.1373E+00
      1.097  0.2693E+00  0.1621E+00
      1.189  0.2333E+00  0.1835E+00
      1.281  0.1362E+00  0.1960E+00
      1.373  0.5360E-01  0.2009E+00
      1.464  0.1423E-01  0.2022E+00
      1.556  0.2547E-02  0.2024E+00
      1.648  0.3073E-03  0.2025E+00
      1.740  0.2498E-04  0.2025E+00
      1.832  0.1365E-05  0.2025E+00
      1.924  0.5021E-07  0.2025E+00
      2.015  0.5439E-08  0.2025E+00
      2.107  0.1268E-06  0.2025E+00
      2.199  0.2558E-05  0.2025E+00
      2.291  0.3479E-04  0.2025E+00
      2.383  0.3217E-03  0.2025E+00
      2.474  0.2046E-02  0.2027E+00
      2.566  0.9042E-02  0.2035E+00
      2.658  0.2806E-01  0.2061E+00
      2.750  0.6142E-01  0.2117E+00
      2.842  0.9470E-01  0.2204E+00
      2.934  0.1021E+00  0.2298E+00
      3.025  0.7624E-01  0.2368E+00
      3.117  0.3900E-01  0.2404E+00
      3.209  0.1355E-01  0.2416E+00
      3.301  0.3175E-02  0.2419E+00
      3.393  0.4992E-03  0.2420E+00
      3.484  0.5245E-04  0.2420E+00
      3.576  0.3672E-05  0.2420E+00
      3.668  0.1710E-06  0.2420E+00
      3.760  0.5621E-08  0.2420E+00
      3.852  0.1432E-07  0.2420E+00
      3.944  0.3938E-06  0.2420E+00
      4.035  0.7227E-05  0.2420E+00
      4.127  0.8791E-04  0.2420E+00
      4.219  0.7096E-03  0.2420E+00
      4.311  0.3804E-02  0.2424E+00
      4.403  0.1355E-01  0.2436E+00
      4.494  0.3212E-01  0.2466E+00
      4.586  0.5065E-01  0.2512E+00
      4.678  0.5319E-01  0.2561E+00
      4.770  0.3738E-01  0.2596E+00
      4.862  0.1867E-01  0.2613E+00
      4.954  0.1134E-01  0.2623E+00
      5.045  0.1973E-01  0.2641E+00
      5.137  0.4410E-01  0.2682E+00
      5.229  0.8105E-01  0.2756E+00
      5.321  0.1150E+00  0.2862E+00
      5.413  0.1200E+00  0.2972E+00
      5.504  0.8839E-01  0.3053E+00
      5.596  0.4572E-01  0.3095E+00
      5.688  0.2136E-01  0.3115E+00
      5.780  0.2302E-01  0.3136E+00
      5.872  0.4189E-01  0.3174E+00
      5.964  0.6289E-01  0.3232E+00
      6.055  0.8037E-01  0.3306E+00
      6.147  0.1065E+00  0.3404E+00
      6.239  0.1408E+00  0.3533E+00
      6.331  0.1501E+00  0.3671E+00
      6.423  0.1151E+00  0.3776E+00
      6.514  0.6745E-01  0.3838E+00
      6.606  0.5089E-01  0.3885E+00
      6.698  0.7389E-01  0.3953E+00
      6.790  0.1048E+00  0.4049E+00
      6.882  0.1042E+00  0.4145E+00
      6.974  0.6952E-01  0.4209E+00
      7.065  0.3185E-01  0.4238E+00
      7.157  0.1555E-01  0.4252E+00
      7.249  0.2796E-01  0.4278E+00
      7.341  0.7139E-01  0.4343E+00
      7.433  0.1303E+00  0.4463E+00
      7.524  0.1610E+00  0.4611E+00
      7.616  0.1346E+00  0.4734E+00
      7.708  0.7622E-01  0.4804E+00
      7.800  0.2963E-01  0.4832E+00
      7.892  0.1054E-01  0.4841E+00
      7.984  0.1476E-01  0.4855E+00
      8.075  0.4066E-01  0.4892E+00
      8.167  0.8128E-01  0.4967E+00
      8.259  0.1086E+00  0.5066E+00
      8.351  0.9677E-01  0.5155E+00
      8.443  0.5923E-01  0.5210E+00
      8.534  0.3293E-01  0.5240E+00
      8.626  0.3990E-01  0.5277E+00
      8.718  0.7465E-01  0.5345E+00
      8.810  0.1062E+00  0.5443E+00
      8.902  0.1018E+00  0.5536E+00
      8.994  0.6592E-01  0.5597E+00
      9.085  0.3254E-01  0.5627E+00
      9.177  0.2419E-01  0.5649E+00
      9.269  0.3749E-01  0.5683E+00
      9.361  0.5288E-01  0.5732E+00
      9.453  0.5132E-01  0.5779E+00
      9.544  0.3325E-01  0.5809E+00
      9.636  0.1434E-01  0.5823E+00
      9.728  0.4147E-02  0.5826E+00
      9.820  0.1142E-02  0.5827E+00
      9.912  0.2634E-02  0.5830E+00
     10.004  0.1194E-01  0.5841E+00
     10.095  0.3736E-01  0.5875E+00
     10.187  0.7798E-01  0.5947E+00
     10.279  0.1091E+00  0.6047E+00
     10.371  0.1040E+00  0.6142E+00
     10.463  0.7092E-01  0.6208E+00
     10.554  0.3959E-01  0.6244E+00
     10.646  0.2582E-01  0.6268E+00
     10.738  0.3385E-01  0.6299E+00
     10.830  0.6572E-01  0.6359E+00
     10.922  0.1068E+00  0.6457E+00
     11.014  0.1278E+00  0.6574E+00
     11.105  0.1179E+00  0.6683E+00
     11.197  0.9131E-01  0.6767E+00
     11.289  0.6008E-01  0.6822E+00
     11.381  0.3109E-01  0.6850E+00
     11.473  0.1162E-01  0.6861E+00
     11.564  0.2985E-02  0.6864E+00
     11.656  0.5162E-03  0.6864E+00
     11.748  0.5954E-04  0.6864E+00
     11.840  0.4566E-05  0.6864E+00
     11.932  0.3002E-06  0.6864E+00
     12.024  0.1711E-05  0.6864E+00
     12.115  0.2818E-04  0.6864E+00
     12.207  0.3091E-03  0.6865E+00
     12.299  0.2251E-02  0.6867E+00
     12.391  0.1089E-01  0.6877E+00
     12.483  0.3503E-01  0.6909E+00
     12.574  0.7519E-01  0.6978E+00
     12.666  0.1091E+00  0.7078E+00
     12.758  0.1138E+00  0.7182E+00
     12.850  0.1075E+00  0.7281E+00
     12.942  0.1267E+00  0.7398E+00
     13.034  0.1603E+00  0.7545E+00
     13.125  0.1579E+00  0.7690E+00
     13.217  0.1078E+00  0.7789E+00
     13.309  0.4969E-01  0.7834E+00
     13.401  0.1538E-01  0.7848E+00
     13.493  0.3248E-02  0.7851E+00
     13.585  0.9744E-03  0.7852E+00
     13.676  0.3521E-02  0.7856E+00
     13.768  0.1518E-01  0.7870E+00
     13.860  0.4404E-01  0.7910E+00
     13.952  0.8502E-01  0.7988E+00
     14.044  0.1092E+00  0.8088E+00
     14.135  0.9340E-01  0.8174E+00
     14.227  0.5317E-01  0.8223E+00
     14.319  0.2014E-01  0.8241E+00
     14.411  0.5072E-02  0.8246E+00
     14.503  0.8497E-03  0.8247E+00
     14.595  0.1075E-03  0.8247E+00
     14.686  0.1624E-03  0.8247E+00
     14.778  0.1217E-02  0.8248E+00
     14.870  0.6333E-02  0.8254E+00
     14.962  0.2196E-01  0.8274E+00
     15.054  0.5106E-01  0.8321E+00
     15.145  0.8147E-01  0.8396E+00
     15.237  0.9647E-01  0.8484E+00
     15.329  0.1024E+00  0.8578E+00
     15.421  0.1139E+00  0.8683E+00
     15.513  0.1171E+00  0.8791E+00
     15.605  0.9256E-01  0.8876E+00
     15.696  0.5691E-01  0.8928E+00
     15.788  0.4112E-01  0.8966E+00
     15.880  0.4836E-01  0.9010E+00
     15.972  0.5556E-01  0.9061E+00
     16.064  0.4648E-01  0.9104E+00
     16.155  0.3185E-01  0.9133E+00
     16.247  0.3627E-01  0.9166E+00
     16.339  0.7438E-01  0.9234E+00
     16.431  0.1329E+00  0.9357E+00
     16.523  0.1726E+00  0.9515E+00
     16.615  0.1681E+00  0.9669E+00
     16.706  0.1354E+00  0.9794E+00
     16.798  0.9743E-01  0.9883E+00
     16.890  0.6003E-01  0.9938E+00
     16.982  0.2864E-01  0.9965E+00
     17.074  0.1119E-01  0.9975E+00
     17.165  0.8437E-02  0.9983E+00
     17.257  0.1563E-01  0.9997E+00
     17.349  0.2487E-01  0.1002E+01
     17.441  0.2686E-01  0.1004E+01
     17.533  0.1934E-01  0.1006E+01
     17.625  0.9414E-02  0.1007E+01
     17.716  0.4072E-02  0.1007E+01
     17.808  0.6054E-02  0.1008E+01
     17.900  0.1756E-01  0.1010E+01
     17.992  0.3740E-01  0.1013E+01
     18.084  0.5326E-01  0.1018E+01
     18.175  0.5050E-01  0.1023E+01
     18.267  0.3188E-01  0.1026E+01
     18.359  0.1340E-01  0.1027E+01
     18.451  0.3892E-02  0.1027E+01
     18.543  0.1951E-02  0.1027E+01
     18.635  0.6996E-02  0.1028E+01
     18.726  0.2528E-01  0.1030E+01
     18.818  0.6148E-01  0.1036E+01
     18.910  0.9954E-01  0.1045E+01
     19.002  0.1073E+00  0.1055E+01
     19.094  0.7701E-01  0.1062E+01
     19.185  0.3679E-01  0.1065E+01
     19.277  0.1169E-01  0.1066E+01
     19.369  0.2472E-02  0.1067E+01
     19.461  0.3471E-03  0.1067E+01
     19.553  0.3236E-04  0.1067E+01
     19.645  0.2001E-05  0.1067E+01
     19.736  0.8195E-07  0.1067E+01
     19.828  0.2222E-08  0.1067E+01
     19.920  0.3985E-10  0.1067E+01
     20.012  0.4723E-12  0.1067E+01
     20.104  0.3702E-14  0.1067E+01
     20.195  0.0000E+00  0.1067E+01
     20.287  0.0000E+00  0.1067E+01
     20.379  0.0000E+00  0.1067E+01
     20.471  0.0000E+00  0.1067E+01
     20.563  0.0000E+00  0.1067E+01
     20.655  0.0000E+00  0.1067E+01
     20.746  0.0000E+00  0.1067E+01
     20.838  0.0000E+00  0.1067E+01
     20.930  0.0000E+00  0.1067E+01
