    2    2   15    1
  0.1529437E+02  0.3691622E-09  0.3691622E-09  0.3691622E-09  0.5000000E-15
  1.000000000000000E-004
  CAR 
 unknown system                          
      8      6      8
 
  0.0000000E+00  0.0000000E+00  0.0000000E+00  0.3703704E-01
    1       -4.615465   1.000000
    2        6.174935   1.000000
    3        6.299622   1.000000
    4        6.299628   1.000000
    5       10.534719   0.000000
    6       16.774265   0.000000
    7       17.367069   0.000000
    8       17.367077   0.000000
 
  0.3333333E+00 -0.7127914E-16  0.7127914E-16  0.2962963E+00
    1       -1.505045   1.000000
    2        5.354287   1.000000
    3        6.791683   1.000000
    4        7.462078   1.000000
    5       10.260001   0.000000
    6       12.655332   0.000000
    7       13.025432   0.000000
    8       14.008719   0.000000
 
  0.3333333E+00  0.3333333E+00  0.1273482E-15  0.2962963E+00
    1        1.044153   1.000000
    2        1.062600   1.000000
    3        6.271785   1.000000
    4        8.232939   0.999584
    5        8.800795   0.250415
    6       10.939314   0.000000
    7       15.466672   0.000000
    8       16.506040   0.000000
 
 -0.3333333E+00  0.3333333E+00  0.6449678E-17  0.1481481E+00
    1       -3.297408   1.000000
    2        0.567996   1.000000
    3        7.523937   1.000000
    4        9.354514   0.000002
    5       11.171825   0.000000
    6       13.067373   0.000000
    7       16.431740   0.000000
    8       18.924011   0.000000
 
 -0.3333333E+00  0.3333333E+00  0.3333333E+00  0.1481481E+00
    1       -2.011431   1.000000
    2        1.108023   1.000000
    3        2.893665   1.000000
    4        5.942035   1.000000
    5       15.152772   0.000000
    6       16.730574   0.000000
    7       18.071613   0.000000
    8       18.932107   0.000000
 
 -0.3333333E+00 -0.3333333E+00  0.3333333E+00  0.7407407E-01
    1        2.775264   1.000000
    2        2.870395   1.000000
    3        4.598764   1.000000
    4        4.598764   1.000000
    5        5.170285   1.000000
    6       15.141997   0.000000
    7       15.928626   0.000000
    8       15.928631   0.000000
