    2    2   15    1
  0.1529437E+02  0.3691622E-09  0.3691622E-09  0.3691622E-09  0.5000000E-15
  1.000000000000000E-004
  CAR 
 unknown system                          
      8      6      8
 
  0.0000000E+00  0.0000000E+00  0.0000000E+00  0.3703704E-01
    1       -4.615646   1.000000
    2        6.177280   1.000000
    3        6.298851   1.000000
    4        6.298858   1.000000
    5       10.532027   0.000000
    6       16.772139   0.000000
    7       17.366704   0.000000
    8       17.366713   0.000000
 
  0.3333333E+00 -0.7127914E-16  0.7127914E-16  0.2962963E+00
    1       -1.505301   1.000000
    2        5.354793   1.000000
    3        6.790144   1.000000
    4        7.462540   1.000000
    5       10.260690   0.000000
    6       12.654152   0.000000
    7       13.025193   0.000000
    8       14.008305   0.000000
 
  0.3333333E+00  0.3333333E+00  0.1273482E-15  0.2962963E+00
    1        1.043905   1.000000
    2        1.062502   1.000000
    3        6.271606   1.000000
    4        8.232459   0.999586
    5        8.800462   0.250413
    6       10.939419   0.000000
    7       15.466123   0.000000
    8       16.505694   0.000000
 
 -0.3333333E+00  0.3333333E+00  0.6449678E-17  0.1481481E+00
    1       -3.297546   1.000000
    2        0.568045   1.000000
    3        7.523119   1.000000
    4        9.354796   0.000002
    5       11.170839   0.000000
    6       13.067591   0.000000
    7       16.430291   0.000000
    8       18.923866   0.000000
 
 -0.3333333E+00  0.3333333E+00  0.3333333E+00  0.1481481E+00
    1       -2.011479   1.000000
    2        1.108811   1.000000
    3        2.892276   1.000000
    4        5.941411   1.000000
    5       15.153284   0.000000
    6       16.730616   0.000000
    7       18.071635   0.000000
    8       18.930013   0.000000
 
 -0.3333333E+00 -0.3333333E+00  0.3333333E+00  0.7407407E-01
    1        2.775190   1.000000
    2        2.871284   1.000000
    3        4.597204   1.000000
    4        4.597205   1.000000
    5        5.171127   1.000000
    6       15.143429   0.000000
    7       15.928375   0.000000
    8       15.928379   0.000000
