       N       E                     dE             d eps       ncg     rms          rms(c)
DAV:   1     0.775641420544E+00    0.77564E+00   -0.26713E+03    96   0.531E+02
DAV:   2    -0.984000899157E+01   -0.10616E+02   -0.99036E+01   152   0.590E+01
DAV:   3    -0.100132478228E+02   -0.17324E+00   -0.17324E+00   152   0.906E+00
DAV:   4    -0.100141121300E+02   -0.86431E-03   -0.86431E-03   136   0.534E-01
DAV:   5    -0.100141122689E+02   -0.13887E-06   -0.13922E-06   168   0.695E-03    0.160E+00
DAV:   6    -0.100094812311E+02    0.46310E-02   -0.21274E-03   120   0.349E-01    0.100E+00
DAV:   7    -0.100054303402E+02    0.40509E-02   -0.63500E-03    96   0.618E-01    0.367E-02
DAV:   8    -0.100054110434E+02    0.19297E-04   -0.11543E-04    72   0.873E-02
   1 F= -.10005411E+02 E0= -.99920207E+01  d E =-.100054E+02
       N       E                     dE             d eps       ncg     rms          rms(c)
DAV:   1    -0.102758768488E+02   -0.27045E+00   -0.13718E+01   152   0.219E+01    0.213E+00
DAV:   2    -0.101501343339E+02    0.12574E+00   -0.27952E-01   104   0.421E+00    0.122E+00
DAV:   3    -0.100858115403E+02    0.64323E-01   -0.17217E-01   152   0.224E+00    0.116E-01
DAV:   4    -0.100861388626E+02   -0.32732E-03   -0.51315E-03    96   0.585E-01    0.972E-02
DAV:   5    -0.100861215054E+02    0.17357E-04   -0.12234E-04    48   0.732E-02
   2 F= -.10086122E+02 E0= -.10072799E+02  d E =-.807105E-01
       N       E                     dE             d eps       ncg     rms          rms(c)
DAV:   1    -0.101952690580E+02   -0.10913E+00   -0.23179E+00   144   0.881E+00    0.857E-01
DAV:   2    -0.101767168767E+02    0.18552E-01   -0.46980E-02   112   0.172E+00    0.492E-01
DAV:   3    -0.101664782153E+02    0.10239E-01   -0.27468E-02   136   0.910E-01    0.477E-02
DAV:   4    -0.101665322090E+02   -0.53994E-04   -0.97289E-04    88   0.253E-01
   3 F= -.10166532E+02 E0= -.10153217E+02  d E =-.161121E+00
       N       E                     dE             d eps       ncg     rms          rms(c)
DAV:   1    -0.101665309725E+02   -0.52757E-04   -0.25967E-04    80   0.975E-02    0.163E-02
DAV:   2    -0.101665299147E+02    0.10577E-05   -0.10204E-05    48   0.262E-02
   4 F= -.10166530E+02 E0= -.10153214E+02  d E =-.161119E+00
       N       E                     dE             d eps       ncg     rms          rms(c)
DAV:   1    -0.101665346805E+02   -0.37080E-05   -0.47955E-05    48   0.407E-02    0.318E-03
DAV:   2    -0.101665345034E+02    0.17710E-06   -0.20127E-06    48   0.120E-02
   5 F= -.10166535E+02 E0= -.10153219E+02  d E =-.161123E+00
       N       E                     dE             d eps       ncg     rms          rms(c)
DAV:   1    -0.101665379763E+02   -0.32959E-05   -0.36502E-05    48   0.358E-02    0.356E-03
DAV:   2    -0.101665376383E+02    0.33804E-06   -0.13649E-06    48   0.966E-03
   6 F= -.10166538E+02 E0= -.10153222E+02  d E =-.161127E+00
       N       E                     dE             d eps       ncg     rms          rms(c)
DAV:   1    -0.101673813488E+02   -0.84337E-03   -0.20767E-02   104   0.827E-01    0.926E-02
DAV:   2    -0.101671297069E+02    0.25164E-03   -0.18134E-04    88   0.107E-01
   7 F= -.10167130E+02 E0= -.10153814E+02  d E =-.592069E-03
       N       E                     dE             d eps       ncg     rms          rms(c)
DAV:   1    -0.101669904108E+02    0.39094E-03   -0.23730E-04    48   0.910E-02    0.382E-03
DAV:   2    -0.101669900472E+02    0.36364E-06   -0.80100E-06    48   0.281E-02
   8 F= -.10166990E+02 E0= -.10153674E+02  d E =-.452409E-03
       N       E                     dE             d eps       ncg     rms          rms(c)
DAV:   1    -0.101671031980E+02   -0.11279E-03   -0.15983E-03   104   0.229E-01    0.258E-02
DAV:   2    -0.101670844823E+02    0.18716E-04   -0.13547E-05    48   0.297E-02
   9 F= -.10167084E+02 E0= -.10153769E+02  d E =-.546844E-03
       N       E                     dE             d eps       ncg     rms          rms(c)
DAV:   1    -0.101670685255E+02    0.34673E-04   -0.13191E-04    48   0.681E-02    0.973E-03
DAV:   2    -0.101670663152E+02    0.22102E-05   -0.43877E-06    48   0.172E-02
  10 F= -.10167066E+02 E0= -.10153751E+02  d E =-.528677E-03
       N       E                     dE             d eps       ncg     rms          rms(c)
DAV:   1    -0.101670739645E+02   -0.54391E-05   -0.62382E-05    48   0.458E-02    0.410E-03
DAV:   2    -0.101670735545E+02    0.41005E-06   -0.13801E-06    48   0.107E-02
  11 F= -.10167074E+02 E0= -.10153758E+02  d E =-.535916E-03
       N       E                     dE             d eps       ncg     rms          rms(c)
DAV:   1    -0.101670756187E+02   -0.16542E-05   -0.12194E-05    48   0.204E-02    0.272E-03
DAV:   2    -0.101670753289E+02    0.28973E-06   -0.40516E-07    48   0.531E-03
  12 F= -.10167075E+02 E0= -.10153760E+02  d E =-.537691E-03
       N       E                     dE             d eps       ncg     rms          rms(c)
DAV:   1    -0.101670756017E+02    0.17025E-07   -0.28214E-06    48   0.986E-03    0.137E-03
DAV:   2    -0.101670754991E+02    0.10253E-06   -0.10808E-07    48   0.268E-03
  13 F= -.10167075E+02 E0= -.10153760E+02  d E =-.537861E-03
       N       E                     dE             d eps       ncg     rms          rms(c)
DAV:   1    -0.101670754930E+02    0.10866E-06   -0.71508E-07    48   0.498E-03    0.693E-04
DAV:   2    -0.101670754552E+02    0.37811E-07   -0.27949E-08    48   0.135E-03
  14 F= -.10167075E+02 E0= -.10153760E+02  d E =-.537817E-03
       N       E                     dE             d eps       ncg     rms          rms(c)
DAV:   1    -0.101670754181E+02    0.74896E-07   -0.17907E-07    48   0.250E-03    0.348E-04
DAV:   2    -0.101670754017E+02    0.16361E-07   -0.70025E-09    48   0.670E-04
  15 F= -.10167075E+02 E0= -.10153760E+02  d E =-.537763E-03
