unknown system                          
   1.00000000000000     
     0.000000    2.715000    2.715000
     2.715000    0.000000    2.715000
     2.715000    2.715000    0.000000
   Si
     2
Direct
  0.500000  0.500000  0.500000
  0.750000  0.750000  0.750000
 
   32   32   32
 0.87686674752E+00 0.89849312708E+00 0.96453383110E+00 0.10786439510E+01 0.12468901746E+01
 0.14775045064E+01 0.17801011364E+01 0.21639543096E+01 0.26350684878E+01 0.31921598638E+01
 0.38222683827E+01 0.44973416303E+01 0.51734361498E+01 0.57938656115E+01 0.62966409582E+01
 0.66251256649E+01 0.67394065111E+01 0.66250767919E+01 0.62965482666E+01 0.57937408931E+01
 0.51733019891E+01 0.44972326246E+01 0.38222212532E+01 0.31921955808E+01 0.26351800657E+01
 0.21641083413E+01 0.17802500798E+01 0.14776041336E+01 0.12469176601E+01 0.10786085434E+01
 0.96447178153E+00 0.89844790184E+00 0.89849312708E+00 0.93581470044E+00 0.10124297719E+01
 0.11322086144E+01 0.13006382736E+01 0.15243558192E+01 0.18102574564E+01 0.21638771044E+01
 0.25868309126E+01 0.30734927735E+01 0.36076539322E+01 0.41604734491E+01 0.46911471286E+01
 0.51511501891E+01 0.54917553952E+01 0.56732294896E+01 0.56732091062E+01 0.54916989970E+01
 0.51510722716E+01 0.46910728112E+01 0.41604367483E+01 0.36076855820E+01 0.30735996310E+01
 0.25869848820E+01 0.21640293481E+01 0.18103679755E+01 0.15244110057E+01 0.13006444264E+01
 0.11321778307E+01 0.10123776219E+01 0.93576501581E+00 0.89847251936E+00 0.96453383110E+00
 0.10124297719E+01 0.10948946024E+01 0.12156288299E+01 0.13792918820E+01 0.15909274770E+01
 0.18550219635E+01 0.21739822463E+01 0.25459292126E+01 0.29620614726E+01 0.34043757277E+01
 0.38449204440E+01 0.42476372934E+01 0.45730976783E+01 0.47853466321E+01 0.48591180548E+01
 0.47853159030E+01 0.45730561194E+01 0.42476158239E+01 0.38449460238E+01 0.34044571042E+01
 0.29621842027E+01 0.25460626626E+01 0.21740935420E+01 0.18550888127E+01 0.15909444461E+01
 0.13792690100E+01 0.12155847179E+01 0.10948479855E+01 0.10123937144E+01 0.96451476853E+00
 0.94883447409E+00 0.10786439510E+01 0.11322086144E+01 0.12156288299E+01 0.13322533714E+01
 0.14859311148E+01 0.16803548397E+01 0.19180632633E+01 0.21989978758E+01 0.25186424302E+01
 0.28661017429E+01 0.32228769118E+01 0.35632601747E+01 0.38569468249E+01 0.40736865721E+01
 0.41889319692E+01 0.41889173500E+01 0.40736548484E+01 0.38569292568E+01 0.35632898679E+01
 0.32229638019E+01 0.28662196737E+01 0.25187442968E+01 0.21990477991E+01 0.19180560881E+01
 0.16803091180E+01 0.14858706292E+01 0.13321969989E+01 0.12155895061E+01 0.11321912676E+01
 0.10786424121E+01 0.10525027051E+01 0.10525010414E+01 0.12468901746E+01 0.13006382736E+01
 0.13792918820E+01 0.14859311148E+01 0.16238238387E+01 0.17956608212E+01 0.20024985983E+01
 0.22424212237E+01 0.25090749955E+01 0.27904937181E+01 0.30688532284E+01 0.33217391134E+01
 0.35250745698E+01 0.36571957324E+01 0.37030260816E+01 0.36571698911E+01 0.35250440408E+01
 0.33217320773E+01 0.30688856824E+01 0.27905574388E+01 0.25091399786E+01 0.22424512358E+01
 0.20024707660E+01 0.17955785328E+01 0.16237160494E+01 0.14858378660E+01 0.13792434345E+01
 0.13006396814E+01 0.12469205896E+01 0.12156698433E+01 0.12054055447E+01 0.12156428911E+01
 0.14775045064E+01 0.15243558192E+01 0.15909274770E+01 0.16803548397E+01 0.17956608212E+01
 0.19388724230E+01 0.21099582756E+01 0.23056882215E+01 0.25186429430E+01 0.27367749232E+01
 0.29439688253E+01 0.31218297480E+01 0.32524825769E+01 0.33217267688E+01 0.33217124219E+01
 0.32524503487E+01 0.31218023142E+01 0.29439618667E+01 0.27367873075E+01 0.25186606179E+01
 0.23056927993E+01 0.21099330395E+01 0.19388086557E+01 0.17955667021E+01 0.16802592695E+01
 0.15908689646E+01 0.15243586509E+01 0.14775590811E+01 0.14478215092E+01 0.14333640137E+01
 0.14333355306E+01 0.14477565066E+01 0.17801011364E+01 0.18102574564E+01 0.18550219635E+01
 0.19180632633E+01 0.20024985983E+01 0.21099582756E+01 0.22396496104E+01 0.23875461929E+01
 0.25459291949E+01 0.27035973566E+01 0.28469735666E+01 0.29620282256E+01 0.30365825748E+01
 0.30623964321E+01 0.30365665237E+01 0.29620071375E+01 0.28469615915E+01 0.27036015904E+01
 0.25459436845E+01 0.23875538908E+01 0.22396320403E+01 0.21099086887E+01 0.20024301248E+01
 0.19180049184E+01 0.18550035573E+01 0.18102924533E+01 0.17801777680E+01 0.17612350133E+01
 0.17508740752E+01 0.17475640147E+01 0.17508184588E+01 0.17611495595E+01 0.21639543096E+01
 0.21638771044E+01 0.21739822463E+01 0.21989978758E+01 0.22424212237E+01 0.23056882215E+01
 0.23875461929E+01 0.24836906389E+01 0.25868303671E+01 0.26873827392E+01 0.27748211465E+01
 0.28393810473E+01 0.28736459318E+01 0.28736471191E+01 0.28393852400E+01 0.27748307818E+01
 0.26874018820E+01 0.25868609748E+01 0.24837265227E+01 0.23875716511E+01 0.23056880697E+01
 0.22423973368E+01 0.21989758626E+01 0.21739961999E+01 0.21639422106E+01 0.21640532430E+01
 0.21693144486E+01 0.21753777602E+01 0.21791733706E+01 0.21791511057E+01 0.21753124936E+01
 0.21692177187E+01 0.26350684878E+01 0.25868309126E+01 0.25459292126E+01 0.25186424302E+01
 0.25090749955E+01 0.25186429430E+01 0.25459291949E+01 0.25868303671E+01 0.26350684628E+01
 0.26831587475E+01 0.27237031009E+01 0.27506344249E+01 0.27600623547E+01 0.27506575388E+01
 0.27237446901E+01 0.26832130253E+01 0.26351299103E+01 0.25868924755E+01 0.25459858846E+01
 0.25186929787E+01 0.25091228096E+01 0.25186934915E+01 0.25459858669E+01 0.25868919299E+01
 0.26351298853E+01 0.26832135246E+01 0.27237446724E+01 0.27506570068E+01 0.27600623547E+01
 0.27506349569E+01 0.27237031186E+01 0.26831582482E+01 0.31921598638E+01 0.30734927735E+01
 0.29620614726E+01 0.28661017429E+01 0.27904937181E+01 0.27367749232E+01 0.27035973566E+01
 0.26873827392E+01 0.26831587475E+01 0.26855855581E+01 0.26899799069E+01 0.26930259302E+01
 0.26930508517E+01 0.26900472470E+01 0.26856797669E+01 0.26832653045E+01 0.26874880619E+01
 0.27036886896E+01 0.27368500898E+01 0.27905660800E+01 0.28661847312E+01 0.29621470182E+01
 0.30735534726E+01 0.31921754629E+01 0.33072085559E+01 0.34068243751E+01 0.34801369206E+01
 0.35189662653E+01 0.35189768905E+01 0.34801665947E+01 0.34068623993E+01 0.33072321014E+01
 0.38222683827E+01 0.36076539322E+01 0.34043757277E+01 0.32228769118E+01 0.30688532284E+01
 0.29439688253E+01 0.28469735666E+01 0.27748211465E+01 0.27237031009E+01 0.26899799069E+01
 0.26708619568E+01 0.26646944692E+01 0.26709361689E+01 0.26901078729E+01 0.27238562404E+01
 0.27749734440E+01 0.28471058372E+01 0.29440723632E+01 0.30689310996E+01 0.32229354161E+01
 0.34044120906E+01 0.36076563123E+01 0.38222284099E+01 0.40332488810E+01 0.42230532141E+01
 0.43739152442E+01 0.44709696225E+01 0.45044675252E+01 0.44710262889E+01 0.43740073143E+01
 0.42231510572E+01 0.40333264272E+01 0.44973416303E+01 0.41604734491E+01 0.38449204440E+01
 0.35632601747E+01 0.33217391134E+01 0.31218297480E+01 0.29620282256E+01 0.28393810473E+01
 0.27506344249E+01 0.26930259302E+01 0.26646944692E+01 0.26647431203E+01 0.26931597918E+01
 0.27508209243E+01 0.28395774039E+01 0.29621961163E+01 0.31219488537E+01 0.33218089566E+01
 0.35632866547E+01 0.38449014716E+01 0.41604033645E+01 0.44972270382E+01 0.48360469725E+01
 0.51522149476E+01 0.54191036538E+01 0.56123889192E+01 0.57138659802E+01 0.57138976506E+01
 0.56124742884E+01 0.54192231855E+01 0.51523518249E+01 0.48361844162E+01 0.51734361498E+01
 0.46911471286E+01 0.42476372934E+01 0.38569468249E+01 0.35250745698E+01 0.32524825769E+01
 0.30365825748E+01 0.28736459318E+01 0.27600623547E+01 0.26930508517E+01 0.26709361689E+01
 0.26931597918E+01 0.27602506179E+01 0.28738651649E+01 0.30367812157E+01 0.32526201855E+01
 0.35251325276E+01 0.38569302868E+01 0.42475652825E+01 0.46910390424E+01 0.51733060836E+01
 0.56708554133E+01 0.61515450866E+01 0.65781803397E+01 0.69140750585E+01 0.71288382638E+01
 0.72027142544E+01 0.71288927688E+01 0.69141729963E+01 0.65783063574E+01 0.61516848944E+01
 0.56709962002E+01 0.57938656115E+01 0.51511501891E+01 0.45730976783E+01 0.40736865721E+01
 0.36571957324E+01 0.33217267688E+01 0.30623964321E+01 0.28736471191E+01 0.27506575388E+01
 0.26900472470E+01 0.26901078729E+01 0.27508209243E+01 0.28738651649E+01 0.30626097662E+01
 0.33218833571E+01 0.36572627413E+01 0.40736562637E+01 0.45729893502E+01 0.51510051943E+01
 0.57937294367E+01 0.64748193991E+01 0.71553087272E+01 0.77867717945E+01 0.83176643295E+01
 0.87011633047E+01 0.89022154146E+01 0.89022274991E+01 0.87011945609E+01 0.83177048611E+01
 0.77868190354E+01 0.71553741624E+01 0.64749196842E+01 0.62966409582E+01 0.54917553952E+01
 0.47853466321E+01 0.41889319692E+01 0.37030260816E+01 0.33217124219E+01 0.30365665237E+01
 0.28393852400E+01 0.27237446901E+01 0.26856797669E+01 0.27238562404E+01 0.28395774039E+01
 0.30367812157E+01 0.33218833571E+01 0.37031066997E+01 0.41889105490E+01 0.47852416168E+01
 0.54916059651E+01 0.62964973311E+01 0.71734022617E+01 0.80790127557E+01 0.89550648460E+01
 0.97342896461E+01 0.10349554263E+02 0.10744029954E+02 0.10879906151E+02 0.10743966838E+02
 0.10349456435E+02 0.97341974371E+01 0.89550150999E+01 0.80790310327E+01 0.71734945278E+01
 0.66251256649E+01 0.56732294896E+01 0.48591180548E+01 0.41889173500E+01 0.36571698911E+01
 0.32524503487E+01 0.29620071375E+01 0.27748307818E+01 0.26832130253E+01 0.26832653045E+01
 0.27749734440E+01 0.29621961163E+01 0.32526201855E+01 0.36572627413E+01 0.41889105490E+01
 0.48590263361E+01 0.56730916932E+01 0.66249916217E+01 0.76916876574E+01 0.88297482211E+01
 0.99751553282E+01 0.11047322327E+02 0.11957561006E+02 0.12621237126E+02 0.12971514017E+02
 0.12971447222E+02 0.12621071691E+02 0.11957371795E+02 0.11047172331E+02 0.99750768361E+01
 0.88297530844E+01 0.76917711438E+01 0.67394065111E+01 0.56732091062E+01 0.47853159030E+01
 0.40736548484E+01 0.35250440408E+01 0.31218023142E+01 0.28469615915E+01 0.26874018820E+01
 0.26351299103E+01 0.26874880619E+01 0.28471058372E+01 0.31219488537E+01 0.35251325276E+01
 0.40736562637E+01 0.47852416168E+01 0.56730916932E+01 0.67392851658E+01 0.79682059634E+01
 0.93215145940E+01 0.10735749794E+02 0.12123285373E+02 0.13377621776E+02 0.14384430706E+02
 0.15038278393E+02 0.15264682028E+02 0.15038199265E+02 0.14384299187E+02 0.13377473093E+02
 0.12123154818E+02 0.10735674155E+02 0.93215202274E+01 0.79682874219E+01 0.66250767919E+01
 0.54916989970E+01 0.45730561194E+01 0.38569292568E+01 0.33217320773E+01 0.29439618667E+01
 0.27036015904E+01 0.25868609748E+01 0.25868924755E+01 0.27036886896E+01 0.29440723632E+01
 0.33218089566E+01 0.38569302868E+01 0.45729893502E+01 0.54916059651E+01 0.66249916217E+01
 0.79682059634E+01 0.94928746870E+01 0.11143067628E+02 0.12833143696E+02 0.14448117337E+02
 0.15847000181E+02 0.16875486321E+02 0.17418620919E+02 0.17418629031E+02 0.16875496635E+02
 0.15846985003E+02 0.14448066684E+02 0.12833082918E+02 0.11143037032E+02 0.94928936117E+01
 0.79682659376E+01 0.62965482666E+01 0.51510722716E+01 0.42476158239E+01 0.35632898679E+01
 0.30688856824E+01 0.27367873075E+01 0.25459436845E+01 0.24837265227E+01 0.25459858846E+01
 0.27368500898E+01 0.30689310996E+01 0.35632866547E+01 0.42475652825E+01 0.51510051943E+01
 0.62964973311E+01 0.76916876574E+01 0.93215145940E+01 0.11143067628E+02 0.13081527694E+02
 0.15025913315E+02 0.16816031976E+02 0.18254417836E+02 0.19183042044E+02 0.19503703302E+02
 0.19183116777E+02 0.18254539352E+02 0.16816150880E+02 0.15025984499E+02 0.13081541911E+02
 0.11143053032E+02 0.93215066796E+01 0.76917075216E+01 0.57937408931E+01 0.46910728112E+01
 0.38449460238E+01 0.32229638019E+01 0.27905574388E+01 0.25186606179E+01 0.23875538908E+01
 0.23875716511E+01 0.25186929787E+01 0.27905660800E+01 0.32229354161E+01 0.38449014716E+01
 0.46910390424E+01 0.57937294367E+01 0.71734022617E+01 0.88297482211E+01 0.10735749794E+02
 0.12833143696E+02 0.15025913315E+02 0.17155239493E+02 0.18994092429E+02 0.20341762028E+02
 0.21053742858E+02 0.21053802517E+02 0.20341929721E+02 0.18994320591E+02 0.17155442531E+02
 0.15026015692E+02 0.12833139188E+02 0.10735695989E+02 0.88297032907E+01 0.71733869769E+01
 0.51733019891E+01 0.41604367483E+01 0.34044571042E+01 0.28662196737E+01 0.25091399786E+01
 0.23056927993E+01 0.22396320403E+01 0.23056880697E+01 0.25091228096E+01 0.28661847312E+01
 0.34044120906E+01 0.41604033645E+01 0.51733060836E+01 0.64748193991E+01 0.80790127557E+01
 0.99751553282E+01 0.12123285373E+02 0.14448117337E+02 0.16816031976E+02 0.18994092429E+02
 0.20745853882E+02 0.21881244367E+02 0.22274565165E+02 0.21881371240E+02 0.20746057932E+02
 0.18994296296E+02 0.16816165842E+02 0.14448146907E+02 0.12123223389E+02 0.99750483575E+01
 0.80789129657E+01 0.64747631524E+01 0.44972326246E+01 0.36076855820E+01 0.29621842027E+01
 0.25187442968E+01 0.22424512358E+01 0.21099330395E+01 0.21099086887E+01 0.22423973368E+01
 0.25186934915E+01 0.29621470182E+01 0.36076563123E+01 0.44972270382E+01 0.56708554133E+01
 0.71553087272E+01 0.89550648460E+01 0.11047322327E+02 0.13377621776E+02 0.15847000181E+02
 0.18254417836E+02 0.20341762028E+02 0.21881244367E+02 0.22699072958E+02 0.22699111651E+02
 0.21881331032E+02 0.20341841644E+02 0.18254459603E+02 0.15846996346E+02 0.13377557385E+02
 0.11047189143E+02 0.89548966326E+01 0.71551738795E+01 0.56707982723E+01 0.38222212532E+01
 0.30735996310E+01 0.25460626626E+01 0.21990477991E+01 0.20024707660E+01 0.19388086557E+01
 0.20024301248E+01 0.21989758626E+01 0.25459858669E+01 0.30735534726E+01 0.38222284099E+01
 0.48360469725E+01 0.61515450866E+01 0.77867717945E+01 0.97342896461E+01 0.11957561006E+02
 0.14384430706E+02 0.16875486321E+02 0.19183042044E+02 0.21053742858E+02 0.22274565165E+02
 0.22699111651E+02 0.22274545812E+02 0.21053692178E+02 0.19182953548E+02 0.16875365738E+02
 0.14384283487E+02 0.11957391801E+02 0.97341150609E+01 0.77866167907E+01 0.61514306906E+01
 0.48359832743E+01 0.31921955808E+01 0.25869848820E+01 0.21740935420E+01 0.19180560881E+01
 0.17955785328E+01 0.17955667021E+01 0.19180049184E+01 0.21739961999E+01 0.25868919299E+01
 0.31921754629E+01 0.40332488810E+01 0.51522149476E+01 0.65781803397E+01 0.83176643295E+01
 0.10349554263E+02 0.12621237126E+02 0.15038278393E+02 0.17418620919E+02 0.19503703302E+02
 0.21053802517E+02 0.21881371240E+02 0.21881331032E+02 0.21053692178E+02 0.19503542612E+02
 0.17418423897E+02 0.15038055450E+02 0.12621012097E+02 0.10349364365E+02 0.83175235317E+01
 0.65780663749E+01 0.51521109499E+01 0.40331845684E+01 0.26351800657E+01 0.21640293481E+01
 0.18550888127E+01 0.16803091180E+01 0.16237160494E+01 0.16802592695E+01 0.18550035573E+01
 0.21639422106E+01 0.26351298853E+01 0.33072085559E+01 0.42230532141E+01 0.54191036538E+01
 0.69140750585E+01 0.87011633047E+01 0.10744029954E+02 0.12971514017E+02 0.15264682028E+02
 0.17418629031E+02 0.19183116777E+02 0.20341929721E+02 0.20746057932E+02 0.20341841644E+02
 0.19182953548E+02 0.17418423897E+02 0.15264475475E+02 0.12971325976E+02 0.10743859810E+02
 0.87010092065E+01 0.69139447236E+01 0.54190068961E+01 0.42229968529E+01 0.33072030555E+01
 0.21641083413E+01 0.18103679755E+01 0.15909444461E+01 0.14858706292E+01 0.14858378660E+01
 0.15908689646E+01 0.18102924533E+01 0.21640532430E+01 0.26832135246E+01 0.34068243751E+01
 0.43739152442E+01 0.56123889192E+01 0.71288382638E+01 0.89022154146E+01 0.10879906151E+02
 0.12971447222E+02 0.15038199265E+02 0.16875496635E+02 0.18254539352E+02 0.18994320591E+02
 0.18994296296E+02 0.18254459603E+02 0.16875365738E+02 0.15038055450E+02 0.12971325976E+02
 0.10879797820E+02 0.89020863127E+01 0.71286924789E+01 0.56122763226E+01 0.43738716698E+01
 0.34068369703E+01 0.26832515337E+01 0.17802500798E+01 0.15244110057E+01 0.13792690100E+01
 0.13321969989E+01 0.13792434345E+01 0.15243586509E+01 0.17801777680E+01 0.21693144486E+01
 0.27237446724E+01 0.34801369206E+01 0.44709696225E+01 0.57138659802E+01 0.72027142544E+01
 0.89022274991E+01 0.10743966838E+02 0.12621071691E+02 0.14384299187E+02 0.15846985003E+02
 0.16816150880E+02 0.17155442531E+02 0.16816165842E+02 0.15846996346E+02 0.14384283487E+02
 0.12621012097E+02 0.10743859810E+02 0.89020863127E+01 0.72025709336E+01 0.57137593147E+01
 0.44709223357E+01 0.34801480581E+01 0.27237980904E+01 0.21693886525E+01 0.14776041336E+01
 0.13006444264E+01 0.12155847179E+01 0.12155895061E+01 0.13006396814E+01 0.14775590811E+01
 0.17612350133E+01 0.21753777602E+01 0.27506570068E+01 0.35189662653E+01 0.45044675252E+01
 0.57138976506E+01 0.71288927688E+01 0.87011945609E+01 0.10349456435E+02 0.11957371795E+02
 0.13377473093E+02 0.14448066684E+02 0.15025984499E+02 0.15026015692E+02 0.14448146907E+02
 0.13377557385E+02 0.11957391801E+02 0.10349364365E+02 0.87010092065E+01 0.71286924789E+01
 0.57137593147E+01 0.45044171815E+01 0.35189884090E+01 0.27507279044E+01 0.21754732737E+01
 0.17613210506E+01 0.12469176601E+01 0.11321778307E+01 0.10948479855E+01 0.11321912676E+01
 0.12469205896E+01 0.14478215092E+01 0.17508740752E+01 0.21791733706E+01 0.27600623547E+01
 0.35189768905E+01 0.44710262889E+01 0.56124742884E+01 0.69141729963E+01 0.83177048611E+01
 0.97341974371E+01 0.11047172331E+02 0.12123154818E+02 0.12833082918E+02 0.13081541911E+02
 0.12833139188E+02 0.12123223389E+02 0.11047189143E+02 0.97341150609E+01 0.83175235317E+01
 0.69139447236E+01 0.56122763226E+01 0.44709223357E+01 0.35189884090E+01 0.27601610709E+01
 0.21792989295E+01 0.17509689280E+01 0.14478608328E+01 0.10786085434E+01 0.10123776219E+01
 0.10123937144E+01 0.10786424121E+01 0.12156698433E+01 0.14333640137E+01 0.17475640147E+01
 0.21791511057E+01 0.27506349569E+01 0.34801665947E+01 0.43740073143E+01 0.54192231855E+01
 0.65783063574E+01 0.77868190354E+01 0.89550150999E+01 0.99750768361E+01 0.10735674155E+02
 0.11143037032E+02 0.11143053032E+02 0.10735695989E+02 0.99750483575E+01 0.89548966326E+01
 0.77866167907E+01 0.65780663749E+01 0.54190068961E+01 0.43738716698E+01 0.34801480581E+01
 0.27507279044E+01 0.21792989295E+01 0.17476881556E+01 0.14334159576E+01 0.12156574578E+01
 0.96447178153E+00 0.93576501581E+00 0.96451476853E+00 0.10525027051E+01 0.12054055447E+01
 0.14333355306E+01 0.17508184588E+01 0.21753124936E+01 0.27237031186E+01 0.34068623993E+01
 0.42231510572E+01 0.51523518249E+01 0.61516848944E+01 0.71553741624E+01 0.80790310327E+01
 0.88297530844E+01 0.93215202274E+01 0.94928936117E+01 0.93215066796E+01 0.88297032907E+01
 0.80789129657E+01 0.71551738795E+01 0.61514306906E+01 0.51521109499E+01 0.42229968529E+01
 0.34068369703E+01 0.27237980904E+01 0.21754732737E+01 0.17509689280E+01 0.14334159576E+01
 0.12054035061E+01 0.10524534477E+01 0.89844790184E+00 0.89847251936E+00 0.94883447409E+00
 0.10525010414E+01 0.12156428911E+01 0.14477565066E+01 0.17611495595E+01 0.21692177187E+01
 0.26831582482E+01 0.33072321014E+01 0.40333264272E+01 0.48361844162E+01 0.56709962002E+01
 0.64749196842E+01 0.71734945278E+01 0.76917711438E+01 0.79682874219E+01 0.79682659376E+01
 0.76917075216E+01 0.71733869769E+01 0.64747631524E+01 0.56707982723E+01 0.48359832743E+01
 0.40331845684E+01 0.33072030555E+01 0.26832515337E+01 0.21693886525E+01 0.17613210506E+01
 0.14478608328E+01 0.12156574578E+01 0.10524534477E+01 0.94877665981E+00 0.89849377844E+00
 0.93581500069E+00 0.10124298625E+01 0.11322087856E+01 0.13006384510E+01 0.15243557661E+01
 0.18102572818E+01 0.21638770853E+01 0.25868310219E+01 0.30734928790E+01 0.36076542574E+01
 0.41604743348E+01 0.46911485201E+01 0.51511518193E+01 0.54917572448E+01 0.56732315590E+01
 0.56732109381E+01 0.54916999476E+01 0.51510721136E+01 0.46910716534E+01 0.41604346241E+01
 0.36076826355E+01 0.30735964880E+01 0.25869822824E+01 0.21640275260E+01 0.18103668124E+01
 0.15244105438E+01 0.13006447345E+01 0.11321785903E+01 0.10123783837E+01 0.93576571329E+00
 0.89847327594E+00 0.93581500069E+00 0.98254241960E+00 0.10631027376E+01 0.11812156742E+01
 0.13414922191E+01 0.15488411234E+01 0.18075486732E+01 0.21198222906E+01 0.24836914381E+01
 0.28904943001E+01 0.33226809323E+01 0.37530553901E+01 0.41465009136E+01 0.44645387515E+01
 0.46719994632E+01 0.47441194033E+01 0.46719683377E+01 0.44644854129E+01 0.41464502273E+01
 0.37530457495E+01 0.33227432279E+01 0.28906265995E+01 0.24838537446E+01 0.21199600157E+01
 0.18076263750E+01 0.15488586487E+01 0.13414725303E+01 0.11811809892E+01 0.10630636683E+01
 0.98250540652E+00 0.93579106342E+00 0.92050837744E+00 0.10124298625E+01 0.10631027376E+01
 0.11423397533E+01 0.12535395978E+01 0.14004556826E+01 0.15865263056E+01 0.18139582788E+01
 0.20824517047E+01 0.23875462624E+01 0.27188665744E+01 0.30589389516E+01 0.33834583963E+01
 0.36636384856E+01 0.38705724603E+01 0.39806724983E+01 0.39806586365E+01 0.38705401217E+01
 0.36636129724E+01 0.33834709485E+01 0.30590086139E+01 0.27189847941E+01 0.23876780254E+01
 0.20825544694E+01 0.18140047835E+01 0.15865161517E+01 0.14004104537E+01 0.12534874223E+01
 0.11423002361E+01 0.10630810999E+01 0.10124213657E+01 0.98777102872E+00 0.98777294751E+00
 0.11322087856E+01 0.11812156742E+01 0.12535395978E+01 0.13523169899E+01 0.14806708411E+01
 0.16409700059E+01 0.18339250029E+01 0.20574990274E+01 0.23056878612E+01 0.25674669603E+01
 0.28264731690E+01 0.30620187528E+01 0.32516799608E+01 0.33750815970E+01 0.34179243048E+01
 0.33750628267E+01 0.32516584045E+01 0.30620223737E+01 0.28265244215E+01 0.25675593904E+01
 0.23057831076E+01 0.20575538629E+01 0.18339221735E+01 0.16409227654E+01 0.14806043532E+01
 0.13522531814E+01 0.12534956766E+01 0.11812025296E+01 0.11322218638E+01 0.11039494086E+01
 0.10947078382E+01 0.11039320157E+01 0.13006384510E+01 0.13414922191E+01 0.14004556826E+01
 0.14806708411E+01 0.15849691562E+01 0.17150674103E+01 0.18707012287E+01 0.20487440543E+01
 0.22424213795E+01 0.24409034697E+01 0.26296867259E+01 0.27920613445E+01 0.29115852792E+01
 0.29750339483E+01 0.29750264041E+01 0.29115673528E+01 0.27920478325E+01 0.26296976455E+01
 0.24409474613E+01 0.22424808682E+01 0.20487823488E+01 0.18706891638E+01 0.17150041211E+01
 0.15848790932E+01 0.14805863089E+01 0.14004029689E+01 0.13414845537E+01 0.13006695614E+01
 0.12751438851E+01 0.12628845396E+01 0.12628651296E+01 0.12751014674E+01 0.15243557661E+01
 0.15488411234E+01 0.15865263056E+01 0.16409700059E+01 0.17150674103E+01 0.18102255689E+01
 0.19256044895E+01 0.20574993090E+01 0.21989983079E+01 0.23401460077E+01 0.24688254601E+01
 0.25723720550E+01 0.26396303907E+01 0.26629514709E+01 0.26396191273E+01 0.25723602336E+01
 0.24688255055E+01 0.23401622155E+01 0.21990233636E+01 0.20575174690E+01 0.19255983121E+01
 0.18101845229E+01 0.17149960959E+01 0.16408907785E+01 0.15864708673E+01 0.15488331379E+01
 0.15243951408E+01 0.15096915849E+01 0.15019841620E+01 0.14995844903E+01 0.15019402709E+01
 0.15096310024E+01 0.18102572818E+01 0.18075486732E+01 0.18139582788E+01 0.18339250029E+01
 0.18707012287E+01 0.19256044895E+01 0.19974841629E+01 0.20824514565E+01 0.21739820506E+01
 0.22635281587E+01 0.23416582167E+01 0.23995241554E+01 0.24303055152E+01 0.24303066766E+01
 0.23995300794E+01 0.23416740039E+01 0.22635555360E+01 0.21740134794E+01 0.20824709118E+01
 0.19974768474E+01 0.19255682815E+01 0.18706495051E+01 0.18338791723E+01 0.18139372613E+01
 0.18075622026E+01 0.18103029747E+01 0.18174071098E+01 0.18246735993E+01 0.18290722858E+01
 0.18290508684E+01 0.18246195227E+01 0.18173446841E+01 0.21638770853E+01 0.21198222906E+01
 0.20824517047E+01 0.20574990274E+01 0.20487440543E+01 0.20574993090E+01 0.20824514565E+01
 0.21198214965E+01 0.21638765672E+01 0.22078167454E+01 0.22449094007E+01 0.22695860299E+01
 0.22782345579E+01 0.22696108694E+01 0.22449552296E+01 0.22078756765E+01 0.21639351631E+01
 0.21198615425E+01 0.20824583428E+01 0.20574737789E+01 0.20487049866E+01 0.20574724963E+01
 0.20824553748E+01 0.21198575176E+01 0.21639315332E+01 0.22078729630E+01 0.22449529351E+01
 0.22696090595E+01 0.22782339259E+01 0.22695863937E+01 0.22449097561E+01 0.22078168773E+01
 0.25868310219E+01 0.24836914381E+01 0.23875462624E+01 0.23056878612E+01 0.22424213795E+01
 0.21989983079E+01 0.21739820506E+01 0.21638765672E+01 0.21639544224E+01 0.21692183423E+01
 0.21753128329E+01 0.21791515060E+01 0.21791747906E+01 0.21753799220E+01 0.21693163125E+01
 0.21640548135E+01 0.21639440459E+01 0.21739976494E+01 0.21989756835E+01 0.22423956474E+01
 0.23056859239E+01 0.23875691900E+01 0.24837233585E+01 0.25868578571E+01 0.26874000634E+01
 0.27748301367E+01 0.28393847923E+01 0.28736469418E+01 0.28736467198E+01 0.28393823407E+01
 0.27748218582E+01 0.26873829969E+01 0.30734928790E+01 0.28904943001E+01 0.27188665744E+01
 0.25674669603E+01 0.24409034697E+01 0.23401460077E+01 0.22635281587E+01 0.22078167454E+01
 0.21692183423E+01 0.21442416700E+01 0.21302788305E+01 0.21258115875E+01 0.21303510288E+01
 0.21443684476E+01 0.21693614407E+01 0.22079249705E+01 0.22635644292E+01 0.23401164996E+01
 0.24408559614E+01 0.25674504607E+01 0.27188890384E+01 0.28905223700E+01 0.30734902371E+01
 0.32549467009E+01 0.34193827735E+01 0.35509155548E+01 0.36359327207E+01 0.36653411440E+01
 0.36359585648E+01 0.35509636474E+01 0.34194393708E+01 0.32549867534E+01 0.36076542574E+01
 0.33226809323E+01 0.30589389516E+01 0.28264731690E+01 0.26296867259E+01 0.24688254601E+01
 0.23416582167E+01 0.22449094007E+01 0.21753128329E+01 0.21302788305E+01 0.21081643267E+01
 0.21082157594E+01 0.21304172492E+01 0.21754907703E+01 0.22450586624E+01 0.23417229469E+01
 0.24687987429E+01 0.26296135049E+01 0.28264094918E+01 0.30589060581E+01 0.33226588900E+01
 0.36076131195E+01 0.38975364447E+01 0.41710051906E+01 0.44041128530E+01 0.45742880128E+01
 0.46641076947E+01 0.46641351169E+01 0.45743603018E+01 0.44042072595E+01 0.41710978571E+01
 0.38976079672E+01 0.41604743348E+01 0.37530553901E+01 0.33834583963E+01 0.30620187528E+01
 0.27920613445E+01 0.25723720550E+01 0.23995241554E+01 0.22695860299E+01 0.21791515060E+01
 0.21258115875E+01 0.21082157594E+01 0.21259286857E+01 0.21793399335E+01 0.22697654045E+01
 0.23996168945E+01 0.25723521926E+01 0.27919676223E+01 0.30619119731E+01 0.33833673996E+01
 0.37529688324E+01 0.41603747942E+01 0.45865735820E+01 0.50040252861E+01 0.53793304022E+01
 0.56781047272E+01 0.58707176609E+01 0.59372712817E+01 0.58707706735E+01 0.56781911379E+01
 0.53794318531E+01 0.50041347427E+01 0.45866842408E+01 0.46911485201E+01 0.41465009136E+01
 0.36636384856E+01 0.32516799608E+01 0.29115852792E+01 0.26396303907E+01 0.24303055152E+01
 0.22782345579E+01 0.21791747906E+01 0.21303510288E+01 0.21304172492E+01 0.21793399335E+01
 0.22784149162E+01 0.24304131148E+01 0.26396235237E+01 0.29114855815E+01 0.32515408513E+01
 0.36634988591E+01 0.41463692046E+01 0.46910203667E+01 0.52771370771E+01 0.58720066636E+01
 0.64324122230E+01 0.69099421496E+01 0.72586089886E+01 0.74426758367E+01 0.74426924804E+01
 0.72586559885E+01 0.69100137021E+01 0.64325044002E+01 0.58721170677E+01 0.52772601285E+01
 0.51511518193E+01 0.44645387515E+01 0.38705724603E+01 0.33750815970E+01 0.29750339483E+01
 0.26629514709E+01 0.24303066766E+01 0.22696108694E+01 0.21753799220E+01 0.21443684476E+01
 0.21754907703E+01 0.22697654045E+01 0.24304131148E+01 0.26629527412E+01 0.29749377361E+01
 0.33749346969E+01 0.38704121293E+01 0.44643772896E+01 0.51509985357E+01 0.59111229073E+01
 0.67092671627E+01 0.74938655725E+01 0.82019076519E+01 0.87676509338E+01 0.91334722083E+01
 0.92600597956E+01 0.91334764128E+01 0.87676575221E+01 0.82019204531E+01 0.74939005477E+01
 0.67093443209E+01 0.59112467747E+01 0.54917572448E+01 0.46719994632E+01 0.39806724983E+01
 0.34179243048E+01 0.29750264041E+01 0.26396191273E+01 0.23995300794E+01 0.22449552296E+01
 0.21693163125E+01 0.21693614407E+01 0.22450586624E+01 0.23996168945E+01 0.26396235237E+01
 0.29749377361E+01 0.34177818595E+01 0.39805156756E+01 0.46718373522E+01 0.54915916724E+01
 0.64249764211E+01 0.74376033791E+01 0.84733472598E+01 0.94568365027E+01 0.10301528937E+02
 0.10922619106E+02 0.11252100316E+02 0.11252076573E+02 0.10922554648E+02 0.10301444773E+02
 0.94567686374E+01 0.84733385087E+01 0.74376777770E+01 0.64251175460E+01 0.56732315590E+01
 0.47441194033E+01 0.39806586365E+01 0.33750628267E+01 0.29115673528E+01 0.25723602336E+01
 0.23416740039E+01 0.22078756765E+01 0.21640548135E+01 0.22079249705E+01 0.23417229469E+01
 0.25723521926E+01 0.29114855815E+01 0.33749346969E+01 0.39805156756E+01 0.47439678683E+01
 0.56730708213E+01 0.67607312875E+01 0.79783164003E+01 0.92709045841E+01 0.10556436995E+02
 0.11730804980E+02 0.12680186427E+02 0.13299840917E+02 0.13515360137E+02 0.13299763910E+02
 0.12680067508E+02 0.11730689348E+02 0.10556363786E+02 0.92709047887E+01 0.79784009069E+01
 0.67608758678E+01 0.56732109381E+01 0.46719683377E+01 0.38705401217E+01 0.32516584045E+01
 0.27920478325E+01 0.24688255055E+01 0.22635555360E+01 0.21639351631E+01 0.21639440459E+01
 0.22635644292E+01 0.24687987429E+01 0.27919676223E+01 0.32515408513E+01 0.38704121293E+01
 0.46718373522E+01 0.56730708213E+01 0.68775558488E+01 0.82669060656E+01 0.97939331800E+01
 0.11378160654E+02 0.12906062713E+02 0.14239261233E+02 0.15233318262E+02 0.15765780654E+02
 0.15765767754E+02 0.15233282277E+02 0.14239207546E+02 0.12906002416E+02 0.11378121536E+02
 0.97939524810E+01 0.82669972252E+01 0.68776912911E+01 0.54916999476E+01 0.44644854129E+01
 0.36636129724E+01 0.30620223737E+01 0.26296976455E+01 0.23401622155E+01 0.21740134794E+01
 0.21198615425E+01 0.21739976494E+01 0.23401164996E+01 0.26296135049E+01 0.30619119731E+01
 0.36634988591E+01 0.44643772896E+01 0.54915916724E+01 0.67607312875E+01 0.82669060656E+01
 0.99762893691E+01 0.11818767113E+02 0.13682948033E+02 0.15417348512E+02 0.16843901204E+02
 0.17787739576E+02 0.18118414013E+02 0.17787794693E+02 0.16843976495E+02 0.15417400016E+02
 0.13682960575E+02 0.11818768859E+02 0.99763232282E+01 0.82669868786E+01 0.67608377964E+01
 0.51510721136E+01 0.41464502273E+01 0.33834709485E+01 0.28265244215E+01 0.24409474613E+01
 0.21990233636E+01 0.20824709118E+01 0.20824583428E+01 0.21989756835E+01 0.24408559614E+01
 0.28264094918E+01 0.33833673996E+01 0.41463692046E+01 0.51509985357E+01 0.64249764211E+01
 0.79783164003E+01 0.97939331800E+01 0.11818767113E+02 0.13955025689E+02 0.16053912705E+02
 0.17919501873E+02 0.19330166614E+02 0.20090472405E+02 0.20090520052E+02 0.19330295286E+02
 0.17919666324E+02 0.16054048202E+02 0.13955091546E+02 0.11818780442E+02 0.97939474594E+01