<?xml version="1.0" encoding="ISO-8859-1"?>
<modeling>
 <generator>
  <i name="program" type="string">vasp </i>
  <i name="version" type="string">5.4.4.18Apr17-6-g9f103f2a35  </i>
  <i name="subversion" type="string">(build Dec 09 2018 21:25:21) complex            parallel </i>
  <i name="platform" type="string">IFC18.0.1.163_CrayMPICH7.7.0_MKL18.0.1.163 </i>
  <i name="date" type="string">2019 03 19 </i>
  <i name="time" type="string">13:34:02 </i>
 </generator>
 <incar>
  <i type="string" name="PREC">normal</i>
  <i type="int" name="IBRION">     2</i>
  <i name="EDIFF">      0.00040000</i>
  <i name="EDIFFG">     -0.01000000</i>
  <i type="int" name="NSW">    15</i>
  <i type="int" name="ISIF">     2</i>
  <i name="ENCUT">    250.00000000</i>
  <i type="int" name="NBANDS">     8</i>
  <i type="logical" name="LREAL"> F  </i>
  <i type="int" name="ISMEAR">     0</i>
  <i name="SIGMA">      0.20000000</i>
  <v type="int" name="KPOINT_BSE">    -1     0     0     0</v>
 </incar>
 <structure name="primitive_cell" >
  <crystal>
   <varray name="basis" >
    <v>       0.00000000       2.71500000       2.71500000 </v>
    <v>       2.71500000       0.00000000       2.71500000 </v>
    <v>       2.71500000       2.71500000       0.00000000 </v>
   </varray>
   <i name="volume">     40.02575175 </i>
   <varray name="rec_basis" >
    <v>      -0.18416206       0.18416206       0.18416206 </v>
    <v>       0.18416206      -0.18416206       0.18416206 </v>
    <v>       0.18416206       0.18416206      -0.18416206 </v>
   </varray>
  </crystal>
  <varray name="positions" >
   <v>      -0.50000000      -0.50000000      -0.50000000 </v>
   <v>      -0.25000000      -0.25000000      -0.25000000 </v>
  </varray>
 </structure>
 <varray name="primitive_index" >
  <v type="int" >        1 </v>
  <v type="int" >        2 </v>
 </varray>
 <kpoints>
  <generation param="Monkhorst-Pack">
   <v type="int" name="divisions">       6        6        6 </v>
   <v name="usershift">      0.00000000       0.00000000       0.00000000 </v>
   <v name="genvec1">      0.16666667      -0.00000000       0.00000000 </v>
   <v name="genvec2">     -0.00000000       0.16666667      -0.00000000 </v>
   <v name="genvec3">      0.00000000       0.00000000       0.16666667 </v>
   <v name="shift">      0.50000000       0.50000000       0.50000000 </v>
  </generation>
  <varray name="kpointlist" >
   <v>       0.08333333       0.08333333       0.08333333 </v>
   <v>       0.25000000       0.08333333       0.08333333 </v>
   <v>       0.41666667       0.08333333       0.08333333 </v>
   <v>      -0.41666667       0.08333333       0.08333333 </v>
   <v>      -0.25000000       0.08333333       0.08333333 </v>
   <v>      -0.08333333       0.08333333       0.08333333 </v>
   <v>       0.25000000       0.25000000       0.08333333 </v>
   <v>       0.41666667       0.25000000       0.08333333 </v>
   <v>      -0.41666667       0.25000000       0.08333333 </v>
   <v>      -0.25000000       0.25000000       0.08333333 </v>
   <v>      -0.08333333       0.25000000       0.08333333 </v>
   <v>       0.41666667       0.41666667       0.08333333 </v>
   <v>      -0.41666667       0.41666667       0.08333333 </v>
   <v>      -0.25000000       0.41666667       0.08333333 </v>
   <v>      -0.08333333       0.41666667       0.08333333 </v>
   <v>      -0.41666667      -0.41666667       0.08333333 </v>
   <v>      -0.25000000      -0.41666667       0.08333333 </v>
   <v>      -0.25000000      -0.25000000       0.08333333 </v>
   <v>       0.25000000       0.25000000       0.25000000 </v>
   <v>       0.41666667       0.25000000       0.25000000 </v>
   <v>      -0.41666667       0.25000000       0.25000000 </v>
   <v>      -0.25000000       0.25000000       0.25000000 </v>
   <v>       0.41666667       0.41666667       0.25000000 </v>
   <v>      -0.41666667       0.41666667       0.25000000 </v>
   <v>      -0.25000000       0.41666667       0.25000000 </v>
   <v>      -0.41666667      -0.41666667       0.25000000 </v>
   <v>       0.41666667       0.41666667       0.41666667 </v>
   <v>      -0.41666667       0.41666667       0.41666667 </v>
  </varray>
  <varray name="weights" >
   <v>       0.00925926 </v>
   <v>       0.02777778 </v>
   <v>       0.02777778 </v>
   <v>       0.02777778 </v>
   <v>       0.02777778 </v>
   <v>       0.02777778 </v>
   <v>       0.02777778 </v>
   <v>       0.05555556 </v>
   <v>       0.05555556 </v>
   <v>       0.05555556 </v>
   <v>       0.05555556 </v>
   <v>       0.02777778 </v>
   <v>       0.05555556 </v>
   <v>       0.05555556 </v>
   <v>       0.05555556 </v>
   <v>       0.02777778 </v>
   <v>       0.05555556 </v>
   <v>       0.02777778 </v>
   <v>       0.00925926 </v>
   <v>       0.02777778 </v>
   <v>       0.02777778 </v>
   <v>       0.02777778 </v>
   <v>       0.02777778 </v>
   <v>       0.05555556 </v>
   <v>       0.05555556 </v>
   <v>       0.02777778 </v>
   <v>       0.00925926 </v>
   <v>       0.02777778 </v>
  </varray>
 </kpoints>
 <parameters>
  <separator name="general" >
   <i type="string" name="SYSTEM">unknown system</i>
   <i type="logical" name="LCOMPAT"> F  </i>
  </separator>
  <separator name="electronic" >
   <i type="string" name="PREC">normal</i>
   <i name="ENMAX">    250.00000000</i>
   <i name="ENAUG">    322.06900000</i>
   <i name="EDIFF">      0.00040000</i>
   <i type="int" name="IALGO">    38</i>
   <i type="int" name="IWAVPR">    11</i>
   <i type="int" name="NBANDS">     8</i>
   <i name="NELECT">      8.00000000</i>
   <i type="int" name="TURBO">     0</i>
   <i type="int" name="IRESTART">     0</i>
   <i type="int" name="NREBOOT">     0</i>
   <i type="int" name="NMIN">     0</i>
   <i name="EREF">      0.00000000</i>
   <separator name="electronic smearing" >
    <i type="int" name="ISMEAR">     0</i>
    <i name="SIGMA">      0.20000000</i>
    <i name="KSPACING">      0.50000000</i>
    <i type="logical" name="KGAMMA"> T  </i>
   </separator>
   <separator name="electronic projectors" >
    <i type="logical" name="LREAL"> F  </i>
    <v name="ROPT">      0.00000000</v>
    <i type="int" name="LMAXPAW">  -100</i>
    <i type="int" name="LMAXMIX">     2</i>
    <i type="logical" name="NLSPLINE"> F  </i>
   </separator>
   <separator name="electronic startup" >
    <i type="int" name="ISTART">     0</i>
    <i type="int" name="ICHARG">     2</i>
    <i type="int" name="INIWAV">     1</i>
   </separator>
   <separator name="electronic spin" >
    <i type="int" name="ISPIN">     1</i>
    <i type="logical" name="LNONCOLLINEAR"> F  </i>
    <v name="MAGMOM">      1.00000000      1.00000000</v>
    <i name="NUPDOWN">     -1.00000000</i>
    <i type="logical" name="LSORBIT"> F  </i>
    <v name="SAXIS">      0.00000000      0.00000000      1.00000000</v>
    <i type="logical" name="LSPIRAL"> F  </i>
    <v name="QSPIRAL">      0.00000000      0.00000000      0.00000000</v>
    <i type="logical" name="LZEROZ"> F  </i>
   </separator>
   <separator name="electronic exchange-correlation" >
    <i type="logical" name="LASPH"> F  </i>
    <i type="logical" name="LMETAGGA"> F  </i>
   </separator>
   <separator name="electronic convergence" >
    <i type="int" name="NELM">    60</i>
    <i type="int" name="NELMDL">    -5</i>
    <i type="int" name="NELMIN">     2</i>
    <i name="ENINI">    250.00000000</i>
    <separator name="electronic convergence detail" >
     <i type="logical" name="LDIAG"> T  </i>
     <i type="logical" name="LSUBROT"> F  </i>
     <i name="WEIMIN">      0.00100000</i>
     <i name="EBREAK">      0.00001250</i>
     <i name="DEPER">      0.30000000</i>
     <i type="int" name="NRMM">     4</i>
     <i name="TIME">      0.40000000</i>
    </separator>
   </separator>
   <separator name="electronic mixer" >
    <i name="AMIX">      0.40000000</i>
    <i name="BMIX">      1.00000000</i>
    <i name="AMIN">      0.10000000</i>
    <i name="AMIX_MAG">      1.60000000</i>
    <i name="BMIX_MAG">      1.00000000</i>
    <separator name="electronic mixer details" >
     <i type="int" name="IMIX">     4</i>
     <i type="logical" name="MIXFIRST"> F  </i>
     <i type="int" name="MAXMIX">   -45</i>
     <i name="WC">    100.00000000</i>
     <i type="int" name="INIMIX">     1</i>
     <i type="int" name="MIXPRE">     1</i>
     <i type="int" name="MREMOVE">     5</i>
    </separator>
   </separator>
   <separator name="electronic dipolcorrection" >
    <i type="logical" name="LDIPOL"> F  </i>
    <i type="logical" name="LMONO"> F  </i>
    <i type="int" name="IDIPOL">     0</i>
    <i name="EPSILON">      1.00000000</i>
    <v name="DIPOL">   -100.00000000   -100.00000000   -100.00000000</v>
    <i name="EFIELD">      0.00000000</i>
   </separator>
  </separator>
  <separator name="grids" >
   <i type="int" name="NGX">    16</i>
   <i type="int" name="NGY">    16</i>
   <i type="int" name="NGZ">    16</i>
   <i type="int" name="NGXF">    32</i>
   <i type="int" name="NGYF">    32</i>
   <i type="int" name="NGZF">    32</i>
   <i type="logical" name="ADDGRID"> F  </i>
  </separator>
  <separator name="ionic" >
   <i type="int" name="NSW">    15</i>
   <i type="int" name="IBRION">     2</i>
   <i type="int" name="MDALGO">     0</i>
   <i type="int" name="ISIF">     2</i>
   <i name="PSTRESS">      0.00000000</i>
   <i name="EDIFFG">     -0.01000000</i>
   <i type="int" name="NFREE">     1</i>
   <i name="POTIM">      0.50000000</i>
   <i name="SMASS">     -3.00000000</i>
   <i name="SCALEE">      1.00000000</i>
  </separator>
  <separator name="ionic md" >
   <i name="TEBEG">      0.00010000</i>
   <i name="TEEND">      0.00010000</i>
   <i type="int" name="NBLOCK">     1</i>
   <i type="int" name="KBLOCK">    15</i>
   <i type="int" name="NPACO">   256</i>
   <i name="APACO">     16.00000000</i>
  </separator>
  <separator name="symmetry" >
   <i type="int" name="ISYM">     2</i>
   <i name="SYMPREC">      0.00001000</i>
  </separator>
  <separator name="dos" >
   <i type="int" name="LORBIT">     0</i>
   <v name="RWIGS">     -1.00000000</v>
   <i type="int" name="NEDOS">   301</i>
   <i name="EMIN">     10.00000000</i>
   <i name="EMAX">    -10.00000000</i>
   <i name="EFERMI">      0.00000000</i>
  </separator>
  <separator name="writing" >
   <i type="int" name="NWRITE">     2</i>
   <i type="logical" name="LWAVE"> T  </i>
   <i type="logical" name="LDOWNSAMPLE"> F  </i>
   <i type="logical" name="LCHARG"> T  </i>
   <i type="logical" name="LPARD"> F  </i>
   <i type="logical" name="LVTOT"> F  </i>
   <i type="logical" name="LVHAR"> F  </i>
   <i type="logical" name="LELF"> F  </i>
   <i type="logical" name="LOPTICS"> F  </i>
   <v name="STM">      0.00000000      0.00000000      0.00000000      0.00000000      0.00000000      0.00000000      0.00000000</v>
  </separator>
  <separator name="performance" >
   <i type="int" name="NPAR">     8</i>
   <i type="int" name="NSIM">     4</i>
   <i type="int" name="NBLK">    -1</i>
   <i type="logical" name="LPLANE"> T  </i>
   <i type="logical" name="LSCALAPACK"> T  </i>
   <i type="logical" name="LSCAAWARE"> F  </i>
   <i type="logical" name="LSCALU"> F  </i>
   <i type="logical" name="LASYNC"> F  </i>
   <i type="logical" name="LORBITALREAL"> F  </i>
  </separator>
  <separator name="miscellaneous" >
   <i type="int" name="IDIOT">     3</i>
   <i type="int" name="ISPECIAL">     0</i>
   <i type="logical" name="LMUSIC"> F  </i>
   <v name="POMASS">     28.08500000</v>
   <v name="DARWINR">      0.00000000</v>
   <v name="DARWINV">      1.00000000</v>
   <i type="logical" name="LCORR"> T  </i>
  </separator>
  <i type="logical" name="GGA_COMPAT"> T  </i>
  <i type="logical" name="LBERRY"> F  </i>
  <i type="int" name="ICORELEVEL">     0</i>
  <i type="logical" name="LDAU"> F  </i>
  <i type="int" name="I_CONSTRAINED_M">     0</i>
  <separator name="electronic exchange-correlation" >
   <i type="string" name="GGA">--</i>
   <i type="int" name="VOSKOWN">     0</i>
   <i type="logical" name="LHFCALC"> F  </i>
   <i type="string" name="PRECFOCK"></i>
   <i type="logical" name="LSYMGRAD"> F  </i>
   <i type="logical" name="LHFONE"> F  </i>
   <i type="logical" name="LRHFCALC"> F  </i>
   <i type="logical" name="LTHOMAS"> F  </i>
   <i type="logical" name="LMODELHF"> F  </i>
   <i name="ENCUT4O">     -1.00000000</i>
   <i type="int" name="EXXOEP">     0</i>
   <i type="int" name="FOURORBIT">     0</i>
   <i name="AEXX">      0.00000000</i>
   <i name="HFALPHA">      0.00000000</i>
   <i name="MCALPHA">      0.00000000</i>
   <i name="ALDAX">      1.00000000</i>
   <i name="AGGAX">      1.00000000</i>
   <i name="ALDAC">      1.00000000</i>
   <i name="AGGAC">      1.00000000</i>
   <i type="int" name="NKREDX">     1</i>
   <i type="int" name="NKREDY">     1</i>
   <i type="int" name="NKREDZ">     1</i>
   <i type="logical" name="SHIFTRED"> F  </i>
   <i type="logical" name="ODDONLY"> F  </i>
   <i type="logical" name="EVENONLY"> F  </i>
   <i type="int" name="LMAXFOCK">     0</i>
   <i type="int" name="NMAXFOCKAE">     0</i>
   <i type="logical" name="LFOCKAEDFT"> F  </i>
   <i name="HFSCREEN">      0.00000000</i>
   <i name="HFSCREENC">      0.00000000</i>
   <i type="int" name="NBANDSGWLOW">     0</i>
  </separator>
  <separator name="vdW DFT" >
   <i type="logical" name="LUSE_VDW"> F  </i>
   <i name="Zab_VDW">     -0.84910000</i>
   <i name="PARAM1">      0.12340000</i>
   <i name="PARAM2">      1.00000000</i>
   <i name="PARAM3">      0.00000000</i>
  </separator>
  <separator name="model GW" >
   <i type="int" name="MODEL_GW">     0</i>
   <i name="MODEL_EPS0">     12.00772552</i>
   <i name="MODEL_ALPHA">      1.00000000</i>
  </separator>
  <separator name="linear response parameters" >
   <i type="logical" name="LEPSILON"> F  </i>
   <i type="logical" name="LRPA"> F  </i>
   <i type="logical" name="LNABLA"> F  </i>
   <i type="logical" name="LVEL"> F  </i>
   <i type="int" name="KINTER">     0</i>
   <i name="CSHIFT">      0.10000000</i>
   <i name="OMEGAMAX">     -1.00000000</i>
   <i name="DEG_THRESHOLD">      0.00200000</i>
   <i name="RTIME">     -0.10000000</i>
   <i name="WPLASMAI">      0.00000000</i>
   <v name="DFIELD">      0.00000000      0.00000000      0.00000000</v>
   <v name="WPLASMA">      0.00000000      0.00000000      0.00000000      0.00000000      0.00000000      0.00000000      0.00000000      0.00000000      0.00000000</v>
  </separator>
  <separator name="orbital magnetization" >
   <i type="logical" name="NUCIND"> F  </i>
   <v name="MAGPOS">      0.00000000      0.00000000      0.00000000</v>
   <i type="logical" name="LNICSALL"> T  </i>
   <i type="logical" name="ORBITALMAG"> F  </i>
   <i type="logical" name="LMAGBLOCH"> F  </i>
   <i type="logical" name="LCHIMAG"> F  </i>
   <i type="logical" name="LGAUGE"> T  </i>
   <i type="int" name="MAGATOM">     0</i>
   <v name="MAGDIPOL">      0.00000000      0.00000000      0.00000000</v>
   <v name="AVECCONST">      0.00000000      0.00000000      0.00000000</v>
  </separator>
  <separator name="response functions" >
   <i type="logical" name="LADDER"> F  </i>
   <i type="logical" name="LRPAFORCE"> F  </i>
   <i type="logical" name="LFXC"> F  </i>
   <i type="logical" name="LHARTREE"> T  </i>
   <i type="int" name="IBSE">     0</i>
   <v type="int" name="KPOINT">    -1     0     0     0</v>
   <i type="logical" name="LTCTE"> F  </i>
   <i type="logical" name="LTETE"> F  </i>
   <i type="logical" name="LTRIPLET"> F  </i>
   <i type="logical" name="LFXCEPS"> F  </i>
   <i type="logical" name="LFXHEG"> F  </i>
   <i type="int" name="NATURALO">     2</i>
   <i type="logical" name="L2ORDER"> F  </i>
   <i type="logical" name="LMP2LT"> F  </i>
   <i type="logical" name="LUSEW"> F  </i>
   <i name="ENCUTGW">     -2.00000000</i>
   <i name="ENCUTGWSOFT">     -2.00000000</i>
   <i name="ENCUTLF">     -1.00000000</i>
   <i type="int" name="LMAXMP2">    -1</i>
   <i name="SCISSOR">      0.00000000</i>
   <i type="int" name="NOMEGA">     0</i>
   <i type="int" name="NOMEGAR">     0</i>
   <i type="int" name="NBANDSGW">    -1</i>
   <i type="int" name="NBANDSO">    -1</i>
   <i type="int" name="NBANDSV">    -1</i>
   <i type="int" name="NELM">     1</i>
   <i type="int" name="NELMHF">     1</i>
   <i type="int" name="DIM">     3</i>
   <i type="int" name="ANTIRES">     0</i>
   <i name="OMEGAMAX">    -30.00000000</i>
   <i name="OMEGAMIN">    -30.00000000</i>
   <i name="OMEGATL">   -200.00000000</i>
   <i type="int" name="OMEGAGRID">   140</i>
   <i name="CSHIFT">     -0.10000000</i>
   <i type="logical" name="SELFENERGY"> F  </i>
   <i type="logical" name="LSPECTRAL"> F  </i>
   <i type="logical" name="LSPECTRALGW"> F  </i>
   <i type="logical" name="LSINGLES"> F  </i>
   <i type="logical" name="LFERMIGW"> F  </i>
   <i type="logical" name="ODDONLYGW"> F  </i>
   <i type="logical" name="EVENONLYGW"> F  </i>
   <i type="int" name="NKREDLFX">     1</i>
   <i type="int" name="NKREDLFY">     1</i>
   <i type="int" name="NKREDLFZ">     1</i>
   <i type="int" name="MAXMEM">  2800</i>
   <i type="int" name="TELESCOPE">     0</i>
   <i type="int" name="TAUPAR">     1</i>
   <i type="int" name="OMEGAPAR">    -1</i>
   <i name="LAMBDA">      1.00000000</i>
  </separator>
  <separator name="External order field" >
   <i name="OFIELD_KAPPA">      0.00000000</i>
   <v name="OFIELD_K">      0.00000000      0.00000000      0.00000000</v>
   <i name="OFIELD_Q6_NEAR">      0.00000000</i>
   <i name="OFIELD_Q6_FAR">      0.00000000</i>
   <i name="OFIELD_A">      0.00000000</i>
  </separator>
 </parameters>
 <atominfo>
  <atoms>       2 </atoms>
  <types>       1 </types>
  <array name="atoms" >
   <dimension dim="1">ion</dimension>
   <field type="string">element</field>
   <field type="int">atomtype</field>
   <set>
    <rc><c>Si</c><c>   1</c></rc>
    <rc><c>Si</c><c>   1</c></rc>
   </set>
  </array>
  <array name="atomtypes" >
   <dimension dim="1">type</dimension>
   <field type="int">atomspertype</field>
   <field type="string">element</field>
   <field>mass</field>
   <field>valence</field>
   <field type="string">pseudopotential</field>
   <set>
    <rc><c>   2</c><c>Si</c><c>     28.08500000</c><c>      4.00000000</c><c> PAW_PBE Si 05Jan2001                   </c></rc>
   </set>
  </array>
 </atominfo>
 <structure name="initialpos" >
  <crystal>
   <varray name="basis" >
    <v>       0.00000000       2.71500000       2.71500000 </v>
    <v>       2.71500000       0.00000000       2.71500000 </v>
    <v>       2.71500000       2.71500000       0.00000000 </v>
   </varray>
   <i name="volume">     40.02575175 </i>
   <varray name="rec_basis" >
    <v>      -0.18416206       0.18416206       0.18416206 </v>
    <v>       0.18416206      -0.18416206       0.18416206 </v>
    <v>       0.18416206       0.18416206      -0.18416206 </v>
   </varray>
  </crystal>
  <varray name="positions" >
   <v>       0.50000000       0.50000000       0.50000000 </v>
   <v>       0.75000000       0.75000000       0.75000000 </v>
  </varray>
 </structure>
 <calculation>
  <scstep>
   <time name="dav">    0.25    0.25</time>
   <time name="total">    0.28    0.30</time>
   <energy>
    <i name="alphaZ">      3.36414203 </i>
    <i name="ewald">   -228.56352493 </i>
    <i name="hartreedc">    -11.00108243 </i>
    <i name="XCdc">    -18.60181216 </i>
    <i name="pawpsdc">     65.95520812 </i>
    <i name="pawaedc">    -30.76852678 </i>
    <i name="eentropy">     -0.01186695 </i>
    <i name="bandstr">     13.72645812 </i>
    <i name="atom">    206.12349923 </i>
    <i name="e_fr_energy">      0.22249424 </i>
    <i name="e_wo_entrp">      0.23436119 </i>
    <i name="e_0_energy">      0.22842771 </i>
   </energy>
  </scstep>
  <scstep>
   <time name="dav">    0.40    0.43</time>
   <time name="total">    0.41    0.43</time>
   <energy>
    <i name="e_fr_energy">    -10.89573932 </i>
    <i name="e_wo_entrp">    -10.89573900 </i>
    <i name="e_0_energy">    -10.89573916 </i>
   </energy>
  </scstep>
  <scstep>
   <time name="dav">    0.30    0.31</time>
   <time name="total">    0.30    0.31</time>
   <energy>
    <i name="e_fr_energy">    -11.00245356 </i>
    <i name="e_wo_entrp">    -11.00245312 </i>
    <i name="e_0_energy">    -11.00245334 </i>
   </energy>
  </scstep>
  <scstep>
   <time name="dav">    0.40    0.41</time>
   <time name="total">    0.40    0.41</time>
   <energy>
    <i name="e_fr_energy">    -11.00281257 </i>
    <i name="e_wo_entrp">    -11.00281214 </i>
    <i name="e_0_energy">    -11.00281236 </i>
   </energy>
  </scstep>
  <scstep>
   <time name="dav">    0.28    0.28</time>
   <time name="total">    0.30    0.30</time>
   <energy>
    <i name="e_fr_energy">    -11.00281271 </i>
    <i name="e_wo_entrp">    -11.00281227 </i>
    <i name="e_0_energy">    -11.00281249 </i>
   </energy>
  </scstep>
  <scstep>
   <time name="dav">    0.27    0.27</time>
   <time name="total">    0.31    0.32</time>
   <energy>
    <i name="e_fr_energy">    -10.87868521 </i>
    <i name="e_wo_entrp">    -10.87868172 </i>
    <i name="e_0_energy">    -10.87868346 </i>
   </energy>
  </scstep>
  <scstep>
   <time name="dav">    0.30    0.30</time>
   <time name="total">    0.35    0.36</time>
   <energy>
    <i name="e_fr_energy">    -10.82225222 </i>
    <i name="e_wo_entrp">    -10.82221822 </i>
    <i name="e_0_energy">    -10.82223522 </i>
   </energy>
  </scstep>
  <scstep>
   <time name="dav">    0.25    0.25</time>
   <time name="total">    0.30    0.32</time>
   <energy>
    <i name="e_fr_energy">    -10.82354569 </i>
    <i name="e_wo_entrp">    -10.82351984 </i>
    <i name="e_0_energy">    -10.82353277 </i>
   </energy>
  </scstep>
  <scstep>
   <time name="dav">    0.23    0.23</time>
   <time name="total">    0.26    0.28</time>
   <energy>
    <i name="alphaZ">      3.36414203 </i>
    <i name="ewald">   -228.56352493 </i>
    <i name="hartreedc">    -14.89877853 </i>
    <i name="XCdc">    -17.95428649 </i>
    <i name="pawpsdc">     74.98834239 </i>
    <i name="pawaedc">    -40.03190880 </i>
    <i name="eentropy">     -0.00002560 </i>
    <i name="bandstr">      6.14890295 </i>
    <i name="atom">    206.12349923 </i>
    <i name="e_fr_energy">    -10.82363775 </i>
    <i name="e_wo_entrp">    -10.82361215 </i>
    <i name="e_0_energy">    -10.82362495 </i>
   </energy>
  </scstep>
  <structure>
   <crystal>
    <varray name="basis" >
     <v>       0.00000000       2.71500000       2.71500000 </v>
     <v>       2.71500000       0.00000000       2.71500000 </v>
     <v>       2.71500000       2.71500000       0.00000000 </v>
    </varray>
    <i name="volume">     40.02575175 </i>
    <varray name="rec_basis" >
     <v>      -0.18416206       0.18416206       0.18416206 </v>
     <v>       0.18416206      -0.18416206       0.18416206 </v>
     <v>       0.18416206       0.18416206      -0.18416206 </v>
    </varray>
   </crystal>
   <varray name="positions" >
    <v>       0.50000000       0.50000000       0.50000000 </v>
    <v>       0.75000000       0.75000000       0.75000000 </v>
   </varray>
  </structure>
  <varray name="forces" >
   <v>      -0.00000000       0.00000000       0.00000000 </v>
   <v>       0.00000000      -0.00000000      -0.00000000 </v>
  </varray>
  <varray name="stress" >
   <v>      18.19637258       0.00000000      -0.00000000 </v>
   <v>       0.00000000      18.19637258      -0.00000000 </v>
   <v>      -0.00000000       0.00000000      18.19637258 </v>
  </varray>
  <energy>
   <i name="e_fr_energy">    -10.82363775 </i>
   <i name="e_wo_entrp">    -10.82362495 </i>
   <i name="e_0_energy">     -0.00002560 </i>
  </energy>
  <time name="totalsc">    3.86    4.70</time>
  <eigenvalues>
   <array>
    <dimension dim="1">band</dimension>
    <dimension dim="2">kpoint</dimension>
    <dimension dim="3">spin</dimension>
    <field>eigene</field>
    <field>occ</field>
    <set>
     <set comment="spin 1">
      <set comment="kpoint 1">
       <r>   -6.0408    1.0000 </r>
       <r>    4.9806    1.0000 </r>
       <r>    5.6958    0.9993 </r>
       <r>    5.6958    0.9993 </r>
       <r>    8.4532    0.0000 </r>
       <r>    8.6210    0.0000 </r>
       <r>    8.6210    0.0000 </r>
       <r>    9.8702    0.0000 </r>
      </set>
      <set comment="kpoint 2">
       <r>   -5.5624    1.0000 </r>
       <r>    2.8925    1.0000 </r>
       <r>    4.4500    1.0000 </r>
       <r>    5.4834    1.0000 </r>
       <r>    8.5616    0.0000 </r>
       <r>    9.0167    0.0000 </r>
       <r>    9.3789    0.0000 </r>
       <r>   11.5884    0.0000 </r>
      </set>
      <set comment="kpoint 3">
       <r>   -4.4652    1.0000 </r>
       <r>    0.1156    1.0000 </r>
       <r>    3.9854    1.0000 </r>
       <r>    4.8426    1.0000 </r>
       <r>    8.0555    0.0000 </r>
       <r>    9.4024    0.0000 </r>
       <r>    9.4426    0.0000 </r>
       <r>   13.3362    0.0000 </r>
      </set>
      <set comment="kpoint 4">
       <r>   -3.7619    1.0000 </r>
       <r>   -1.0354    1.0000 </r>
       <r>    4.0539    1.0000 </r>
       <r>    4.4591    1.0000 </r>
       <r>    7.8940    0.0000 </r>
       <r>    9.1180    0.0000 </r>
       <r>    9.5489    0.0000 </r>
       <r>   13.7629    0.0000 </r>
      </set>
      <set comment="kpoint 5">
       <r>   -4.8790    1.0000 </r>
       <r>    0.9669    1.0000 </r>
       <r>    4.5189    1.0000 </r>
       <r>    4.5562    1.0000 </r>
       <r>    8.1411    0.0000 </r>
       <r>    9.1466    0.0000 </r>
       <r>    9.9435    0.0000 </r>
       <r>   11.8286    0.0000 </r>
      </set>
      <set comment="kpoint 6">
       <r>   -5.7993    1.0000 </r>
       <r>    3.9091    1.0000 </r>
       <r>    5.0438    1.0000 </r>
       <r>    5.2348    1.0000 </r>
       <r>    8.1557    0.0000 </r>
       <r>    9.0712    0.0000 </r>
       <r>    9.5297    0.0000 </r>
       <r>   10.7473    0.0000 </r>
      </set>
      <set comment="kpoint 7">
       <r>   -5.3203    1.0000 </r>
       <r>    2.7101    1.0000 </r>
       <r>    4.2956    1.0000 </r>
       <r>    4.3082    1.0000 </r>
       <r>    7.5671    0.0000 </r>
       <r>    9.7476    0.0000 </r>
       <r>   10.5338    0.0000 </r>
       <r>   10.7606    0.0000 </r>
      </set>
      <set comment="kpoint 8">
       <r>   -4.4061    1.0000 </r>
       <r>    0.8631    1.0000 </r>
       <r>    2.9667    1.0000 </r>
       <r>    3.9191    1.0000 </r>
       <r>    7.9682    0.0000 </r>
       <r>    9.5992    0.0000 </r>
       <r>   10.4139    0.0000 </r>
       <r>   11.8800    0.0000 </r>
      </set>
      <set comment="kpoint 9">
       <r>   -3.2829    1.0000 </r>
       <r>   -0.9009    1.0000 </r>
       <r>    2.3638    1.0000 </r>
       <r>    3.6893    1.0000 </r>
       <r>    8.2189    0.0000 </r>
       <r>    9.7862    0.0000 </r>
       <r>   11.7538    0.0000 </r>
       <r>   12.1333    0.0000 </r>
      </set>
      <set comment="kpoint 10">
       <r>   -4.0094    1.0000 </r>
       <r>    0.1653    1.0000 </r>
       <r>    2.3192    1.0000 </r>
       <r>    4.1800    1.0000 </r>
       <r>    8.8296    0.0000 </r>
       <r>    9.4544    0.0000 </r>
       <r>   11.1443    0.0000 </r>
       <r>   11.6270    0.0000 </r>
      </set>
      <set comment="kpoint 11">
       <r>   -5.0939    1.0000 </r>
       <r>    1.8660    1.0000 </r>
       <r>    3.6686    1.0000 </r>
       <r>    4.8546    1.0000 </r>
       <r>    8.4641    0.0000 </r>
       <r>    9.3621    0.0000 </r>
       <r>   10.4141    0.0000 </r>
       <r>   10.7509    0.0000 </r>
      </set>
      <set comment="kpoint 12">
       <r>   -3.6914    1.0000 </r>
       <r>    0.0364    1.0000 </r>
       <r>    2.9297    1.0000 </r>
       <r>    3.2731    1.0000 </r>
       <r>    6.7339    0.0000 </r>
       <r>    7.7092    0.0000 </r>
       <r>   13.4508    0.0000 </r>
       <r>   13.4956    0.0000 </r>
      </set>
      <set comment="kpoint 13">
       <r>   -2.4896    1.0000 </r>
       <r>   -1.3096    1.0000 </r>
       <r>    2.0803    1.0000 </r>
       <r>    2.8623    1.0000 </r>
       <r>    7.3592    0.0000 </r>
       <r>    8.4886    0.0000 </r>
       <r>   12.9783    0.0000 </r>
       <r>   14.4614    0.0000 </r>
      </set>
      <set comment="kpoint 14">
       <r>   -2.8610    1.0000 </r>
       <r>   -0.9758    1.0000 </r>
       <r>    1.5946    1.0000 </r>
       <r>    3.4115    1.0000 </r>
       <r>    7.9837    0.0000 </r>
       <r>   10.9116    0.0000 </r>
       <r>   11.9077    0.0000 </r>
       <r>   12.5887    0.0000 </r>
      </set>
      <set comment="kpoint 15">
       <r>   -3.8962    1.0000 </r>
       <r>   -0.5290    1.0000 </r>
       <r>    3.2713    1.0000 </r>
       <r>    4.2793    1.0000 </r>
       <r>    8.4520    0.0000 </r>
       <r>    9.0500    0.0000 </r>
       <r>   10.3924    0.0000 </r>
       <r>   12.6198    0.0000 </r>
      </set>
      <set comment="kpoint 16">
       <r>   -2.5825    1.0000 </r>
       <r>   -1.3180    1.0000 </r>
       <r>    2.6581    1.0000 </r>
       <r>    3.0568    1.0000 </r>
       <r>    6.6185    0.0004 </r>
       <r>    7.1880    0.0000 </r>
       <r>   14.9392    0.0000 </r>
       <r>   15.0380    0.0000 </r>
      </set>
      <set comment="kpoint 17">
       <r>   -3.5218    1.0000 </r>
       <r>   -0.1887    1.0000 </r>
       <r>    2.4055    1.0000 </r>
       <r>    3.2048    1.0000 </r>
       <r>    7.5727    0.0000 </r>
       <r>    8.8584    0.0000 </r>
       <r>   11.6197    0.0000 </r>
       <r>   13.4465    0.0000 </r>
      </set>
      <set comment="kpoint 18">
       <r>   -4.6126    1.0000 </r>
       <r>    1.4073    1.0000 </r>
       <r>    3.4788    1.0000 </r>
       <r>    3.6983    1.0000 </r>
       <r>    7.0567    0.0000 </r>
       <r>    8.6300    0.0000 </r>
       <r>   11.9000    0.0000 </r>
       <r>   12.0976    0.0000 </r>
      </set>
      <set comment="kpoint 19">
       <r>   -5.3319    1.0000 </r>
       <r>    1.9071    1.0000 </r>
       <r>    5.0770    1.0000 </r>
       <r>    5.0770    1.0000 </r>
       <r>    7.8728    0.0000 </r>
       <r>    9.3547    0.0000 </r>
       <r>    9.3547    0.0000 </r>
       <r>   12.7616    0.0000 </r>
      </set>
      <set comment="kpoint 20">
       <r>   -4.6498    1.0000 </r>
       <r>    0.9745    1.0000 </r>
       <r>    2.9306    1.0000 </r>
       <r>    4.9064    1.0000 </r>
       <r>    8.6315    0.0000 </r>
       <r>    9.8485    0.0000 </r>
       <r>   10.0300    0.0000 </r>
       <r>   11.9823    0.0000 </r>
      </set>
      <set comment="kpoint 21">
       <r>   -3.4647    1.0000 </r>
       <r>   -0.4710    1.0000 </r>
       <r>    1.8156    1.0000 </r>
       <r>    4.1140    1.0000 </r>
       <r>    7.8720    0.0000 </r>
       <r>   11.1743    0.0000 </r>
       <r>   11.2961    0.0000 </r>
       <r>   13.0370    0.0000 </r>
      </set>
      <set comment="kpoint 22">
       <r>   -3.4125    1.0000 </r>
       <r>   -0.5506    1.0000 </r>
       <r>    2.2986    1.0000 </r>
       <r>    3.6287    1.0000 </r>
       <r>    7.3662    0.0000 </r>
       <r>   10.3004    0.0000 </r>
       <r>   11.5961    0.0000 </r>
       <r>   11.7795    0.0000 </r>
      </set>
      <set comment="kpoint 23">
       <r>   -4.2238    1.0000 </r>
       <r>    0.1614    1.0000 </r>
       <r>    3.4020    1.0000 </r>
       <r>    4.0044    1.0000 </r>
       <r>    7.8571    0.0000 </r>
       <r>   10.1095    0.0000 </r>
       <r>   10.7505    0.0000 </r>
       <r>   10.9051    0.0000 </r>
      </set>
      <set comment="kpoint 24">
       <r>   -3.2167    1.0000 </r>
       <r>   -0.5816    1.0000 </r>
       <r>    1.9159    1.0000 </r>
       <r>    3.2015    1.0000 </r>
       <r>    9.0749    0.0000 </r>
       <r>    9.6161    0.0000 </r>
       <r>   10.6065    0.0000 </r>
       <r>   13.3582    0.0000 </r>
      </set>
      <set comment="kpoint 25">
       <r>   -2.3814    1.0000 </r>
       <r>   -1.3173    1.0000 </r>
       <r>    1.7482    1.0000 </r>
       <r>    2.5289    1.0000 </r>
       <r>    8.8717    0.0000 </r>
       <r>   10.1383    0.0000 </r>
       <r>   10.9605    0.0000 </r>
       <r>   12.3512    0.0000 </r>
      </set>
      <set comment="kpoint 26">
       <r>   -2.5928    1.0000 </r>
       <r>   -1.2247    1.0000 </r>
       <r>    1.6211    1.0000 </r>
       <r>    3.4331    1.0000 </r>
       <r>    7.0862    0.0000 </r>
       <r>   10.0143    0.0000 </r>
       <r>   12.9566    0.0000 </r>
       <r>   13.1705    0.0000 </r>
      </set>
      <set comment="kpoint 27">
       <r>   -4.1338    1.0000 </r>
       <r>   -0.6328    1.0000 </r>
       <r>    4.6866    1.0000 </r>
       <r>    4.6866    1.0000 </r>
       <r>    7.4391    0.0000 </r>
       <r>    9.2479    0.0000 </r>
       <r>    9.2479    0.0000 </r>
       <r>   13.6451    0.0000 </r>
      </set>
      <set comment="kpoint 28">
       <r>   -3.5254    1.0000 </r>
       <r>   -0.9342    1.0000 </r>
       <r>    2.8427    1.0000 </r>
       <r>    4.2422    1.0000 </r>
       <r>    8.0337    0.0000 </r>
       <r>    9.9177    0.0000 </r>
       <r>   10.2476    0.0000 </r>
       <r>   13.8350    0.0000 </r>
      </set>
     </set>
    </set>
   </array>
  </eigenvalues>
  <separator name="orbital magnetization" >
   <v name="MAGDIPOLOUT">      0.00000000      0.00000000      0.00000000</v>
  </separator>
  <dos>
   <i name="efermi">      6.14830182 </i>
   <total>
    <array>
     <dimension dim="1">gridpoints</dimension>
     <dimension dim="2">spin</dimension>
     <field>energy</field>
     <field>total</field>
     <field>integrated</field>
     <set>
      <set comment="spin 1">
       <r>    -8.0408     0.0000     0.0000 </r>
       <r>    -7.9572     0.0000     0.0000 </r>
       <r>    -7.8736     0.0000     0.0000 </r>
       <r>    -7.7900     0.0000     0.0000 </r>
       <r>    -7.7064     0.0000     0.0000 </r>
       <r>    -7.6228     0.0000     0.0000 </r>
       <r>    -7.5392     0.0000     0.0000 </r>
       <r>    -7.4556     0.0000     0.0000 </r>
       <r>    -7.3720     0.0000     0.0000 </r>
       <r>    -7.2885     0.0000     0.0000 </r>
       <r>    -7.2049     0.0000     0.0000 </r>
       <r>    -7.1213     0.0000     0.0000 </r>
       <r>    -7.0377     0.0000     0.0000 </r>
       <r>    -6.9541     0.0000     0.0000 </r>
       <r>    -6.8705     0.0000     0.0000 </r>
       <r>    -6.7869     0.0000     0.0000 </r>
       <r>    -6.7033     0.0000     0.0000 </r>
       <r>    -6.6197     0.0000     0.0000 </r>
       <r>    -6.5361     0.0000     0.0000 </r>
       <r>    -6.4525     0.0003     0.0000 </r>
       <r>    -6.3689     0.0019     0.0002 </r>
       <r>    -6.2853     0.0072     0.0008 </r>
       <r>    -6.2017     0.0203     0.0025 </r>
       <r>    -6.1181     0.0431     0.0061 </r>
       <r>    -6.0345     0.0741     0.0123 </r>
       <r>    -5.9509     0.1127     0.0217 </r>
       <r>    -5.8673     0.1574     0.0349 </r>
       <r>    -5.7837     0.1978     0.0514 </r>
       <r>    -5.7001     0.2220     0.0700 </r>
       <r>    -5.6165     0.2340     0.0895 </r>
       <r>    -5.5329     0.2450     0.1100 </r>
       <r>    -5.4493     0.2625     0.1319 </r>
       <r>    -5.3657     0.2917     0.1563 </r>
       <r>    -5.2821     0.3320     0.1841 </r>
       <r>    -5.1985     0.3768     0.2156 </r>
       <r>    -5.1150     0.4128     0.2501 </r>
       <r>    -5.0314     0.4161     0.2849 </r>
       <r>    -4.9478     0.3804     0.3167 </r>
       <r>    -4.8642     0.3384     0.3450 </r>
       <r>    -4.7806     0.3345     0.3729 </r>
       <r>    -4.6970     0.3891     0.4055 </r>
       <r>    -4.6134     0.4853     0.4460 </r>
       <r>    -4.5298     0.5824     0.4947 </r>
       <r>    -4.4462     0.6386     0.5481 </r>
       <r>    -4.3626     0.6266     0.6005 </r>
       <r>    -4.2790     0.5610     0.6474 </r>
       <r>    -4.1954     0.5060     0.6897 </r>
       <r>    -4.1118     0.5225     0.7334 </r>
       <r>    -4.0282     0.6086     0.7842 </r>
       <r>    -3.9446     0.7000     0.8427 </r>
       <r>    -3.8610     0.7339     0.9041 </r>
       <r>    -3.7774     0.7154     0.9639 </r>
       <r>    -3.6938     0.7114     1.0234 </r>
       <r>    -3.6102     0.7786     1.0885 </r>
       <r>    -3.5266     0.8980     1.1635 </r>
       <r>    -3.4430     0.9891     1.2462 </r>
       <r>    -3.3594     1.0000     1.3298 </r>
       <r>    -3.2758     0.9317     1.4077 </r>
       <r>    -3.1922     0.7846     1.4733 </r>
       <r>    -3.1086     0.5792     1.5217 </r>
       <r>    -3.0251     0.4049     1.5556 </r>
       <r>    -2.9415     0.3425     1.5842 </r>
       <r>    -2.8579     0.3686     1.6150 </r>
       <r>    -2.7743     0.4154     1.6497 </r>
       <r>    -2.6907     0.4830     1.6901 </r>
       <r>    -2.6071     0.6069     1.7408 </r>
       <r>    -2.5235     0.7467     1.8033 </r>
       <r>    -2.4399     0.7950     1.8697 </r>
       <r>    -2.3563     0.6898     1.9274 </r>
       <r>    -2.2727     0.4746     1.9671 </r>
       <r>    -2.1891     0.2531     1.9882 </r>
       <r>    -2.1055     0.1023     1.9968 </r>
       <r>    -2.0219     0.0308     1.9993 </r>
       <r>    -1.9383     0.0068     1.9999 </r>
       <r>    -1.8547     0.0013     2.0000 </r>
       <r>    -1.7711     0.0020     2.0002 </r>
       <r>    -1.6875     0.0121     2.0012 </r>
       <r>    -1.6039     0.0558     2.0059 </r>
       <r>    -1.5203     0.1840     2.0212 </r>
       <r>    -1.4367     0.4359     2.0577 </r>
       <r>    -1.3531     0.7487     2.1203 </r>
       <r>    -1.2695     0.9550     2.2001 </r>
       <r>    -1.1859     0.9692     2.2811 </r>
       <r>    -1.1023     0.9121     2.3574 </r>
       <r>    -1.0187     0.9273     2.4349 </r>
       <r>    -0.9351     0.9652     2.5156 </r>
       <r>    -0.8516     0.8968     2.5905 </r>
       <r>    -0.7680     0.7621     2.6542 </r>
       <r>    -0.6844     0.7378     2.7159 </r>
       <r>    -0.6008     0.8681     2.7885 </r>
       <r>    -0.5172     0.9741     2.8699 </r>
       <r>    -0.4336     0.8880     2.9442 </r>
       <r>    -0.3500     0.6699     3.0002 </r>
       <r>    -0.2664     0.4982     3.0418 </r>
       <r>    -0.1828     0.4445     3.0790 </r>
       <r>    -0.0992     0.4683     3.1181 </r>
       <r>    -0.0156     0.5482     3.1639 </r>
       <r>     0.0680     0.6748     3.2204 </r>
       <r>     0.1516     0.7569     3.2836 </r>
       <r>     0.2352     0.6809     3.3406 </r>
       <r>     0.3188     0.4614     3.3791 </r>
       <r>     0.4024     0.2302     3.3984 </r>
       <r>     0.4860     0.0875     3.4057 </r>
       <r>     0.5696     0.0443     3.4094 </r>
       <r>     0.6532     0.0838     3.4164 </r>
       <r>     0.7368     0.2049     3.4335 </r>
       <r>     0.8204     0.3859     3.4658 </r>
       <r>     0.9040     0.5411     3.5110 </r>
       <r>     0.9876     0.5667     3.5584 </r>
       <r>     1.0712     0.4469     3.5958 </r>
       <r>     1.1548     0.2770     3.6189 </r>
       <r>     1.2383     0.1715     3.6332 </r>
       <r>     1.3219     0.1779     3.6481 </r>
       <r>     1.4055     0.2815     3.6717 </r>
       <r>     1.4891     0.4527     3.7095 </r>
       <r>     1.5727     0.6637     3.7650 </r>
       <r>     1.6563     0.8814     3.8387 </r>
       <r>     1.7399     1.0732     3.9284 </r>
       <r>     1.8235     1.2014     4.0288 </r>
       <r>     1.9071     1.2102     4.1300 </r>
       <r>     1.9907     1.0831     4.2205 </r>
       <r>     2.0743     0.9075     4.2964 </r>
       <r>     2.1579     0.8285     4.3657 </r>
       <r>     2.2415     0.9306     4.4434 </r>
       <r>     2.3251     1.1429     4.5390 </r>
       <r>     2.4087     1.2761     4.6457 </r>
       <r>     2.4923     1.2165     4.7474 </r>
       <r>     2.5759     1.0453     4.8347 </r>
       <r>     2.6595     0.9345     4.9129 </r>
       <r>     2.7431     0.9946     4.9960 </r>
       <r>     2.8267     1.2035     5.0966 </r>
       <r>     2.9103     1.4125     5.2147 </r>
       <r>     2.9939     1.4788     5.3383 </r>
       <r>     3.0775     1.4390     5.4586 </r>
       <r>     3.1611     1.4461     5.5795 </r>
       <r>     3.2447     1.5316     5.7075 </r>
       <r>     3.3283     1.5786     5.8395 </r>
       <r>     3.4118     1.5119     5.9659 </r>
       <r>     3.4954     1.3861     6.0818 </r>
       <r>     3.5790     1.3004     6.1905 </r>
       <r>     3.6626     1.2728     6.2969 </r>
       <r>     3.7462     1.2365     6.4002 </r>
       <r>     3.8298     1.1805     6.4989 </r>
       <r>     3.9134     1.1768     6.5973 </r>
       <r>     3.9970     1.2429     6.7012 </r>
       <r>     4.0806     1.3282     6.8122 </r>
       <r>     4.1642     1.4039     6.9296 </r>
       <r>     4.2478     1.4432     7.0502 </r>
       <r>     4.3314     1.3919     7.1666 </r>
       <r>     4.4150     1.2398     7.2702 </r>
       <r>     4.4986     1.0403     7.3572 </r>
       <r>     4.5822     0.8478     7.4281 </r>
       <r>     4.6658     0.7141     7.4878 </r>
       <r>     4.7494     0.6947     7.5458 </r>
       <r>     4.8330     0.7730     7.6105 </r>
       <r>     4.9166     0.8368     7.6804 </r>
       <r>     5.0002     0.7941     7.7468 </r>
       <r>     5.0838     0.6603     7.8020 </r>
       <r>     5.1674     0.5051     7.8442 </r>
       <r>     5.2510     0.3758     7.8756 </r>
       <r>     5.3346     0.2888     7.8998 </r>
       <r>     5.4182     0.2452     7.9203 </r>
       <r>     5.5017     0.2298     7.9395 </r>
       <r>     5.5853     0.2163     7.9576 </r>
       <r>     5.6689     0.1892     7.9734 </r>
       <r>     5.7525     0.1471     7.9857 </r>
       <r>     5.8361     0.0962     7.9937 </r>
       <r>     5.9197     0.0495     7.9978 </r>
       <r>     6.0033     0.0191     7.9994 </r>
       <r>     6.0869     0.0054     7.9999 </r>
       <r>     6.1705     0.0016     8.0000 </r>
       <r>     6.2541     0.0032     8.0003 </r>
       <r>     6.3377     0.0138     8.0014 </r>
       <r>     6.4213     0.0459     8.0053 </r>
       <r>     6.5049     0.1120     8.0146 </r>
       <r>     6.5885     0.2027     8.0316 </r>
       <r>     6.6721     0.2759     8.0547 </r>
       <r>     6.7557     0.2917     8.0790 </r>
       <r>     6.8393     0.2656     8.1012 </r>
       <r>     6.9229     0.2662     8.1235 </r>
       <r>     7.0065     0.3408     8.1520 </r>
       <r>     7.0901     0.4598     8.1904 </r>
       <r>     7.1737     0.5664     8.2378 </r>
       <r>     7.2573     0.6523     8.2923 </r>
       <r>     7.3409     0.7364     8.3539 </r>
       <r>     7.4245     0.8069     8.4213 </r>
       <r>     7.5081     0.8392     8.4915 </r>
       <r>     7.5917     0.8329     8.5611 </r>
       <r>     7.6752     0.8235     8.6299 </r>
       <r>     7.7588     0.8914     8.7045 </r>
       <r>     7.8424     1.0982     8.7963 </r>
       <r>     7.9260     1.3745     8.9112 </r>
       <r>     8.0096     1.5480     9.0406 </r>
       <r>     8.0932     1.5142     9.1672 </r>
       <r>     8.1768     1.3281     9.2782 </r>
       <r>     8.2604     1.1450     9.3739 </r>
       <r>     8.3440     1.1172     9.4673 </r>
       <r>     8.4276     1.2716     9.5736 </r>
       <r>     8.5112     1.4473     9.6946 </r>
       <r>     8.5948     1.4648     9.8170 </r>
       <r>     8.6784     1.3547     9.9303 </r>
       <r>     8.7620     1.3001    10.0390 </r>
       <r>     8.8456     1.3895    10.1551 </r>
       <r>     8.9292     1.5459    10.2844 </r>
       <r>     9.0128     1.6570    10.4229 </r>
       <r>     9.0964     1.6536    10.5611 </r>
       <r>     9.1800     1.5425    10.6901 </r>
       <r>     9.2636     1.4567    10.8118 </r>
       <r>     9.3472     1.5325    10.9399 </r>
       <r>     9.4308     1.7145    11.0833 </r>
       <r>     9.5144     1.8215    11.2355 </r>
       <r>     9.5980     1.7611    11.3828 </r>
       <r>     9.6816     1.5898    11.5157 </r>
       <r>     9.7651     1.4196    11.6343 </r>
       <r>     9.8487     1.3155    11.7443 </r>
       <r>     9.9323     1.2677    11.8503 </r>
       <r>    10.0159     1.2403    11.9540 </r>
       <r>    10.0995     1.2139    12.0554 </r>
       <r>    10.1831     1.2052    12.1562 </r>
       <r>    10.2667     1.2602    12.2615 </r>
       <r>    10.3503     1.3808    12.3770 </r>
       <r>    10.4339     1.4689    12.4998 </r>
       <r>    10.5175     1.4421    12.6203 </r>
       <r>    10.6011     1.3657    12.7345 </r>
       <r>    10.6847     1.3567    12.8479 </r>
       <r>    10.7683     1.4139    12.9661 </r>
       <r>    10.8519     1.4369    13.0862 </r>
       <r>    10.9355     1.3565    13.1996 </r>
       <r>    11.0191     1.1895    13.2990 </r>
       <r>    11.1027     1.0009    13.3827 </r>
       <r>    11.1863     0.8290    13.4520 </r>
       <r>    11.2699     0.6662    13.5077 </r>
       <r>    11.3535     0.5406    13.5529 </r>
       <r>    11.4371     0.5569    13.5994 </r>
       <r>    11.5207     0.7905    13.6655 </r>
       <r>    11.6043     1.1625    13.7627 </r>
       <r>    11.6879     1.4939    13.8876 </r>
       <r>    11.7715     1.6810    14.0281 </r>
       <r>    11.8551     1.7191    14.1718 </r>
       <r>    11.9386     1.6078    14.3062 </r>
       <r>    12.0222     1.3676    14.4206 </r>
       <r>    12.1058     1.0840    14.5112 </r>
       <r>    12.1894     0.8416    14.5815 </r>
       <r>    12.2730     0.6747    14.6379 </r>
       <r>    12.3566     0.5920    14.6874 </r>
       <r>    12.4402     0.5943    14.7371 </r>
       <r>    12.5238     0.6631    14.7925 </r>
       <r>    12.6074     0.7275    14.8534 </r>
       <r>    12.6910     0.7014    14.9120 </r>
       <r>    12.7746     0.6078    14.9628 </r>
       <r>    12.8582     0.5726    15.0107 </r>
       <r>    12.9418     0.6447    15.0645 </r>
       <r>    13.0254     0.7262    15.1253 </r>
       <r>    13.1090     0.7306    15.1863 </r>
       <r>    13.1926     0.7181    15.2464 </r>
       <r>    13.2762     0.8032    15.3135 </r>
       <r>    13.3598     0.9738    15.3949 </r>
       <r>    13.4434     1.0727    15.4846 </r>
       <r>    13.5270     0.9763    15.5662 </r>
       <r>    13.6106     0.7453    15.6285 </r>
       <r>    13.6942     0.5400    15.6736 </r>
       <r>    13.7778     0.4283    15.7094 </r>
       <r>    13.8614     0.3516    15.7388 </r>
       <r>    13.9450     0.2502    15.7598 </r>
       <r>    14.0285     0.1392    15.7714 </r>
       <r>    14.1121     0.0641    15.7768 </r>
       <r>    14.1957     0.0480    15.7808 </r>
       <r>    14.2793     0.0952    15.7887 </r>
       <r>    14.3629     0.1922    15.8048 </r>
       <r>    14.4465     0.2860    15.8287 </r>
       <r>    14.5301     0.3047    15.8542 </r>
       <r>    14.6137     0.2362    15.8739 </r>
       <r>    14.6973     0.1500    15.8865 </r>
       <r>    14.7809     0.1235    15.8968 </r>
       <r>    14.8645     0.1742    15.9113 </r>
       <r>    14.9481     0.2543    15.9326 </r>
       <r>    15.0317     0.2915    15.9570 </r>
       <r>    15.1153     0.2496    15.9778 </r>
       <r>    15.1989     0.1582    15.9911 </r>
       <r>    15.2825     0.0739    15.9972 </r>
       <r>    15.3661     0.0253    15.9994 </r>
       <r>    15.4497     0.0063    15.9999 </r>
       <r>    15.5333     0.0011    16.0000 </r>
       <r>    15.6169     0.0001    16.0000 </r>
       <r>    15.7005     0.0000    16.0000 </r>
       <r>    15.7841     0.0000    16.0000 </r>
       <r>    15.8677     0.0000    16.0000 </r>
       <r>    15.9513     0.0000    16.0000 </r>
       <r>    16.0349     0.0000    16.0000 </r>
       <r>    16.1184     0.0000    16.0000 </r>
       <r>    16.2020     0.0000    16.0000 </r>
       <r>    16.2856     0.0000    16.0000 </r>
       <r>    16.3692     0.0000    16.0000 </r>
       <r>    16.4528     0.0000    16.0000 </r>
       <r>    16.5364     0.0000    16.0000 </r>
       <r>    16.6200     0.0000    16.0000 </r>
       <r>    16.7036     0.0000    16.0000 </r>
       <r>    16.7872     0.0000    16.0000 </r>
       <r>    16.8708     0.0000    16.0000 </r>
       <r>    16.9544     0.0000    16.0000 </r>
       <r>    17.0380     0.0000    16.0000 </r>
      </set>
     </set>
    </array>
   </total>
  </dos>
 </calculation>
 <structure name="finalpos" >
  <crystal>
   <varray name="basis" >
    <v>       0.00000000       2.71500000       2.71500000 </v>
    <v>       2.71500000       0.00000000       2.71500000 </v>
    <v>       2.71500000       2.71500000       0.00000000 </v>
   </varray>
   <i name="volume">     40.02575175 </i>
   <varray name="rec_basis" >
    <v>      -0.18416206       0.18416206       0.18416206 </v>
    <v>       0.18416206      -0.18416206       0.18416206 </v>
    <v>       0.18416206       0.18416206      -0.18416206 </v>
   </varray>
  </crystal>
  <varray name="positions" >
   <v>       0.50000000       0.50000000       0.50000000 </v>
   <v>       0.75000000       0.75000000       0.75000000 </v>
  </varray>
 </structure>
</modeling>
