    2    2   15    1
  0.2001288E+02  0.3839590E-09  0.3839590E-09  0.3839590E-09  0.5000000E-15
  1.000000000000000E-004
  CAR 
 unknown system                          
      8    110      8
 
  0.5000000E-01  0.5000000E-01  0.5000000E-01  0.2000000E-02
    1       -6.162013   1.000000
    2        5.283082   0.999999
    3        5.588108   0.995697
    4        5.588108   0.995697
    5        8.247903   0.000000
    6        8.281724   0.000000
    7        8.281724   0.000000
    8        9.040919   0.000000
 
  0.1500000E+00  0.5000000E-01  0.5000000E-01  0.6000000E-02
    1       -5.990783   1.000000
    2        4.144424   1.000000
    3        5.023781   1.000000
    4        5.512153   0.999223
    5        8.300464   0.000000
    6        8.445007   0.000000
    7        8.676590   0.000000
    8       10.160804   0.000000
 
  0.2500000E+00  0.5000000E-01  0.5000000E-01  0.6000000E-02
    1       -5.571034   1.000000
    2        2.340688   1.000000
    3        4.593458   1.000000
    4        5.165895   1.000000
    5        7.942114   0.000000
    6        8.902846   0.000000
    7        9.225514   0.000000
    8       11.651515   0.000000
 
  0.3500000E+00  0.5000000E-01  0.5000000E-01  0.6000000E-02
    1       -4.935580   1.000000
    2        0.628744   1.000000
    3        4.305299   1.000000
    4        4.803020   1.000000
    5        7.610159   0.000000
    6        9.101315   0.000000
    7        9.293758   0.000000
    8       12.852301   0.000000
 
  0.4500000E+00  0.5000000E-01  0.5000000E-01  0.6000000E-02
    1       -4.208045   1.000000
    2       -0.736661   1.000000
    3        4.179832   1.000000
    4        4.531627   1.000000
    5        7.401673   0.000000
    6        9.084300   0.000000
    7        9.090415   0.000000
    8       13.476603   0.000000
 
 -0.4500000E+00  0.5000000E-01  0.5000000E-01  0.6000000E-02
    1       -3.898480   1.000000
    2       -1.207706   1.000000
    3        4.216803   1.000000
    4        4.390358   1.000000
    5        7.350670   0.000000
    6        8.951490   0.000000
    7        9.133154   0.000000
    8       13.459636   0.000000
 
 -0.3500000E+00  0.5000000E-01  0.5000000E-01  0.6000000E-02
    1       -4.442748   1.000000
    2       -0.341661   1.000000
    3        4.399215   1.000000
    4        4.402757   1.000000
    5        7.461243   0.000000
    6        8.956604   0.000000
    7        9.310617   0.000000
    8       13.126616   0.000000
 
 -0.2500000E+00  0.5000000E-01  0.5000000E-01  0.6000000E-02
    1       -5.166922   1.000000
    2        1.173855   1.000000
    3        4.566641   1.000000
    4        4.715991   1.000000
    5        7.716804   0.000000
    6        8.958363   0.000000
    7        9.464529   0.000000
    8       12.039445   0.000000
 
 -0.1500000E+00  0.5000000E-01  0.5000000E-01  0.6000000E-02
    1       -5.737172   1.000000
    2        2.950183   1.000000
    3        4.883029   1.000000
    4        5.105577   1.000000
    5        8.050663   0.000000
    6        8.658292   0.000000
    7        9.251709   0.000000
    8       11.098071   0.000000
 
 -0.5000000E-01  0.5000000E-01  0.5000000E-01  0.6000000E-02
    1       -6.076082   1.000000
    2        4.728641   1.000000
    3        5.288565   0.999999
    4        5.414069   0.999943
    5        8.089800   0.000000
    6        8.505587   0.000000
    7        8.683506   0.000000
    8        9.583183   0.000000
 
  0.1500000E+00  0.1500000E+00  0.5000000E-01  0.6000000E-02
    1       -5.904793   1.000000
    2        4.035296   1.000000
    3        4.855029   1.000000
    4        4.958698   1.000000
    5        7.778641   0.000000
    6        9.064250   0.000000
    7        9.314781   0.000000
    8       10.131050   0.000000
 
  0.2500000E+00  0.1500000E+00  0.5000000E-01  0.1200000E-01
    1       -5.566728   1.000000
    2        2.800343   1.000000
    3        4.117138   1.000000
    4        4.769388   1.000000
    5        7.840247   0.000000
    6        9.234749   0.000000
    7        9.932948   0.000000
    8       10.424900   0.000000
 
  0.3500000E+00  0.1500000E+00  0.5000000E-01  0.1200000E-01
    1       -4.997955   1.000000
    2        1.176933   1.000000
    3        3.687940   1.000000
    4        4.407545   1.000000
    5        8.050698   0.000000
    6        9.197548   0.000000
    7       10.198026   0.000000
    8       10.661019   0.000000
 
  0.4500000E+00  0.1500000E+00  0.5000000E-01  0.1200000E-01
    1       -4.273916   1.000000
    2       -0.283571   1.000000
    3        3.415768   1.000000
    4        4.131434   1.000000
    5        7.995769   0.000000
    6        9.059934   0.000000
    7       10.066392   0.000000
    8       11.802891   0.000000
 
 -0.4500000E+00  0.1500000E+00  0.5000000E-01  0.1200000E-01
    1       -3.726882   1.000000
    2       -1.134188   1.000000
    3        3.237936   1.000000
    4        4.086864   1.000000
    5        7.986878   0.000000
    6        8.933520   0.000000
    7        9.902202   0.000000
    8       13.397163   0.000000
 
 -0.3500000E+00  0.1500000E+00  0.5000000E-01  0.1200000E-01
    1       -4.041095   1.000000
    2       -0.664871   1.000000
    3        3.178127   1.000000
    4        4.274529   1.000000
    5        8.109979   0.000000
    6        8.946959   0.000000
    7        9.871815   0.000000
    8       12.859159   0.000000
 
 -0.2500000E+00  0.1500000E+00  0.5000000E-01  0.1200000E-01
    1       -4.769497   1.000000
    2        0.661556   1.000000
    3        3.296737   1.000000
    4        4.625715   1.000000
    5        8.334370   0.000000
    6        9.012430   0.000000
    7        9.922136   0.000000
    8       11.484809   0.000000
 
 -0.1500000E+00  0.1500000E+00  0.5000000E-01  0.1200000E-01
    1       -5.402893   1.000000
    2        2.231099   1.000000
    3        3.676899   1.000000
    4        5.028747   1.000000
    5        8.474954   0.000000
    6        8.843263   0.000000
    7        9.708487   0.000000
    8       10.874773   0.000000
 
 -0.5000000E-01  0.1500000E+00  0.5000000E-01  0.1200000E-01
    1       -5.820618   1.000000
    2        3.483880   1.000000
    3        4.583780   1.000000
    4        5.258402   1.000000
    5        8.165460   0.000000
    6        8.689982   0.000000
    7        9.196536   0.000000
    8       10.663986   0.000000
 
  0.2500000E+00  0.2500000E+00  0.5000000E-01  0.6000000E-02
    1       -5.310527   1.000000
    2        2.451128   1.000000
    3        3.958123   1.000000
    4        3.987072   1.000000
    5        7.076841   0.000000
    6        9.218507   0.000000
    7       10.749821   0.000000
    8       10.864397   0.000000
 
  0.3500000E+00  0.2500000E+00  0.5000000E-01  0.1200000E-01
    1       -4.815653   1.000000
    2        1.365852   1.000000
    3        3.276813   1.000000
    4        3.745519   1.000000
    5        7.210117   0.000000
    6        8.830179   0.000000
    7       10.899456   0.000000
    8       11.609800   0.000000
 
  0.4500000E+00  0.2500000E+00  0.5000000E-01  0.1200000E-01
    1       -4.128088   1.000000
    2        0.092752   1.000000
    3        2.668037   1.000000
    4        3.522561   1.000000
    5        7.459502   0.000000
    6        9.533195   0.000000
    7       10.603522   0.000000
    8       11.681322   0.000000
 
 -0.4500000E+00  0.2500000E+00  0.5000000E-01  0.1200000E-01
    1       -3.444914   1.000000
    2       -0.922337   1.000000
    3        2.194207   1.000000
    4        3.542808   1.000000
    5        7.574527   0.000000
    6       10.257801   0.000000
    7       11.156069   0.000000
    8       11.483028   0.000000
 
 -0.3500000E+00  0.2500000E+00  0.5000000E-01  0.1200000E-01
    1       -3.468904   1.000000
    2       -0.883070   1.000000
    3        1.948991   1.000000
    4        3.789416   1.000000
    5        7.849378   0.000000
    6       10.039134   0.000000
    7       11.296357   0.000000
    8       12.752474   0.000000
 
 -0.2500000E+00  0.2500000E+00  0.5000000E-01  0.1200000E-01
    1       -4.159914   1.000000
    2        0.119295   1.000000
    3        2.050569   1.000000
    4        4.203124   1.000000
    5        8.288456   0.000000
    6        9.801792   0.000000
    7       11.037383   0.000000
    8       11.313900   0.000000
 
 -0.1500000E+00  0.2500000E+00  0.5000000E-01  0.1200000E-01
    1       -4.838564   1.000000
    2        1.096685   1.000000
    3        2.795080   1.000000
    4        4.662602   1.000000
    5        8.657810   0.000000
    6        9.103180   0.000000
    7       10.316655   0.000000
    8       10.881344   0.000000
 
 -0.5000000E-01  0.2500000E+00  0.5000000E-01  0.1200000E-01
    1       -5.323775   1.000000
    2        1.744794   1.000000
    3        4.157329   1.000000
    4        4.897631   1.000000
    5        8.108368   0.000000
    6        8.872772   0.000000
    7        9.625409   0.000000
    8       11.324309   0.000000
 
  0.3500000E+00  0.3500000E+00  0.5000000E-01  0.6000000E-02
    1       -4.394579   1.000000
    2        0.751755   1.000000
    3        3.212033   1.000000
    4        3.322047   1.000000
    5        6.555172   0.000013
    6        7.865230   0.000000
    7       12.502466   0.000000
    8       12.569936   0.000000
 
  0.4500000E+00  0.3500000E+00  0.5000000E-01  0.1200000E-01
    1       -3.761672   1.000000
    2       -0.171173   1.000000
    3        2.673278   1.000000
    4        3.060045   1.000000
    5        6.810466   0.000000
    6        7.743613   0.000000
    7       12.506897   0.000000
    8       13.428491   0.000000
 
 -0.4500000E+00  0.3500000E+00  0.5000000E-01  0.1200000E-01
    1       -3.027166   1.000000
    2       -1.047871   1.000000
    3        1.870371   1.000000
    4        3.068653   1.000000
    5        7.024011   0.000000
    6        8.948468   0.000000
    7       12.173168   0.000000
    8       13.394414   0.000000
 
 -0.3500000E+00  0.3500000E+00  0.5000000E-01  0.1200000E-01
    1       -2.803100   1.000000
    2       -1.272372   1.000000
    3        1.376049   1.000000
    4        3.306968   1.000000
    5        7.301467   0.000000
    6       10.790965   0.000000
    7       11.837158   0.000000
    8       12.807765   0.000000
 
 -0.2500000E+00  0.3500000E+00  0.5000000E-01  0.1200000E-01
    1       -3.434725   1.000000
    2       -0.679007   1.000000
    3        1.536042   1.000000
    4        3.728827   1.000000
    5        7.777663   0.000000
    6       10.690757   0.000000
    7       11.852053   0.000000
    8       12.107450   0.000000
 
 -0.1500000E+00  0.3500000E+00  0.5000000E-01  0.1200000E-01
    1       -4.116760   1.000000
    2       -0.238994   1.000000
    3        2.527619   1.000000
    4        4.229390   1.000000
    5        8.276334   0.000000
    6        9.308702   0.000000
    7       10.480714   0.000000
    8       11.995256   0.000000
 
 -0.5000000E-01  0.3500000E+00  0.5000000E-01  0.1200000E-01
    1       -4.634928   1.000000
    2        0.139430   1.000000
    3        3.911963   1.000000
    4        4.542529   1.000000
    5        7.853989   0.000000
    6        8.958660   0.000000
    7        9.564227   0.000000
    8       12.300164   0.000000
 
  0.4500000E+00  0.4500000E+00  0.5000000E-01  0.6000000E-02
    1       -3.184979   1.000000
    2       -0.930264   1.000000
    3        2.791887   1.000000
    4        2.939098   1.000000
    5        6.364273   0.002112
    6        6.922659   0.000000
    7       14.348588   0.000000
    8       14.357494   0.000000
 
 -0.4500000E+00  0.4500000E+00  0.5000000E-01  0.1200000E-01
    1       -2.451775   1.000000
    2       -1.713210   1.000000
    3        2.397570   1.000000
    4        2.777926   1.000000
    5        6.689907   0.000000
    6        7.202586   0.000000
    7       14.227674   0.000000
    8       14.951255   0.000000
 
 -0.3500000E+00  0.4500000E+00  0.5000000E-01  0.1200000E-01
    1       -2.469622   1.000000
    2       -1.612168   1.000000
    3        1.696847   1.000000
    4        2.981488   1.000000
    5        6.930462   0.000000
    6        8.833284   0.000000
    7       12.991453   0.000000
    8       13.886577   0.000000
 
 -0.2500000E+00  0.4500000E+00  0.5000000E-01  0.1200000E-01
    1       -3.057405   1.000000
    2       -1.139692   1.000000
    3        1.677828   1.000000
    4        3.385029   1.000000
    5        7.395292   0.000000
    6       10.785907   0.000000
    7       11.184975   0.000000
    8       12.305532   0.000000
 
 -0.1500000E+00  0.4500000E+00  0.5000000E-01  0.1200000E-01
    1       -3.559734   1.000000
    2       -1.080136   1.000000
    3        2.569493   1.000000
    4        3.908594   1.000000
    5        7.962112   0.000000
    6        9.391198   0.000000
    7       10.556010   0.000000
    8       13.253504   0.000000
 
 -0.5000000E-01  0.4500000E+00  0.5000000E-01  0.1200000E-01
    1       -3.956495   1.000000
    2       -1.012321   1.000000
    3        3.812399   1.000000
    4        4.326016   1.000000
    5        7.702630   0.000000
    6        8.896415   0.000000
    7        9.399903   0.000000
    8       13.484505   0.000000
 
 -0.4500000E+00 -0.4500000E+00  0.5000000E-01  0.6000000E-02
    1       -2.484339   1.000000
    2       -1.728831   1.000000
    3        2.707401   1.000000
    4        2.861605   1.000000
    5        6.400144   0.000921
    6        6.657268   0.000000
    7       15.181847   0.000000
    8       15.240151   0.000000
 
 -0.3500000E+00 -0.4500000E+00  0.5000000E-01  0.1200000E-01
    1       -3.134223   1.000000
    2       -0.951514   1.000000
    3        2.490385   1.000000
    4        2.870871   1.000000
    5        6.720113   0.000000
    6        7.393679   0.000000
    7       13.358484   0.000000
    8       14.351538   0.000000
 
 -0.2500000E+00 -0.4500000E+00  0.5000000E-01  0.1200000E-01
    1       -3.599072   1.000000
    2       -0.464094   1.000000
    3        2.205972   1.000000
    4        3.245972   1.000000
    5        7.204454   0.000000
    6        9.180176   0.000000
    7       11.369999   0.000000
    8       12.520008   0.000000
 
 -0.1500000E+00 -0.4500000E+00  0.5000000E-01  0.1200000E-01
    1       -3.867872   1.000000
    2       -0.637278   1.000000
    3        2.812483   1.000000
    4        3.786974   1.000000
    5        7.810363   0.000000
    6        9.593894   0.000000
    7       10.718084   0.000000
    8       11.420936   0.000000
 
 -0.3500000E+00 -0.3500000E+00  0.5000000E-01  0.6000000E-02
    1       -3.823860   1.000000
    2       -0.098856   1.000000
    3        2.960197   1.000000
    4        3.093244   1.000000
    5        6.413978   0.000658
    6        7.330506   0.000000
    7       13.423279   0.000000
    8       13.452944   0.000000
 
 -0.2500000E+00 -0.3500000E+00  0.5000000E-01  0.1200000E-01
    1       -4.324430   1.000000
    2        0.606983   1.000000
    3        2.939410   1.000000
    4        3.350596   1.000000
    5        6.973868   0.000000
    6        8.230658   0.000000
    7       11.685182   0.000000
    8       12.506834   0.000000
 
 -0.1500000E+00 -0.3500000E+00  0.5000000E-01  0.1200000E-01
    1       -4.597453   1.000000
    2        0.632312   1.000000
    3        3.185727   1.000000
    4        3.913749   1.000000
    5        7.762170   0.000000
    6        9.822892   0.000000
    7       10.057543   0.000000
    8       10.912684   0.000000
 
 -0.2500000E+00 -0.2500000E+00  0.5000000E-01  0.6000000E-02
    1       -4.891347   1.000000
    2        1.606857   1.000000
    3        3.545894   1.000000
    4        3.622491   1.000000
    5        6.780933   0.000000
    6        8.510980   0.000000
    7       11.602932   0.000000
    8       11.703032   0.000000
 
 -0.1500000E+00 -0.2500000E+00  0.5000000E-01  0.1200000E-01
    1       -5.230922   1.000000
    2        2.096591   1.000000
    3        3.674093   1.000000
    4        4.232533   1.000000
    5        7.506177   0.000000
    6        9.431240   0.000000
    7       10.236144   0.000000
    8       10.748076   0.000000
 
 -0.1500000E+00 -0.1500000E+00  0.5000000E-01  0.6000000E-02
    1       -5.649069   1.000000
    2        3.267230   1.000000
    3        4.405170   1.000000
    4        4.439344   1.000000
    5        7.421171   0.000000
    6        9.638431   0.000000
    7       10.058504   0.000000
    8       10.167565   0.000000
 
  0.1500000E+00  0.1500000E+00  0.1500000E+00  0.2000000E-02
    1       -5.906042   1.000000
    2        3.583341   1.000000
    3        5.262706   1.000000
    4        5.262706   1.000000
    5        7.997961   0.000000
    6        8.754174   0.000000
    7        8.754174   0.000000
    8       10.628825   0.000000
 
  0.2500000E+00  0.1500000E+00  0.1500000E+00  0.6000000E-02
    1       -5.652883   1.000000
    2        2.858940   1.000000
    3        4.141429   1.000000
    4        5.327152   0.999996
    5        8.469292   0.000000
    6        8.772136   0.000000
    7        9.073235   0.000000
    8       11.152464   0.000000
 
  0.3500000E+00  0.1500000E+00  0.1500000E+00  0.6000000E-02
    1       -5.159171   1.000000
    2        1.656086   1.000000
    3        3.218202   1.000000
    4        5.006502   1.000000
    5        8.550969   0.000000
    6        9.266248   0.000000
    7        9.542777   0.000000
    8       11.350758   0.000000
 
  0.4500000E+00  0.1500000E+00  0.1500000E+00  0.6000000E-02
    1       -4.472807   1.000000
    2        0.185084   1.000000
    3        2.899909   1.000000
    4        4.572040   1.000000
    5        8.211830   0.000000
    6        9.604220   0.000000
    7        9.629435   0.000000
    8       12.400459   0.000000
 
 -0.4500000E+00  0.1500000E+00  0.1500000E+00  0.6000000E-02
    1       -3.790442   1.000000
    2       -0.941379   1.000000
    3        2.884968   1.000000
    4        4.202284   1.000000
    5        7.914789   0.000000
    6        9.461707   0.000000
    7        9.806968   0.000000
    8       13.810514   0.000000
 
 -0.3500000E+00  0.1500000E+00  0.1500000E+00  0.6000000E-02
    1       -3.784224   1.000000
    2       -0.952963   1.000000
    3        3.090309   1.000000
    4        3.977072   1.000000
    5        7.762408   0.000000
    6        9.456490   0.000000
    7       10.043957   0.000000
    8       12.413971   0.000000
 
 -0.2500000E+00  0.1500000E+00  0.1500000E+00  0.6000000E-02
    1       -4.464235   1.000000
    2        0.167075   1.000000
    3        3.473723   1.000000
    4        3.931742   1.000000
    5        7.758338   0.000000
    6        9.586477   0.000000
    7       10.347496   0.000000
    8       10.839661   0.000000
 
 -0.1500000E+00  0.1500000E+00  0.1500000E+00  0.6000000E-02
    1       -5.152758   1.000000
    2        1.694548   1.000000
    3        3.976104   1.000000
    4        4.078829   1.000000
    5        7.692172   0.000000
    6        9.547479   0.000000
    7       10.173951   0.000000
    8       10.472730   0.000000
 
  0.2500000E+00  0.2500000E+00  0.1500000E+00  0.6000000E-02
    1       -5.485442   1.000000
    2        2.318503   1.000000
    3        4.470876   1.000000
    4        4.601353   1.000000
    5        7.993756   0.000000
    6        8.956230   0.000000
    7        9.839481   0.000000
    8       10.748484   0.000000
 
  0.3500000E+00  0.2500000E+00  0.1500000E+00  0.1200000E-01
    1       -5.072789   1.000000
    2        1.609193   1.000000
    3        3.243121   1.000000
    4        4.511812   1.000000
    5        8.203354   0.000000
    6        9.282189   0.000000
    7       10.174671   0.000000
    8       10.573571   0.000000
 
  0.4500000E+00  0.2500000E+00  0.1500000E+00  0.1200000E-01
    1       -4.445309   1.000000
    2        0.553834   1.000000
    3        2.434803   1.000000
    4        4.116923   1.000000
    5        8.788632   0.000000
    6        9.059690   0.000000
    7       10.254855   0.000000
    8       11.314699   0.000000
 
 -0.4500000E+00  0.2500000E+00  0.1500000E+00  0.1200000E-01
    1       -3.715556   1.000000
    2       -0.606891   1.000000
    3        2.192170   1.000000
    4        3.722770   1.000000
    5        8.597784   0.000000
    6        9.032103   0.000000
    7       11.383885   0.000000
    8       11.669699   0.000000
 
 -0.3500000E+00  0.2500000E+00  0.1500000E+00  0.1200000E-01
    1       -3.389139   1.000000
    2       -1.062264   1.000000
    3        2.235016   1.000000
    4        3.525817   1.000000
    5        8.287902   0.000000
    6        9.224470   0.000000
    7       11.505051   0.000000
    8       12.256629   0.000000
 
 -0.2500000E+00  0.2500000E+00  0.1500000E+00  0.1200000E-01
    1       -3.942879   1.000000
    2       -0.267589   1.000000
    3        2.448676   1.000000
    4        3.611898   1.000000
    5        8.131247   0.000000
    6        9.563997   0.000000
    7       10.499185   0.000000
    8       11.593662   0.000000
 
 -0.1500000E+00  0.2500000E+00  0.1500000E+00  0.1200000E-01
    1       -4.665847   1.000000
    2        0.985484   1.000000
    3        2.863502   1.000000
    4        3.938741   1.000000
    5        7.921440   0.000000
    6        9.417162   0.000000
    7        9.979811   0.000000
    8       11.481392   0.000000
 
  0.3500000E+00  0.3500000E+00  0.1500000E+00  0.6000000E-02
    1       -4.742192   1.000000
    2        1.065146   1.000000
    3        3.360967   1.000000
    4        3.732031   1.000000
    5        7.367074   0.000000
    6        9.259129   0.000000
    7       10.647012   0.000000
    8       11.139112   0.000000
 
  0.4500000E+00  0.3500000E+00  0.1500000E+00  0.1200000E-01
    1       -4.186347   1.000000
    2        0.346529   1.000000
    3        2.551219   1.000000
    4        3.410066   1.000000
    5        7.683939   0.000000
    6        8.891176   0.000000
    7       10.619198   0.000000
    8       12.431198   0.000000
 
 -0.4500000E+00  0.3500000E+00  0.1500000E+00  0.1200000E-01
    1       -3.468540   1.000000
    2       -0.528189   1.000000
    3        1.955038   1.000000
    4        2.972543   1.000000
    5        8.399432   0.000000
    6        9.357325   0.000000
    7       10.200356   0.000000
    8       13.354553   0.000000
 
 -0.3500000E+00  0.3500000E+00  0.1500000E+00  0.1200000E-01
    1       -2.899713   1.000000
    2       -1.186622   1.000000
    3        1.652094   1.000000
    4        2.828616   1.000000
    5        8.651087   0.000000
    6        9.728099   0.000000
    7       11.121392   0.000000
    8       12.363690   0.000000
 
 -0.2500000E+00  0.3500000E+00  0.1500000E+00  0.1200000E-01
    1       -3.257947   1.000000
    2       -0.778361   1.000000
    3        1.653431   1.000000
    4        3.054022   1.000000
    5        9.022408   0.000000
    6        9.437737   0.000000
    7       10.475313   0.000000
    8       13.226348   0.000000
 
 -0.1500000E+00  0.3500000E+00  0.1500000E+00  0.1200000E-01
    1       -3.985589   1.000000
    2        0.017454   1.000000
    3        2.151549   1.000000
    4        3.518459   1.000000
    5        8.577465   0.000000
    6        9.525757   0.000000
    7        9.786409   0.000000
    8       12.324498   0.000000
 
  0.4500000E+00  0.4500000E+00  0.1500000E+00  0.6000000E-02
    1       -3.705521   1.000000
    2       -0.274582   1.000000
    3        2.415568   1.000000
    4        3.222650   1.000000
    5        6.838523   0.000000
    6        8.335160   0.000000
    7       12.441551   0.000000
    8       12.583572   0.000000
 
 -0.4500000E+00  0.4500000E+00  0.1500000E+00  0.1200000E-01
    1       -3.038068   1.000000
    2       -1.002693   1.000000
    3        2.152107   1.000000
    4        2.691564   1.000000
    5        7.390505   0.000000
    6        8.163299   0.000000
    7       12.138677   0.000000
    8       14.310868   0.000000
 
 -0.3500000E+00  0.4500000E+00  0.1500000E+00  0.1200000E-01
    1       -2.334057   1.000000
    2       -1.667178   1.000000
    3        1.819115   1.000000
    4        2.304213   1.000000
    5        8.218553   0.000000
    6        8.975418   0.000000
    7       11.716134   0.000000
    8       12.597521   0.000000
 
 -0.2500000E+00  0.4500000E+00  0.1500000E+00  0.1200000E-01
    1       -2.626771   1.000000
    2       -1.368899   1.000000
    3        1.501186   1.000000
    4        2.629368   1.000000
    5        8.571410   0.000000
    6       10.379170   0.000000
    7       11.068138   0.000000
    8       11.509873   0.000000
 
 -0.1500000E+00  0.4500000E+00  0.1500000E+00  0.1200000E-01
    1       -3.294400   1.000000
    2       -0.922028   1.000000
    3        1.896965   1.000000
    4        3.214480   1.000000
    5        8.807525   0.000000
    6        9.103042   0.000000
    7       11.299838   0.000000
    8       12.472726   0.000000
 
 -0.4500000E+00 -0.4500000E+00  0.1500000E+00  0.6000000E-02
    1       -2.452363   1.000000
    2       -1.680555   1.000000
    3        2.006362   1.000000
    4        2.998063   1.000000
    5        6.586815   0.000005
    6        7.933467   0.000000
    7       14.106529   0.000000
    8       14.331424   0.000000
 
 -0.3500000E+00 -0.4500000E+00  0.1500000E+00  0.1200000E-01
    1       -2.395545   1.000000
    2       -1.689092   1.000000
    3        2.071126   1.000000
    4        2.544108   1.000000
    5        7.336153   0.000000
    6        8.010469   0.000000
    7       12.979917   0.000000
    8       13.872697   0.000000
 
 -0.2500000E+00 -0.4500000E+00  0.1500000E+00  0.1200000E-01
    1       -2.908074   1.000000
    2       -1.093946   1.000000
    3        1.848900   1.000000
    4        2.548854   1.000000
    5        8.279361   0.000000
    6        9.104396   0.000000
    7       10.917075   0.000000
    8       13.520731   0.000000
 
 -0.3500000E+00 -0.3500000E+00  0.1500000E+00  0.6000000E-02
    1       -3.095222   1.000000
    2       -0.983936   1.000000
    3        2.141760   1.000000
    4        3.073216   1.000000
    5        6.672304   0.000000
    6        8.066368   0.000000
    7       13.363480   0.000000
    8       13.382051   0.000000
 
 -0.2500000E+00 -0.3500000E+00  0.1500000E+00  0.1200000E-01
    1       -3.640653   1.000000
    2       -0.317366   1.000000
    3        2.313096   1.000000
    4        2.984188   1.000000
    5        7.505785   0.000000
    6        8.460796   0.000000
    7       11.350925   0.000000
    8       13.402154   0.000000
 
 -0.2500000E+00 -0.2500000E+00  0.1500000E+00  0.6000000E-02
    1       -4.257879   1.000000
    2        0.411878   1.000000
    3        2.827056   1.000000
    4        3.443982   1.000000
    5        7.074410   0.000000
    6        8.739683   0.000000
    7       11.519305   0.000000
    8       11.843362   0.000000
 
  0.2500000E+00  0.2500000E+00  0.2500000E+00  0.2000000E-02
    1       -5.408417   1.000000
    2        1.745332   1.000000
    3        4.891910   1.000000
    4        4.891910   1.000000
    5        7.607233   0.000000
    6        9.140315   0.000000
    7        9.140315   0.000000
    8       12.403113   0.000000
 
  0.3500000E+00  0.2500000E+00  0.2500000E+00  0.6000000E-02
    1       -5.083925   1.000000
    2        1.184108   1.000000
    3        3.732496   1.000000
    4        4.938066   1.000000
    5        8.145151   0.000000
    6        9.173279   0.000000
    7        9.411292   0.000000
    8       11.993526   0.000000
 
  0.4500000E+00  0.2500000E+00  0.2500000E+00  0.6000000E-02
    1       -4.532251   1.000000
    2        0.595951   1.000000
    3        2.388188   1.000000
    4        4.572810   1.000000
    5        8.311142   0.000000
    6        9.931672   0.000000
    7       10.179838   0.000000
    8       11.619677   0.000000
 
 -0.4500000E+00  0.2500000E+00  0.2500000E+00  0.6000000E-02
    1       -3.818470   1.000000
    2       -0.294539   1.000000
    3        1.743106   1.000000
    4        4.093020   1.000000
    5        7.836719   0.000000
    6       10.764554   0.000000
    7       10.999127   0.000000
    8       12.225498   0.000000
 
 -0.3500000E+00  0.2500000E+00  0.2500000E+00  0.6000000E-02
    1       -3.236749   1.000000
    2       -1.065578   1.000000
    3        1.765452   1.000000
    4        3.697991   1.000000
    5        7.416929   0.000000
    6       11.073791   0.000000
    7       11.188013   0.000000
    8       12.053060   0.000000
 
 -0.2500000E+00  0.2500000E+00  0.2500000E+00  0.6000000E-02
    1       -3.526307   1.000000
    2       -0.695616   1.000000
    3        2.165912   1.000000
    4        3.470901   1.000000
    5        7.190087   0.000000
    6       10.089372   0.000000
    7       11.303623   0.000000
    8       11.541706   0.000000
 
  0.3500000E+00  0.3500000E+00  0.2500000E+00  0.6000000E-02
    1       -4.850410   1.000000
    2        0.646442   1.000000
    3        4.162881   1.000000
    4        4.236049   1.000000
    5        7.924887   0.000000
    6        9.003204   0.000000
    7        9.867415   0.000000
    8       11.391149   0.000000
 
  0.4500000E+00  0.3500000E+00  0.2500000E+00  0.1200000E-01
    1       -4.386175   1.000000
    2        0.180213   1.000000
    3        2.868678   1.000000
    4        4.124142   1.000000
    5        8.369981   0.000000
    6        9.081937   0.000000
    7       10.647603   0.000000
    8       10.994830   0.000000
 
 -0.4500000E+00  0.3500000E+00  0.2500000E+00  0.1200000E-01
    1       -3.730658   1.000000
    2       -0.335265   1.000000
    3        1.800808   1.000000
    4        3.649419   1.000000
    5        8.560296   0.000000
    6        9.594838   0.000000
    7       10.795641   0.000000
    8       12.192715   0.000000
 