 running on    8 total cores
 distrk:  each k-point on    8 cores,    1 groups
 distr:  one band on    1 cores,    8 groups
 using from now: INCAR     
 vasp.5.4.4.18Apr17-6-g9f103f2a35 (build Dec 09 2018 21:25:21) complex          
  
 POSCAR found type information on POSCAR  Si
 POSCAR found :  1 types and       2 ions
 scaLAPACK will be used

 ----------------------------------------------------------------------------- 
|                                                                             |
|           W    W    AA    RRRRR   N    N  II  N    N   GGGG   !!!           |
|           W    W   A  A   R    R  NN   N  II  NN   N  G    G  !!!           |
|           W    W  A    A  R    R  N N  N  II  N N  N  G       !!!           |
|           W WW W  AAAAAA  RRRRR   N  N N  II  N  N N  G  GGG   !            |
|           WW  WW  A    A  R   R   N   NN  II  N   NN  G    G                |
|           W    W  A    A  R    R  N    N  II  N    N   GGGG   !!!           |
|                                                                             |
|      For optimal performance we recommend to set                            |
|        NCORE= 4 - approx SQRT( number of cores)                             |
|      NCORE specifies how many cores store one orbital (NPAR=cpu/NCORE).     |
|      This setting can  greatly improve the performance of VASP for DFT.     |
|      The default,   NCORE=1            might be grossly inefficient         |
|      on modern multi-core architectures or massively parallel machines.     |
|      Do your own testing !!!!                                               |
|      Unfortunately you need to use the default for GW and RPA calculations. |
|      (for HF NCORE is supported but not extensively tested yet)             |
|                                                                             |
 ----------------------------------------------------------------------------- 

 LDA part: xc-table for Pade appr. of Perdew
 POSCAR, INCAR and KPOINTS ok, starting setup
 FFT: planning ...
 WAVECAR not read
 entering main loop
       N       E                     dE             d eps       ncg     rms          rms(c)
DAV:   1     0.610095744425E+00    0.61010E+00   -0.23380E+03  1808   0.449E+02
DAV:   2    -0.108852882150E+02   -0.11495E+02   -0.11029E+02  2784   0.624E+01
DAV:   3    -0.110024932571E+02   -0.11721E+00   -0.11721E+00  2216   0.793E+00
DAV:   4    -0.110028435737E+02   -0.35032E-03   -0.35032E-03  2880   0.452E-01
DAV:   5    -0.110028438062E+02   -0.23244E-06   -0.23197E-06  2216   0.871E-03    0.300E+00
DAV:   6    -0.108787282669E+02    0.12412E+00   -0.81666E-02  2096   0.149E+00    0.178E+00
DAV:   7    -0.108223078201E+02    0.56420E-01   -0.14988E-01  2272   0.214E+00    0.153E-01
DAV:   8    -0.108235968261E+02   -0.12890E-02   -0.38888E-03  1984   0.459E-01    0.249E-02
DAV:   9    -0.108236889994E+02   -0.92173E-04   -0.90702E-05  1520   0.760E-02
   1 F= -.10823689E+02 E0= -.10823661E+02  d E =-.108237E+02
 curvature:   0.00 expect dE= 0.000E+00 dE for cont linesearch  0.000E+00
 trial: gam= 0.00000 g(F)=  0.602E-45 g(S)=  0.150E-01 ort = 0.000E+00 (trialstep = 0.100E+01)
 search vector abs. value=  0.150E-01
 bond charge predicted
       N       E                     dE             d eps       ncg     rms          rms(c)
DAV:   1    -0.108318313293E+02   -0.82345E-02   -0.22773E-01  2248   0.265E+00    0.303E-01
DAV:   2    -0.108279601396E+02    0.38712E-02   -0.31458E-03  2296   0.358E-01    0.174E-01
DAV:   3    -0.108259473087E+02    0.20128E-02   -0.40859E-03  2144   0.322E-01    0.218E-02
DAV:   4    -0.108259365098E+02    0.10799E-04   -0.42460E-05   952   0.573E-02
   2 F= -.10825937E+02 E0= -.10825920E+02  d E =-.224751E-02
 trial-energy change:   -0.002248  1 .order   -0.002566   -0.014983    0.009850
 step:   0.6033(harm=  0.6033)  dis= 0.00000  next Energy=   -10.828209 (dE=-0.452E-02)
 bond charge predicted
       N       E                     dE             d eps       ncg     rms          rms(c)
DAV:   1    -0.108289092988E+02   -0.29620E-02   -0.36647E-02  2192   0.107E+00    0.122E-01
DAV:   2    -0.108282925843E+02    0.61671E-03   -0.50165E-04  2192   0.143E-01    0.700E-02
DAV:   3    -0.108279789609E+02    0.31362E-03   -0.63957E-04  1192   0.129E-01
   3 F= -.10827979E+02 E0= -.10827959E+02  d E =-.428996E-02
 curvature:  -0.30 expect dE=-0.366E-05 dE for cont linesearch -0.366E-05
 trial: gam= 0.00000 g(F)=  0.170E-43 g(S)=  0.121E-04 ort =-0.426E-03 (trialstep = 0.921E+00)
 search vector abs. value=  0.121E-04
 reached required accuracy - stopping structural energy minimisation
 writing wavefunctions
