   2   2   0   0
  0.2001288E+02  0.3839590E-09  0.3839590E-09  0.3839590E-09  0.5000000E-15
  1.000000000000000E-004
  CAR 
 unknown system                          
     15.95987923     -8.00137655  301      5.99441191      1.00000000
     -8.001  0.0000E+00  0.0000E+00
     -7.922  0.0000E+00  0.0000E+00
     -7.842  0.0000E+00  0.0000E+00
     -7.762  0.0000E+00  0.0000E+00
     -7.682  0.0000E+00  0.0000E+00
     -7.602  0.0000E+00  0.0000E+00
     -7.522  0.0000E+00  0.0000E+00
     -7.442  0.0000E+00  0.0000E+00
     -7.362  0.0000E+00  0.0000E+00
     -7.283  0.0000E+00  0.0000E+00
     -7.203  0.0000E+00  0.0000E+00
     -7.123  0.5792E-16  0.4626E-17
     -7.043  0.4567E-14  0.3694E-15
     -6.963  0.2681E-12  0.2178E-13
     -6.883  0.1149E-10  0.9393E-12
     -6.803  0.3595E-09  0.2965E-10
     -6.723  0.8222E-08  0.6863E-09
     -6.644  0.1374E-06  0.1166E-07
     -6.564  0.1680E-05  0.1459E-06
     -6.484  0.1503E-04  0.1346E-05
     -6.404  0.9837E-04  0.9203E-05
     -6.324  0.4715E-03  0.4686E-04
     -6.244  0.1655E-02  0.1791E-03
     -6.164  0.4257E-02  0.5191E-03
     -6.084  0.8025E-02  0.1160E-02
     -6.005  0.1110E-01  0.2046E-02
     -5.925  0.1132E-01  0.2951E-02
     -5.845  0.8890E-02  0.3661E-02
     -5.765  0.6907E-02  0.4212E-02
     -5.685  0.9206E-02  0.4948E-02
     -5.605  0.1742E-01  0.6339E-02
     -5.525  0.2838E-01  0.8606E-02
     -5.446  0.3474E-01  0.1138E-01
     -5.366  0.3154E-01  0.1390E-01
     -5.286  0.2223E-01  0.1568E-01
     -5.206  0.1564E-01  0.1692E-01
     -5.126  0.1763E-01  0.1833E-01
     -5.046  0.2648E-01  0.2045E-01
     -4.966  0.3415E-01  0.2318E-01
     -4.886  0.3341E-01  0.2584E-01
     -4.807  0.2530E-01  0.2786E-01
     -4.727  0.1820E-01  0.2932E-01
     -4.647  0.1949E-01  0.3087E-01
     -4.567  0.2942E-01  0.3322E-01
     -4.487  0.4092E-01  0.3649E-01
     -4.407  0.4508E-01  0.4009E-01
     -4.327  0.4017E-01  0.4330E-01
     -4.247  0.3526E-01  0.4612E-01
     -4.168  0.4190E-01  0.4947E-01
     -4.088  0.6116E-01  0.5435E-01
     -4.008  0.8071E-01  0.6080E-01
     -3.928  0.8683E-01  0.6773E-01
     -3.848  0.7665E-01  0.7385E-01
     -3.768  0.5685E-01  0.7839E-01
     -3.688  0.3586E-01  0.8126E-01
     -3.608  0.2077E-01  0.8292E-01
     -3.529  0.1618E-01  0.8421E-01
     -3.449  0.2180E-01  0.8595E-01
     -3.369  0.3133E-01  0.8845E-01
     -3.289  0.3631E-01  0.9135E-01
     -3.209  0.3441E-01  0.9410E-01
     -3.129  0.3285E-01  0.9673E-01
     -3.049  0.4072E-01  0.9998E-01
     -2.970  0.5917E-01  0.1047E+00
     -2.890  0.7985E-01  0.1111E+00
     -2.810  0.9028E-01  0.1183E+00
     -2.730  0.8194E-01  0.1248E+00
     -2.650  0.5794E-01  0.1295E+00
     -2.570  0.3116E-01  0.1320E+00
     -2.490  0.1255E-01  0.1330E+00
     -2.410  0.3747E-02  0.1333E+00
     -2.331  0.8245E-03  0.1333E+00
     -2.251  0.1333E-03  0.1333E+00
     -2.171  0.1580E-04  0.1333E+00
     -2.091  0.1372E-05  0.1333E+00
     -2.011  0.1005E-06  0.1333E+00
     -1.931  0.2618E-06  0.1333E+00
     -1.851  0.3628E-05  0.1333E+00
     -1.771  0.3745E-04  0.1333E+00
     -1.692  0.2841E-03  0.1334E+00
     -1.612  0.1588E-02  0.1335E+00
     -1.532  0.6563E-02  0.1340E+00
     -1.452  0.2017E-01  0.1356E+00
     -1.372  0.4652E-01  0.1393E+00
     -1.292  0.8184E-01  0.1459E+00
     -1.212  0.1128E+00  0.1549E+00
     -1.132  0.1269E+00  0.1650E+00
     -1.053  0.1223E+00  0.1748E+00
     -0.973  0.1039E+00  0.1831E+00
     -0.893  0.7683E-01  0.1892E+00
     -0.813  0.4736E-01  0.1930E+00
     -0.733  0.2331E-01  0.1949E+00
     -0.653  0.9018E-02  0.1956E+00
     -0.573  0.3507E-02  0.1959E+00
     -0.494  0.4644E-02  0.1962E+00
     -0.414  0.1324E-01  0.1973E+00
     -0.334  0.3171E-01  0.1998E+00
     -0.254  0.5713E-01  0.2044E+00
     -0.174  0.7674E-01  0.2105E+00
     -0.094  0.7657E-01  0.2166E+00
     -0.014  0.5661E-01  0.2212E+00
      0.066  0.3092E-01  0.2236E+00
      0.145  0.1246E-01  0.2246E+00
      0.225  0.3731E-02  0.2249E+00
      0.305  0.1063E-02  0.2250E+00
      0.385  0.1396E-02  0.2251E+00
      0.465  0.4575E-02  0.2255E+00
      0.545  0.1203E-01  0.2265E+00
      0.625  0.2337E-01  0.2283E+00
      0.705  0.3378E-01  0.2310E+00
      0.784  0.3774E-01  0.2340E+00
      0.864  0.3622E-01  0.2369E+00
      0.944  0.3553E-01  0.2398E+00
      1.024  0.3745E-01  0.2428E+00
      1.104  0.3634E-01  0.2457E+00
      1.184  0.2826E-01  0.2479E+00
      1.264  0.1715E-01  0.2493E+00
      1.344  0.1072E-01  0.2501E+00
      1.423  0.1526E-01  0.2514E+00
      1.503  0.3472E-01  0.2541E+00
      1.583  0.6642E-01  0.2594E+00
      1.663  0.9519E-01  0.2670E+00
      1.743  0.1012E+00  0.2751E+00
      1.823  0.7986E-01  0.2815E+00
      1.903  0.4737E-01  0.2853E+00
      1.982  0.2362E-01  0.2872E+00
      2.062  0.1825E-01  0.2886E+00
      2.142  0.3282E-01  0.2912E+00
      2.222  0.6468E-01  0.2964E+00
      2.302  0.1031E+00  0.3046E+00
      2.382  0.1285E+00  0.3149E+00
      2.462  0.1267E+00  0.3250E+00
      2.542  0.1054E+00  0.3334E+00
      2.621  0.8700E-01  0.3404E+00
      2.701  0.8370E-01  0.3471E+00
      2.781  0.8802E-01  0.3541E+00
      2.861  0.9016E-01  0.3613E+00
      2.941  0.8972E-01  0.3685E+00
      3.021  0.8648E-01  0.3754E+00
      3.101  0.7699E-01  0.3815E+00
      3.181  0.6645E-01  0.3868E+00
      3.260  0.6839E-01  0.3923E+00
      3.340  0.8585E-01  0.3992E+00
      3.420  0.1036E+00  0.4074E+00
      3.500  0.1070E+00  0.4160E+00
      3.580  0.1013E+00  0.4241E+00
      3.660  0.1028E+00  0.4323E+00
      3.740  0.1119E+00  0.4412E+00
      3.820  0.1120E+00  0.4502E+00
      3.899  0.9527E-01  0.4578E+00
      3.979  0.7439E-01  0.4637E+00
      4.059  0.6342E-01  0.4688E+00
      4.139  0.6215E-01  0.4737E+00
      4.219  0.6532E-01  0.4790E+00
      4.299  0.7237E-01  0.4847E+00
      4.379  0.8104E-01  0.4912E+00
      4.458  0.8310E-01  0.4978E+00
      4.538  0.7336E-01  0.5037E+00
      4.618  0.5649E-01  0.5082E+00
      4.698  0.4212E-01  0.5116E+00
      4.778  0.3646E-01  0.5145E+00
      4.858  0.3744E-01  0.5175E+00
      4.938  0.3684E-01  0.5204E+00
      5.018  0.2956E-01  0.5228E+00
      5.097  0.1929E-01  0.5243E+00
      5.177  0.1336E-01  0.5254E+00
      5.257  0.1490E-01  0.5266E+00
      5.337  0.2042E-01  0.5282E+00
      5.417  0.2330E-01  0.5301E+00
      5.497  0.1991E-01  0.5317E+00
      5.577  0.1251E-01  0.5327E+00
      5.657  0.5764E-02  0.5331E+00
      5.736  0.1946E-02  0.5333E+00
      5.816  0.4813E-03  0.5333E+00
      5.896  0.8720E-04  0.5333E+00
      5.976  0.1190E-04  0.5333E+00
      6.056  0.5397E-05  0.5333E+00
      6.136  0.3916E-04  0.5333E+00
      6.216  0.2615E-03  0.5334E+00
      6.296  0.1281E-02  0.5335E+00
      6.375  0.4595E-02  0.5338E+00
      6.455  0.1208E-01  0.5348E+00
      6.535  0.2328E-01  0.5367E+00
      6.615  0.3295E-01  0.5393E+00
      6.695  0.3460E-01  0.5420E+00
      6.775  0.2836E-01  0.5443E+00
      6.855  0.2228E-01  0.5461E+00
      6.934  0.2390E-01  0.5480E+00
      7.014  0.3231E-01  0.5506E+00
      7.094  0.3953E-01  0.5537E+00
      7.174  0.3936E-01  0.5569E+00
      7.254  0.3340E-01  0.5595E+00
      7.334  0.2871E-01  0.5618E+00
      7.414  0.3193E-01  0.5644E+00
      7.494  0.4511E-01  0.5680E+00
      7.573  0.6450E-01  0.5731E+00
      7.653  0.8385E-01  0.5798E+00
      7.733  0.9890E-01  0.5877E+00
      7.813  0.1072E+00  0.5963E+00
      7.893  0.1083E+00  0.6050E+00
      7.973  0.1062E+00  0.6134E+00
      8.053  0.1061E+00  0.6219E+00
      8.133  0.1045E+00  0.6303E+00
      8.212  0.9584E-01  0.6379E+00
      8.292  0.8444E-01  0.6447E+00
      8.372  0.8216E-01  0.6512E+00
      8.452  0.9590E-01  0.6589E+00
      8.532  0.1191E+00  0.6684E+00
      8.612  0.1321E+00  0.6789E+00
      8.692  0.1180E+00  0.6884E+00
      8.772  0.8153E-01  0.6949E+00
      8.851  0.4482E-01  0.6985E+00
      8.931  0.2744E-01  0.7007E+00
      9.011  0.3821E-01  0.7037E+00
      9.091  0.7734E-01  0.7099E+00
      9.171  0.1321E+00  0.7204E+00
      9.251  0.1750E+00  0.7344E+00
      9.331  0.1816E+00  0.7489E+00
      9.410  0.1530E+00  0.7611E+00
      9.490  0.1120E+00  0.7701E+00
      9.570  0.7872E-01  0.7764E+00
      9.650  0.5958E-01  0.7811E+00
      9.730  0.5517E-01  0.7855E+00
      9.810  0.6535E-01  0.7908E+00
      9.890  0.8569E-01  0.7976E+00
      9.970  0.1059E+00  0.8061E+00
     10.049  0.1147E+00  0.8152E+00
     10.129  0.1062E+00  0.8237E+00
     10.209  0.8427E-01  0.8304E+00
     10.289  0.6047E-01  0.8353E+00
     10.369  0.4720E-01  0.8390E+00
     10.449  0.4961E-01  0.8430E+00
     10.529  0.6369E-01  0.8481E+00
     10.609  0.8155E-01  0.8546E+00
     10.688  0.9614E-01  0.8623E+00
     10.768  0.1040E+00  0.8706E+00
     10.848  0.1070E+00  0.8791E+00
     10.928  0.1088E+00  0.8878E+00
     11.008  0.1091E+00  0.8965E+00
     11.088  0.1053E+00  0.9049E+00
     11.168  0.9449E-01  0.9125E+00
     11.247  0.7509E-01  0.9185E+00
     11.327  0.5293E-01  0.9227E+00
     11.407  0.4218E-01  0.9261E+00
     11.487  0.5391E-01  0.9304E+00
     11.567  0.8289E-01  0.9370E+00
     11.647  0.1081E+00  0.9457E+00
     11.727  0.1127E+00  0.9547E+00
     11.807  0.1020E+00  0.9628E+00
     11.886  0.9098E-01  0.9701E+00
     11.966  0.8163E-01  0.9766E+00
     12.046  0.6530E-01  0.9818E+00
     12.126  0.4169E-01  0.9851E+00
     12.206  0.2034E-01  0.9868E+00
     12.286  0.8342E-02  0.9874E+00
     12.366  0.6043E-02  0.9879E+00
     12.446  0.1155E-01  0.9888E+00
     12.525  0.2224E-01  0.9906E+00
     12.605  0.3245E-01  0.9932E+00
     12.685  0.3568E-01  0.9960E+00
     12.765  0.3273E-01  0.9987E+00
     12.845  0.3441E-01  0.1001E+01
     12.925  0.5168E-01  0.1006E+01
     13.005  0.8108E-01  0.1012E+01
     13.085  0.1024E+00  0.1020E+01
     13.164  0.9711E-01  0.1028E+01
     13.244  0.6889E-01  0.1033E+01
     13.324  0.3836E-01  0.1037E+01
     13.404  0.2041E-01  0.1038E+01
     13.484  0.1446E-01  0.1039E+01
     13.564  0.1314E-01  0.1040E+01
     13.644  0.1319E-01  0.1041E+01
     13.723  0.1820E-01  0.1043E+01
     13.803  0.3289E-01  0.1045E+01
     13.883  0.5410E-01  0.1050E+01
     13.963  0.6852E-01  0.1055E+01
     14.043  0.6433E-01  0.1060E+01
     14.123  0.4445E-01  0.1064E+01
     14.203  0.2257E-01  0.1066E+01
     14.283  0.8418E-02  0.1066E+01
     14.362  0.2306E-02  0.1067E+01
     14.442  0.4636E-03  0.1067E+01
     14.522  0.6840E-04  0.1067E+01
     14.602  0.7402E-05  0.1067E+01
     14.682  0.5873E-06  0.1067E+01
     14.762  0.3415E-07  0.1067E+01
     14.842  0.1454E-08  0.1067E+01
     14.922  0.4532E-10  0.1067E+01
     15.001  0.1034E-11  0.1067E+01
     15.081  0.1724E-13  0.1067E+01
     15.161  0.2085E-15  0.1067E+01
     15.241  0.0000E+00  0.1067E+01
     15.321  0.0000E+00  0.1067E+01
     15.401  0.0000E+00  0.1067E+01
     15.481  0.0000E+00  0.1067E+01
     15.561  0.0000E+00  0.1067E+01
     15.640  0.0000E+00  0.1067E+01
     15.720  0.0000E+00  0.1067E+01
     15.800  0.0000E+00  0.1067E+01
     15.880  0.0000E+00  0.1067E+01
     15.960  0.0000E+00  0.1067E+01
