 running on    8 total cores
 distrk:  each k-point on    8 cores,    1 groups
 distr:  one band on    1 cores,    8 groups
 using from now: INCAR     
 vasp.5.4.4.18Apr17-6-g9f103f2a35 (build Dec 09 2018 21:25:21) complex          
  
 POSCAR found type information on POSCAR  Si
 POSCAR found :  1 types and       2 ions
 scaLAPACK will be used

 ----------------------------------------------------------------------------- 
|                                                                             |
|           W    W    AA    RRRRR   N    N  II  N    N   GGGG   !!!           |
|           W    W   A  A   R    R  NN   N  II  NN   N  G    G  !!!           |
|           W    W  A    A  R    R  N N  N  II  N N  N  G       !!!           |
|           W WW W  AAAAAA  RRRRR   N  N N  II  N  N N  G  GGG   !            |
|           WW  WW  A    A  R   R   N   NN  II  N   NN  G    G                |
|           W    W  A    A  R    R  N    N  II  N    N   GGGG   !!!           |
|                                                                             |
|      For optimal performance we recommend to set                            |
|        NCORE= 4 - approx SQRT( number of cores)                             |
|      NCORE specifies how many cores store one orbital (NPAR=cpu/NCORE).     |
|      This setting can  greatly improve the performance of VASP for DFT.     |
|      The default,   NCORE=1            might be grossly inefficient         |
|      on modern multi-core architectures or massively parallel machines.     |
|      Do your own testing !!!!                                               |
|      Unfortunately you need to use the default for GW and RPA calculations. |
|      (for HF NCORE is supported but not extensively tested yet)             |
|                                                                             |
 ----------------------------------------------------------------------------- 

 LDA part: xc-table for Pade appr. of Perdew
 POSCAR, INCAR and KPOINTS ok, starting setup
 FFT: planning ...
 WAVECAR not read
 entering main loop
       N       E                     dE             d eps       ncg     rms          rms(c)
DAV:   1     0.226863079034E+01    0.22686E+01   -0.24781E+03   160   0.517E+02
DAV:   2    -0.107935811693E+02   -0.13062E+02   -0.12553E+02   264   0.662E+01
DAV:   3    -0.109624530571E+02   -0.16887E+00   -0.16887E+00   184   0.978E+00
DAV:   4    -0.109631267277E+02   -0.67367E-03   -0.67367E-03   272   0.691E-01
DAV:   5    -0.109631272057E+02   -0.47793E-06   -0.47805E-06   176   0.134E-02    0.306E+00
DAV:   6    -0.108320345534E+02    0.13109E+00   -0.85324E-02   192   0.153E+00    0.182E+00
DAV:   7    -0.107722580941E+02    0.59776E-01   -0.15865E-01   184   0.222E+00    0.158E-01
DAV:   8    -0.107737812478E+02   -0.15232E-02   -0.46174E-03   160   0.501E-01    0.261E-02
DAV:   9    -0.107738813117E+02   -0.10006E-03   -0.11831E-04   160   0.861E-02
   1 F= -.10773881E+02 E0= -.10773396E+02  d E =-.107739E+02
 curvature:   0.00 expect dE= 0.000E+00 dE for cont linesearch  0.000E+00
 trial: gam= 0.00000 g(F)=  0.760E-45 g(S)=  0.000E+00 ort = 0.000E+00 (trialstep = 0.100E+01)
 search vector abs. value=  0.100E-09
 reached required accuracy - stopping structural energy minimisation
 writing wavefunctions
