<?xml version="1.0" encoding="ISO-8859-1"?>
<modeling>
 <generator>
  <i name="program" type="string">vasp </i>
  <i name="version" type="string">5.4.4.18Apr17-6-g9f103f2a35  </i>
  <i name="subversion" type="string">(build Dec 09 2018 21:25:21) complex            parallel </i>
  <i name="platform" type="string">IFC18.0.1.163_CrayMPICH7.7.0_MKL18.0.1.163 </i>
  <i name="date" type="string">2019 03 19 </i>
  <i name="time" type="string">13:13:54 </i>
 </generator>
 <incar>
  <i type="string" name="PREC">normal</i>
  <i type="int" name="IBRION">     2</i>
  <i name="EDIFF">      0.00040000</i>
  <i name="EDIFFG">     -0.01000000</i>
  <i type="int" name="NSW">    15</i>
  <i type="int" name="ISIF">     2</i>
  <i name="ENCUT">    250.00000000</i>
  <i type="int" name="NBANDS">     8</i>
  <i type="logical" name="LREAL"> F  </i>
  <i type="int" name="ISMEAR">     0</i>
  <i name="SIGMA">      0.20000000</i>
  <v type="int" name="KPOINT_BSE">    -1     0     0     0</v>
 </incar>
 <structure name="primitive_cell" >
  <crystal>
   <varray name="basis" >
    <v>      -2.45000000       2.45000000       1.27400000 </v>
    <v>       2.45000000      -2.45000000       1.27400000 </v>
    <v>       2.45000000       2.45000000      -1.27400000 </v>
   </varray>
   <i name="volume">     30.58874000 </i>
   <varray name="rec_basis" >
    <v>       0.00000000       0.20408163       0.39246468 </v>
    <v>       0.20408163       0.00000000       0.39246468 </v>
    <v>       0.20408163       0.20408163      -0.00000000 </v>
   </varray>
  </crystal>
  <varray name="positions" >
   <v>       0.25000000      -0.25000000      -0.50000000 </v>
   <v>       0.00000000       0.00000000       0.00000000 </v>
  </varray>
 </structure>
 <varray name="primitive_index" >
  <v type="int" >        1 </v>
  <v type="int" >        2 </v>
 </varray>
 <kpoints>
  <generation param="Monkhorst-Pack">
   <v type="int" name="divisions">       6        6        6 </v>
   <v name="usershift">      0.00000000       0.00000000       0.00000000 </v>
   <v name="genvec1">      0.16666667      -0.00000000       0.00000000 </v>
   <v name="genvec2">     -0.00000000       0.16666667       0.00000000 </v>
   <v name="genvec3">     -0.00000000      -0.00000000       0.16666667 </v>
   <v name="shift">      0.50000000       0.50000000       0.50000000 </v>
  </generation>
  <varray name="kpointlist" >
   <v>       0.08333333       0.08333333       0.08333333 </v>
   <v>       0.25000000       0.08333333       0.08333333 </v>
   <v>       0.41666667       0.08333333       0.08333333 </v>
   <v>      -0.08333333       0.08333333       0.08333333 </v>
   <v>       0.25000000       0.25000000       0.08333333 </v>
   <v>       0.41666667       0.25000000       0.08333333 </v>
   <v>      -0.41666667       0.25000000       0.08333333 </v>
   <v>      -0.25000000       0.25000000       0.08333333 </v>
   <v>      -0.08333333       0.25000000       0.08333333 </v>
   <v>       0.41666667       0.41666667       0.08333333 </v>
   <v>      -0.41666667       0.41666667       0.08333333 </v>
   <v>      -0.25000000       0.41666667       0.08333333 </v>
   <v>      -0.08333333       0.41666667       0.08333333 </v>
   <v>      -0.41666667      -0.41666667       0.08333333 </v>
   <v>      -0.25000000      -0.41666667       0.08333333 </v>
   <v>      -0.08333333      -0.41666667       0.08333333 </v>
   <v>      -0.25000000      -0.25000000       0.08333333 </v>
   <v>      -0.08333333      -0.25000000       0.08333333 </v>
   <v>      -0.08333333      -0.08333333       0.08333333 </v>
   <v>       0.25000000       0.25000000       0.25000000 </v>
   <v>      -0.25000000       0.25000000       0.25000000 </v>
   <v>      -0.41666667       0.41666667       0.25000000 </v>
   <v>      -0.25000000       0.41666667       0.25000000 </v>
   <v>      -0.41666667      -0.41666667       0.25000000 </v>
   <v>      -0.25000000      -0.41666667       0.25000000 </v>
   <v>      -0.25000000      -0.25000000       0.25000000 </v>
   <v>      -0.41666667       0.41666667       0.41666667 </v>
   <v>      -0.41666667      -0.41666667       0.41666667 </v>
  </varray>
  <varray name="weights" >
   <v>       0.03703704 </v>
   <v>       0.07407407 </v>
   <v>       0.03703704 </v>
   <v>       0.01851852 </v>
   <v>       0.03703704 </v>
   <v>       0.07407407 </v>
   <v>       0.03703704 </v>
   <v>       0.03703704 </v>
   <v>       0.03703704 </v>
   <v>       0.01851852 </v>
   <v>       0.03703704 </v>
   <v>       0.07407407 </v>
   <v>       0.03703704 </v>
   <v>       0.03703704 </v>
   <v>       0.07407407 </v>
   <v>       0.03703704 </v>
   <v>       0.03703704 </v>
   <v>       0.03703704 </v>
   <v>       0.00925926 </v>
   <v>       0.00925926 </v>
   <v>       0.01851852 </v>
   <v>       0.03703704 </v>
   <v>       0.03703704 </v>
   <v>       0.03703704 </v>
   <v>       0.03703704 </v>
   <v>       0.00925926 </v>
   <v>       0.01851852 </v>
   <v>       0.00925926 </v>
  </varray>
 </kpoints>
 <parameters>
  <separator name="general" >
   <i type="string" name="SYSTEM">unknown system</i>
   <i type="logical" name="LCOMPAT"> F  </i>
  </separator>
  <separator name="electronic" >
   <i type="string" name="PREC">normal</i>
   <i name="ENMAX">    250.00000000</i>
   <i name="ENAUG">    322.06900000</i>
   <i name="EDIFF">      0.00040000</i>
   <i type="int" name="IALGO">    38</i>
   <i type="int" name="IWAVPR">    11</i>
   <i type="int" name="NBANDS">     8</i>
   <i name="NELECT">      8.00000000</i>
   <i type="int" name="TURBO">     0</i>
   <i type="int" name="IRESTART">     0</i>
   <i type="int" name="NREBOOT">     0</i>
   <i type="int" name="NMIN">     0</i>
   <i name="EREF">      0.00000000</i>
   <separator name="electronic smearing" >
    <i type="int" name="ISMEAR">     0</i>
    <i name="SIGMA">      0.20000000</i>
    <i name="KSPACING">      0.50000000</i>
    <i type="logical" name="KGAMMA"> T  </i>
   </separator>
   <separator name="electronic projectors" >
    <i type="logical" name="LREAL"> F  </i>
    <v name="ROPT">      0.00000000</v>
    <i type="int" name="LMAXPAW">  -100</i>
    <i type="int" name="LMAXMIX">     2</i>
    <i type="logical" name="NLSPLINE"> F  </i>
   </separator>
   <separator name="electronic startup" >
    <i type="int" name="ISTART">     1</i>
    <i type="int" name="ICHARG">     0</i>
    <i type="int" name="INIWAV">     1</i>
   </separator>
   <separator name="electronic spin" >
    <i type="int" name="ISPIN">     1</i>
    <i type="logical" name="LNONCOLLINEAR"> F  </i>
    <v name="MAGMOM">      1.00000000      1.00000000</v>
    <i name="NUPDOWN">     -1.00000000</i>
    <i type="logical" name="LSORBIT"> F  </i>
    <v name="SAXIS">      0.00000000      0.00000000      1.00000000</v>
    <i type="logical" name="LSPIRAL"> F  </i>
    <v name="QSPIRAL">      0.00000000      0.00000000      0.00000000</v>
    <i type="logical" name="LZEROZ"> F  </i>
   </separator>
   <separator name="electronic exchange-correlation" >
    <i type="logical" name="LASPH"> F  </i>
    <i type="logical" name="LMETAGGA"> F  </i>
   </separator>
   <separator name="electronic convergence" >
    <i type="int" name="NELM">    60</i>
    <i type="int" name="NELMDL">     0</i>
    <i type="int" name="NELMIN">     2</i>
    <i name="ENINI">    250.00000000</i>
    <separator name="electronic convergence detail" >
     <i type="logical" name="LDIAG"> T  </i>
     <i type="logical" name="LSUBROT"> F  </i>
     <i name="WEIMIN">      0.00100000</i>
     <i name="EBREAK">      0.00001250</i>
     <i name="DEPER">      0.30000000</i>
     <i type="int" name="NRMM">     4</i>
     <i name="TIME">      0.40000000</i>
    </separator>
   </separator>
   <separator name="electronic mixer" >
    <i name="AMIX">      0.40000000</i>
    <i name="BMIX">      1.00000000</i>
    <i name="AMIN">      0.10000000</i>
    <i name="AMIX_MAG">      1.60000000</i>
    <i name="BMIX_MAG">      1.00000000</i>
    <separator name="electronic mixer details" >
     <i type="int" name="IMIX">     4</i>
     <i type="logical" name="MIXFIRST"> F  </i>
     <i type="int" name="MAXMIX">   -45</i>
     <i name="WC">    100.00000000</i>
     <i type="int" name="INIMIX">     1</i>
     <i type="int" name="MIXPRE">     1</i>
     <i type="int" name="MREMOVE">     5</i>
    </separator>
   </separator>
   <separator name="electronic dipolcorrection" >
    <i type="logical" name="LDIPOL"> F  </i>
    <i type="logical" name="LMONO"> F  </i>
    <i type="int" name="IDIPOL">     0</i>
    <i name="EPSILON">      1.00000000</i>
    <v name="DIPOL">   -100.00000000   -100.00000000   -100.00000000</v>
    <i name="EFIELD">      0.00000000</i>
   </separator>
  </separator>
  <separator name="grids" >
   <i type="int" name="NGX">    14</i>
   <i type="int" name="NGY">    14</i>
   <i type="int" name="NGZ">    14</i>
   <i type="int" name="NGXF">    28</i>
   <i type="int" name="NGYF">    28</i>
   <i type="int" name="NGZF">    28</i>
   <i type="logical" name="ADDGRID"> F  </i>
  </separator>
  <separator name="ionic" >
   <i type="int" name="NSW">    15</i>
   <i type="int" name="IBRION">     2</i>
   <i type="int" name="MDALGO">     0</i>
   <i type="int" name="ISIF">     2</i>
   <i name="PSTRESS">      0.00000000</i>
   <i name="EDIFFG">     -0.01000000</i>
   <i type="int" name="NFREE">     1</i>
   <i name="POTIM">      0.50000000</i>
   <i name="SMASS">     -3.00000000</i>
   <i name="SCALEE">      1.00000000</i>
  </separator>
  <separator name="ionic md" >
   <i name="TEBEG">      0.00010000</i>
   <i name="TEEND">      0.00010000</i>
   <i type="int" name="NBLOCK">     1</i>
   <i type="int" name="KBLOCK">    15</i>
   <i type="int" name="NPACO">   256</i>
   <i name="APACO">     16.00000000</i>
  </separator>
  <separator name="symmetry" >
   <i type="int" name="ISYM">     2</i>
   <i name="SYMPREC">      0.00001000</i>
  </separator>
  <separator name="dos" >
   <i type="int" name="LORBIT">     0</i>
   <v name="RWIGS">     -1.00000000</v>
   <i type="int" name="NEDOS">   301</i>
   <i name="EMIN">     10.00000000</i>
   <i name="EMAX">    -10.00000000</i>
   <i name="EFERMI">      0.00000000</i>
  </separator>
  <separator name="writing" >
   <i type="int" name="NWRITE">     2</i>
   <i type="logical" name="LWAVE"> T  </i>
   <i type="logical" name="LDOWNSAMPLE"> F  </i>
   <i type="logical" name="LCHARG"> T  </i>
   <i type="logical" name="LPARD"> F  </i>
   <i type="logical" name="LVTOT"> F  </i>
   <i type="logical" name="LVHAR"> F  </i>
   <i type="logical" name="LELF"> F  </i>
   <i type="logical" name="LOPTICS"> F  </i>
   <v name="STM">      0.00000000      0.00000000      0.00000000      0.00000000      0.00000000      0.00000000      0.00000000</v>
  </separator>
  <separator name="performance" >
   <i type="int" name="NPAR">     8</i>
   <i type="int" name="NSIM">     4</i>
   <i type="int" name="NBLK">    -1</i>
   <i type="logical" name="LPLANE"> T  </i>
   <i type="logical" name="LSCALAPACK"> T  </i>
   <i type="logical" name="LSCAAWARE"> F  </i>
   <i type="logical" name="LSCALU"> F  </i>
   <i type="logical" name="LASYNC"> F  </i>
   <i type="logical" name="LORBITALREAL"> F  </i>
  </separator>
  <separator name="miscellaneous" >
   <i type="int" name="IDIOT">     3</i>
   <i type="int" name="ISPECIAL">     0</i>
   <i type="logical" name="LMUSIC"> F  </i>
   <v name="POMASS">     28.08500000</v>
   <v name="DARWINR">      0.00000000</v>
   <v name="DARWINV">      1.00000000</v>
   <i type="logical" name="LCORR"> T  </i>
  </separator>
  <i type="logical" name="GGA_COMPAT"> T  </i>
  <i type="logical" name="LBERRY"> F  </i>
  <i type="int" name="ICORELEVEL">     0</i>
  <i type="logical" name="LDAU"> F  </i>
  <i type="int" name="I_CONSTRAINED_M">     0</i>
  <separator name="electronic exchange-correlation" >
   <i type="string" name="GGA">--</i>
   <i type="int" name="VOSKOWN">     0</i>
   <i type="logical" name="LHFCALC"> F  </i>
   <i type="string" name="PRECFOCK"></i>
   <i type="logical" name="LSYMGRAD"> F  </i>
   <i type="logical" name="LHFONE"> F  </i>
   <i type="logical" name="LRHFCALC"> F  </i>
   <i type="logical" name="LTHOMAS"> F  </i>
   <i type="logical" name="LMODELHF"> F  </i>
   <i name="ENCUT4O">     -1.00000000</i>
   <i type="int" name="EXXOEP">     0</i>
   <i type="int" name="FOURORBIT">     0</i>
   <i name="AEXX">      0.00000000</i>
   <i name="HFALPHA">      0.00000000</i>
   <i name="MCALPHA">      0.00000000</i>
   <i name="ALDAX">      1.00000000</i>
   <i name="AGGAX">      1.00000000</i>
   <i name="ALDAC">      1.00000000</i>
   <i name="AGGAC">      1.00000000</i>
   <i type="int" name="NKREDX">     1</i>
   <i type="int" name="NKREDY">     1</i>
   <i type="int" name="NKREDZ">     1</i>
   <i type="logical" name="SHIFTRED"> F  </i>
   <i type="logical" name="ODDONLY"> F  </i>
   <i type="logical" name="EVENONLY"> F  </i>
   <i type="int" name="LMAXFOCK">     0</i>
   <i type="int" name="NMAXFOCKAE">     0</i>
   <i type="logical" name="LFOCKAEDFT"> F  </i>
   <i name="HFSCREEN">      0.00000000</i>
   <i name="HFSCREENC">      0.00000000</i>
   <i type="int" name="NBANDSGWLOW">     0</i>
  </separator>
  <separator name="vdW DFT" >
   <i type="logical" name="LUSE_VDW"> F  </i>
   <i name="Zab_VDW">     -0.84910000</i>
   <i name="PARAM1">      0.12340000</i>
   <i name="PARAM2">      1.00000000</i>
   <i name="PARAM3">      0.00000000</i>
  </separator>
  <separator name="model GW" >
   <i type="int" name="MODEL_GW">     0</i>
   <i name="MODEL_EPS0">      9.17662200</i>
   <i name="MODEL_ALPHA">      1.00000000</i>
  </separator>
  <separator name="linear response parameters" >
   <i type="logical" name="LEPSILON"> F  </i>
   <i type="logical" name="LRPA"> F  </i>
   <i type="logical" name="LNABLA"> F  </i>
   <i type="logical" name="LVEL"> F  </i>
   <i type="int" name="KINTER">     0</i>
   <i name="CSHIFT">      0.10000000</i>
   <i name="OMEGAMAX">     -1.00000000</i>
   <i name="DEG_THRESHOLD">      0.00200000</i>
   <i name="RTIME">     -0.10000000</i>
   <i name="WPLASMAI">      0.00000000</i>
   <v name="DFIELD">      0.00000000      0.00000000      0.00000000</v>
   <v name="WPLASMA">      0.00000000      0.00000000      0.00000000      0.00000000      0.00000000      0.00000000      0.00000000      0.00000000      0.00000000</v>
  </separator>
  <separator name="orbital magnetization" >
   <i type="logical" name="NUCIND"> F  </i>
   <v name="MAGPOS">      0.00000000      0.00000000      0.00000000</v>
   <i type="logical" name="LNICSALL"> T  </i>
   <i type="logical" name="ORBITALMAG"> F  </i>
   <i type="logical" name="LMAGBLOCH"> F  </i>
   <i type="logical" name="LCHIMAG"> F  </i>
   <i type="logical" name="LGAUGE"> T  </i>
   <i type="int" name="MAGATOM">     0</i>
   <v name="MAGDIPOL">      0.00000000      0.00000000      0.00000000</v>
   <v name="AVECCONST">      0.00000000      0.00000000      0.00000000</v>
  </separator>
  <separator name="response functions" >
   <i type="logical" name="LADDER"> F  </i>
   <i type="logical" name="LRPAFORCE"> F  </i>
   <i type="logical" name="LFXC"> F  </i>
   <i type="logical" name="LHARTREE"> T  </i>
   <i type="int" name="IBSE">     0</i>
   <v type="int" name="KPOINT">    -1     0     0     0</v>
   <i type="logical" name="LTCTE"> F  </i>
   <i type="logical" name="LTETE"> F  </i>
   <i type="logical" name="LTRIPLET"> F  </i>
   <i type="logical" name="LFXCEPS"> F  </i>
   <i type="logical" name="LFXHEG"> F  </i>
   <i type="int" name="NATURALO">     2</i>
   <i type="logical" name="L2ORDER"> F  </i>
   <i type="logical" name="LMP2LT"> F  </i>
   <i type="logical" name="LUSEW"> F  </i>
   <i name="ENCUTGW">     -2.00000000</i>
   <i name="ENCUTGWSOFT">     -2.00000000</i>
   <i name="ENCUTLF">     -1.00000000</i>
   <i type="int" name="LMAXMP2">    -1</i>
   <i name="SCISSOR">      0.00000000</i>
   <i type="int" name="NOMEGA">     0</i>
   <i type="int" name="NOMEGAR">     0</i>
   <i type="int" name="NBANDSGW">    -1</i>
   <i type="int" name="NBANDSO">    -1</i>
   <i type="int" name="NBANDSV">    -1</i>
   <i type="int" name="NELM">     1</i>
   <i type="int" name="NELMHF">     1</i>
   <i type="int" name="DIM">     3</i>
   <i type="int" name="ANTIRES">     0</i>
   <i name="OMEGAMAX">    -30.00000000</i>
   <i name="OMEGAMIN">    -30.00000000</i>
   <i name="OMEGATL">   -200.00000000</i>
   <i type="int" name="OMEGAGRID">   140</i>
   <i name="CSHIFT">     -0.10000000</i>
   <i type="logical" name="SELFENERGY"> F  </i>
   <i type="logical" name="LSPECTRAL"> F  </i>
   <i type="logical" name="LSPECTRALGW"> F  </i>
   <i type="logical" name="LSINGLES"> F  </i>
   <i type="logical" name="LFERMIGW"> F  </i>
   <i type="logical" name="ODDONLYGW"> F  </i>
   <i type="logical" name="EVENONLYGW"> F  </i>
   <i type="int" name="NKREDLFX">     1</i>
   <i type="int" name="NKREDLFY">     1</i>
   <i type="int" name="NKREDLFZ">     1</i>
   <i type="int" name="MAXMEM">  2800</i>
   <i type="int" name="TELESCOPE">     0</i>
   <i type="int" name="TAUPAR">     1</i>
   <i type="int" name="OMEGAPAR">    -1</i>
   <i name="LAMBDA">      1.00000000</i>
  </separator>
  <separator name="External order field" >
   <i name="OFIELD_KAPPA">      0.00000000</i>
   <v name="OFIELD_K">      0.00000000      0.00000000      0.00000000</v>
   <i name="OFIELD_Q6_NEAR">      0.00000000</i>
   <i name="OFIELD_Q6_FAR">      0.00000000</i>
   <i name="OFIELD_A">      0.00000000</i>
  </separator>
 </parameters>
 <atominfo>
  <atoms>       2 </atoms>
  <types>       1 </types>
  <array name="atoms" >
   <dimension dim="1">ion</dimension>
   <field type="string">element</field>
   <field type="int">atomtype</field>
   <set>
    <rc><c>Si</c><c>   1</c></rc>
    <rc><c>Si</c><c>   1</c></rc>
   </set>
  </array>
  <array name="atomtypes" >
   <dimension dim="1">type</dimension>
   <field type="int">atomspertype</field>
   <field type="string">element</field>
   <field>mass</field>
   <field>valence</field>
   <field type="string">pseudopotential</field>
   <set>
    <rc><c>   2</c><c>Si</c><c>     28.08500000</c><c>      4.00000000</c><c> PAW_PBE Si 05Jan2001                   </c></rc>
   </set>
  </array>
 </atominfo>
 <structure name="initialpos" >
  <crystal>
   <varray name="basis" >
    <v>      -2.45000000       2.45000000       1.27400000 </v>
    <v>       2.45000000      -2.45000000       1.27400000 </v>
    <v>       2.45000000       2.45000000      -1.27400000 </v>
   </varray>
   <i name="volume">     30.58874000 </i>
   <varray name="rec_basis" >
    <v>       0.00000000       0.20408163       0.39246468 </v>
    <v>       0.20408163       0.00000000       0.39246468 </v>
    <v>       0.20408163       0.20408163      -0.00000000 </v>
   </varray>
  </crystal>
  <varray name="positions" >
   <v>       0.25000000       0.75000000       0.50000000 </v>
   <v>       0.00000000       0.00000000       0.00000000 </v>
  </varray>
 </structure>
 <calculation>
  <scstep>
   <time name="dav">    0.11    0.12</time>
   <time name="total">    0.15    0.16</time>
   <energy>
    <i name="alphaZ">      4.40202223 </i>
    <i name="ewald">   -265.18101312 </i>
    <i name="hartreedc">     -2.50403550 </i>
    <i name="XCdc">    -17.57299811 </i>
    <i name="pawpsdc">     70.69968694 </i>
    <i name="pawaedc">    -35.61704538 </i>
    <i name="eentropy">     -0.01137055 </i>
    <i name="bandstr">     29.38661564 </i>
    <i name="atom">    206.12349923 </i>
    <i name="e_fr_energy">    -10.27463863 </i>
    <i name="e_wo_entrp">    -10.26326807 </i>
    <i name="e_0_energy">    -10.26895335 </i>
   </energy>
  </scstep>
  <scstep>
   <time name="dav">    0.11    0.11</time>
   <time name="total">    0.14    0.15</time>
   <energy>
    <i name="alphaZ">      4.40202223 </i>
    <i name="ewald">   -265.18101312 </i>
    <i name="hartreedc">     -2.50278616 </i>
    <i name="XCdc">    -17.57305624 </i>
    <i name="pawpsdc">     70.69474686 </i>
    <i name="pawaedc">    -35.61188993 </i>
    <i name="eentropy">     -0.01137009 </i>
    <i name="bandstr">     29.38521048 </i>
    <i name="atom">    206.12349923 </i>
    <i name="e_fr_energy">    -10.27463674 </i>
    <i name="e_wo_entrp">    -10.26326665 </i>
    <i name="e_0_energy">    -10.26895169 </i>
   </energy>
  </scstep>
  <structure>
   <crystal>
    <varray name="basis" >
     <v>      -2.45000000       2.45000000       1.27400000 </v>
     <v>       2.45000000      -2.45000000       1.27400000 </v>
     <v>       2.45000000       2.45000000      -1.27400000 </v>
    </varray>
    <i name="volume">     30.58874000 </i>
    <varray name="rec_basis" >
     <v>       0.00000000       0.20408163       0.39246468 </v>
     <v>       0.20408163       0.00000000       0.39246468 </v>
     <v>       0.20408163       0.20408163      -0.00000000 </v>
    </varray>
   </crystal>
   <varray name="positions" >
    <v>       0.25000000       0.75000000       0.50000000 </v>
    <v>       0.00000000       0.00000000       0.00000000 </v>
   </varray>
  </structure>
  <varray name="forces" >
   <v>      -0.00000000       0.00000000       0.00000000 </v>
   <v>       0.00000000      -0.00000000      -0.00000000 </v>
  </varray>
  <varray name="stress" >
   <v>      -8.50184733      -0.00000000      -0.00000000 </v>
   <v>      -0.00000000      -8.50184733       0.00000000 </v>
   <v>      -0.00000000       0.00000000       4.05444168 </v>
  </varray>
  <energy>
   <i name="e_fr_energy">    -10.27463674 </i>
   <i name="e_wo_entrp">    -10.26895169 </i>
   <i name="e_0_energy">     -0.01137009 </i>
  </energy>
  <time name="totalsc">    0.71    1.17</time>
  <eigenvalues>
   <array>
    <dimension dim="1">band</dimension>
    <dimension dim="2">kpoint</dimension>
    <dimension dim="3">spin</dimension>
    <field>eigene</field>
    <field>occ</field>
    <set>
     <set comment="spin 1">
      <set comment="kpoint 1">
       <r>   -3.6665    1.0000 </r>
       <r>    3.9129    1.0000 </r>
       <r>    7.1262    1.0000 </r>
       <r>    8.6350    0.9999 </r>
       <r>   12.8330    0.0000 </r>
       <r>   13.7227    0.0000 </r>
       <r>   13.9620    0.0000 </r>
       <r>   15.7940    0.0000 </r>
      </set>
      <set comment="kpoint 2">
       <r>   -1.3411    1.0000 </r>
       <r>    4.2847    1.0000 </r>
       <r>    7.4977    1.0000 </r>
       <r>    7.9772    1.0000 </r>
       <r>    9.7365    0.0000 </r>
       <r>   12.3076    0.0000 </r>
       <r>   13.5660    0.0000 </r>
       <r>   14.3693    0.0000 </r>
      </set>
      <set comment="kpoint 3">
       <r>    2.1932    1.0000 </r>
       <r>    2.7389    1.0000 </r>
       <r>    6.0313    1.0000 </r>
       <r>    6.1243    1.0000 </r>
       <r>    9.5791    0.0016 </r>
       <r>   11.3609    0.0000 </r>
       <r>   13.6664    0.0000 </r>
       <r>   14.5167    0.0000 </r>
      </set>
      <set comment="kpoint 4">
       <r>   -4.4492    1.0000 </r>
       <r>    4.5105    1.0000 </r>
       <r>    5.6964    1.0000 </r>
       <r>    8.2501    1.0000 </r>
       <r>   11.4601    0.0000 </r>
       <r>   14.3327    0.0000 </r>
       <r>   17.5053    0.0000 </r>
       <r>   18.1512    0.0000 </r>
      </set>
      <set comment="kpoint 5">
       <r>    2.0980    1.0000 </r>
       <r>    3.9968    1.0000 </r>
       <r>    4.0998    1.0000 </r>
       <r>    5.8514    1.0000 </r>
       <r>   10.9863    0.0000 </r>
       <r>   12.2040    0.0000 </r>
       <r>   13.8123    0.0000 </r>
       <r>   14.3091    0.0000 </r>
      </set>
      <set comment="kpoint 6">
       <r>   -0.0508    1.0000 </r>
       <r>    1.8513    1.0000 </r>
       <r>    7.0000    1.0000 </r>
       <r>    8.3090    1.0000 </r>
       <r>    9.9661    0.0000 </r>
       <r>   11.7839    0.0000 </r>
       <r>   13.5612    0.0000 </r>
       <r>   15.2080    0.0000 </r>
      </set>
      <set comment="kpoint 7">
       <r>   -2.6820    1.0000 </r>
       <r>    1.1709    1.0000 </r>
       <r>    8.0205    1.0000 </r>
       <r>    9.8380    0.0000 </r>
       <r>   11.4455    0.0000 </r>
       <r>   12.9186    0.0000 </r>
       <r>   14.0913    0.0000 </r>
       <r>   14.3263    0.0000 </r>
      </set>
      <set comment="kpoint 8">
       <r>   -3.7896    1.0000 </r>
       <r>    1.9486    1.0000 </r>
       <r>    5.9618    1.0000 </r>
       <r>    9.8375    0.0000 </r>
       <r>   11.4502    0.0000 </r>
       <r>   14.4915    0.0000 </r>
       <r>   15.3389    0.0000 </r>
       <r>   18.9065    0.0000 </r>
      </set>
      <set comment="kpoint 9">
       <r>   -3.3381    1.0000 </r>
       <r>    3.6574    1.0000 </r>
       <r>    5.1796    1.0000 </r>
       <r>   10.6835    0.0000 </r>
       <r>   11.8098    0.0000 </r>
       <r>   13.2482    0.0000 </r>
       <r>   14.0134    0.0000 </r>
       <r>   15.9470    0.0000 </r>
      </set>
      <set comment="kpoint 10">
       <r>   -1.0579    1.0000 </r>
       <r>   -1.0578    1.0000 </r>
       <r>    9.4765    0.0130 </r>
       <r>    9.4765    0.0130 </r>
       <r>   11.3627    0.0000 </r>
       <r>   11.3627    0.0000 </r>
       <r>   13.7242    0.0000 </r>
       <r>   13.7242    0.0000 </r>
      </set>
      <set comment="kpoint 11">
       <r>   -2.4804    1.0000 </r>
       <r>   -0.5455    1.0000 </r>
       <r>    7.1803    1.0000 </r>
       <r>    9.0256    0.8320 </r>
       <r>   11.2491    0.0000 </r>
       <r>   13.0818    0.0000 </r>
       <r>   18.2372    0.0000 </r>
       <r>   18.5367    0.0000 </r>
      </set>
      <set comment="kpoint 12">
       <r>   -2.3589    1.0000 </r>
       <r>    1.4333    1.0000 </r>
       <r>    5.5740    1.0000 </r>
       <r>    9.1787    0.4521 </r>
       <r>   11.3760    0.0000 </r>
       <r>   13.4757    0.0000 </r>
       <r>   15.5417    0.0000 </r>
       <r>   16.7441    0.0000 </r>
      </set>
      <set comment="kpoint 13">
       <r>   -0.6973    1.0000 </r>
       <r>    4.2665    1.0000 </r>
       <r>    5.8822    1.0000 </r>
       <r>    6.4765    1.0000 </r>
       <r>   10.0787    0.0000 </r>
       <r>   12.3074    0.0000 </r>
       <r>   13.3456    0.0000 </r>
       <r>   15.3930    0.0000 </r>
      </set>
      <set comment="kpoint 14">
       <r>   -0.7503    1.0000 </r>
       <r>   -0.7454    1.0000 </r>
       <r>    7.0613    1.0000 </r>
       <r>    7.0797    1.0000 </r>
       <r>   11.2839    0.0000 </r>
       <r>   14.4923    0.0000 </r>
       <r>   15.2885    0.0000 </r>
       <r>   15.3867    0.0000 </r>
      </set>
      <set comment="kpoint 15">
       <r>    0.5735    1.0000 </r>
       <r>    2.4110    1.0000 </r>
       <r>    5.8097    1.0000 </r>
       <r>    6.5612    1.0000 </r>
       <r>    8.2418    1.0000 </r>
       <r>   11.8463    0.0000 </r>
       <r>   15.4016    0.0000 </r>
       <r>   16.9835    0.0000 </r>
      </set>
      <set comment="kpoint 16">
       <r>    1.4757    1.0000 </r>
       <r>    3.4423    1.0000 </r>
       <r>    6.3802    1.0000 </r>
       <r>    7.6096    1.0000 </r>
       <r>    8.1969    1.0000 </r>
       <r>   10.8022    0.0000 </r>
       <r>   11.6427    0.0000 </r>
       <r>   15.6948    0.0000 </r>
      </set>
      <set comment="kpoint 17">
       <r>    1.1704    1.0000 </r>
       <r>    4.8869    1.0000 </r>
       <r>    4.9350    1.0000 </r>
       <r>    7.7350    1.0000 </r>
       <r>    8.7176    0.9992 </r>
       <r>   10.2826    0.0000 </r>
       <r>   12.6545    0.0000 </r>
       <r>   13.4896    0.0000 </r>
      </set>
      <set comment="kpoint 18">
       <r>   -1.9918    1.0000 </r>
       <r>    6.7148    1.0000 </r>
       <r>    7.7214    1.0000 </r>
       <r>    8.4929    1.0000 </r>
       <r>    9.8850    0.0000 </r>
       <r>   11.1344    0.0000 </r>
       <r>   12.3848    0.0000 </r>
       <r>   13.5605    0.0000 </r>
      </set>
      <set comment="kpoint 19">
       <r>   -3.9961    1.0000 </r>
       <r>    6.7598    1.0000 </r>
       <r>    6.8260    1.0000 </r>
       <r>    6.8260    1.0000 </r>
       <r>   11.1603    0.0000 </r>
       <r>   14.5185    0.0000 </r>
       <r>   14.7961    0.0000 </r>
       <r>   16.7259    0.0000 </r>
      </set>
      <set comment="kpoint 20">
       <r>    3.4017    1.0000 </r>
       <r>    3.4018    1.0000 </r>
       <r>    4.0630    1.0000 </r>
       <r>    4.0630    1.0000 </r>
       <r>   13.2271    0.0000 </r>
       <r>   13.2271    0.0000 </r>
       <r>   15.0342    0.0000 </r>
       <r>   15.0342    0.0000 </r>
      </set>
      <set comment="kpoint 21">
       <r>   -3.1367    1.0000 </r>
       <r>    1.9342    1.0000 </r>
       <r>    3.6313    1.0000 </r>
       <r>    8.5471    1.0000 </r>
       <r>   12.9006    0.0000 </r>
       <r>   16.0496    0.0000 </r>
       <r>   17.2889    0.0000 </r>
       <r>   18.2871    0.0000 </r>
      </set>
      <set comment="kpoint 22">
       <r>   -1.8461    1.0000 </r>
       <r>    0.0256    1.0000 </r>
       <r>    4.2735    1.0000 </r>
       <r>    6.0924    1.0000 </r>
       <r>   14.7553    0.0000 </r>
       <r>   16.1988    0.0000 </r>
       <r>   17.8372    0.0000 </r>
       <r>   18.1967    0.0000 </r>
      </set>
      <set comment="kpoint 23">
       <r>   -1.3996    1.0000 </r>
       <r>    1.7169    1.0000 </r>
       <r>    3.4707    1.0000 </r>
       <r>    6.5047    1.0000 </r>
       <r>   10.8341    0.0000 </r>
       <r>   16.4955    0.0000 </r>
       <r>   17.5194    0.0000 </r>
       <r>   18.3908    0.0000 </r>
      </set>
      <set comment="kpoint 24">
       <r>    0.1373    1.0000 </r>
       <r>    0.1478    1.0000 </r>
       <r>    4.3961    1.0000 </r>
       <r>    4.3984    1.0000 </r>
       <r>   10.5743    0.0000 </r>
       <r>   17.6479    0.0000 </r>
       <r>   18.2461    0.0000 </r>
       <r>   19.0245    0.0000 </r>
      </set>
      <set comment="kpoint 25">
       <r>    1.7702    1.0000 </r>
       <r>    2.9903    1.0000 </r>
       <r>    4.7439    1.0000 </r>
       <r>    5.2544    1.0000 </r>
       <r>    6.0052    1.0000 </r>
       <r>   13.9644    0.0000 </r>
       <r>   15.3600    0.0000 </r>
       <r>   17.2600    0.0000 </r>
      </set>
      <set comment="kpoint 26">
       <r>    0.8557    1.0000 </r>
       <r>    5.7793    1.0000 </r>
       <r>    5.8712    1.0000 </r>
       <r>    7.2716    1.0000 </r>
       <r>    7.2716    1.0000 </r>
       <r>   11.5901    0.0000 </r>
       <r>   12.2734    0.0000 </r>
       <r>   12.2734    0.0000 </r>
      </set>
      <set comment="kpoint 27">
       <r>   -0.6271    1.0000 </r>
       <r>    0.6199    1.0000 </r>
       <r>    2.4372    1.0000 </r>
       <r>    3.6669    1.0000 </r>
       <r>   16.2091    0.0000 </r>
       <r>   16.4161    0.0000 </r>
       <r>   19.3941    0.0000 </r>
       <r>   20.4938    0.0000 </r>
      </set>
      <set comment="kpoint 28">
       <r>    1.0525    1.0000 </r>
       <r>    1.0702    1.0000 </r>
       <r>    2.8685    1.0000 </r>
       <r>    2.8685    1.0000 </r>
       <r>   10.2944    0.0000 </r>
       <r>   19.1887    0.0000 </r>
       <r>   20.3268    0.0000 </r>
       <r>   20.3268    0.0000 </r>
      </set>
     </set>
    </set>
   </array>
  </eigenvalues>
  <separator name="orbital magnetization" >
   <v name="MAGDIPOLOUT">      0.00000000      0.00000000      0.00000000</v>
  </separator>
  <dos>
   <i name="efermi">      9.16171447 </i>
   <total>
    <array>
     <dimension dim="1">gridpoints</dimension>
     <dimension dim="2">spin</dimension>
     <field>energy</field>
     <field>total</field>
     <field>integrated</field>
     <set>
      <set comment="spin 1">
       <r>    -6.4492     0.0000     0.0000 </r>
       <r>    -6.3527     0.0000     0.0000 </r>
       <r>    -6.2562     0.0000     0.0000 </r>
       <r>    -6.1597     0.0000     0.0000 </r>
       <r>    -6.0633     0.0000     0.0000 </r>
       <r>    -5.9668     0.0000     0.0000 </r>
       <r>    -5.8703     0.0000     0.0000 </r>
       <r>    -5.7738     0.0000     0.0000 </r>
       <r>    -5.6774     0.0000     0.0000 </r>
       <r>    -5.5809     0.0000     0.0000 </r>
       <r>    -5.4844     0.0000     0.0000 </r>
       <r>    -5.3879     0.0000     0.0000 </r>
       <r>    -5.2914     0.0000     0.0000 </r>
       <r>    -5.1950     0.0000     0.0000 </r>
       <r>    -5.0985     0.0000     0.0000 </r>
       <r>    -5.0020     0.0000     0.0000 </r>
       <r>    -4.9055     0.0002     0.0000 </r>
       <r>    -4.8091     0.0019     0.0002 </r>
       <r>    -4.7126     0.0099     0.0012 </r>
       <r>    -4.6161     0.0337     0.0044 </r>
       <r>    -4.5196     0.0731     0.0115 </r>
       <r>    -4.4232     0.1015     0.0212 </r>
       <r>    -4.3267     0.0914     0.0301 </r>
       <r>    -4.2302     0.0590     0.0358 </r>
       <r>    -4.1337     0.0461     0.0402 </r>
       <r>    -4.0372     0.0745     0.0474 </r>
       <r>    -3.9408     0.1473     0.0616 </r>
       <r>    -3.8443     0.2586     0.0866 </r>
       <r>    -3.7478     0.3625     0.1215 </r>
       <r>    -3.6513     0.3834     0.1585 </r>
       <r>    -3.5549     0.3146     0.1889 </r>
       <r>    -3.4584     0.2483     0.2128 </r>
       <r>    -3.3619     0.2465     0.2366 </r>
       <r>    -3.2654     0.2614     0.2618 </r>
       <r>    -3.1690     0.2338     0.2844 </r>
       <r>    -3.0725     0.1698     0.3008 </r>
       <r>    -2.9760     0.1072     0.3111 </r>
       <r>    -2.8795     0.0892     0.3197 </r>
       <r>    -2.7831     0.1437     0.3336 </r>
       <r>    -2.6866     0.2507     0.3577 </r>
       <r>    -2.5901     0.3712     0.3936 </r>
       <r>    -2.4936     0.4984     0.4416 </r>
       <r>    -2.3971     0.5962     0.4992 </r>
       <r>    -2.3007     0.5684     0.5540 </r>
       <r>    -2.2042     0.4172     0.5943 </r>
       <r>    -2.1077     0.2964     0.6228 </r>
       <r>    -2.0112     0.3025     0.6520 </r>
       <r>    -1.9148     0.3584     0.6866 </r>
       <r>    -1.8183     0.3463     0.7200 </r>
       <r>    -1.7218     0.2537     0.7445 </r>
       <r>    -1.6253     0.1805     0.7619 </r>
       <r>    -1.5289     0.2430     0.7853 </r>
       <r>    -1.4324     0.4432     0.8281 </r>
       <r>    -1.3359     0.6130     0.8872 </r>
       <r>    -1.2394     0.5925     0.9444 </r>
       <r>    -1.1429     0.4488     0.9877 </r>
       <r>    -1.0465     0.3434     1.0208 </r>
       <r>    -0.9500     0.3358     1.0532 </r>
       <r>    -0.8535     0.4518     1.0968 </r>
       <r>    -0.7570     0.6663     1.1611 </r>
       <r>    -0.6606     0.8057     1.2388 </r>
       <r>    -0.5641     0.7239     1.3087 </r>
       <r>    -0.4676     0.4846     1.3554 </r>
       <r>    -0.3711     0.2562     1.3801 </r>
       <r>    -0.2747     0.1679     1.3963 </r>
       <r>    -0.1782     0.2766     1.4230 </r>
       <r>    -0.0817     0.5395     1.4751 </r>
       <r>     0.0148     0.7905     1.5513 </r>
       <r>     0.1113     0.8512     1.6335 </r>
       <r>     0.2077     0.6889     1.6999 </r>
       <r>     0.3042     0.4412     1.7425 </r>
       <r>     0.4007     0.3112     1.7725 </r>
       <r>     0.4972     0.3807     1.8092 </r>
       <r>     0.5936     0.5059     1.8580 </r>
       <r>     0.6901     0.4877     1.9051 </r>
       <r>     0.7866     0.3361     1.9375 </r>
       <r>     0.8831     0.2209     1.9588 </r>
       <r>     0.9795     0.2461     1.9826 </r>
       <r>     1.0760     0.3898     2.0202 </r>
       <r>     1.1725     0.5436     2.0726 </r>
       <r>     1.2690     0.6256     2.1330 </r>
       <r>     1.3654     0.6810     2.1987 </r>
       <r>     1.4619     0.7338     2.2695 </r>
       <r>     1.5584     0.7232     2.3392 </r>
       <r>     1.6549     0.7176     2.4085 </r>
       <r>     1.7514     0.8423     2.4897 </r>
       <r>     1.8478     1.0072     2.5869 </r>
       <r>     1.9443     1.0236     2.6857 </r>
       <r>     2.0408     0.8814     2.7707 </r>
       <r>     2.1373     0.7174     2.8399 </r>
       <r>     2.2337     0.6261     2.9003 </r>
       <r>     2.3302     0.6189     2.9600 </r>
       <r>     2.4267     0.6278     3.0206 </r>
       <r>     2.5232     0.5492     3.0736 </r>
       <r>     2.6196     0.4143     3.1135 </r>
       <r>     2.7161     0.3505     3.1474 </r>
       <r>     2.8126     0.3690     3.1830 </r>
       <r>     2.9091     0.3874     3.2203 </r>
       <r>     3.0056     0.3520     3.2543 </r>
       <r>     3.1020     0.2640     3.2798 </r>
       <r>     3.1985     0.1964     3.2987 </r>
       <r>     3.2950     0.2543     3.3232 </r>
       <r>     3.3915     0.4469     3.3664 </r>
       <r>     3.4879     0.6445     3.4285 </r>
       <r>     3.5844     0.7198     3.4980 </r>
       <r>     3.6809     0.6691     3.5625 </r>
       <r>     3.7774     0.5758     3.6181 </r>
       <r>     3.8738     0.5565     3.6718 </r>
       <r>     3.9703     0.6600     3.7355 </r>
       <r>     4.0668     0.8267     3.8152 </r>
       <r>     4.1633     1.0236     3.9140 </r>
       <r>     4.2597     1.2329     4.0329 </r>
       <r>     4.3562     1.3006     4.1584 </r>
       <r>     4.4527     1.0896     4.2635 </r>
       <r>     4.5492     0.7288     4.3338 </r>
       <r>     4.6457     0.4755     4.3797 </r>
       <r>     4.7421     0.4358     4.4217 </r>
       <r>     4.8386     0.5158     4.4715 </r>
       <r>     4.9351     0.5630     4.5258 </r>
       <r>     5.0316     0.5261     4.5766 </r>
       <r>     5.1280     0.4821     4.6231 </r>
       <r>     5.2245     0.4714     4.6685 </r>
       <r>     5.3210     0.4370     4.7107 </r>
       <r>     5.4175     0.4019     4.7495 </r>
       <r>     5.5139     0.4758     4.7954 </r>
       <r>     5.6104     0.6700     4.8600 </r>
       <r>     5.7069     0.9292     4.9497 </r>
       <r>     5.8034     1.2261     5.0680 </r>
       <r>     5.8999     1.4649     5.2093 </r>
       <r>     5.9963     1.5049     5.3545 </r>
       <r>     6.0928     1.3061     5.4805 </r>
       <r>     6.1893     0.9662     5.5737 </r>
       <r>     6.2858     0.7078     5.6420 </r>
       <r>     6.3822     0.7175     5.7112 </r>
       <r>     6.4787     0.9175     5.7997 </r>
       <r>     6.5752     1.0390     5.9000 </r>
       <r>     6.6717     0.9479     5.9914 </r>
       <r>     6.7681     0.7742     6.0661 </r>
       <r>     6.8646     0.7286     6.1364 </r>
       <r>     6.9611     0.8984     6.2231 </r>
       <r>     7.0576     1.1396     6.3330 </r>
       <r>     7.1540     1.1802     6.4469 </r>
       <r>     7.2505     0.9546     6.5390 </r>
       <r>     7.3470     0.6963     6.6062 </r>
       <r>     7.4435     0.6318     6.6671 </r>
       <r>     7.5400     0.7321     6.7377 </r>
       <r>     7.6364     0.8232     6.8172 </r>
       <r>     7.7329     0.8160     6.8959 </r>
       <r>     7.8294     0.7644     6.9696 </r>
       <r>     7.9259     0.7800     7.0449 </r>
       <r>     8.0223     0.8900     7.1307 </r>
       <r>     8.1188     1.0484     7.2319 </r>
       <r>     8.2153     1.2173     7.3493 </r>
       <r>     8.3118     1.2701     7.4719 </r>
       <r>     8.4082     1.1086     7.5788 </r>
       <r>     8.5047     0.8771     7.6634 </r>
       <r>     8.6012     0.7317     7.7340 </r>
       <r>     8.6977     0.6243     7.7943 </r>
       <r>     8.7942     0.4783     7.8404 </r>
       <r>     8.8906     0.3561     7.8748 </r>
       <r>     8.9871     0.3636     7.9098 </r>
       <r>     9.0836     0.4795     7.9561 </r>
       <r>     9.1801     0.5625     8.0104 </r>
       <r>     9.2765     0.5212     8.0607 </r>
       <r>     9.3730     0.4381     8.1029 </r>
       <r>     9.4695     0.4526     8.1466 </r>
       <r>     9.5660     0.5862     8.2032 </r>
       <r>     9.6624     0.7996     8.2803 </r>
       <r>     9.7589     1.0639     8.3829 </r>
       <r>     9.8554     1.2743     8.5059 </r>
       <r>     9.9519     1.2800     8.6294 </r>
       <r>    10.0484     1.0586     8.7315 </r>
       <r>    10.1448     0.7557     8.8044 </r>
       <r>    10.2413     0.5276     8.8553 </r>
       <r>    10.3378     0.4012     8.8940 </r>
       <r>    10.4343     0.3448     8.9273 </r>
       <r>    10.5307     0.3784     8.9638 </r>
       <r>    10.6272     0.5037     9.0124 </r>
       <r>    10.7237     0.6443     9.0745 </r>
       <r>    10.8202     0.7174     9.1437 </r>
       <r>    10.9166     0.7017     9.2114 </r>
       <r>    11.0131     0.6709     9.2762 </r>
       <r>    11.1096     0.7552     9.3490 </r>
       <r>    11.2061     1.0375     9.4491 </r>
       <r>    11.3025     1.4436     9.5884 </r>
       <r>    11.3990     1.7029     9.7527 </r>
       <r>    11.4955     1.5915     9.9062 </r>
       <r>    11.5920     1.2751    10.0293 </r>
       <r>    11.6885     1.1238    10.1377 </r>
       <r>    11.7849     1.1790    10.2514 </r>
       <r>    11.8814     1.1266    10.3601 </r>
       <r>    11.9779     0.8327    10.4405 </r>
       <r>    12.0744     0.5816    10.4966 </r>
       <r>    12.1708     0.6553    10.5598 </r>
       <r>    12.2673     0.9393    10.6504 </r>
       <r>    12.3638     1.0630    10.7530 </r>
       <r>    12.4603     0.8649    10.8364 </r>
       <r>    12.5567     0.5690    10.8913 </r>
       <r>    12.6532     0.4331    10.9331 </r>
       <r>    12.7497     0.4765    10.9790 </r>
       <r>    12.8462     0.5858    11.0356 </r>
       <r>    12.9427     0.6506    11.0983 </r>
       <r>    13.0391     0.6398    11.1601 </r>
       <r>    13.1356     0.6328    11.2211 </r>
       <r>    13.2321     0.7236    11.2909 </r>
       <r>    13.3286     0.9685    11.3844 </r>
       <r>    13.4250     1.3974    11.5192 </r>
       <r>    13.5215     1.8752    11.7001 </r>
       <r>    13.6180     2.0734    11.9001 </r>
       <r>    13.7145     1.8521    12.0788 </r>
       <r>    13.8109     1.4558    12.2193 </r>
       <r>    13.9074     1.1774    12.3328 </r>
       <r>    14.0039     1.0508    12.4342 </r>
       <r>    14.1004     0.9579    12.5266 </r>
       <r>    14.1968     0.9331    12.6166 </r>
       <r>    14.2933     1.1030    12.7231 </r>
       <r>    14.3898     1.3464    12.8530 </r>
       <r>    14.4863     1.3728    12.9854 </r>
       <r>    14.5828     1.1063    13.0921 </r>
       <r>    14.6792     0.7452    13.1640 </r>
       <r>    14.7757     0.4840    13.2107 </r>
       <r>    14.8722     0.3419    13.2437 </r>
       <r>    14.9687     0.2997    13.2726 </r>
       <r>    15.0651     0.4189    13.3130 </r>
       <r>    15.1616     0.7642    13.3868 </r>
       <r>    15.2581     1.2813    13.5104 </r>
       <r>    15.3546     1.7273    13.6770 </r>
       <r>    15.4510     1.8077    13.8514 </r>
       <r>    15.5475     1.4978    13.9959 </r>
       <r>    15.6440     1.0764    14.0998 </r>
       <r>    15.7405     0.7801    14.1750 </r>
       <r>    15.8370     0.6270    14.2355 </r>
       <r>    15.9334     0.5486    14.2885 </r>
       <r>    16.0299     0.5080    14.3375 </r>
       <r>    16.1264     0.4937    14.3851 </r>
       <r>    16.2229     0.4807    14.4315 </r>
       <r>    16.3193     0.4480    14.4747 </r>
       <r>    16.4158     0.4223    14.5155 </r>
       <r>    16.5123     0.4309    14.5570 </r>
       <r>    16.6088     0.4759    14.6029 </r>
       <r>    16.7052     0.5559    14.6566 </r>
       <r>    16.8017     0.6230    14.7167 </r>
       <r>    16.8982     0.6312    14.7776 </r>
       <r>    16.9947     0.5928    14.8348 </r>
       <r>    17.0911     0.5205    14.8850 </r>
       <r>    17.1876     0.4540    14.9288 </r>
       <r>    17.2841     0.4387    14.9711 </r>
       <r>    17.3806     0.4581    15.0153 </r>
       <r>    17.4771     0.4964    15.0632 </r>
       <r>    17.5735     0.5336    15.1147 </r>
       <r>    17.6700     0.5182    15.1647 </r>
       <r>    17.7665     0.4466    15.2077 </r>
       <r>    17.8630     0.3616    15.2426 </r>
       <r>    17.9594     0.3138    15.2729 </r>
       <r>    18.0559     0.3929    15.3108 </r>
       <r>    18.1524     0.6389    15.3724 </r>
       <r>    18.2489     0.8888    15.4582 </r>
       <r>    18.3453     0.9239    15.5473 </r>
       <r>    18.4418     0.7497    15.6197 </r>
       <r>    18.5383     0.5230    15.6701 </r>
       <r>    18.6348     0.3358    15.7025 </r>
       <r>    18.7313     0.2298    15.7247 </r>
       <r>    18.8277     0.2441    15.7482 </r>
       <r>    18.9242     0.3397    15.7810 </r>
       <r>    19.0207     0.3969    15.8193 </r>
       <r>    19.1172     0.3487    15.8530 </r>
       <r>    19.2136     0.2477    15.8769 </r>
       <r>    19.3101     0.1750    15.8937 </r>
       <r>    19.4066     0.1406    15.9073 </r>
       <r>    19.5031     0.1056    15.9175 </r>
       <r>    19.5995     0.0590    15.9232 </r>
       <r>    19.6960     0.0221    15.9253 </r>
       <r>    19.7925     0.0054    15.9258 </r>
       <r>    19.8890     0.0012    15.9260 </r>
       <r>    19.9855     0.0028    15.9262 </r>
       <r>    20.0819     0.0136    15.9275 </r>
       <r>    20.1784     0.0447    15.9318 </r>
       <r>    20.2749     0.0989    15.9414 </r>
       <r>    20.3714     0.1533    15.9562 </r>
       <r>    20.4678     0.1731    15.9729 </r>
       <r>    20.5643     0.1446    15.9868 </r>
       <r>    20.6608     0.0874    15.9953 </r>
       <r>    20.7573     0.0367    15.9988 </r>
       <r>    20.8537     0.0103    15.9998 </r>
       <r>    20.9502     0.0019    16.0000 </r>
       <r>    21.0467     0.0002    16.0000 </r>
       <r>    21.1432     0.0000    16.0000 </r>
       <r>    21.2396     0.0000    16.0000 </r>
       <r>    21.3361     0.0000    16.0000 </r>
       <r>    21.4326     0.0000    16.0000 </r>
       <r>    21.5291     0.0000    16.0000 </r>
       <r>    21.6256     0.0000    16.0000 </r>
       <r>    21.7220     0.0000    16.0000 </r>
       <r>    21.8185     0.0000    16.0000 </r>
       <r>    21.9150     0.0000    16.0000 </r>
       <r>    22.0115     0.0000    16.0000 </r>
       <r>    22.1079     0.0000    16.0000 </r>
       <r>    22.2044     0.0000    16.0000 </r>
       <r>    22.3009     0.0000    16.0000 </r>
       <r>    22.3974     0.0000    16.0000 </r>
       <r>    22.4938     0.0000    16.0000 </r>
      </set>
     </set>
    </array>
   </total>
  </dos>
 </calculation>
 <structure name="finalpos" >
  <crystal>
   <varray name="basis" >
    <v>      -2.45000000       2.45000000       1.27400000 </v>
    <v>       2.45000000      -2.45000000       1.27400000 </v>
    <v>       2.45000000       2.45000000      -1.27400000 </v>
   </varray>
   <i name="volume">     30.58874000 </i>
   <varray name="rec_basis" >
    <v>       0.00000000       0.20408163       0.39246468 </v>
    <v>       0.20408163       0.00000000       0.39246468 </v>
    <v>       0.20408163       0.20408163      -0.00000000 </v>
   </varray>
  </crystal>
  <varray name="positions" >
   <v>       0.25000000       0.75000000       0.50000000 </v>
   <v>       0.00000000       0.00000000       0.00000000 </v>
  </varray>
 </structure>
</modeling>
