unknown system                          
   1.00000000000000     
    -2.450000    2.450000    1.274000
     2.450000   -2.450000    1.274000
     2.450000    2.450000   -1.274000
   Si
     2
Direct
  0.250000  0.750000  0.500000
  0.000000  0.000000  0.000000
 
   24   24   24
 -5.5624     -3.5417      1.4902      7.0924      10.893      11.869      10.617      8.5868      6.7069      5.2513    
  4.2776      3.7369      3.5656      3.7370      4.2776      5.2513      6.7069      8.5868      10.617      11.868    
  10.893      7.0926      1.4901     -3.5419     -3.5419     -4.5778     -1.7878      3.3939      8.4796      11.416    
  11.634      10.030      8.0082      6.2395      4.9229      4.0776      3.6442      3.5656      3.8282      4.4699    
  5.5569      7.1219      9.0691      11.047      11.954      10.451      6.2773     0.79479      1.4901     -1.7880    
 -1.8621      1.2920      6.0184      10.035      11.788      11.188      9.3302      7.3781      5.7565      4.5964    
  3.8842      3.5564      3.5655      3.9113      4.6399      5.8144      7.4491      9.4156      11.304      11.969    
  10.280      6.2773      7.0926      3.3939      1.2918      1.9444      4.9747      8.7260      11.332      11.824    
  10.530      8.5752      6.7422      5.2920      4.2936      3.7099      3.4789      3.5654      3.9802      4.7733    
  6.0009      7.6588      9.5967      11.389      11.969      10.451      10.893      8.4797      6.0184      4.9746    
  5.9946      8.4627      10.926      12.060      11.458      9.7323      7.8177      6.1436      4.8753      4.0325    
  3.5646      3.4166      3.5654      4.0294      4.8586      6.0989      7.7310      9.5967      11.304      11.954    
  11.868      11.416      10.035      8.7260      8.4627      9.4840      11.114      12.247      12.116      10.769    
  8.9098      7.1109      5.6199      4.5296      3.8262      3.4558      3.3731      3.5653      4.0551      4.8879    
  6.0989      7.6588      9.4156      11.047      10.617      11.634      11.788      11.332      10.926      11.114    
  11.870      12.606      12.617      11.621      9.9474      8.1407      6.5045      5.2013      4.2717      3.6841    
  3.3886      3.3507      3.5653      4.0551      4.8586      6.0009      7.4491      9.0691      8.5868      10.030    
  11.188      11.824      12.060      12.247      12.606      12.990      12.984      12.254      10.858      9.1696    
  7.4937      6.0403      4.9103      4.1128      3.6117      3.3658      3.3507      3.5653      4.0294      4.7733    
  5.8144      7.1219      6.7069      8.0082      9.3302      10.530      11.458      12.116      12.617      12.984    
  13.051      12.592      11.550      10.118      8.5346      7.0274      5.7492      4.7613      4.0592      3.6117    
  3.3886      3.3731      3.5654      3.9802      4.6399      5.5569      5.2513      6.2395      7.3781      8.5752    
  9.7324      10.769      11.621      12.254      12.593      12.506      11.917      10.880      9.5468      8.1203    
  6.7835      5.6500      4.7613      4.1128      3.6841      3.4558      3.4166      3.5654      3.9113      4.4699    
  4.2776      4.9229      5.7564      6.7422      7.8178      8.9099      9.9473      10.857      11.550      11.917    
  11.859      11.338      10.416      9.2371      7.9765      6.7835      5.7492      4.9103      4.2717      3.8262    
  3.5646      3.4789      3.5655      3.8282      3.7370      4.0776      4.5964      5.2919      6.1436      7.1110    
  8.1408      9.1695      10.117      10.880      11.338      11.393      11.012      10.251      9.2371      8.1203    
  7.0274      6.0403      5.2013      4.5296      4.0325      3.7099      3.5564      3.5656      3.5656      3.6443    
  3.8843      4.2936      4.8752      5.6198      6.5046      7.4938      8.5346      9.5467      10.416      11.012    
  11.225      11.012      10.416      9.5468      8.5346      7.4937      6.5045      5.6199      4.8753      4.2936    
  3.8842      3.6442      3.7369      3.5656      3.5564      3.7100      4.0325      4.5295      5.2012      6.0403    
  7.0275      8.1203      9.2370      10.251      11.012      11.393      11.338      10.880      10.118      9.1696    
  8.1407      7.1109      6.1436      5.2920      4.5964      4.0776      4.2776      3.8281      3.5655      3.4789    
  3.5647      3.8263      4.2716      4.9102      5.7492      6.7836      7.9765      9.2370      10.416      11.338    
  11.859      11.917      11.550      10.858      9.9474      8.9098      7.8177      6.7422      5.7565      4.9229    
  5.2513      4.4700      3.9113      3.5654      3.4166      3.4559      3.6842      4.1128      4.7612      5.6501    
  6.7836      8.1203      9.5467      10.880      11.917      12.506      12.592      12.254      11.621      10.769    
  9.7323      8.5752      7.3781      6.2395      6.7069      5.5569      4.6400      3.9802      3.5652      3.3730    
  3.3887      3.6119      4.0592      4.7612      5.7492      7.0275      8.5346      10.117      11.550      12.593    
  13.051      12.984      12.617      12.116      11.458      10.530      9.3302      8.0082      8.5868      7.1218    
  5.8144      4.7735      4.0295      3.5651      3.3506      3.3660      3.6119      4.1128      4.9102      6.0403    
  7.4938      9.1695      10.857      12.254      12.984      12.990      12.606      12.247      12.060      11.824    
  11.188      10.030      10.617      9.0690      7.4490      6.0009      4.8588      4.0552      3.5651      3.3506    
  3.3887      3.6842      4.2716      5.2012      6.5046      8.1408      9.9473      11.621      12.617      12.606    
  11.870      11.114      10.926      11.332      11.788      11.634      11.869      11.047      9.4155      7.6586    
  6.0990      4.8881      4.0552      3.5651      3.3730      3.4559      3.8263      4.5295      5.6198      7.1110    
  8.9099      10.769      12.116      12.247      11.114      9.4840      8.4627      8.7260      10.035      11.416    
  10.893      11.954      11.304      9.5967      7.7308      6.0990      4.8588      4.0295      3.5652      3.4166    
  3.5647      4.0325      4.8752      6.1436      7.8178      9.7324      11.458      12.060      10.926      8.4627    
  5.9946      4.9747      6.0184      8.4796      7.0924      10.451      11.969      11.389      9.5967      7.6586    
  6.0009      4.7735      3.9802      3.5654      3.4789      3.7100      4.2936      5.2919      6.7422      8.5752    
  10.530      11.824      11.332      8.7260      4.9746      1.9444      1.2920      3.3939      1.4902      6.2771    
  10.280      11.969      11.304      9.4155      7.4490      5.8144      4.6400      3.9113      3.5655      3.5564    
  3.8843      4.5964      5.7564      7.3781      9.3302      11.188      11.788      10.035      6.0184      1.2918    
 -1.8621     -1.7878     -3.5417     0.79486      6.2771      10.451      11.954      11.047      9.0690      7.1218    
  5.5569      4.4700      3.8281      3.5656      3.6443      4.0776      4.9229      6.2395      8.0082      10.030    
  11.634      11.416      8.4797      3.3939     -1.7880     -4.5778     -3.5415     -2.1058      2.2171      7.2685    
  10.800      11.733      10.524      8.5148      6.6304      5.1520      4.1455      3.5668      3.3507      3.4651    
  3.9292      4.8026      6.1405      7.9125      9.9059      11.410      11.068      8.1316      3.3062     -1.3534    
 -2.1060     -3.5415     -1.3532      3.3063      8.1315      11.068      11.410      9.9059      7.9125      6.1405    
  4.8026      3.9292      3.4651      3.3507      3.5668      4.1455      5.1520      6.6305      8.5148      10.524    
  11.733      10.801      7.2686      2.2170      2.3603     -1.1971     -1.7876     0.86305      5.3202      9.3634    
  11.330      10.950      9.1995      7.2751      5.6492      4.4704      3.7370      3.3880      3.3731      3.6867    
  4.3716      5.4939      7.0824      9.0372      11.014      11.974      10.712      7.0686      7.6253      3.7159    
  1.1536      1.2920      3.9916      7.7249      10.575      11.393      10.331      8.4573      6.6455      5.1891    
  4.1764      3.5801      3.3398      3.4166      3.8173      4.5915      5.8016      7.4589      9.4364      11.353    
  12.176      10.906      11.356      8.7962      5.9404      4.3778      4.9747      7.3000      9.9329      11.415    
  11.142      9.5880      7.7249      6.0621      4.7870      3.9365      3.4672      3.3235      3.4788      3.9498    
  4.7884      6.0490      7.7260      9.6762      11.522      12.341      12.422      11.914      10.250      8.4773    
  7.7349      8.4627      10.096      11.484      11.689      10.584      8.8142      7.0458      5.5579      4.4638    
  3.7624      3.4034      3.3398      3.5562      4.0751      4.9464      6.2136      7.8578      9.7320      11.502    
  11.274      12.337      12.362      11.578      10.733      10.535      11.114      11.924      12.171      11.409    
  9.8501      8.0848      6.4618      5.1595      4.2339      3.6611      3.3914      3.3880      3.6441      4.1842    
  5.0521      6.2802      7.8408      9.5955      9.2765      10.835      12.012      12.501      12.433      12.255    
  12.328      12.605      12.665      12.075      10.772      9.1178      7.4583      6.0103      4.8872      4.1072    
  3.6362      3.4313      3.4652      3.7368      4.2688      5.0966      6.2426      7.6759      7.3787      8.8019    
  10.215      11.425      12.224      12.635      12.857      13.010      12.984      12.525      11.501      10.069    
  8.4920      6.9903      5.7221      4.7556      4.0887      3.6883      3.5206      3.5669      3.8281      4.3224    
  5.0764      6.1046      5.8797      6.9767      8.2125      9.4705      10.624      11.561      12.225      12.642    
  12.799      12.592      11.923      10.836      9.4818      8.0522      6.7262      5.6191      4.7726      4.1798    
  3.8150      3.6549      3.6869      3.9114      4.3408      4.9937      4.8562      5.5887      6.5058      7.5576    
  8.6622      9.7266      10.670      11.427      11.935      12.123      11.917      11.295      10.315      9.1139    
  7.8593      6.6962      5.7126      4.9404      4.3779      4.0112      3.8272      3.8175      3.9805      4.3226    
  4.2691      4.6757      5.2568      6.0050      6.8890      7.8538      8.8325      9.7557      10.552      11.138    
  11.424      11.338      10.862      10.053      9.0341      7.9471      6.9118      6.0027      5.2539      4.6756    
  4.2682      4.0282      3.9501      4.0299      4.0556      4.1846      4.4672      4.9101      5.5120      6.2557    
  7.1074      8.0216      8.9420      9.7964      10.492      10.925      11.012      10.726      10.111      9.2684    
  8.3182      7.3639      6.4766      5.6998      5.0601      4.5735      4.2461      4.0754      4.1844      4.0556    
  4.0755      4.2462      4.5735      5.0600      5.6998      6.4767      7.3640      8.3182      9.2683      10.111    
  10.726      11.012      10.925      10.492      9.7965      8.9421      8.0215      7.1073      6.2557      5.5121    
  4.9102      4.4671      4.6757      4.2690      4.0298      3.9502      4.0283      4.2682      4.6755      5.2538    
  6.0027      6.9119      7.9471      9.0340      10.053      10.862      11.338      11.424      11.138      10.552    
  9.7558      8.8324      7.8537      6.8890      6.0051      5.2568      5.5888      4.8562      4.3225      3.9804    
  3.8175      3.8273      4.0113      4.3778      4.9403      5.7126      6.6963      7.8593      9.1139      10.315    
  11.295      11.917      12.123      11.935      11.427      10.670      9.7265      8.6621      7.5575      6.5059    
  6.9767      5.8798      4.9938      4.3408      3.9113      3.6869      3.6550      3.8151      4.1797      4.7725    
  5.6191      6.7263      8.0522      9.4817      10.836      11.923      12.592      12.799      12.642      12.225    
  11.561      10.624      9.4704      8.2124      8.8018      7.3786      6.1047      5.0766      4.3224      3.8279    
  3.5669      3.5207      3.6884      4.0886      4.7555      5.7222      6.9904      8.4919      10.069      11.501    
  12.526      12.984      13.010      12.857      12.635      12.224      11.425      10.215      10.835      9.2764    
  7.6758      6.2426      5.0968      4.2688      3.7366      3.4651      3.4314      3.6363      4.1071      4.8871    
  6.0104      7.4584      9.1177      10.772      12.075      12.665      12.606      12.328      12.255      12.433    
  12.501      12.012      12.337      11.274      9.5954      7.8406      6.2803      5.0523      4.1842      3.6439    
  3.3879      3.3915      3.6612      4.2339      5.1594      6.4618      8.0849      9.8501      11.408      12.171    
  11.924      11.114      10.534      10.732      11.578      12.362      11.913      12.422      11.502      9.7319    
  7.8576      6.2137      4.9465      4.0752      3.5561      3.3398      3.4035      3.7624      4.4637      5.5579    
  7.0459      8.8142      10.584      11.689      11.484      10.096      8.4627      7.7350      8.4772      10.250    
  8.7960      11.356      12.341      11.523      9.6761      7.7258      6.0490      4.7886      3.9498      3.4787    
  3.3234      3.4673      3.9366      4.7870      6.0621      7.7249      9.5880      11.142      11.415      9.9329    
  7.2999      4.9747      4.3779      5.9404      3.7159      7.6251      10.906      12.176      11.353      9.4364    
  7.4587      5.8017      4.5917      3.8173      3.4165      3.3398      3.5802      4.1764      5.1890      6.6455    
  8.4573      10.331      11.393      10.575      7.7249      3.9915      1.2921      1.1537     -1.1969      2.3603    
  7.0684      10.712      11.974      11.014      9.0371      7.0823      5.4939      4.3717      3.6867      3.3730    
  3.3880      3.7370      4.4704      5.6492      7.2751      9.1994      10.950      11.330      9.3635      5.3201    
 0.86288     -1.7876      1.4909      2.3608      5.4783      9.1815      11.652      11.995      10.602      8.6089    
  6.7539      5.2854      4.2659      3.6548      3.3885      3.4312      3.7939      4.5281      5.6907      7.2781    
  9.1439      10.869      11.408      9.9350      6.7414      3.3066      2.2173     0.79558      2.2176      5.6925    
  9.3682      11.507      11.477      9.9055      7.9539      6.2160      4.8902      4.0088      3.5205      3.3658    
  3.5205      4.0088      4.8902      6.2160      7.9540      9.9054      11.477      11.508      9.3683      5.6923    
  5.4782      2.3606      1.4908      3.3068      6.7415      9.9349      11.408      10.869      9.1439      7.2780    
  5.6907      4.5281      3.7938      3.4312      3.3886      3.6548      4.2658      5.2853      6.7540      8.6089    
  10.602      11.995      11.652      9.1816      9.5124      6.2011      3.7161      3.3944      5.3205      8.2882    
  10.619      11.224      10.164      8.3696      6.6255      5.2111      4.2200      3.6325      3.3914      3.4558    
  3.8271      4.5500      5.6875      7.2657      9.1935      11.184      12.435      11.933      12.356      10.315    
  7.6890      5.9405      6.0186      7.7251      9.8771      11.132      10.851      9.3914      7.6252      6.0331    
  4.8031      3.9814      3.5326      3.4035      3.5646      4.0281      4.8431      6.0670      7.7095      9.6570    
  11.606      12.787      13.006      12.823      11.374      9.5510      8.4772      8.7260      9.9328      11.088    
  11.271      10.268      8.6182      6.9482      5.5306      4.4856      3.8230      3.4989      3.4673      3.7099    
  4.2461      5.1244      6.3930      8.0451      9.9543      11.828      11.816      13.023      13.173      12.372    
  11.305      10.732      10.926      11.483      11.667      10.985      9.5526      7.9024      6.3728      5.1409    
  4.2719      3.7509      3.5328      3.5804      3.8843      4.4671      5.3725      6.6367      8.2396      10.052    
  9.9375      11.552      12.773      13.237      13.008      12.533      12.255      12.246      12.170      11.595    
  10.388      8.8419      7.2882      5.9294      4.8814      4.1700      3.7675      3.6327      3.7373      4.0777    
  4.6757      5.5670      6.7754      8.2725      8.1393      9.6168      11.053      12.231      12.913      13.095    
  13.008      12.857      12.617      12.075      11.070      9.7059      8.2244      6.8209      5.6444      4.7646    
  4.1842      3.8721      3.7941      3.9296      4.2776      4.8561      5.6911      6.7959      6.6963      7.8527    
  9.1196      10.363      11.436      12.208      12.622      12.749      12.642      12.254      11.501      10.408    
  9.1101      7.7683      6.5419      5.5384      4.7986      4.3150      4.0605      4.0090      4.1458      4.4701    
  4.9936      5.7337      5.6909      6.4864      7.4404      8.4919      9.5446      10.492      11.247      11.756    
  11.992      11.935      11.550      10.836      9.8463      8.6970      7.5332      6.4830      5.6251      4.9861    
  4.5590      4.3247      4.2660      4.3719      4.6401      5.0764      5.0966      5.5668      6.1862      6.9409    
  7.7900      8.6685      9.5013      10.219      10.765      11.087      11.138      10.880      10.315      9.5002    
  8.5410      7.5608      6.6627      5.9092      5.3240      4.9078      4.6528      4.5500      4.5918      4.7736    
  4.8588      5.0522      5.3723      5.8228      6.3975      7.0728      7.8081      8.5531      9.2539      9.8534    
  10.288      10.492      10.416      10.053      9.4470      8.6852      7.8688      7.0831      6.3839      5.8007    
  5.3468      5.0275      4.8429      4.7885      4.9464      4.8881      4.9465      5.1243      5.4265      5.8535    
  6.3947      7.0291      7.7265      8.4468      9.1347      9.7167      10.111      10.251      10.111      9.7167    
  9.1347      8.4469      7.7264      7.0290      6.3947      5.8536      5.4266      5.1242      5.3722      5.0520    
  4.8588      4.7886      4.8431      5.0275      5.3467      5.8006      6.3840      7.0832      7.8688      8.6851    
  9.4470      10.053      10.416      10.492      10.288      9.8535      9.2540      8.5530      7.8079      7.0728    
  6.3977      5.8229      6.1864      5.5667      5.0965      4.7735      4.5918      4.5502      4.6529      4.9077    
  5.3239      5.9092      6.6628      7.5608      8.5409      9.5002      10.315      10.880      11.138      11.087    
  10.765      10.219      9.5012      8.6684      7.7900      6.9410      7.4405      6.4866      5.6910      5.0763    
  4.6399      4.3719      4.2661      4.3248      4.5589      4.9860      5.6252      6.4831      7.5332      8.6969    
  9.8463      10.836      11.550      11.935      11.992      11.756      11.247      10.492      9.5445      8.4918    
  9.1195      7.8527      6.6964      5.7338      4.9936      4.4699      4.1457      4.0091      4.0606      4.3149    
  4.7985      5.5385      6.5421      7.7682      9.1100      10.408      11.501      12.254      12.642      12.749    
  12.622      12.208      11.436      10.363      11.053      9.6167      8.1392      6.7960      5.6913      4.8561    
  4.2775      3.9295      3.7942      3.8722      4.1841      4.7645      5.6444      6.8211      8.2243      9.7058    
  11.070      12.075      12.617      12.856      13.008      13.095      12.913      12.231      12.774      11.552    
  9.9373      8.2723      6.7755      5.5672      4.6757      4.0775      3.7372      3.6329      3.7676      4.1699    
  4.8813      5.9295      7.2883      8.8419      10.388      11.595      12.171      12.246      12.254      12.533    
  13.008      13.237      13.173      13.023      11.816      10.052      8.2394      6.6367      5.3727      4.4671    
  3.8842      3.5803      3.5329      3.7509      4.2718      5.1408      6.3729      7.9024      9.5526      10.985    
  11.667      11.484      10.926      10.732      11.305      12.372      11.373      12.823      13.006      11.829    
  9.9542      8.0448      6.3930      5.1246      4.2461      3.7098      3.4673      3.4990      3.8230      4.4855    
  5.5306      6.9483      8.6182      10.268      11.271      11.088      9.9328      8.7260      8.4773      9.5510    
  7.6890      10.315      12.356      12.787      11.606      9.6570      7.7093      6.0670      4.8432      4.0282    
  3.5645      3.4034      3.5327      3.9814      4.8030      6.0331      7.6252      9.3914      10.851      11.132    
  9.8770      7.7250      6.0187      5.9406      3.7163      6.2012      9.5121      11.933      12.435      11.184    
  9.1935      7.2656      5.6875      4.5501      3.8271      3.4557      3.3914      3.6325      4.2200      5.2111    
  6.6255      8.3696      10.164      11.224      10.619      8.2881      5.3204      3.3944      7.0931      7.6255    
  9.5121      11.646      12.789      12.372      10.778      8.8586      7.0865      5.6665      4.6530      4.0113    
  3.6842      3.6364      3.8721      4.4327      5.3706      6.7010      8.3382      10.051      11.274      11.259    
  9.9349      8.1318      7.2688      6.2778      7.0690      9.1815      11.336      12.305      11.678      10.003    
  8.1349      6.4762      5.1967      4.3248      3.8151      3.6119      3.6884      4.0605      4.7780      5.8925    
  7.3994      9.1702      10.893      11.813      11.245      9.3681      9.1814      7.0687      6.2778      7.2691    
  9.3682      11.244      11.813      10.893      9.1703      7.3994      5.8925      4.7780      4.0605      3.6884    
  3.6119      3.8151      4.3248      5.1967      6.4763      8.1349      10.003      11.678      12.305      11.336    
  11.647      9.5120      7.6252      7.0930      8.1320      9.9350      11.258      11.274      10.051      8.3382    
  6.7010      5.3706      4.4327      3.8721      3.6363      3.6843      4.0113      4.6529      5.6665      7.0866    
  8.8586      10.778      12.372      12.789      13.264      12.179      10.315      8.7961      8.4799      9.3637    
  10.619      11.215      10.643      9.1953      7.5542      6.0784      4.9369      4.1763      3.7675      3.6612    
  3.8264      4.2683      5.0278      6.1585      7.6801      9.5135      11.431      12.937      13.321      13.668    
  12.820      11.373      10.250      10.035      10.575      11.132      10.975      9.9145      8.3829      6.8558    
  5.5604      4.6097      4.0188      3.7509      3.7626      4.0326      4.5735      5.4268      6.6376      8.2082    
  10.040      11.897      12.123      13.461      13.896      13.369      12.372      11.578      11.332      11.415    
  11.271      10.489      9.1447      7.6515      6.2727      5.1673      4.4008      3.9658      3.8231      3.9368    
  4.2937      4.9101      5.8231      7.0655      8.6228      10.385      10.509      12.077      13.304      13.833    
  13.619      13.008      12.433      12.059      11.689      10.985      9.8222      8.4221      7.0342      5.8291    
  4.9135      4.3171      4.0189      3.9817      4.1767      4.5964      5.2567      6.1865      7.4044      8.8825    
  8.9597      10.395      11.754      12.832      13.410      13.432      13.095      12.635      12.115      11.408    
  10.388      9.1269      7.8008      6.5643      5.5452      4.8089      4.3616      4.1763      4.2203      4.4708    
  4.9229      5.5885      6.4865      7.6222      7.6973      8.8453      10.052      11.181      12.084      12.641    
  12.795      12.622      12.224      11.620      10.772      9.7059      8.5181      7.3312      6.2738      5.4377    
  4.8600      4.5340      4.4327      4.5284      4.8029      5.2513      5.8794      6.6961      6.7955      7.6220    
  8.5506      9.5141      10.414      11.147      11.631      11.832      11.756      11.427      10.857      10.069    
  9.1101      8.0700      7.0619      6.1897      5.5187      5.0692      4.8302      4.7780      4.8904      5.1523    
  5.5569      6.1043      6.2422      6.7749      7.4039      8.1056      8.8343      9.5258      10.111      10.533    
  10.756      10.765      10.552      10.117      9.4817      8.6970      7.8480      7.0321      6.3316      5.7945    
  5.4339      5.2404      5.1965      5.2854      5.4941      5.8144      6.0010      6.2800      6.6361      7.0649    
  7.5535      8.0763      8.5961      9.0712      9.4618      9.7330      9.8536      9.7965      9.5467      9.1139    
  8.5411      7.8987      7.2658      6.7075      6.2625      5.9439      5.7482      5.6662      5.6873      5.8017    
  6.0488      6.0990      6.2135      6.3925      6.6370      6.9444      7.3049      7.7022      8.1144      8.5148    
  8.8689      9.1348      9.2685      9.2371      9.0341      8.6853      8.2426      7.7668      7.3104      6.9084    
  6.5786      6.3280      6.1580      6.0666      6.3924      6.2133      6.0989      6.0490      6.0667      6.1580    
  6.3279      6.5785      6.9084      7.3105      7.7668      8.2425      8.6853      9.0342      9.2371      9.2684    
  9.1348      8.8690      8.5148      8.1144      7.7021      7.3049      6.9445      6.6371      7.0650      6.6360    
  6.2798      6.0009      5.8017      5.6874      5.6662      5.7481      5.9438      6.2626      6.7076      7.2658    
  7.8986      8.5411      9.1140      9.5467      9.7964      9.8536      9.7331      9.4619      9.0711      8.5960    
  8.0763      7.5537      8.1057      7.4040      6.7749      6.2421      5.8143      5.4941      5.2855      5.1966    
  5.2404      5.4338      5.7945      6.3317      7.0321      7.8479      8.6970      9.4818      10.117      10.552    
  10.765      10.756      10.533      10.111      9.5257      8.8343      9.5140      8.5507      7.6221      6.7956    
  6.1042      5.5567      5.1522      4.8905      4.7781      4.8301      5.0691      5.5187      6.1898      7.0619    
  8.0699      9.1101      10.069      10.857      11.427      11.756      11.832      11.631      11.147      10.414    
  11.181      10.052      8.8452      7.6974      6.6963      5.8795      5.2511      4.8028      4.5285      4.4328    
  4.5339      4.8599      5.4377      6.2739      7.3312      8.5180      9.7059      10.772      11.620      12.224    
  12.622      12.795      12.641      12.084      12.832      11.754      10.395      8.9595      7.6223      6.4867    
  5.5886      4.9227      4.4706      4.2204      4.1764      4.3615      4.8088      5.5453      6.5645      7.8008    
  9.1268      10.388      11.408      12.115      12.635      13.095      13.432      13.410      13.833      13.304    
  12.077      10.509      8.8823      7.4044      6.1867      5.2567      4.5963      4.1766      3.9818      4.0190    
  4.3170      4.9134      5.8292      7.0343      8.4221      9.8222      10.985      11.689      12.059      12.433    
  13.008      13.619      13.369      13.896      13.461      12.124      10.385      8.6225      7.0655      5.8233    
  4.9102      4.2936      3.9367      3.8233      3.9659      4.4007      5.1672      6.2728      7.6516      9.1447    
  10.489      11.271      11.415      11.332      11.578      12.372      11.373      12.819      13.668      13.321    
  11.897      10.040      8.2080      6.6376      5.4270      4.5736      4.0325      3.7626      3.7510      4.0189    
  4.6096      5.5604      6.8559      8.3829      9.9144      10.975      11.132      10.575      10.035      10.250    
  8.7963      10.315      12.179      13.263      12.937      11.431      9.5134      7.6799      6.1585      5.0279    
  4.2683      3.8263      3.6612      3.7676      4.1763      4.9369      6.0784      7.5542      9.1953      10.643    
  11.215      10.619      9.3636      8.4800      10.893      11.356      12.355      13.263      13.390      12.499    
  10.950      9.2363      7.6410      6.3282      5.3469      4.6756      4.2718      4.1073      4.1843      4.5340    
  5.2007      6.2079      7.5149      8.9826      10.376      11.274      11.408      11.068      10.800      10.452    
  10.906      11.933      12.788      12.770      11.731      10.124      8.4382      6.9338      5.7484      4.9080    
  4.3780      4.1130      4.0889      4.3151      4.8302      5.6796      6.8748      8.3445      9.9050      11.234    
  11.813      11.507      11.651      10.712      10.280      10.712      11.652      12.304      12.040      10.843    
  9.2330      7.6324      6.2668      5.2406      4.5591      4.1799      4.0595      4.1800      4.5591      5.2405    
  6.2668      7.6325      9.2329      10.843      12.040      12.304      12.788      11.933      10.905      10.451    
  10.801      11.507      11.813      11.234      9.9051      8.3445      6.8748      5.6796      4.8303      4.3151    
  4.0888      4.1131      4.3780      4.9079      5.7483      6.9339      8.4383      10.124      11.730      12.771    
  13.390      13.263      12.355      11.355      10.893      11.069      11.408      11.274      10.376      8.9826    
  7.5148      6.2078      5.2007      4.5341      4.1842      4.1073      4.2718      4.6756      5.3469      6.3281    
  7.6411      9.2364      10.950      12.499      13.076      13.842      13.668      12.822      11.913      11.416    
  11.330      11.224      10.643      9.5023      8.1245      6.7856      5.6617      4.8486      4.3616      4.1700    
  4.2340      4.5296      5.0601      5.8536      6.9446      8.3378      9.9617      11.635      12.109      13.394    