unknown system                          
   1.00000000000000     
    -2.450000    2.450000    1.274000
     2.450000   -2.450000    1.274000
     2.450000    2.450000   -1.274000
   Si
     2
Direct
  0.250000  0.750000  0.500000
  0.000000  0.000000  0.000000
 
   24   24   24
 -.55648206665E+01 -.35436797287E+01 0.14890401537E+01 0.70919963388E+01 0.10893090470E+02
 0.11868295736E+02 0.10616511853E+02 0.85862174769E+01 0.67064554363E+01 0.52515006251E+01
 0.42785066441E+01 0.37384557716E+01 0.35673735864E+01 0.37385129339E+01 0.42784855843E+01
 0.52514288360E+01 0.67064704514E+01 0.85862520818E+01 0.10616403513E+02 0.11868143868E+02
 0.10893105320E+02 0.70920674494E+01 0.14889000188E+01 -.35439281577E+01 -.35439281577E+01
 -.45800054042E+01 -.17893825673E+01 0.33932073187E+01 0.84794555109E+01 0.11416384580E+02
 0.11633611534E+02 0.10029718729E+02 0.80077429040E+01 0.62393349696E+01 0.49233532708E+01
 0.40787581169E+01 0.36459046130E+01 0.35673580274E+01 0.38295444328E+01 0.44706161312E+01
 0.55567686102E+01 0.71212787836E+01 0.90683927962E+01 0.11046069295E+02 0.11953242870E+02
 0.10450931635E+02 0.62765451318E+01 0.79342871744E+00 0.14889000188E+01 -.17895979845E+01
 -.18636338763E+01 0.12910749707E+01 0.60182740128E+01 0.10035332059E+02 0.11788445755E+02
 0.11188250212E+02 0.93299820853E+01 0.73777367189E+01 0.57565199720E+01 0.45971087288E+01
 0.38856515074E+01 0.35581664007E+01 0.35672852121E+01 0.39125449574E+01 0.46403602900E+01
 0.58140988134E+01 0.74483571770E+01 0.94147876508E+01 0.11303281394E+02 0.11968703031E+02
 0.10279344353E+02 0.62765451318E+01 0.70920674494E+01 0.33931002668E+01 0.12909191154E+01
 0.19437767515E+01 0.49746873516E+01 0.87265538910E+01 0.11332774002E+02 0.11824435365E+02
 0.10529887308E+02 0.85749863098E+01 0.67419829839E+01 0.52922511175E+01 0.42946306097E+01
 0.37115282934E+01 0.34808426578E+01 0.35671726023E+01 0.39812962967E+01 0.47736239857E+01
 0.60004739383E+01 0.76579459463E+01 0.95959227883E+01 0.11388350909E+02 0.11968703031E+02
 0.10450931635E+02 0.10893105320E+02 0.84795156165E+01 0.60182140211E+01 0.49746058797E+01
 0.59949085551E+01 0.84635684023E+01 0.10927588629E+02 0.12060806997E+02 0.11458523664E+02
 0.97324976207E+01 0.78175138801E+01 0.61435282344E+01 0.48757880410E+01 0.40336940969E+01
 0.35663984585E+01 0.34186340542E+01 0.35670354407E+01 0.40304214490E+01 0.48587431892E+01
 0.60984117973E+01 0.77301523456E+01 0.95959227883E+01 0.11303281394E+02 0.11953242870E+02
 0.11868143868E+02 0.11416394406E+02 0.10035376324E+02 0.87265443448E+01 0.84635620208E+01
 0.94852020704E+01 0.11115366928E+02 0.12248112634E+02 0.12116824233E+02 0.10769222093E+02
 0.89098894686E+01 0.71107298223E+01 0.56199136917E+01 0.45302788701E+01 0.38276589128E+01
 0.34577242590E+01 0.33751159360E+01 0.35669134637E+01 0.40560235186E+01 0.48880235222E+01
 0.60984117973E+01 0.76579459463E+01 0.94147876508E+01 0.11046069295E+02 0.10616403513E+02
 0.11633528893E+02 0.11788448498E+02 0.11332797980E+02 0.10927622264E+02 0.11115423746E+02
 0.11871847115E+02 0.12607558229E+02 0.12618947871E+02 0.11621810336E+02 0.99478717586E+01
 0.81406112189E+01 0.65042956104E+01 0.52014757899E+01 0.42725718376E+01 0.36856778136E+01
 0.33905750120E+01 0.33527475361E+01 0.35668723753E+01 0.40560235186E+01 0.48587431892E+01
 0.60004739383E+01 0.74483571770E+01 0.90683927962E+01 0.85862520818E+01 0.10029703240E+02
 0.11188236392E+02 0.11824428974E+02 0.12060807746E+02 0.12248174783E+02 0.12607658318E+02
 0.12992502032E+02 0.12986158192E+02 0.12255874144E+02 0.10858520528E+02 0.91698378244E+01
 0.74934621488E+01 0.60400388995E+01 0.49105348904E+01 0.41138030849E+01 0.36133777375E+01
 0.33678838905E+01 0.33527475361E+01 0.35669134637E+01 0.40304214490E+01 0.47736239857E+01
 0.58140988134E+01 0.71212787836E+01 0.67064704514E+01 0.80077998630E+01 0.93300453993E+01
 0.10529930085E+02 0.11458508251E+02 0.12116802471E+02 0.12619021969E+02 0.12986279514E+02
 0.13053713385E+02 0.12594443310E+02 0.11551916012E+02 0.10118310519E+02 0.85346761877E+01
 0.70270878084E+01 0.57489616729E+01 0.47615596528E+01 0.40602226463E+01 0.36133777375E+01
 0.33905750120E+01 0.33751159360E+01 0.35670354407E+01 0.39812962967E+01 0.46403602900E+01
 0.55567686102E+01 0.52514288360E+01 0.62393295020E+01 0.73777994528E+01 0.85751006150E+01
 0.97325795905E+01 0.10769201938E+02 0.11621771188E+02 0.12255946076E+02 0.12594566959E+02
 0.12507934175E+02 0.11918810115E+02 0.10881495524E+02 0.95473186992E+01 0.81202535957E+01
 0.67832166557E+01 0.56498601505E+01 0.47615596528E+01 0.41138030849E+01 0.36856778136E+01
 0.34577242590E+01 0.34186340542E+01 0.35671726023E+01 0.39125449574E+01 0.44706161312E+01
 0.42784855843E+01 0.49233135608E+01 0.57564945655E+01 0.67420338503E+01 0.78176487217E+01
 0.89099949002E+01 0.99478540132E+01 0.10858471000E+02 0.11551976240E+02 0.11918924005E+02
 0.11860532301E+02 0.11340066835E+02 0.10417533580E+02 0.92375887574E+01 0.79764482723E+01
 0.67832166557E+01 0.57489616729E+01 0.49105348904E+01 0.42725718376E+01 0.38276589128E+01
 0.35663984585E+01 0.34808426578E+01 0.35672852121E+01 0.38295444328E+01 0.37385129339E+01
 0.40788102724E+01 0.45971051325E+01 0.52922127299E+01 0.61435547263E+01 0.71108600889E+01
 0.81407277873E+01 0.91698284082E+01 0.10118256256E+02 0.10881540427E+02 0.11340167311E+02
 0.11395266699E+02 0.11013913007E+02 0.10252273697E+02 0.92375887574E+01 0.81202535957E+01
 0.70270878084E+01 0.60400388995E+01 0.52014757899E+01 0.45302788701E+01 0.40336940969E+01
 0.37115282934E+01 0.35581664007E+01 0.35673580274E+01 0.35673735864E+01 0.36459932104E+01
 0.38857629898E+01 0.42946709085E+01 0.48757480293E+01 0.56199100277E+01 0.65044044234E+01
 0.74935808805E+01 0.85346767502E+01 0.95472627587E+01 0.10417565745E+02 0.11014004318E+02
 0.11227088423E+02 0.11013913007E+02 0.10417533580E+02 0.95473186992E+01 0.85346761877E+01
 0.74934621488E+01 0.65042956104E+01 0.56199136917E+01 0.48757880410E+01 0.42946306097E+01
 0.38856515074E+01 0.36459046130E+01 0.37384557716E+01 0.35673596751E+01 0.35582678247E+01
 0.37116866672E+01 0.40337832112E+01 0.45302463853E+01 0.52014414821E+01 0.60401196820E+01
 0.70272035669E+01 0.81202614778E+01 0.92375321853E+01 0.10252300904E+02 0.11014004318E+02
 0.11395266699E+02 0.11340066835E+02 0.10881495524E+02 0.10118310519E+02 0.91698378244E+01
 0.81406112189E+01 0.71107298223E+01 0.61435282344E+01 0.52922511175E+01 0.45971087288E+01
 0.40787581169E+01 0.42785066441E+01 0.38295390757E+01 0.35672919294E+01 0.34809433788E+01
 0.35665906477E+01 0.38277939158E+01 0.42725494481E+01 0.49104746479E+01 0.57490188437E+01
 0.67833289700E+01 0.79764586704E+01 0.92375321853E+01 0.10417565745E+02 0.11340167311E+02
 0.11860532301E+02 0.11918810115E+02 0.11551916012E+02 0.10858520528E+02 0.99478717586E+01
 0.89098894686E+01 0.78175138801E+01 0.67419829839E+01 0.57565199720E+01 0.49233532708E+01
 0.52515006251E+01 0.44707221129E+01 0.39126064878E+01 0.35671872555E+01 0.34187253801E+01
 0.34579381424E+01 0.36858472357E+01 0.41137878901E+01 0.47614838757E+01 0.56499080068E+01
 0.67833289700E+01 0.81202614778E+01 0.95472627587E+01 0.10881540427E+02 0.11918924005E+02
 0.12507934175E+02 0.12594443310E+02 0.12255874144E+02 0.11621810336E+02 0.10769222093E+02
 0.97324976207E+01 0.85749863098E+01 0.73777367189E+01 0.62393349696E+01 0.67064554363E+01
 0.55568689611E+01 0.46405522427E+01 0.39814266012E+01 0.35670580117E+01 0.33751951845E+01
 0.33907996163E+01 0.36135649727E+01 0.40602097809E+01 0.47614838757E+01 0.57490188437E+01
 0.70272035669E+01 0.85346767502E+01 0.10118256256E+02 0.11551976240E+02 0.12594566959E+02
 0.13053713385E+02 0.12986158192E+02 0.12618947871E+02 0.12116824233E+02 0.11458523664E+02
 0.10529887308E+02 0.93299820853E+01 0.80077429040E+01 0.85862174769E+01 0.71212458891E+01
 0.58142220005E+01 0.47738900246E+01 0.40306074786E+01 0.35669405027E+01 0.33528179113E+01
 0.33681113614E+01 0.36135649727E+01 0.41137878901E+01 0.49104746479E+01 0.60401196820E+01
 0.74935808805E+01 0.91698284082E+01 0.10858471000E+02 0.12255946076E+02 0.12986279514E+02
 0.12992502032E+02 0.12607558229E+02 0.12248112634E+02 0.12060806997E+02 0.11824435365E+02
 0.11188250212E+02 0.10029718729E+02 0.10616511853E+02 0.90683886378E+01 0.74483093810E+01
 0.60006118701E+01 0.48590584527E+01 0.40562398655E+01 0.35669005298E+01 0.33528179113E+01
 0.33907996163E+01 0.36858472357E+01 0.42725494481E+01 0.52014414821E+01 0.65044044234E+01
 0.81407277873E+01 0.99478540132E+01 0.11621771188E+02 0.12619021969E+02 0.12607658318E+02
 0.11871847115E+02 0.11115366928E+02 0.10927588629E+02 0.11332774002E+02 0.11788445755E+02
 0.11633611534E+02 0.11868295736E+02 0.11046264383E+02 0.94148108592E+01 0.76578873060E+01
 0.60985563057E+01 0.48883557774E+01 0.40562398655E+01 0.35669405027E+01 0.33751951845E+01
 0.34579381424E+01 0.38277939158E+01 0.45302463853E+01 0.56199100277E+01 0.71108600889E+01
 0.89099949002E+01 0.10769201938E+02 0.12116802471E+02 0.12248174783E+02 0.11115423746E+02
 0.94852020704E+01 0.84635684023E+01 0.87265538910E+01 0.10035332059E+02 0.11416384580E+02
 0.10893090470E+02 0.11953450239E+02 0.11303537193E+02 0.95959614030E+01 0.77300894868E+01
 0.60985563057E+01 0.48590584527E+01 0.40306074786E+01 0.35670580117E+01 0.34187253801E+01
 0.35665906477E+01 0.40337832112E+01 0.48757480293E+01 0.61435547263E+01 0.78176487217E+01
 0.97325795905E+01 0.11458508251E+02 0.12060807746E+02 0.10927622264E+02 0.84635620208E+01
 0.59949085551E+01 0.49746873516E+01 0.60182740128E+01 0.84794555109E+01 0.70919963388E+01
 0.10450913381E+02 0.11968940884E+02 0.11388628322E+02 0.95959614030E+01 0.76578873060E+01
 0.60006118701E+01 0.47738900246E+01 0.39814266012E+01 0.35671872555E+01 0.34809433788E+01
 0.37116866672E+01 0.42946709085E+01 0.52922127299E+01 0.67420338503E+01 0.85751006150E+01
 0.10529930085E+02 0.11824428974E+02 0.11332797980E+02 0.87265443448E+01 0.49746058797E+01
 0.19437767515E+01 0.12910749707E+01 0.33932073187E+01 0.14890401537E+01 0.62764681267E+01
 0.10279324746E+02 0.11968940884E+02 0.11303537193E+02 0.94148108592E+01 0.74483093810E+01
 0.58142220005E+01 0.46405522427E+01 0.39126064878E+01 0.35672919294E+01 0.35582678247E+01
 0.38857629898E+01 0.45971051325E+01 0.57564945655E+01 0.73777994528E+01 0.93300453993E+01
 0.11188236392E+02 0.11788448498E+02 0.10035376324E+02 0.60182140211E+01 0.12909191154E+01
 -.18636338763E+01 -.17893825673E+01 -.35436797287E+01 0.79358069690E+00 0.62764681267E+01
 0.10450913381E+02 0.11953450239E+02 0.11046264383E+02 0.90683886378E+01 0.71212458891E+01
 0.55568689611E+01 0.44707221129E+01 0.38295390757E+01 0.35673596751E+01 0.36459932104E+01
 0.40788102724E+01 0.49233135608E+01 0.62393295020E+01 0.80077998630E+01 0.10029703240E+02
 0.11633528893E+02 0.11416394406E+02 0.84795156165E+01 0.33931002668E+01 -.17895979845E+01
 -.45800054042E+01 -.35434701821E+01 -.21074930554E+01 0.22159812944E+01 0.72679582250E+01
 0.10800143350E+02 0.11732876348E+02 0.10523191835E+02 0.85143078054E+01 0.66301962340E+01
 0.51524054171E+01 0.41466873736E+01 0.35685752164E+01 0.33528318192E+01 0.34670765793E+01
 0.39306007960E+01 0.48031974641E+01 0.61404814710E+01 0.79121187051E+01 0.99054842260E+01
 0.11409649182E+02 0.11068200380E+02 0.81311862688E+01 0.33052820230E+01 -.13550494607E+01
 -.21077414305E+01 -.35434694148E+01 -.13547904829E+01 0.33054662456E+01 0.81311663188E+01
 0.11068185052E+02 0.11409764127E+02 0.99056027132E+01 0.79121570273E+01 0.61405198746E+01
 0.48032674204E+01 0.39306287477E+01 0.34670606027E+01 0.33528293727E+01 0.35685444505E+01
 0.41465695549E+01 0.51522944408E+01 0.66301831611E+01 0.85142706119E+01 0.10523011169E+02
 0.11732714682E+02 0.10800189544E+02 0.72680454568E+01 0.22158391290E+01 0.23591795252E+01
 -.11986525786E+01 -.17891859050E+01 0.86200105481E+00 0.53198119775E+01 0.93633910947E+01
 0.11329612660E+02 0.10950179891E+02 0.91992812446E+01 0.72749227428E+01 0.56494350481E+01
 0.44713818284E+01 0.37386020882E+01 0.33900061301E+01 0.33751260886E+01 0.36882657022E+01
 0.43724327354E+01 0.54939526180E+01 0.70818857351E+01 0.90364669166E+01 0.11012910234E+02
 0.11973127281E+02 0.10711686539E+02 0.70680032017E+01 0.76248119587E+01 0.37151436784E+01
 0.11525777635E+01 0.12912211164E+01 0.39912828942E+01 0.77251327158E+01 0.10575094426E+02
 0.11393310818E+02 0.10330878834E+02 0.84572062528E+01 0.66454833263E+01 0.51895683307E+01
 0.41775707262E+01 0.35819875386E+01 0.33419428522E+01 0.34185350468E+01 0.38186300788E+01
 0.45920831233E+01 0.58013963796E+01 0.74581732309E+01 0.94356286489E+01 0.11352081008E+02
 0.12175051833E+02 0.10905522390E+02 0.11355777949E+02 0.87960952977E+01 0.59402229219E+01
 0.43775613409E+01 0.49747891799E+01 0.73004782871E+01 0.99337148320E+01 0.11415994994E+02
 0.11142757706E+02 0.95881972895E+01 0.77248753330E+01 0.60622851517E+01 0.47877620971E+01
 0.39379644748E+01 0.34691639983E+01 0.33256261669E+01 0.34806369527E+01 0.39509541137E+01
 0.47887235114E+01 0.60485267232E+01 0.77250962859E+01 0.96753449843E+01 0.11521761717E+02
 0.12340739501E+02 0.12421455327E+02 0.11913593082E+02 0.10250311101E+02 0.84777069075E+01
 0.77355688507E+01 0.84636057905E+01 0.10097682025E+02 0.11484931231E+02 0.11690031502E+02
 0.10585079547E+02 0.88143569792E+01 0.70457872954E+01 0.55581563446E+01 0.44646495936E+01
 0.37639762629E+01 0.34054643081E+01 0.33419567165E+01 0.35578764732E+01 0.40760885075E+01
 0.49464655217E+01 0.62130335219E+01 0.78568446704E+01 0.97311588891E+01 0.11501502304E+02
 0.11273293020E+02 0.12336500535E+02 0.12362590332E+02 0.11579180473E+02 0.10733589379E+02
 0.10535869009E+02 0.11115338709E+02 0.11925984102E+02 0.12172289899E+02 0.11409611030E+02
 0.98506674164E+01 0.80848883720E+01 0.64617355872E+01 0.51597922175E+01 0.42349251908E+01
 0.36627421616E+01 0.33934658883E+01 0.33900471278E+01 0.36456095126E+01 0.41849850161E+01
 0.50520634805E+01 0.62795511962E+01 0.78398410437E+01 0.95947130791E+01 0.92757273297E+01
 0.10834852411E+02 0.12012389197E+02 0.12501967502E+02 0.12433992519E+02 0.12256267261E+02
 0.12330100299E+02 0.12607477403E+02 0.12667028692E+02 0.12076589680E+02 0.10773461984E+02
 0.91181226805E+01 0.74582511838E+01 0.60102458890E+01 0.48876024905E+01 0.41081794220E+01
 0.36378552968E+01 0.34332327409E+01 0.34671412986E+01 0.37382246498E+01 0.42695035059E+01
 0.50965742128E+01 0.62418952207E+01 0.76750016736E+01 0.73778291906E+01 0.88012001433E+01
 0.10214727169E+02 0.11424784492E+02 0.12224867899E+02 0.12636529143E+02 0.12858480687E+02
 0.13012279617E+02 0.12986037967E+02 0.12527322779E+02 0.11502321046E+02 0.10069691434E+02
 0.84920894519E+01 0.69900935257E+01 0.57220206860E+01 0.47558911730E+01 0.40896452512E+01
 0.36898270121E+01 0.35224656280E+01 0.35687205176E+01 0.38294556180E+01 0.43231103302E+01
 0.50764014854E+01 0.61039959826E+01 0.58792795946E+01 0.69759951077E+01 0.82118656288E+01
 0.94701843264E+01 0.10624339212E+02 0.11561427936E+02 0.12225787080E+02 0.12643747648E+02
 0.12801362797E+02 0.12594345133E+02 0.11924406287E+02 0.10837051575E+02 0.94823954529E+01
 0.80521745112E+01 0.67259503102E+01 0.56188654692E+01 0.47728623082E+01 0.41806275657E+01
 0.38164008996E+01 0.36566075151E+01 0.36885736851E+01 0.39127093502E+01 0.43415487376E+01
 0.49937948983E+01 0.48564018740E+01 0.55884905889E+01 0.65052649375E+01 0.75570115278E+01
 0.86618085106E+01 0.97266009784E+01 0.10670261164E+02 0.11427766762E+02 0.11936776085E+02
 0.12124608489E+02 0.11918746984E+02 0.11296564869E+02 0.10316380784E+02 0.91143537014E+01
 0.78592083971E+01 0.66958695065E+01 0.57122736272E+01 0.49404928746E+01 0.43784961581E+01
 0.40123647478E+01 0.38287087477E+01 0.38190381531E+01 0.39817096050E+01 0.43233513408E+01
 0.42699413788E+01 0.46761814380E+01 0.52567799840E+01 0.60046788869E+01 0.68884979854E+01
 0.78534199671E+01 0.88323067921E+01 0.97559558272E+01 0.10552368003E+02 0.11139098590E+02
 0.11425945706E+02 0.11340057007E+02 0.10863262499E+02 0.10054101049E+02 0.90344130906E+01
 0.79469741792E+01 0.69113792974E+01 0.60022970675E+01 0.52537826123E+01 0.46759878518E+01
 0.42691152623E+01 0.40294428901E+01 0.39514416956E+01 0.40310395521E+01 0.40567303952E+01
 0.41855497917E+01 0.44678619901E+01 0.49104282702E+01 0.55119717267E+01 0.62553451563E+01
 0.71069846096E+01 0.80212866073E+01 0.89420263742E+01 0.97969072197E+01 0.10492876535E+02
 0.10926432784E+02 0.11013937270E+02 0.10727544391E+02 0.10111979577E+02 0.92687435005E+01
 0.83180908072E+01 0.73634456579E+01 0.64761100210E+01 0.56995690556E+01 0.50603039058E+01
 0.45741262732E+01 0.42470757455E+01 0.40765702508E+01 0.41854082126E+01 0.40567067636E+01
 0.40766832148E+01 0.42472032479E+01 0.45741461730E+01 0.50602437002E+01 0.56995712883E+01
 0.64762293853E+01 0.73635587612E+01 0.83180808931E+01 0.92686824170E+01 0.10112005325E+02
 0.10727629121E+02 0.11013939737E+02 0.10926348439E+02 0.10492850043E+02 0.97969797304E+01
 0.89420527633E+01 0.80211697083E+01 0.71068376394E+01 0.62553227064E+01 0.55120447340E+01
 0.49104387244E+01 0.44677442651E+01 0.46761074771E+01 0.42697989398E+01 0.40309557636E+01
 0.39515036868E+01 0.40295933132E+01 0.42692006736E+01 0.46759508749E+01 0.52537468041E+01
 0.60023800384E+01 0.69114994348E+01 0.79469816512E+01 0.90343408407E+01 0.10054107583E+02
 0.10863357634E+02 0.11340088079E+02 0.11425867694E+02 0.11139052629E+02 0.10552431316E+02
 0.97560006467E+01 0.88322070275E+01 0.78532526623E+01 0.68884247089E+01 0.60047201415E+01
 0.52568120991E+01 0.55885299277E+01 0.48563694795E+01 0.43232329475E+01 0.39816033638E+01
 0.38190732095E+01 0.38288755450E+01 0.40124896970E+01 0.43784702037E+01 0.49404341406E+01
 0.57123326617E+01 0.66959741809E+01 0.78591967992E+01 0.91142696394E+01 0.10316404825E+02
 0.11296691469E+02 0.11918783536E+02 0.12124503082E+02 0.11936700072E+02 0.11427818586E+02
 0.10670304502E+02 0.97264926833E+01 0.86616156177E+01 0.75568967797E+01 0.65052730726E+01
 0.69759376642E+01 0.58793096897E+01 0.49938399980E+01 0.43415050379E+01 0.39126009704E+01
 0.36885728990E+01 0.36567805575E+01 0.38165640765E+01 0.41806082807E+01 0.47727670141E+01
 0.56188866716E+01 0.67260420614E+01 0.80521670239E+01 0.94823219223E+01 0.10837085650E+02
 0.11924532625E+02 0.12594364641E+02 0.12801225701E+02 0.12643620913E+02 0.12225772040E+02
 0.11561427719E+02 0.10624243430E+02 0.94700194985E+01 0.82117240490E+01 0.88010466678E+01
 0.73777277642E+01 0.61040408788E+01 0.50765284789E+01 0.43231346098E+01 0.38293607226E+01
 0.35687204879E+01 0.35226538675E+01 0.36899888381E+01 0.40895943212E+01 0.47557735560E+01
 0.57220504958E+01 0.69901964760E+01 0.84920753860E+01 0.10069611214E+02 0.11502354741E+02
 0.12527429479E+02 0.12986009260E+02 0.13012075819E+02 0.12858276236E+02 0.12636440100E+02
 0.12224840291E+02 0.11424729431E+02 0.10214611922E+02 0.10834838936E+02 0.92756083234E+01
 0.76748681819E+01 0.62419400927E+01 0.50967732569E+01 0.42696125916E+01 0.37381727698E+01
 0.34671466538E+01 0.34334083276E+01 0.36379961597E+01 0.41081206427E+01 0.48875012056E+01
 0.60102913207E+01 0.74583483463E+01 0.91181021719E+01 0.10773382720E+02 0.12076590748E+02
 0.12667049511E+02 0.12607361552E+02 0.12329857597E+02 0.12256032681E+02 0.12433841451E+02
 0.12501904263E+02 0.12012393692E+02 0.12336598860E+02 0.11273386945E+02 0.95946231914E+01
 0.78396934537E+01 0.62796250130E+01 0.50523333539E+01 0.41851481392E+01 0.36455819105E+01
 0.33900706979E+01 0.33936473099E+01 0.36628652978E+01 0.42348540212E+01 0.51597089638E+01
 0.64618048453E+01 0.80849869854E+01 0.98506299265E+01 0.11409493965E+02 0.12172209489E+02
 0.11925904832E+02 0.11115180062E+02 0.10535646729E+02 0.10733358316E+02 0.11578988590E+02
 0.12362526770E+02 0.11913532100E+02 0.12421613115E+02 0.11501681584E+02 0.97311235790E+01
 0.78567233538E+01 0.62131300190E+01 0.49467562031E+01 0.40762761463E+01 0.35578912190E+01
 0.33420144120E+01 0.34056284834E+01 0.37640569276E+01 0.44645815511E+01 0.55581170573E+01
 0.70458665627E+01 0.88144118786E+01 0.10585001507E+02 0.11689888305E+02 0.11484788294E+02
 0.10097518279E+02 0.84634302478E+01 0.77354210303E+01 0.84775486056E+01 0.10250128266E+02
 0.87959150520E+01 0.11355710464E+02 0.12340945984E+02 0.11522007185E+02 0.96753480061E+01
 0.77249968193E+01 0.60486435810E+01 0.47890226867E+01 0.39511442992E+01 0.34806651657E+01
 0.33256897397E+01 0.34693027098E+01 0.39380203174E+01 0.47877053908E+01 0.60622584993E+01
 0.77249197327E+01 0.95882049082E+01 0.11142675788E+02 0.11415852363E+02 0.99335141164E+01
 0.73002503158E+01 0.49746570565E+01 0.43775496934E+01 0.59401598058E+01 0.37151681404E+01
 0.76246610384E+01 0.10905460604E+02 0.12175260701E+02 0.11352328898E+02 0.94356576063E+01
 0.74581254137E+01 0.58015336845E+01 0.45923393656E+01 0.38187721955E+01 0.34185663397E+01
 0.33420178288E+01 0.35820892158E+01 0.41775765306E+01 0.51895069001E+01 0.66454661023E+01
 0.84572158344E+01 0.10330839964E+02 0.11393232129E+02 0.10574980055E+02 0.77249229486E+01
 0.39910397152E+01 0.12911458585E+01 0.11526806979E+01 -.11984487127E+01 0.23592860352E+01
 0.70678773769E+01 0.10711613295E+02 0.11973312863E+02 0.11013145640E+02 0.90365172352E+01
 0.70818699562E+01 0.54940732182E+01 0.43726237972E+01 0.36883632956E+01 0.33751535316E+01
 0.33900544651E+01 0.37386343726E+01 0.44713480349E+01 0.56493940706E+01 0.72749037454E+01
 0.91992213323E+01 0.10950090201E+02 0.11329579801E+02 0.93633523729E+01 0.53196112928E+01
 0.86173594523E+00 -.17892209966E+01 0.14897556207E+01 0.23598121797E+01 0.54776596483E+01
 0.91810574053E+01 0.11651580323E+02 0.11994924147E+02 0.10601667155E+02 0.86083215841E+01
 0.67535420716E+01 0.52855988857E+01 0.42668793486E+01 0.36564467300E+01 0.33905461856E+01
 0.34331156184E+01 0.37953584219E+01 0.45289020275E+01 0.56908828732E+01 0.72777719574E+01
 0.91435290600E+01 0.10868196006E+02 0.11408050023E+02 0.99347241451E+01 0.67409495565E+01
 0.33057189392E+01 0.22162966423E+01 0.79435442879E+00 0.22165538878E+01 0.56918221138E+01
 0.93677814370E+01 0.11507128638E+02 0.11476627402E+02 0.99050472434E+01 0.79535187484E+01
 0.62159127999E+01 0.48907690473E+01 0.40100661221E+01 0.35223166994E+01 0.33678603083E+01
 0.35222959551E+01 0.40099902241E+01 0.48906946609E+01 0.62158995956E+01 0.79534762225E+01
 0.99049005821E+01 0.11476535178E+02 0.11507239516E+02 0.93679051200E+01 0.56916855031E+01
 0.54775879773E+01 0.23595990280E+01 0.14897741757E+01 0.33059853944E+01 0.67411401015E+01
 0.99347151633E+01 0.11408031300E+02 0.10868286750E+02 0.91436333197E+01 0.72778244336E+01
 0.56909387996E+01 0.45289661059E+01 0.37953768296E+01 0.34331103289E+01 0.33905547026E+01
 0.36564029894E+01 0.42667533499E+01 0.52855193287E+01 0.67535752769E+01 0.86083014318E+01
 0.10601496168E+02 0.11994823851E+02 0.11651742069E+02 0.91812586032E+01 0.95121170064E+01
 0.62006730405E+01 0.37154489518E+01 0.33937818706E+01 0.53202100339E+01 0.82882319730E+01
 0.10618819851E+02 0.11223990078E+02 0.10164086532E+02 0.83694432918E+01 0.66254509039E+01
 0.52115938597E+01 0.42211133863E+01 0.36342217955E+01 0.33934182173E+01 0.34577082645E+01
 0.38285129845E+01 0.45506308517E+01 0.56873741571E+01 0.72650808923E+01 0.91927397926E+01
 0.11183065447E+02 0.12434718405E+02 0.11933245715E+02 0.12355638119E+02 0.10315397780E+02
 0.76889914577E+01 0.59403845953E+01 0.60186390446E+01 0.77253577019E+01 0.98775928670E+01
 0.11132736592E+02 0.10851741574E+02 0.93914422545E+01 0.76251257240E+01 0.60332962981E+01
 0.48037725337E+01 0.39827839664E+01 0.35345249635E+01 0.34055172614E+01 0.35663852824E+01
 0.40292669055E+01 0.48433985577E+01 0.60665974864E+01 0.77086261983E+01 0.96561971301E+01
 0.11605547232E+02 0.12786366787E+02 0.13005509731E+02 0.12823368075E+02 0.11374047994E+02
 0.95514438978E+01 0.84777149397E+01 0.87266695511E+01 0.99337309688E+01 0.11088491024E+02
 0.11271765319E+02 0.10268874714E+02 0.86183121833E+01 0.69482585687E+01 0.55309107478E+01
 0.44865137966E+01 0.38245050930E+01 0.35008483980E+01 0.34693204152E+01 0.37115277539E+01
 0.42469427776E+01 0.51244377415E+01 0.63922863126E+01 0.80440717381E+01 0.99534293387E+01
 0.11827835527E+02 0.11815447362E+02 0.13023010378E+02 0.13173351847E+02 0.12373039522E+02
 0.11305837728E+02 0.10733441947E+02 0.10927451268E+02 0.11484771452E+02 0.11667747605E+02
 0.10985516390E+02 0.95530636243E+01 0.79024076163E+01 0.63728492052E+01 0.51412666095E+01
 0.42728366490E+01 0.37524291554E+01 0.35346900242E+01 0.35822542508E+01 0.38856641633E+01
 0.44676488735E+01 0.53722636169E+01 0.66357999844E+01 0.82384796960E+01 0.10051625429E+02
 0.99365680922E+01 0.11551913611E+02 0.12773623239E+02 0.13237853558E+02 0.13009166788E+02
 0.12534079292E+02 0.12256014898E+02 0.12247783445E+02 0.12171996954E+02 0.11596339531E+02
 0.10388947924E+02 0.88421804000E+01 0.72880935328E+01 0.59294228009E+01 0.48817467513E+01
 0.41709409956E+01 0.37690333619E+01 0.36345167824E+01 0.37389317938E+01 0.40788047094E+01
 0.46760409576E+01 0.55665893891E+01 0.67744578921E+01 0.82713130191E+01 0.81381543169E+01
 0.96159270246E+01 0.11052446873E+02 0.12231548193E+02 0.12913471682E+02 0.13095709765E+02
 0.13009044855E+02 0.12858165018E+02 0.12618503883E+02 0.12076271021E+02 0.11070870626E+02
 0.97064957618E+01 0.82244418000E+01 0.68207577717E+01 0.56443022159E+01 0.47649213506E+01
 0.41850203019E+01 0.38734543570E+01 0.37957120040E+01 0.39310089926E+01 0.42786019397E+01
 0.48563251785E+01 0.56905934579E+01 0.67949333924E+01 0.66953552870E+01 0.78516060737E+01
 0.91186861542E+01 0.10362810307E+02 0.11436460879E+02 0.12208165766E+02 0.12623314096E+02
 0.12750241616E+02 0.12643460707E+02 0.12255463392E+02 0.11502050367E+02 0.10409153916E+02
 0.91105061234E+01 0.77681621047E+01 0.65416174205E+01 0.55382057862E+01 0.47987150111E+01
 0.43156324371E+01 0.40615841084E+01 0.40103779922E+01 0.41470573739E+01 0.44708635736E+01
 0.49937877939E+01 0.57331849170E+01 0.56904770229E+01 0.64855530290E+01 0.74393967828E+01
 0.84909687601E+01 0.95440747414E+01 0.10491747808E+02 0.11247272869E+02 0.11756596618E+02
 0.11993600824E+02 0.11936570094E+02 0.11551615690E+02 0.10836871147E+02 0.98470336490E+01
 0.86972337096E+01 0.75329479629E+01 0.64825332179E+01 0.56247379026E+01 0.49860695389E+01
 0.45593935511E+01 0.43255965603E+01 0.42670631011E+01 0.43729240687E+01 0.46407273829E+01
 0.50764768787E+01 0.50967221225E+01 0.55663989267E+01 0.61855354241E+01 0.69399782043E+01
 0.77891145431E+01 0.86678635351E+01 0.95009378277E+01 0.10219116611E+02 0.10765180218E+02
 0.11088178860E+02 0.11138995746E+02 0.10881340543E+02 0.10316295595E+02 0.95008477094E+01
 0.85411240678E+01 0.75604513015E+01 0.66621198030E+01 0.59085920119E+01 0.53236816101E+01
 0.49079365895E+01 0.46533480762E+01 0.45508051603E+01 0.45925226841E+01 0.47740682652E+01
 0.48592185899E+01 0.50523073037E+01 0.53720968550E+01 0.58223453227E+01 0.63968500548E+01
 0.70720011092E+01 0.78073127687E+01 0.85524899955E+01 0.92537200177E+01 0.98536661558E+01
 0.10288566996E+02 0.10492867538E+02 0.10417492357E+02 0.10054058953E+02 0.94475000099E+01
 0.86852676700E+01 0.78683968733E+01 0.70823860918E+01 0.63831954887E+01 0.58001854145E+01
 0.53466270931E+01 0.50277436792E+01 0.48433853265E+01 0.47890431964E+01 0.49466409225E+01
 0.48884650611E+01 0.49467728595E+01 0.51243536199E+01 0.54263778237E+01 0.58530190881E+01
 0.63940172162E+01 0.70282836425E+01 0.77257950876E+01 0.84464360457E+01 0.91347345261E+01
 0.97172303414E+01 0.10112030111E+02 0.10252263190E+02 0.10111956574E+02 0.97172206684E+01
 0.91348205092E+01 0.84464746069E+01 0.77256976259E+01 0.70281712551E+01 0.63940480250E+01
 0.58531554061E+01 0.54264357566E+01 0.51242541121E+01 0.53719875106E+01 0.50520969033E+01
 0.48590978540E+01 0.47890862040E+01 0.48434747627E+01 0.50277231382E+01 0.53465063704E+01
 0.58001303244E+01 0.63832890597E+01 0.70824989559E+01 0.78683759073E+01 0.86851693135E+01
 0.94474903162E+01 0.10054139659E+02 0.10417509251E+02 0.10492786712E+02 0.10288541272E+02
 0.98537702353E+01 0.92538053371E+01 0.85524131460E+01 0.78071688129E+01 0.70719875929E+01
 0.63969772421E+01 0.58224215116E+01 0.61855893448E+01 0.55662978742E+01 0.50964876621E+01
 0.47738579785E+01 0.45924708058E+01 0.45508782886E+01 0.46533804971E+01 0.49078522729E+01
 0.53236045065E+01 0.59086471722E+01 0.66622186536E+01 0.75604257751E+01 0.85410095721E+01
 0.95008266704E+01 0.10316387298E+02 0.10881374377E+02 0.11138916688E+02 0.11088148936E+02
 0.10765293114E+02 0.10219220740E+02 0.95008683535E+01 0.86676950907E+01 0.77890437997E+01
 0.69400451203E+01 0.74393722093E+01 0.64855784900E+01 0.56904141602E+01 0.50762577989E+01
 0.46404578059E+01 0.43728044329E+01 0.42671395413E+01 0.43256755039E+01 0.45593176887E+01
 0.49859523364E+01 0.56247572115E+01 0.64826189796E+01 0.75329067391E+01 0.86970995234E+01
 0.98470182809E+01 0.10836993058E+02 0.11551667176E+02 0.11936471952E+02 0.11993527262E+02
 0.11756670940E+02 0.11247363644E+02 0.10491683017E+02 0.95438876012E+01 0.84908232392E+01
 0.91184964729E+01 0.78514890897E+01 0.66953396661E+01 0.57331704849E+01 0.49936267099E+01
 0.44705913318E+01 0.41469079809E+01 0.40104531091E+01 0.40616767914E+01 0.43155473864E+01
 0.47985701721E+01 0.55382029321E+01 0.65416861322E+01 0.77681085322E+01 0.91103807086E+01
 0.10409163190E+02 0.11502177422E+02 0.12255478467E+02 0.12643301298E+02 0.12750093937E+02
 0.12623305088E+02 0.12208199305E+02 0.11436397425E+02 0.10362640660E+02 0.11052346929E+02
 0.96157164640E+01 0.81379484052E+01 0.67948891778E+01 0.56906507570E+01 0.48562463666E+01
 0.42783548140E+01 0.39308580958E+01 0.37957958042E+01 0.38735493082E+01 0.41849146494E+01
 0.47647565880E+01 0.56442977012E+01 0.68208326199E+01 0.82243954121E+01 0.97063772121E+01
 0.11070863376E+02 0.12076340012E+02 0.12618445374E+02 0.12857934320E+02 0.13008802960E+02
 0.13095582513E+02 0.12913440471E+02 0.12231527847E+02 0.12773662641E+02 0.11551902744E+02
 0.99363705828E+01 0.82710622038E+01 0.67744083520E+01 0.55667082218E+01 0.46760374821E+01
 0.40786134720E+01 0.37388186042E+01 0.36346094332E+01 0.37691037195E+01 0.41708157769E+01
 0.48816003309E+01 0.59294466815E+01 0.72881688447E+01 0.88421183353E+01 0.10388808718E+02
 0.11596274684E+02 0.12171962240E+02 0.12247628958E+02 0.12255729717E+02 0.12533778421E+02