unknown system                          
   1.00000000000000     
    -2.450000    2.450000    1.274000
     2.450000   -2.450000    1.274000
     2.450000    2.450000   -1.274000
   Si
     2
Direct
  0.250000  0.750000  0.500000
  0.000000  0.000000  0.000000
 
   24   24   24
 -.55624404482E+01 -.35416990499E+01 0.14901753396E+01 0.70924340999E+01 0.10893274163E+02
 0.11868552017E+02 0.10616932584E+02 0.85867760911E+01 0.67068569820E+01 0.52513314513E+01
 0.42775773585E+01 0.37369087899E+01 0.35655908955E+01 0.37369751922E+01 0.42775707561E+01
 0.52512753779E+01 0.67068889639E+01 0.85868342479E+01 0.10616861999E+02 0.11868458673E+02
 0.10893367575E+02 0.70925920288E+01 0.14901102362E+01 -.35419040787E+01 -.35419040787E+01
 -.45778496953E+01 -.17877920228E+01 0.33939348543E+01 0.84795744747E+01 0.11416348536E+02
 0.11633719144E+02 0.10030031801E+02 0.80081981758E+01 0.62395448136E+01 0.49229318131E+01
 0.40775988743E+01 0.36442267642E+01 0.35655893767E+01 0.38281600318E+01 0.44699427300E+01
 0.55568645723E+01 0.71218848907E+01 0.90690902713E+01 0.11046651835E+02 0.11953695418E+02
 0.10451358499E+02 0.62772558848E+01 0.79478916276E+00 0.14901102362E+01 -.17879703089E+01
 -.18621047093E+01 0.12919637221E+01 0.60184058941E+01 0.10035037523E+02 0.11788150626E+02
 0.11188200229E+02 0.93302074593E+01 0.73780704235E+01 0.57565048639E+01 0.45964066467E+01
 0.38842481850E+01 0.35563540647E+01 0.35655308888E+01 0.39113044466E+01 0.46399017119E+01
 0.58144006205E+01 0.74491054138E+01 0.94155673427E+01 0.11303942865E+02 0.11969225680E+02
 0.10279826746E+02 0.62772558848E+01 0.70925920288E+01 0.33938859531E+01 0.12918337272E+01
 0.19444091171E+01 0.49747065476E+01 0.87260207108E+01 0.11332058087E+02 0.11823911827E+02
 0.10529727316E+02 0.85751753986E+01 0.67421885745E+01 0.52919942650E+01 0.42936453078E+01
 0.37098939291E+01 0.34789174418E+01 0.35654459020E+01 0.39801911298E+01 0.47733446014E+01
 0.60009271278E+01 0.76587836184E+01 0.95967442599E+01 0.11389038720E+02 0.11969225680E+02
 0.10451358499E+02 0.10893367575E+02 0.84796932130E+01 0.60183799342E+01 0.49746371501E+01
 0.59945583735E+01 0.84627280831E+01 0.10926462190E+02 0.12059766678E+02 0.11457875065E+02
 0.97323333545E+01 0.78177082277E+01 0.61436068913E+01 0.48752948579E+01 0.40324544371E+01
 0.35645750134E+01 0.34166369451E+01 0.35653527332E+01 0.40294318188E+01 0.48585867514E+01
 0.60989469935E+01 0.77310208211E+01 0.95967442599E+01 0.11303942865E+02 0.11953695418E+02
 0.11868458673E+02 0.11416400655E+02 0.10035106252E+02 0.87260194073E+01 0.84627206445E+01
 0.94839753100E+01 0.11113842146E+02 0.12246581423E+02 0.12115633285E+02 0.10768591082E+02
 0.89098420575E+01 0.71109467337E+01 0.56198688068E+01 0.45295787747E+01 0.38262193731E+01
 0.34557733645E+01 0.33730890478E+01 0.35652749238E+01 0.40551028936E+01 0.48879107575E+01
 0.60989469935E+01 0.76587836184E+01 0.94155673427E+01 0.11046651835E+02 0.10616861999E+02
 0.11633655862E+02 0.11788157532E+02 0.11332074469E+02 0.10926482242E+02 0.11113887844E+02
 0.11869998973E+02 0.12605619786E+02 0.12617246568E+02 0.11620650358E+02 0.99474032058E+01
 0.81407183430E+01 0.65045236915E+01 0.52013166216E+01 0.42717142091E+01 0.36841062702E+01
 0.33885578434E+01 0.33507140229E+01 0.35652531175E+01 0.40551028936E+01 0.48585867514E+01
 0.60009271278E+01 0.74491054138E+01 0.90690902713E+01 0.85868342479E+01 0.10030016449E+02
 0.11188170088E+02 0.11823878768E+02 0.12059736383E+02 0.12246615510E+02 0.12605702665E+02
 0.12990338052E+02 0.12984075107E+02 0.12254209305E+02 0.10857531392E+02 0.91695986252E+01
 0.74936916484E+01 0.60402536217E+01 0.49102872585E+01 0.41128473233E+01 0.36117433074E+01
 0.33658466348E+01 0.33507140229E+01 0.35652749238E+01 0.40294318188E+01 0.47733446014E+01
 0.58144006205E+01 0.71218848907E+01 0.67068889639E+01 0.80082444763E+01 0.93302413246E+01
 0.10529729591E+02 0.11457814416E+02 0.12115567783E+02 0.12617285557E+02 0.12984176670E+02
 0.13051484692E+02 0.12592414882E+02 0.11550416634E+02 0.10117566103E+02 0.85346199151E+01
 0.70273799906E+01 0.57491545739E+01 0.47612624159E+01 0.40592340258E+01 0.36117433074E+01
 0.33885578434E+01 0.33730890478E+01 0.35653527332E+01 0.39801911298E+01 0.46399017119E+01
 0.55568645723E+01 0.52512753779E+01 0.62395250631E+01 0.73780989458E+01 0.85752439742E+01
 0.97323643074E+01 0.10768519094E+02 0.11620563849E+02 0.12254244697E+02 0.12592518732E+02
 0.12505806452E+02 0.11916948897E+02 0.10880224454E+02 0.95467661871E+01 0.81202945366E+01
 0.67835294319E+01 0.56500422249E+01 0.47612624159E+01 0.41128473233E+01 0.36841062702E+01
 0.34557733645E+01 0.34166369451E+01 0.35654459020E+01 0.39113044466E+01 0.44699427300E+01
 0.42775707561E+01 0.49228772425E+01 0.57564446162E+01 0.67421937280E+01 0.78177931398E+01
 0.89098965250E+01 0.99473356516E+01 0.10857436997E+02 0.11550442595E+02 0.11917044440E+02
 0.11858593619E+02 0.11338409972E+02 0.10416427556E+02 0.92371273802E+01 0.79765172031E+01
 0.67835294319E+01 0.57491545739E+01 0.49102872585E+01 0.42717142091E+01 0.38262193731E+01
 0.35645750134E+01 0.34789174418E+01 0.35655308888E+01 0.38281600318E+01 0.37369751922E+01
 0.40776333630E+01 0.45963663168E+01 0.52919096640E+01 0.61435852446E+01 0.71110306637E+01
 0.81407905306E+01 0.91695465082E+01 0.10117473035E+02 0.10880239268E+02 0.11338494134E+02
 0.11393499578E+02 0.11012374666E+02 0.10251222329E+02 0.92371273802E+01 0.81202945366E+01
 0.70273799906E+01 0.60402536217E+01 0.52013166216E+01 0.45295787747E+01 0.40324544371E+01
 0.37098939291E+01 0.35563540647E+01 0.35655893767E+01 0.35655908955E+01 0.36442893861E+01
 0.38843145239E+01 0.42936319102E+01 0.48752026301E+01 0.56198196758E+01 0.65045942792E+01
 0.74937760897E+01 0.85345871526E+01 0.95466783850E+01 0.10416433618E+02 0.11012451117E+02
 0.11225382640E+02 0.11012374666E+02 0.10416427556E+02 0.95467661871E+01 0.85346199151E+01
 0.74936916484E+01 0.65045236915E+01 0.56198688068E+01 0.48752948579E+01 0.42936453078E+01
 0.38842481850E+01 0.36442267642E+01 0.37369087899E+01 0.35655537533E+01 0.35563961789E+01
 0.37099823316E+01 0.40324764980E+01 0.45294916617E+01 0.52012427505E+01 0.60403063817E+01
 0.70274720783E+01 0.81202772992E+01 0.92370436567E+01 0.10251225069E+02 0.11012451117E+02
 0.11393499578E+02 0.11338409972E+02 0.10880224454E+02 0.10117566103E+02 0.91695986252E+01
 0.81407183430E+01 0.71109467337E+01 0.61436068913E+01 0.52919942650E+01 0.45964066467E+01
 0.40775988743E+01 0.42775773585E+01 0.38281076933E+01 0.35654626261E+01 0.34789273049E+01
 0.35646766447E+01 0.38262785954E+01 0.42716386732E+01 0.49101948570E+01 0.57491927570E+01
 0.67836250566E+01 0.79765058038E+01 0.92370436567E+01 0.10416433618E+02 0.11338494134E+02
 0.11858593619E+02 0.11916948897E+02 0.11550416634E+02 0.10857531392E+02 0.99474032058E+01
 0.89098420575E+01 0.78177082277E+01 0.67421885745E+01 0.57565048639E+01 0.49229318131E+01
 0.52513314513E+01 0.44699966427E+01 0.39112797372E+01 0.35653500694E+01 0.34166109867E+01
 0.34558819895E+01 0.36841965296E+01 0.41127824882E+01 0.47611599620E+01 0.56500747674E+01
 0.67836250566E+01 0.81202772992E+01 0.95466783850E+01 0.10880239268E+02 0.11917044440E+02
 0.12505806452E+02 0.12592414882E+02 0.12254209305E+02 0.11620650358E+02 0.10768591082E+02
 0.97323333545E+01 0.85751753986E+01 0.73780704235E+01 0.62395448136E+01 0.67068569820E+01
 0.55569120599E+01 0.46400033422E+01 0.39801997430E+01 0.35652364072E+01 0.33730329099E+01
 0.33886694993E+01 0.36118510519E+01 0.40591733565E+01 0.47611599620E+01 0.57491927570E+01
 0.70274720783E+01 0.85345871526E+01 0.10117473035E+02 0.11550442595E+02 0.12592518732E+02
 0.13051484692E+02 0.12984075107E+02 0.12617246568E+02 0.12115633285E+02 0.11457875065E+02
 0.10529727316E+02 0.93302074593E+01 0.80081981758E+01 0.85867760911E+01 0.71217977758E+01
 0.58144344133E+01 0.47734877151E+01 0.40294701336E+01 0.35651460262E+01 0.33506405389E+01
 0.33659589864E+01 0.36118510519E+01 0.41127824882E+01 0.49101948570E+01 0.60403063817E+01
 0.74937760897E+01 0.91695465082E+01 0.10857436997E+02 0.12254244697E+02 0.12984176670E+02
 0.12990338052E+02 0.12605619786E+02 0.12246581423E+02 0.12059766678E+02 0.11823911827E+02
 0.11188200229E+02 0.10030031801E+02 0.10616932584E+02 0.90690254223E+01 0.74489696302E+01
 0.60009479163E+01 0.48587581449E+01 0.40551584348E+01 0.35651198840E+01 0.33506405389E+01
 0.33886694993E+01 0.36841965296E+01 0.42716386732E+01 0.52012427505E+01 0.65045942792E+01
 0.81407905306E+01 0.99473356516E+01 0.11620563849E+02 0.12617285557E+02 0.12605702665E+02
 0.11869998973E+02 0.11113842146E+02 0.10926462190E+02 0.11332058087E+02 0.11788150626E+02
 0.11633719144E+02 0.11868552017E+02 0.11046773170E+02 0.94154995950E+01 0.76586144337E+01
 0.60989598403E+01 0.48880920886E+01 0.40551584348E+01 0.35651460262E+01 0.33730329099E+01
 0.34558819895E+01 0.38262785954E+01 0.45294916617E+01 0.56198196758E+01 0.71110306637E+01
 0.89098965250E+01 0.10768519094E+02 0.12115567783E+02 0.12246615510E+02 0.11113887844E+02
 0.94839753100E+01 0.84627280831E+01 0.87260207108E+01 0.10035037523E+02 0.11416348536E+02
 0.10893274163E+02 0.11953811832E+02 0.11304099828E+02 0.95966754856E+01 0.77308396601E+01
 0.60989598403E+01 0.48587581449E+01 0.40294701336E+01 0.35652364072E+01 0.34166109867E+01
 0.35646766447E+01 0.40324764980E+01 0.48752026301E+01 0.61435852446E+01 0.78177931398E+01
 0.97323643074E+01 0.11457814416E+02 0.12059736383E+02 0.10926482242E+02 0.84627206445E+01
 0.59945583735E+01 0.49747065476E+01 0.60184058941E+01 0.84795744747E+01 0.70924340999E+01
 0.10451236217E+02 0.11969354536E+02 0.11389208418E+02 0.95966754856E+01 0.76586144337E+01
 0.60009479163E+01 0.47734877151E+01 0.39801997430E+01 0.35653500694E+01 0.34789273049E+01
 0.37099823316E+01 0.42936319102E+01 0.52919096640E+01 0.67421937280E+01 0.85752439742E+01
 0.10529729591E+02 0.11823878768E+02 0.11332074469E+02 0.87260194073E+01 0.49746371501E+01
 0.19444091171E+01 0.12919637221E+01 0.33939348543E+01 0.14901753396E+01 0.62770763677E+01
 0.10279694052E+02 0.11969354536E+02 0.11304099828E+02 0.94154995950E+01 0.74489696302E+01
 0.58144344133E+01 0.46400033422E+01 0.39112797372E+01 0.35654626261E+01 0.35563961789E+01
 0.38843145239E+01 0.45963663168E+01 0.57564446162E+01 0.73780989458E+01 0.93302413246E+01
 0.11188170088E+02 0.11788157532E+02 0.10035106252E+02 0.60183799342E+01 0.12918337272E+01
 -.18621047093E+01 -.17877920228E+01 -.35416990499E+01 0.79486007895E+00 0.62770763677E+01
 0.10451236217E+02 0.11953811832E+02 0.11046773170E+02 0.90690254223E+01 0.71217977758E+01
 0.55569120599E+01 0.44699966427E+01 0.38281076933E+01 0.35655537533E+01 0.36442893861E+01
 0.40776333630E+01 0.49228772425E+01 0.62395250631E+01 0.80082444763E+01 0.10030016449E+02
 0.11633655862E+02 0.11416400655E+02 0.84796932130E+01 0.33938859531E+01 -.17879703089E+01
 -.45778496953E+01 -.35414893733E+01 -.21057633455E+01 0.22170563384E+01 0.72684804914E+01
 0.10800474808E+02 0.11733262395E+02 0.10523656486E+02 0.85147890026E+01 0.66304277285E+01
 0.51520159663E+01 0.41455142725E+01 0.35667582027E+01 0.33507277962E+01 0.34651433521E+01
 0.39292274412E+01 0.48025824278E+01 0.61405332312E+01 0.79125006585E+01 0.99058706561E+01
 0.11409976220E+02 0.11068470986E+02 0.81316096399E+01 0.33062143905E+01 -.13534350697E+01
 -.21059844016E+01 -.35415049366E+01 -.13532340863E+01 0.33063115770E+01 0.81314945291E+01
 0.11068369636E+02 0.11410020492E+02 0.99059309600E+01 0.79124850743E+01 0.61405180554E+01
 0.48026019978E+01 0.39292181852E+01 0.34651160821E+01 0.33507490229E+01 0.35667839223E+01
 0.41454742510E+01 0.51519899304E+01 0.66304959024E+01 0.85148256422E+01 0.10523546428E+02
 0.11733175535E+02 0.10800602103E+02 0.72686480290E+01 0.22169763810E+01 0.23602536167E+01
 -.11971201963E+01 -.17876363514E+01 0.86304629409E+00 0.53201957047E+01 0.93633798766E+01
 0.11329555479E+02 0.10950249500E+02 0.91994592922E+01 0.72750810279E+01 0.56491858171E+01
 0.44704376493E+01 0.37369647980E+01 0.33879519786E+01 0.33730902174E+01 0.36866929947E+01
 0.43716193272E+01 0.54939419467E+01 0.70824283932E+01 0.90371589280E+01 0.11013540391E+02
 0.11973638478E+02 0.10712126362E+02 0.70686138451E+01 0.76252568258E+01 0.37158887747E+01
 0.11535525462E+01 0.12920372627E+01 0.39915812353E+01 0.77249154296E+01 0.10574668842E+02
 0.11392982742E+02 0.10330766657E+02 0.84572744110E+01 0.66454769789E+01 0.51890744200E+01
 0.41763625545E+01 0.35801497134E+01 0.33398116948E+01 0.34165744491E+01 0.38172622375E+01
 0.45915452122E+01 0.58016483547E+01 0.74589012852E+01 0.94364127741E+01 0.11352743725E+02
 0.12175534744E+02 0.10905880397E+02 0.11355958326E+02 0.87962218327E+01 0.59404274764E+01
 0.43777556615E+01 0.49747076233E+01 0.72999561473E+01 0.99328933236E+01 0.11415188826E+02
 0.11142219966E+02 0.95879829573E+01 0.77248915517E+01 0.60621370121E+01 0.47870470506E+01
 0.39365329807E+01 0.34671767024E+01 0.33234720794E+01 0.34787900369E+01 0.39498019809E+01
 0.47884368208E+01 0.60489930086E+01 0.77259569913E+01 0.96761774129E+01 0.11522402323E+02
 0.12341129682E+02 0.12421703822E+02 0.11913521999E+02 0.10250017882E+02 0.84772657702E+01
 0.77349274180E+01 0.84626553092E+01 0.10096444608E+02 0.11483640798E+02 0.11688986145E+02
 0.10584463773E+02 0.88141775780E+01 0.70458010819E+01 0.55578958463E+01 0.44637589924E+01
 0.37623883807E+01 0.34034025998E+01 0.33398435391E+01 0.35561730299E+01 0.40751378571E+01
 0.49463761619E+01 0.62136457731E+01 0.78577805710E+01 0.97320021783E+01 0.11502078775E+02
 0.11273778681E+02 0.12336579373E+02 0.12362236953E+02 0.11578450383E+02 0.10732539698E+02
 0.10534516731E+02 0.11113722041E+02 0.11924266985E+02 0.12170750057E+02 0.11408512416E+02
 0.98501269844E+01 0.80848342070E+01 0.64617723314E+01 0.51594538774E+01 0.42339283541E+01
 0.36610853948E+01 0.33914141124E+01 0.33880258787E+01 0.36440522733E+01 0.41841881423E+01
 0.50520932576E+01 0.62802283019E+01 0.78407946200E+01 0.95955369340E+01 0.92765084805E+01
 0.10835241066E+02 0.12012306709E+02 0.12501372175E+02 0.12432916287E+02 0.12254780819E+02
 0.12328288939E+02 0.12605489584E+02 0.12665105750E+02 0.12075020888E+02 0.10772467469E+02
 0.91177812987E+01 0.74583364986E+01 0.60103142047E+01 0.48872370602E+01 0.41071605513E+01
 0.36362213349E+01 0.34312596933E+01 0.34652353645E+01 0.37367851989E+01 0.42687906140E+01
 0.50966367992E+01 0.62425587688E+01 0.76759203831E+01 0.73786628868E+01 0.88019213450E+01
 0.10215047122E+02 0.11424603445E+02 0.12224147669E+02 0.12635289579E+02 0.12856800683E+02
 0.13010291784E+02 0.12983949108E+02 0.12525410224E+02 0.11500871670E+02 0.10068913486E+02
 0.84919547111E+01 0.69902944832E+01 0.57221369751E+01 0.47555623141E+01 0.40886882809E+01
 0.36882935339E+01 0.35206168297E+01 0.35669341173E+01 0.38280959424E+01 0.43224164307E+01
 0.50764205363E+01 0.61045780256E+01 0.58797163620E+01 0.69766958039E+01 0.82125139198E+01
 0.94705005249E+01 0.10624171197E+02 0.11560741456E+02 0.12224586348E+02 0.12642100663E+02
 0.12799414770E+02 0.12592332991E+02 0.11922629567E+02 0.10835811796E+02 0.94818388170E+01
 0.80521940857E+01 0.67262446901E+01 0.56190596009E+01 0.47726307407E+01 0.41798022647E+01
 0.38150244511E+01 0.36549171122E+01 0.36869122600E+01 0.39114091243E+01 0.43408291430E+01
 0.49937105749E+01 0.48561617200E+01 0.55887219831E+01 0.65057864838E+01 0.75575774613E+01
 0.86621740796E+01 0.97265798095E+01 0.10669755022E+02 0.11426752233E+02 0.11935300110E+02
 0.12122818689E+02 0.11916903162E+02 0.11294990732E+02 0.10315342088E+02 0.91139458757E+01
 0.78593268920E+01 0.66962473681E+01 0.57125702472E+01 0.49404029552E+01 0.43778535557E+01
 0.40111959632E+01 0.38272176519E+01 0.38175243670E+01 0.39804653834E+01 0.43225764316E+01
 0.42690791446E+01 0.46757341445E+01 0.52567504915E+01 0.60049800716E+01 0.68889661380E+01
 0.78538483384E+01 0.88324866867E+01 0.97557193330E+01 0.10551622852E+02 0.11137862845E+02
 0.11424369960E+02 0.11338408985E+02 0.10861851241E+02 0.10053174890E+02 0.90340730044E+01
 0.79471413159E+01 0.69118191107E+01 0.60026970305E+01 0.52538551742E+01 0.46755674460E+01
 0.42682057236E+01 0.40282005290E+01 0.39501059860E+01 0.40298505831E+01 0.40555807562E+01
 0.41845605303E+01 0.44671605794E+01 0.49100966853E+01 0.55120202626E+01 0.62556879089E+01
 0.71074427965E+01 0.80216254715E+01 0.89420179245E+01 0.97963986809E+01 0.10491848581E+02
 0.10925020513E+02 0.11012401716E+02 0.10726192033E+02 0.10111064404E+02 0.92683838535E+01
 0.83182356212E+01 0.73638950609E+01 0.64765863817E+01 0.56998076626E+01 0.50601361437E+01
 0.45735191394E+01 0.42461198467E+01 0.40754274744E+01 0.41844435773E+01 0.40555633296E+01
 0.40755268096E+01 0.42462160065E+01 0.45734941537E+01 0.50600237762E+01 0.56997582693E+01
 0.64766602982E+01 0.73639718643E+01 0.83181984400E+01 0.92683032596E+01 0.10111077066E+02
 0.10726268990E+02 0.11012401399E+02 0.10924939212E+02 0.10491832650E+02 0.97964908752E+01
 0.89420737306E+01 0.80215470000E+01 0.71073419374E+01 0.62557167599E+01 0.55121461026E+01
 0.49101557829E+01 0.44670818171E+01 0.46757104741E+01 0.42689713639E+01 0.40297790820E+01
 0.39501551598E+01 0.40283154632E+01 0.42682396814E+01 0.46754736039E+01 0.52537681202E+01
 0.60027406538E+01 0.69119129452E+01 0.79471316072E+01 0.90339873993E+01 0.10053168155E+02
 0.10861932543E+02 0.11338428231E+02 0.11424287412E+02 0.11137824627E+02 0.10551708308E+02
 0.97557997469E+01 0.88324331720E+01 0.78537351291E+01 0.68889522550E+01 0.60050828553E+01
 0.52568412681E+01 0.55888260848E+01 0.48561831536E+01 0.43224905165E+01 0.39803632760E+01
 0.38175335804E+01 0.38273353866E+01 0.40112614679E+01 0.43777727747E+01 0.49403059463E+01
 0.57126099854E+01 0.66963460438E+01 0.78593113514E+01 0.91138506078E+01 0.10315345327E+02
 0.11295092686E+02 0.11916921386E+02 0.12122711561E+02 0.11935245742E+02 0.11426847991E+02
 0.10669858070E+02 0.97265393927E+01 0.86620516684E+01 0.75575333016E+01 0.65058635851E+01
 0.69767042925E+01 0.58798043088E+01 0.49937966121E+01 0.43407988976E+01 0.39112812655E+01
 0.36868631996E+01 0.36550272174E+01 0.38151280832E+01 0.41797433153E+01 0.47725221154E+01
 0.56190864074E+01 0.67263453551E+01 0.80521833901E+01 0.94817442989E+01 0.10835814900E+02
 0.11922730659E+02 0.12592351400E+02 0.12799310480E+02 0.12642039487E+02 0.12224659271E+02
 0.11560836062E+02 0.10624165324E+02 0.94704162552E+01 0.82124448780E+01 0.88018248549E+01
 0.73786081347E+01 0.61046563130E+01 0.50765584692E+01 0.43224200582E+01 0.38279484770E+01
 0.35668619655E+01 0.35207347414E+01 0.36884061071E+01 0.40886194977E+01 0.47554526551E+01
 0.57221831976E+01 0.69904027879E+01 0.84919252199E+01 0.10068803468E+02 0.11500882059E+02
 0.12525524329E+02 0.12983971714E+02 0.13010184501E+02 0.12856722557E+02 0.12635332567E+02
 0.12224237085E+02 0.11424641164E+02 0.10215003264E+02 0.10835268682E+02 0.92764150795E+01
 0.76758003453E+01 0.62425993808E+01 0.50968046260E+01 0.42688364935E+01 0.37366457536E+01
 0.34651497413E+01 0.34313639726E+01 0.36363247980E+01 0.41070968654E+01 0.48871478649E+01
 0.60103679909E+01 0.74584249003E+01 0.91177377092E+01 0.10772372077E+02 0.12075040332E+02
 0.12665198680E+02 0.12605501825E+02 0.12328210454E+02 0.12254716208E+02 0.12432912100E+02
 0.12501416393E+02 0.12012379749E+02 0.12336701971E+02 0.11273873250E+02 0.95954347972E+01
 0.78406205688E+01 0.62802532991E+01 0.50522856465E+01 0.41842467431E+01 0.36439089601E+01
 0.33879465759E+01 0.33915256213E+01 0.36611768295E+01 0.42338523635E+01 0.51593732339E+01
 0.64618363244E+01 0.80849177793E+01 0.98500817139E+01 0.11408421883E+02 0.12170753112E+02
 0.11924332598E+02 0.11113749767E+02 0.10534489305E+02 0.10732477141E+02 0.11578377306E+02
 0.12362238591E+02 0.11913470596E+02 0.12421839859E+02 0.11502221053E+02 0.97319191466E+01
 0.78575942873E+01 0.62136521646E+01 0.49465497247E+01 0.40751903260E+01 0.35560556298E+01
 0.33397956389E+01 0.34035014425E+01 0.37624398982E+01 0.44636810964E+01 0.55578505404E+01
 0.70458718028E+01 0.88142311565E+01 0.10584413469E+02 0.11688922699E+02 0.11483638345E+02
 0.10096466555E+02 0.84626797572E+01 0.77349563819E+01 0.84772317897E+01 0.10249896794E+02
 0.87960437969E+01 0.11355853461E+02 0.12341280416E+02 0.11522584270E+02 0.96761067049E+01
 0.77257642268E+01 0.60489911934E+01 0.47885958470E+01 0.39498456159E+01 0.34786884501E+01
 0.33234414097E+01 0.34672622592E+01 0.39365657675E+01 0.47869822254E+01 0.60621073417E+01
 0.77249394725E+01 0.95880148727E+01 0.11142202553E+02 0.11415163745E+02 0.99328550799E+01
 0.72999108161E+01 0.49747437476E+01 0.43778662921E+01 0.59404249903E+01 0.37159156909E+01
 0.76250641558E+01 0.10905753153E+02 0.12175671212E+02 0.11352915426E+02 0.94363548113E+01
 0.74587468916E+01 0.58016584977E+01 0.45916623751E+01 0.38172710255E+01 0.34164986817E+01
 0.33398186027E+01 0.35802202474E+01 0.41763614078E+01 0.51890178528E+01 0.66454707329E+01
 0.84573069061E+01 0.10330775834E+02 0.11392990994E+02 0.10574680482E+02 0.77248551007E+01
 0.39914836456E+01 0.12920735968E+01 0.11537141315E+01 -.11969089893E+01 0.23603229296E+01
 0.70684218085E+01 0.10711976624E+02 0.11973747701E+02 0.11013698131E+02 0.90371227291E+01
 0.70823112547E+01 0.54939491318E+01 0.43716952592E+01 0.36866907674E+01 0.33730489172E+01
 0.33879689451E+01 0.37369968667E+01 0.44704222414E+01 0.56491709479E+01 0.72750934433E+01
 0.91994416761E+01 0.10950223246E+02 0.11329613671E+02 0.93634542660E+01 0.53201134908E+01
 0.86287927927E+00 -.17876144741E+01 0.14908555749E+01 0.23608199547E+01 0.54783253285E+01
 0.91814547401E+01 0.11651943480E+02 0.11995399423E+02 0.10602240342E+02 0.86089281357E+01
 0.67539032505E+01 0.52853565636E+01 0.42658710618E+01 0.36547791285E+01 0.33885310019E+01
 0.34311660997E+01 0.37938554160E+01 0.45280785134E+01 0.56907359141E+01 0.72780513203E+01
 0.91438939101E+01 0.10868531105E+02 0.11408309493E+02 0.99349851994E+01 0.67414207046E+01
 0.33065669889E+01 0.22173416578E+01 0.79558036200E+00 0.22175878026E+01 0.56924601340E+01
 0.93681516327E+01 0.11507466907E+02 0.11477048860E+02 0.99055098879E+01 0.79539480945E+01
 0.62159961733E+01 0.48902038042E+01 0.40087758033E+01 0.35204821588E+01 0.33658334773E+01
 0.35204931601E+01 0.40087547443E+01 0.48901940196E+01 0.62160463082E+01 0.79539598126E+01
 0.99054059906E+01 0.11476990168E+02 0.11507608169E+02 0.93683017453E+01 0.56923434662E+01
 0.54782369217E+01 0.23605759404E+01 0.14908265736E+01 0.33067700583E+01 0.67415370419E+01
 0.99348975772E+01 0.11408217565E+02 0.10868556881E+02 0.91439373311E+01 0.72780445161E+01
 0.56907339479E+01 0.45280909685E+01 0.37938370660E+01 0.34311500404E+01 0.33885614587E+01
 0.36547874732E+01 0.42658147024E+01 0.52853492294E+01 0.67539973490E+01 0.86089498745E+01
 0.10602090820E+02 0.11995306054E+02 0.11652104683E+02 0.91816485423E+01 0.95123585261E+01
 0.62011087424E+01 0.37160924021E+01 0.33943852901E+01 0.53205133205E+01 0.82882180821E+01
 0.10618692990E+02 0.11223941655E+02 0.10164160555E+02 0.83695924900E+01 0.66254606735E+01
 0.52111147079E+01 0.42199605485E+01 0.36324767522E+01 0.33913809776E+01 0.34557955355E+01
 0.38271217646E+01 0.45500077687E+01 0.56875243467E+01 0.72657425114E+01 0.91935020628E+01
 0.11183679836E+02 0.12435136457E+02 0.11933493939E+02 0.12355689259E+02 0.10315370027E+02
 0.76890389287E+01 0.59404877227E+01 0.60186086129E+01 0.77250532753E+01 0.98770991195E+01
 0.11132270099E+02 0.10851462133E+02 0.93913594901E+01 0.76251626916E+01 0.60331253413E+01
 0.48030570782E+01 0.39814069903E+01 0.35326359844E+01 0.34034673325E+01 0.35646086458E+01
 0.40281351326E+01 0.48430939772E+01 0.60670393284E+01 0.77094799872E+01 0.96570246990E+01
 0.11606121972E+02 0.12786654757E+02 0.13005635522E+02 0.12823173881E+02 0.11373672306E+02
 0.95509987198E+01 0.84771863330E+01 0.87259646242E+01 0.99328419247E+01 0.11087578644E+02
 0.11271040112E+02 0.10268456509E+02 0.86181909124E+01 0.69482417156E+01 0.55306056217E+01
 0.44856225814E+01 0.38229821922E+01 0.34989013160E+01 0.34673377637E+01 0.37099418036E+01
 0.42460878889E+01 0.51244283676E+01 0.63929714119E+01 0.80450668125E+01 0.99542873204E+01
 0.11828336054E+02 0.11815869193E+02 0.13022974949E+02 0.13172908008E+02 0.12372305312E+02
 0.11304907717E+02 0.10732341510E+02 0.10926191931E+02 0.11483457296E+02 0.11666577988E+02
 0.10984684998E+02 0.95526472580E+01 0.79023528930E+01 0.63728286604E+01 0.51408838862E+01
 0.42718554692E+01 0.37508621139E+01 0.35327861234E+01 0.35804136859E+01 0.38843012551E+01
 0.44670532952E+01 0.53724949402E+01 0.66366620494E+01 0.82395685553E+01 0.10052497292E+02
 0.99374509610E+01 0.11552278988E+02 0.12773462579E+02 0.13237216109E+02 0.13008155790E+02
 0.12532796305E+02 0.12254532754E+02 0.12246199299E+02 0.12170479578E+02 0.11595105116E+02
 0.10388162459E+02 0.88419063523E+01 0.72881537861E+01 0.59294385526E+01 0.48813616070E+01
 0.41699743688E+01 0.37675332710E+01 0.36327469708E+01 0.37372816309E+01 0.40776614660E+01
 0.46756551631E+01 0.55669878000E+01 0.67754265195E+01 0.82724549005E+01 0.81393087774E+01
 0.96168219034E+01 0.11052806284E+02 0.12231342933E+02 0.12912762227E+02 0.13094589259E+02
 0.13007618689E+02 0.12856540821E+02 0.12616828592E+02 0.12074747372E+02 0.11069718223E+02
 0.97058818181E+01 0.82243591691E+01 0.68209471311E+01 0.56444006253E+01 0.47646214667E+01
 0.41841713696E+01 0.38721154293E+01 0.37941365670E+01 0.39295659494E+01 0.42776493754E+01
 0.48560887640E+01 0.56910843176E+01 0.67959428602E+01 0.66963379794E+01 0.78527280381E+01
 0.91195909094E+01 0.10363236495E+02 0.11436332170E+02 0.12207544911E+02 0.12622278207E+02
 0.12748881061E+02 0.12641892908E+02 0.12253861326E+02 0.11500642408E+02 0.10408183353E+02
 0.91101112023E+01 0.77682585175E+01 0.65419443631E+01 0.55384402432E+01 0.47985771723E+01
 0.43149809975E+01 0.40604687290E+01 0.40090340325E+01 0.41458267475E+01 0.44700763633E+01
 0.49936477270E+01 0.57336999245E+01 0.56909471448E+01 0.64864363094E+01 0.74404344967E+01
 0.84918753145E+01 0.95446251066E+01 0.10491830581E+02 0.11246886064E+02 0.11755788133E+02
 0.11992436271E+02 0.11935167223E+02 0.11550173056E+02 0.10835654387E+02 0.98462761863E+01
 0.86970233687E+01 0.75331954284E+01 0.64830077204E+01 0.56251437710E+01 0.49861404985E+01
 0.45589862324E+01 0.43247479222E+01 0.42659831754E+01 0.43719206260E+01 0.46400919701E+01
 0.50763881253E+01 0.50966360393E+01 0.55667517441E+01 0.61862438492E+01 0.69408757723E+01
 0.77899992852E+01 0.86685490533E+01 0.95012868427E+01 0.10219049940E+02 0.10764672757E+02
 0.11087269237E+02 0.11137810660E+02 0.10880102322E+02 0.10315268512E+02 0.95002480404E+01
 0.85410408391E+01 0.75608163239E+01 0.66627285942E+01 0.59091698656E+01 0.53239745453E+01
 0.49078021164E+01 0.46528063615E+01 0.45500285387E+01 0.45917654304E+01 0.47735707625E+01
 0.48588305385E+01 0.50521642760E+01 0.53722586800E+01 0.58228079374E+01 0.63975477842E+01
 0.70728138396E+01 0.78080840463E+01 0.85530531320E+01 0.92539294433E+01 0.98534316826E+01
 0.10287892748E+02 0.10491874485E+02 0.10416405307E+02 0.10053143588E+02 0.94469774634E+01
 0.86852404122E+01 0.78688178699E+01 0.70830768679E+01 0.63839088505E+01 0.58006889902E+01
 0.53467817047E+01 0.50275433201E+01 0.48429437061E+01 0.47885396099E+01 0.49463698662E+01
 0.48881381013E+01 0.49465082583E+01 0.51242587885E+01 0.54265361600E+01 0.58534603821E+01
 0.63946906413E+01 0.70290529827E+01 0.77264646626E+01 0.84468057059E+01 0.91346630186E+01
 0.97166912001E+01 0.10111132846E+02 0.10251230041E+02 0.10111054418E+02 0.97166760038E+01
 0.91347483001E+01 0.84468513694E+01 0.77263813471E+01 0.70289571832E+01 0.63947343289E+01
 0.58536009210E+01 0.54265903328E+01 0.51241515005E+01 0.53721909425E+01 0.50520076761E+01
 0.48587706193E+01 0.47886399643E+01 0.48430751069E+01 0.50275418286E+01 0.53466565409E+01
 0.58006125350E+01 0.63839769759E+01 0.70831713504E+01 0.78687915175E+01 0.86851483015E+01
 0.94469791946E+01 0.10053232611E+02 0.10416421858E+02 0.10491784598E+02 0.10287854198E+02
 0.98535256289E+01 0.92540111873E+01 0.85529799533E+01 0.78079499220E+01 0.70728151534E+01
 0.63976953329E+01 0.58229137963E+01 0.61863692777E+01 0.55667423550E+01 0.50965071705E+01
 0.47734648369E+01 0.45917994328E+01 0.45501558509E+01 0.46528584011E+01 0.49077096803E+01
 0.53238765998E+01 0.59092091044E+01 0.66628264758E+01 0.75608049438E+01 0.85409472759E+01
 0.95002434845E+01 0.10315363517E+02 0.10880124318E+02 0.11137710544E+02 0.11087218135E+02
 0.10764772595E+02 0.10219153145E+02 0.95012284912E+01 0.86684035169E+01 0.77899642087E+01
 0.69409946180E+01 0.74404936475E+01 0.64865684224E+01 0.56910114276E+01 0.50763034378E+01
 0.46399428855E+01 0.43718899476E+01 0.42661095532E+01 0.43248436147E+01 0.45589086883E+01
 0.49860217491E+01 0.56251757184E+01 0.64831212225E+01 0.75331870720E+01 0.86969138535E+01
 0.98462679291E+01 0.10835766253E+02 0.11550204733E+02 0.11935052786E+02 0.11992362011E+02
 0.11755880506E+02 0.11247010331E+02 0.10491809236E+02 0.95444899028E+01 0.84917941766E+01
 0.91194843185E+01 0.78527120244E+01 0.66964454568E+01 0.57338228247E+01 0.49936199886E+01
 0.44699128247E+01 0.41457495543E+01 0.40091473472E+01 0.40605804707E+01 0.43149127248E+01
 0.47984603605E+01 0.55384787409E+01 0.65420574134E+01 0.77682374013E+01 0.91099981574E+01
 0.10408188791E+02 0.11500762589E+02 0.12253885540E+02 0.12641769895E+02 0.12748797981E+02
 0.12622352105E+02 0.12207665034E+02 0.11436349874E+02 0.10363143690E+02 0.11052788234E+02
 0.96166950417E+01 0.81392024494E+01 0.67960150399E+01 0.56912613624E+01 0.48561138379E+01
 0.42774762919E+01 0.39294586414E+01 0.37942465296E+01 0.38722359074E+01 0.41841022820E+01
 0.47645055779E+01 0.56444472726E+01 0.68210607119E+01 0.82243316966E+01 0.97057694129E+01
 0.11069724694E+02 0.12074860369E+02 0.12616856707E+02 0.12856437288E+02 0.13007526378E+02
 0.13094608581E+02 0.12912855123E+02 0.12231420102E+02 0.12773587715E+02 0.11552336336E+02
 0.99373236064E+01 0.82722854568E+01 0.67754641151E+01 0.55671836919E+01 0.46757054624E+01
 0.40774983557E+01 0.37371824214E+01 0.36328563859E+01 0.37676344503E+01 0.41698949069E+01
 0.48812659126E+01 0.59295040006E+01 0.72882547552E+01 0.88418619973E+01 0.10388056365E+02
 0.11595115524E+02 0.12170577147E+02 0.12246230139E+02 0.12254461956E+02 0.12532704162E+02