   2   2   0   0
  0.1529437E+02  0.3691622E-09  0.3691622E-09  0.3691622E-09  0.5000000E-15
  1.000000000000000E-004
  CAR 
 unknown system                          
     23.06608365     -6.61526075  301      9.15409867      1.00000000
     -6.615  0.0000E+00  0.0000E+00
     -6.516  0.0000E+00  0.0000E+00
     -6.417  0.0000E+00  0.0000E+00
     -6.318  0.0000E+00  0.0000E+00
     -6.220  0.0000E+00  0.0000E+00
     -6.121  0.0000E+00  0.0000E+00
     -6.022  0.0000E+00  0.0000E+00
     -5.923  0.0000E+00  0.0000E+00
     -5.824  0.0000E+00  0.0000E+00
     -5.725  0.2192E-17  0.2169E-18
     -5.626  0.4585E-15  0.4558E-16
     -5.527  0.5931E-13  0.5914E-14
     -5.428  0.4778E-11  0.4786E-12
     -5.329  0.2409E-09  0.2432E-10
     -5.230  0.7663E-08  0.7825E-09
     -5.131  0.1554E-06  0.1616E-07
     -5.032  0.2039E-05  0.2179E-06
     -4.933  0.1767E-04  0.1966E-05
     -4.834  0.1038E-03  0.1223E-04
     -4.735  0.4257E-03  0.5436E-04
     -4.637  0.1259E-02  0.1790E-03
     -4.538  0.2771E-02  0.4531E-03
     -4.439  0.4737E-02  0.9217E-03
     -4.340  0.6783E-02  0.1593E-02
     -4.241  0.8714E-02  0.2455E-02
     -4.142  0.9914E-02  0.3436E-02
     -4.043  0.9862E-02  0.4412E-02
     -3.944  0.9976E-02  0.5399E-02
     -3.845  0.1209E-01  0.6595E-02
     -3.746  0.1526E-01  0.8104E-02
     -3.647  0.1688E-01  0.9774E-02
     -3.548  0.1623E-01  0.1138E-01
     -3.449  0.1490E-01  0.1285E-01
     -3.350  0.1445E-01  0.1428E-01
     -3.251  0.1510E-01  0.1578E-01
     -3.152  0.1678E-01  0.1744E-01
     -3.053  0.1931E-01  0.1935E-01
     -2.955  0.2130E-01  0.2145E-01
     -2.856  0.2117E-01  0.2355E-01
     -2.757  0.2022E-01  0.2555E-01
     -2.658  0.2045E-01  0.2757E-01
     -2.559  0.2074E-01  0.2962E-01
     -2.460  0.2047E-01  0.3165E-01
     -2.361  0.2200E-01  0.3383E-01
     -2.262  0.2576E-01  0.3637E-01
     -2.163  0.2815E-01  0.3916E-01
     -2.064  0.2636E-01  0.4177E-01
     -1.965  0.2255E-01  0.4400E-01
     -1.866  0.2043E-01  0.4602E-01
     -1.767  0.2029E-01  0.4803E-01
     -1.668  0.2117E-01  0.5012E-01
     -1.569  0.2420E-01  0.5252E-01
     -1.470  0.2955E-01  0.5544E-01
     -1.372  0.3424E-01  0.5883E-01
     -1.273  0.3546E-01  0.6234E-01
     -1.174  0.3304E-01  0.6561E-01
     -1.075  0.2944E-01  0.6852E-01
     -0.976  0.2764E-01  0.7125E-01
     -0.877  0.2818E-01  0.7404E-01
     -0.778  0.2921E-01  0.7693E-01
     -0.679  0.2871E-01  0.7977E-01
     -0.580  0.2719E-01  0.8246E-01
     -0.481  0.2755E-01  0.8519E-01
     -0.382  0.3006E-01  0.8816E-01
     -0.283  0.3123E-01  0.9125E-01
     -0.184  0.3102E-01  0.9432E-01
     -0.085  0.3376E-01  0.9766E-01
      0.014  0.3972E-01  0.1016E+00
      0.113  0.4467E-01  0.1060E+00
      0.211  0.4503E-01  0.1105E+00
      0.310  0.3955E-01  0.1144E+00
      0.409  0.3215E-01  0.1176E+00
      0.508  0.2893E-01  0.1204E+00
      0.607  0.3113E-01  0.1235E+00
      0.706  0.3578E-01  0.1270E+00
      0.805  0.3969E-01  0.1310E+00
      0.904  0.4179E-01  0.1351E+00
      1.003  0.4355E-01  0.1394E+00
      1.102  0.4515E-01  0.1439E+00
      1.201  0.4374E-01  0.1482E+00
      1.300  0.3872E-01  0.1520E+00
      1.399  0.3411E-01  0.1554E+00
      1.498  0.3327E-01  0.1587E+00
      1.597  0.3500E-01  0.1622E+00
      1.696  0.3526E-01  0.1657E+00
      1.794  0.3244E-01  0.1689E+00
      1.893  0.2963E-01  0.1718E+00
      1.992  0.3056E-01  0.1748E+00
      2.091  0.3485E-01  0.1783E+00
      2.190  0.3912E-01  0.1821E+00
      2.289  0.4197E-01  0.1863E+00
      2.388  0.4394E-01  0.1906E+00
      2.487  0.4400E-01  0.1950E+00
      2.586  0.4054E-01  0.1990E+00
      2.685  0.3577E-01  0.2025E+00
      2.784  0.3477E-01  0.2060E+00
      2.883  0.3869E-01  0.2098E+00
      2.982  0.4394E-01  0.2142E+00
      3.081  0.4554E-01  0.2187E+00
      3.180  0.4090E-01  0.2227E+00
      3.279  0.3400E-01  0.2261E+00
      3.377  0.3097E-01  0.2291E+00
      3.476  0.3303E-01  0.2324E+00
      3.575  0.3761E-01  0.2361E+00
      3.674  0.4267E-01  0.2403E+00
      3.773  0.4686E-01  0.2450E+00
      3.872  0.4802E-01  0.2497E+00
      3.971  0.4576E-01  0.2543E+00
      4.070  0.4324E-01  0.2585E+00
      4.169  0.4334E-01  0.2628E+00
      4.268  0.4630E-01  0.2674E+00
      4.367  0.5106E-01  0.2725E+00
      4.466  0.5507E-01  0.2779E+00
      4.565  0.5363E-01  0.2832E+00
      4.664  0.4562E-01  0.2877E+00
      4.763  0.3773E-01  0.2915E+00
      4.862  0.3634E-01  0.2951E+00
      4.960  0.4102E-01  0.2991E+00
      5.059  0.4768E-01  0.3038E+00
      5.158  0.5200E-01  0.3090E+00
      5.257  0.5357E-01  0.3143E+00
      5.356  0.5662E-01  0.3199E+00
      5.455  0.6235E-01  0.3261E+00
      5.554  0.6754E-01  0.3327E+00
      5.653  0.6817E-01  0.3395E+00
      5.752  0.6059E-01  0.3455E+00
      5.851  0.4761E-01  0.3502E+00
      5.950  0.3782E-01  0.3539E+00
      6.049  0.3510E-01  0.3574E+00
      6.148  0.3770E-01  0.3611E+00
      6.247  0.4412E-01  0.3655E+00
      6.346  0.5301E-01  0.3707E+00
      6.445  0.6288E-01  0.3770E+00
      6.543  0.7142E-01  0.3840E+00
      6.642  0.7287E-01  0.3912E+00
      6.741  0.6488E-01  0.3977E+00
      6.840  0.5667E-01  0.4033E+00
      6.939  0.5791E-01  0.4090E+00
      7.038  0.6451E-01  0.4154E+00
      7.137  0.6667E-01  0.4220E+00
      7.236  0.6349E-01  0.4283E+00
      7.335  0.6149E-01  0.4343E+00
      7.434  0.6310E-01  0.4406E+00
      7.533  0.6281E-01  0.4468E+00
      7.632  0.5837E-01  0.4526E+00
      7.731  0.5743E-01  0.4582E+00
      7.830  0.6464E-01  0.4646E+00
      7.929  0.7321E-01  0.4719E+00
      8.028  0.7357E-01  0.4792E+00
      8.126  0.6439E-01  0.4855E+00
      8.225  0.5348E-01  0.4908E+00
      8.324  0.4771E-01  0.4955E+00
      8.423  0.4618E-01  0.5001E+00
      8.522  0.4560E-01  0.5046E+00
      8.621  0.4483E-01  0.5091E+00
      8.720  0.4383E-01  0.5134E+00
      8.819  0.4361E-01  0.5177E+00
      8.918  0.4437E-01  0.5221E+00
      9.017  0.4554E-01  0.5266E+00
      9.116  0.4825E-01  0.5314E+00
      9.215  0.5215E-01  0.5365E+00
      9.314  0.5445E-01  0.5419E+00
      9.413  0.5374E-01  0.5472E+00
      9.512  0.5125E-01  0.5523E+00
      9.611  0.4924E-01  0.5572E+00
      9.709  0.4804E-01  0.5619E+00
      9.808  0.4654E-01  0.5665E+00
      9.907  0.4410E-01  0.5709E+00
     10.006  0.3969E-01  0.5748E+00
     10.105  0.3343E-01  0.5781E+00
     10.204  0.2831E-01  0.5809E+00
     10.303  0.2865E-01  0.5838E+00
     10.402  0.3638E-01  0.5874E+00
     10.501  0.4749E-01  0.5921E+00
     10.600  0.5633E-01  0.5976E+00
     10.699  0.6186E-01  0.6038E+00
     10.798  0.6454E-01  0.6102E+00
     10.897  0.6385E-01  0.6165E+00
     10.996  0.6142E-01  0.6225E+00
     11.095  0.5958E-01  0.6284E+00
     11.194  0.5874E-01  0.6343E+00
     11.292  0.5963E-01  0.6402E+00
     11.391  0.6371E-01  0.6465E+00
     11.490  0.6992E-01  0.6534E+00
     11.589  0.7337E-01  0.6606E+00
     11.688  0.6893E-01  0.6675E+00
     11.787  0.5815E-01  0.6732E+00
     11.886  0.4824E-01  0.6780E+00
     11.985  0.4273E-01  0.6822E+00
     12.084  0.4093E-01  0.6863E+00
     12.183  0.4237E-01  0.6904E+00
     12.282  0.4739E-01  0.6951E+00
     12.381  0.5828E-01  0.7009E+00
     12.480  0.7430E-01  0.7083E+00
     12.579  0.8561E-01  0.7167E+00
     12.678  0.8327E-01  0.7250E+00
     12.777  0.7263E-01  0.7321E+00
     12.875  0.6538E-01  0.7386E+00
     12.974  0.6461E-01  0.7450E+00
     13.073  0.6755E-01  0.7517E+00
     13.172  0.7184E-01  0.7588E+00
     13.271  0.7494E-01  0.7662E+00
     13.370  0.7559E-01  0.7737E+00
     13.469  0.7344E-01  0.7810E+00
     13.568  0.6805E-01  0.7877E+00
     13.667  0.6196E-01  0.7938E+00
     13.766  0.6040E-01  0.7998E+00
     13.865  0.6625E-01  0.8064E+00
     13.964  0.7752E-01  0.8140E+00
     14.063  0.8829E-01  0.8228E+00
     14.162  0.9128E-01  0.8318E+00
     14.261  0.8364E-01  0.8401E+00
     14.360  0.7097E-01  0.8471E+00
     14.458  0.6127E-01  0.8531E+00
     14.557  0.5632E-01  0.8587E+00
     14.656  0.5408E-01  0.8641E+00
     14.755  0.5436E-01  0.8694E+00
     14.854  0.5716E-01  0.8751E+00
     14.953  0.6105E-01  0.8811E+00
     15.052  0.6407E-01  0.8875E+00
     15.151  0.6435E-01  0.8938E+00
     15.250  0.6321E-01  0.9001E+00
     15.349  0.6254E-01  0.9063E+00
     15.448  0.6037E-01  0.9123E+00
     15.547  0.5621E-01  0.9178E+00
     15.646  0.5466E-01  0.9232E+00
     15.745  0.5889E-01  0.9291E+00
     15.844  0.6595E-01  0.9356E+00
     15.943  0.6843E-01  0.9424E+00
     16.041  0.6021E-01  0.9483E+00
     16.140  0.4523E-01  0.9528E+00
     16.239  0.3587E-01  0.9563E+00
     16.338  0.3834E-01  0.9601E+00
     16.437  0.4739E-01  0.9648E+00
     16.536  0.5439E-01  0.9702E+00
     16.635  0.5471E-01  0.9756E+00
     16.734  0.5039E-01  0.9806E+00
     16.833  0.4582E-01  0.9851E+00
     16.932  0.4230E-01  0.9893E+00
     17.031  0.4031E-01  0.9933E+00
     17.130  0.3905E-01  0.9972E+00
     17.229  0.3558E-01  0.1001E+01
     17.328  0.3079E-01  0.1004E+01
     17.427  0.2811E-01  0.1007E+01
     17.526  0.2754E-01  0.1009E+01
     17.625  0.2735E-01  0.1012E+01
     17.723  0.2740E-01  0.1015E+01
     17.822  0.2889E-01  0.1018E+01
     17.921  0.3270E-01  0.1021E+01
     18.020  0.3591E-01  0.1024E+01
     18.119  0.3382E-01  0.1028E+01
     18.218  0.2801E-01  0.1030E+01
     18.317  0.2398E-01  0.1033E+01
     18.416  0.2356E-01  0.1035E+01
     18.515  0.2601E-01  0.1038E+01
     18.614  0.2982E-01  0.1041E+01
     18.713  0.3153E-01  0.1044E+01
     18.812  0.2878E-01  0.1047E+01
     18.911  0.2346E-01  0.1049E+01
     19.010  0.1841E-01  0.1051E+01
     19.109  0.1393E-01  0.1052E+01
     19.208  0.1020E-01  0.1053E+01
     19.306  0.9115E-02  0.1054E+01
     19.405  0.1103E-01  0.1055E+01
     19.504  0.1353E-01  0.1056E+01
     19.603  0.1416E-01  0.1058E+01
     19.702  0.1255E-01  0.1059E+01
     19.801  0.1058E-01  0.1060E+01
     19.900  0.9825E-02  0.1061E+01
     19.999  0.9319E-02  0.1062E+01
     20.098  0.8000E-02  0.1063E+01
     20.197  0.7030E-02  0.1064E+01
     20.296  0.7178E-02  0.1064E+01
     20.395  0.6984E-02  0.1065E+01
     20.494  0.5245E-02  0.1065E+01
     20.593  0.2811E-02  0.1066E+01
     20.692  0.1183E-02  0.1066E+01
     20.791  0.8408E-03  0.1066E+01
     20.889  0.1315E-02  0.1066E+01
     20.988  0.1852E-02  0.1066E+01
     21.087  0.1874E-02  0.1066E+01
     21.186  0.1335E-02  0.1067E+01
     21.285  0.6537E-03  0.1067E+01
     21.384  0.2131E-03  0.1067E+01
     21.483  0.4501E-04  0.1067E+01
     21.582  0.6049E-05  0.1067E+01
     21.681  0.5115E-06  0.1067E+01
     21.780  0.2703E-07  0.1067E+01
     21.879  0.8891E-09  0.1067E+01
     21.978  0.1815E-10  0.1067E+01
     22.077  0.2294E-12  0.1067E+01
     22.176  0.1793E-14  0.1067E+01
     22.275  0.8993E-17  0.1067E+01
     22.374  0.0000E+00  0.1067E+01
     22.472  0.0000E+00  0.1067E+01
     22.571  0.0000E+00  0.1067E+01
     22.670  0.0000E+00  0.1067E+01
     22.769  0.0000E+00  0.1067E+01
     22.868  0.0000E+00  0.1067E+01
     22.967  0.0000E+00  0.1067E+01
     23.066  0.0000E+00  0.1067E+01
