   2   2   0   0
  0.1529437E+02  0.3691622E-09  0.3691622E-09  0.3691622E-09  0.5000000E-15
  1.000000000000000E-004
  CAR 
 unknown system                          
     23.06687923     -6.61561900  301      9.15374892      1.00000000
     -6.616  0.0000E+00  0.0000E+00
     -6.517  0.0000E+00  0.0000E+00
     -6.418  0.0000E+00  0.0000E+00
     -6.319  0.0000E+00  0.0000E+00
     -6.220  0.0000E+00  0.0000E+00
     -6.121  0.0000E+00  0.0000E+00
     -6.022  0.0000E+00  0.0000E+00
     -5.923  0.0000E+00  0.0000E+00
     -5.824  0.0000E+00  0.0000E+00
     -5.725  0.2192E-17  0.2169E-18
     -5.626  0.4594E-15  0.4567E-16
     -5.527  0.5943E-13  0.5925E-14
     -5.428  0.4787E-11  0.4796E-12
     -5.329  0.2414E-09  0.2436E-10
     -5.230  0.7677E-08  0.7839E-09
     -5.131  0.1556E-06  0.1618E-07
     -5.033  0.2042E-05  0.2182E-06
     -4.934  0.1769E-04  0.1969E-05
     -4.835  0.1039E-03  0.1225E-04
     -4.736  0.4261E-03  0.5441E-04
     -4.637  0.1260E-02  0.1791E-03
     -4.538  0.2772E-02  0.4534E-03
     -4.439  0.4738E-02  0.9222E-03
     -4.340  0.6785E-02  0.1594E-02
     -4.241  0.8716E-02  0.2456E-02
     -4.142  0.9915E-02  0.3437E-02
     -4.043  0.9862E-02  0.4413E-02
     -3.944  0.9977E-02  0.5400E-02
     -3.845  0.1209E-01  0.6596E-02
     -3.746  0.1526E-01  0.8106E-02
     -3.647  0.1688E-01  0.9776E-02
     -3.548  0.1622E-01  0.1138E-01
     -3.449  0.1490E-01  0.1286E-01
     -3.351  0.1445E-01  0.1428E-01
     -3.252  0.1510E-01  0.1578E-01
     -3.153  0.1678E-01  0.1744E-01
     -3.054  0.1932E-01  0.1935E-01
     -2.955  0.2130E-01  0.2146E-01
     -2.856  0.2117E-01  0.2355E-01
     -2.757  0.2022E-01  0.2555E-01
     -2.658  0.2045E-01  0.2758E-01
     -2.559  0.2074E-01  0.2963E-01
     -2.460  0.2047E-01  0.3165E-01
     -2.361  0.2200E-01  0.3383E-01
     -2.262  0.2577E-01  0.3638E-01
     -2.163  0.2815E-01  0.3916E-01
     -2.064  0.2635E-01  0.4177E-01
     -1.965  0.2254E-01  0.4400E-01
     -1.866  0.2043E-01  0.4602E-01
     -1.767  0.2029E-01  0.4803E-01
     -1.669  0.2117E-01  0.5013E-01
     -1.570  0.2421E-01  0.5252E-01
     -1.471  0.2956E-01  0.5545E-01
     -1.372  0.3424E-01  0.5883E-01
     -1.273  0.3546E-01  0.6234E-01
     -1.174  0.3304E-01  0.6561E-01
     -1.075  0.2943E-01  0.6852E-01
     -0.976  0.2764E-01  0.7126E-01
     -0.877  0.2818E-01  0.7405E-01
     -0.778  0.2921E-01  0.7694E-01
     -0.679  0.2871E-01  0.7978E-01
     -0.580  0.2719E-01  0.8247E-01
     -0.481  0.2755E-01  0.8519E-01
     -0.382  0.3007E-01  0.8817E-01
     -0.283  0.3123E-01  0.9126E-01
     -0.184  0.3102E-01  0.9433E-01
     -0.085  0.3377E-01  0.9767E-01
      0.013  0.3973E-01  0.1016E+00
      0.112  0.4468E-01  0.1060E+00
      0.211  0.4502E-01  0.1105E+00
      0.310  0.3953E-01  0.1144E+00
      0.409  0.3213E-01  0.1176E+00
      0.508  0.2893E-01  0.1204E+00
      0.607  0.3114E-01  0.1235E+00
      0.706  0.3579E-01  0.1271E+00
      0.805  0.3970E-01  0.1310E+00
      0.904  0.4180E-01  0.1351E+00
      1.003  0.4356E-01  0.1394E+00
      1.102  0.4516E-01  0.1439E+00
      1.201  0.4373E-01  0.1482E+00
      1.300  0.3870E-01  0.1520E+00
      1.399  0.3410E-01  0.1554E+00
      1.498  0.3328E-01  0.1587E+00
      1.597  0.3501E-01  0.1622E+00
      1.695  0.3526E-01  0.1657E+00
      1.794  0.3243E-01  0.1689E+00
      1.893  0.2963E-01  0.1718E+00
      1.992  0.3057E-01  0.1748E+00
      2.091  0.3486E-01  0.1783E+00
      2.190  0.3913E-01  0.1822E+00
      2.289  0.4198E-01  0.1863E+00
      2.388  0.4394E-01  0.1907E+00
      2.487  0.4400E-01  0.1950E+00
      2.586  0.4052E-01  0.1990E+00
      2.685  0.3576E-01  0.2026E+00
      2.784  0.3478E-01  0.2060E+00
      2.883  0.3871E-01  0.2098E+00
      2.982  0.4395E-01  0.2142E+00
      3.081  0.4553E-01  0.2187E+00
      3.180  0.4087E-01  0.2227E+00
      3.279  0.3397E-01  0.2261E+00
      3.377  0.3097E-01  0.2292E+00
      3.476  0.3305E-01  0.2324E+00
      3.575  0.3763E-01  0.2361E+00
      3.674  0.4269E-01  0.2404E+00
      3.773  0.4687E-01  0.2450E+00
      3.872  0.4802E-01  0.2498E+00
      3.971  0.4575E-01  0.2543E+00
      4.070  0.4324E-01  0.2586E+00
      4.169  0.4334E-01  0.2628E+00
      4.268  0.4632E-01  0.2674E+00
      4.367  0.5108E-01  0.2725E+00
      4.466  0.5508E-01  0.2779E+00
      4.565  0.5361E-01  0.2832E+00
      4.664  0.4558E-01  0.2877E+00
      4.763  0.3771E-01  0.2915E+00
      4.862  0.3635E-01  0.2951E+00
      4.961  0.4105E-01  0.2991E+00
      5.059  0.4771E-01  0.3039E+00
      5.158  0.5201E-01  0.3090E+00
      5.257  0.5358E-01  0.3143E+00
      5.356  0.5664E-01  0.3199E+00
      5.455  0.6238E-01  0.3261E+00
      5.554  0.6756E-01  0.3328E+00
      5.653  0.6815E-01  0.3395E+00
      5.752  0.6053E-01  0.3455E+00
      5.851  0.4755E-01  0.3502E+00
      5.950  0.3779E-01  0.3539E+00
      6.049  0.3510E-01  0.3574E+00
      6.148  0.3773E-01  0.3611E+00
      6.247  0.4416E-01  0.3655E+00
      6.346  0.5306E-01  0.3708E+00
      6.445  0.6292E-01  0.3770E+00
      6.544  0.7145E-01  0.3841E+00
      6.643  0.7285E-01  0.3913E+00
      6.742  0.6483E-01  0.3977E+00
      6.840  0.5665E-01  0.4033E+00
      6.939  0.5794E-01  0.4090E+00
      7.038  0.6454E-01  0.4154E+00
      7.137  0.6666E-01  0.4220E+00
      7.236  0.6347E-01  0.4283E+00
      7.335  0.6149E-01  0.4344E+00
      7.434  0.6311E-01  0.4406E+00
      7.533  0.6279E-01  0.4468E+00
      7.632  0.5835E-01  0.4526E+00
      7.731  0.5745E-01  0.4583E+00
      7.830  0.6469E-01  0.4647E+00
      7.929  0.7324E-01  0.4719E+00
      8.028  0.7354E-01  0.4792E+00
      8.127  0.6432E-01  0.4856E+00
      8.226  0.5343E-01  0.4909E+00
      8.325  0.4769E-01  0.4956E+00
      8.424  0.4617E-01  0.5001E+00
      8.522  0.4560E-01  0.5047E+00
      8.621  0.4483E-01  0.5091E+00
      8.720  0.4382E-01  0.5134E+00
      8.819  0.4361E-01  0.5177E+00
      8.918  0.4437E-01  0.5221E+00
      9.017  0.4555E-01  0.5266E+00
      9.116  0.4827E-01  0.5314E+00
      9.215  0.5217E-01  0.5366E+00
      9.314  0.5446E-01  0.5420E+00
      9.413  0.5373E-01  0.5473E+00
      9.512  0.5123E-01  0.5523E+00
      9.611  0.4923E-01  0.5572E+00
      9.710  0.4803E-01  0.5620E+00
      9.809  0.4653E-01  0.5666E+00
      9.908  0.4408E-01  0.5709E+00
     10.007  0.3965E-01  0.5749E+00
     10.106  0.3339E-01  0.5782E+00
     10.204  0.2829E-01  0.5810E+00
     10.303  0.2867E-01  0.5838E+00
     10.402  0.3645E-01  0.5874E+00
     10.501  0.4756E-01  0.5921E+00
     10.600  0.5638E-01  0.5977E+00
     10.699  0.6189E-01  0.6038E+00
     10.798  0.6454E-01  0.6102E+00
     10.897  0.6383E-01  0.6165E+00
     10.996  0.6140E-01  0.6226E+00
     11.095  0.5958E-01  0.6285E+00
     11.194  0.5874E-01  0.6343E+00
     11.293  0.5965E-01  0.6402E+00
     11.392  0.6375E-01  0.6465E+00
     11.491  0.6996E-01  0.6534E+00
     11.590  0.7337E-01  0.6607E+00
     11.689  0.6887E-01  0.6675E+00
     11.788  0.5806E-01  0.6732E+00
     11.886  0.4819E-01  0.6780E+00
     11.985  0.4270E-01  0.6822E+00
     12.084  0.4093E-01  0.6863E+00
     12.183  0.4240E-01  0.6905E+00
     12.282  0.4745E-01  0.6952E+00
     12.381  0.5838E-01  0.7010E+00
     12.480  0.7442E-01  0.7083E+00
     12.579  0.8565E-01  0.7168E+00
     12.678  0.8320E-01  0.7250E+00
     12.777  0.7255E-01  0.7322E+00
     12.876  0.6535E-01  0.7387E+00
     12.975  0.6462E-01  0.7451E+00
     13.074  0.6758E-01  0.7517E+00
     13.173  0.7187E-01  0.7589E+00
     13.272  0.7495E-01  0.7663E+00
     13.371  0.7559E-01  0.7738E+00
     13.470  0.7342E-01  0.7810E+00
     13.568  0.6800E-01  0.7877E+00
     13.667  0.6192E-01  0.7939E+00
     13.766  0.6042E-01  0.7998E+00
     13.865  0.6632E-01  0.8064E+00
     13.964  0.7762E-01  0.8141E+00
     14.063  0.8835E-01  0.8228E+00
     14.162  0.9125E-01  0.8319E+00
     14.261  0.8354E-01  0.8401E+00
     14.360  0.7087E-01  0.8471E+00
     14.459  0.6121E-01  0.8532E+00
     14.558  0.5630E-01  0.8588E+00
     14.657  0.5407E-01  0.8641E+00
     14.756  0.5437E-01  0.8695E+00
     14.855  0.5719E-01  0.8752E+00
     14.954  0.6108E-01  0.8812E+00
     15.053  0.6409E-01  0.8875E+00
     15.152  0.6434E-01  0.8939E+00
     15.250  0.6320E-01  0.9002E+00
     15.349  0.6254E-01  0.9063E+00
     15.448  0.6034E-01  0.9123E+00
     15.547  0.5618E-01  0.9179E+00
     15.646  0.5467E-01  0.9233E+00
     15.745  0.5895E-01  0.9291E+00
     15.844  0.6600E-01  0.9356E+00
     15.943  0.6841E-01  0.9424E+00
     16.042  0.6009E-01  0.9484E+00
     16.141  0.4510E-01  0.9528E+00
     16.240  0.3584E-01  0.9564E+00
     16.339  0.3841E-01  0.9602E+00
     16.438  0.4748E-01  0.9649E+00
     16.537  0.5442E-01  0.9703E+00
     16.636  0.5468E-01  0.9757E+00
     16.735  0.5035E-01  0.9806E+00
     16.834  0.4579E-01  0.9852E+00
     16.932  0.4227E-01  0.9894E+00
     17.031  0.4030E-01  0.9933E+00
     17.130  0.3903E-01  0.9972E+00
     17.229  0.3554E-01  0.1001E+01
     17.328  0.3075E-01  0.1004E+01
     17.427  0.2810E-01  0.1007E+01
     17.526  0.2754E-01  0.1009E+01
     17.625  0.2735E-01  0.1012E+01
     17.724  0.2740E-01  0.1015E+01
     17.823  0.2891E-01  0.1018E+01
     17.922  0.3274E-01  0.1021E+01
     18.021  0.3592E-01  0.1024E+01
     18.120  0.3377E-01  0.1028E+01
     18.219  0.2794E-01  0.1030E+01
     18.318  0.2393E-01  0.1033E+01
     18.417  0.2355E-01  0.1035E+01
     18.516  0.2605E-01  0.1038E+01
     18.615  0.2986E-01  0.1041E+01
     18.713  0.3154E-01  0.1044E+01
     18.812  0.2874E-01  0.1047E+01
     18.911  0.2342E-01  0.1049E+01
     19.010  0.1837E-01  0.1051E+01
     19.109  0.1389E-01  0.1052E+01
     19.208  0.1017E-01  0.1053E+01
     19.307  0.9121E-02  0.1054E+01
     19.406  0.1106E-01  0.1055E+01
     19.505  0.1355E-01  0.1056E+01
     19.604  0.1416E-01  0.1058E+01
     19.703  0.1252E-01  0.1059E+01
     19.802  0.1056E-01  0.1060E+01
     19.901  0.9822E-02  0.1061E+01
     20.000  0.9309E-02  0.1062E+01
     20.099  0.7984E-02  0.1063E+01
     20.198  0.7026E-02  0.1064E+01
     20.297  0.7180E-02  0.1064E+01
     20.395  0.6974E-02  0.1065E+01
     20.494  0.5220E-02  0.1065E+01
     20.593  0.2788E-02  0.1066E+01
     20.692  0.1173E-02  0.1066E+01
     20.791  0.8421E-03  0.1066E+01
     20.890  0.1320E-02  0.1066E+01
     20.989  0.1853E-02  0.1066E+01
     21.088  0.1870E-02  0.1066E+01
     21.187  0.1329E-02  0.1067E+01
     21.286  0.6498E-03  0.1067E+01
     21.385  0.2114E-03  0.1067E+01
     21.484  0.4456E-04  0.1067E+01
     21.583  0.5976E-05  0.1067E+01
     21.682  0.5041E-06  0.1067E+01
     21.781  0.2657E-07  0.1067E+01
     21.880  0.8717E-09  0.1067E+01
     21.979  0.1774E-10  0.1067E+01
     22.077  0.2237E-12  0.1067E+01
     22.176  0.1744E-14  0.1067E+01
     22.275  0.8543E-17  0.1067E+01
     22.374  0.0000E+00  0.1067E+01
     22.473  0.0000E+00  0.1067E+01
     22.572  0.0000E+00  0.1067E+01
     22.671  0.0000E+00  0.1067E+01
     22.770  0.0000E+00  0.1067E+01
     22.869  0.0000E+00  0.1067E+01
     22.968  0.0000E+00  0.1067E+01
     23.067  0.0000E+00  0.1067E+01
