    2    2   15    1
  0.1529437E+02  0.3691622E-09  0.3691622E-09  0.3691622E-09  0.5000000E-15
  1.000000000000000E-004
  CAR 
 unknown system                          
      8    126      8
 
  0.0000000E+00  0.0000000E+00  0.0000000E+00  0.7513148E-03
    1       -4.637232   1.000000
    2        6.409919   1.000000
    3        6.409945   1.000000
    4        6.576519   1.000000
    5       10.695416   0.000000
    6       16.913670   0.000000
    7       17.579594   0.000000
    8       17.579626   0.000000
 
  0.9090909E-01 -0.1249769E-17  0.1249769E-17  0.6010518E-02
    1       -4.412688   1.000000
    2        5.653387   1.000000
    3        6.347301   1.000000
    4        7.727244   1.000000
    5       11.181068   0.000000
    6       15.519333   0.000000
    7       16.243382   0.000000
    8       17.446737   0.000000
 
  0.1818182E+00 -0.2499539E-17  0.2499539E-17  0.6010518E-02
    1       -3.740643   1.000000
    2        5.226278   1.000000
    3        6.300926   1.000000
    4        9.237408   0.104089
    5       12.446369   0.000000
    6       12.939816   0.000000
    7       13.613191   0.000000
    8       15.777103   0.000000
 
  0.2727273E+00 -0.2456599E-16  0.2456599E-16  0.6010518E-02
    1       -2.626771   1.000000
    2        5.209244   1.000000
    3        6.453303   1.000000
    4        9.020858   0.607437
    5       11.296228   0.000000
    6       11.979312   0.000000
    7       13.386084   0.000000
    8       14.590517   0.000000
 
  0.3636364E+00 -0.4999077E-17  0.4999077E-17  0.6010518E-02
    1       -1.083489   1.000000
    2        5.404890   1.000000
    3        6.352788   1.000000
    4        6.864985   1.000000
    5        9.449299   0.002918
    6       11.819854   0.000000
    7       13.652855   0.000000
    8       13.939046   0.000000
 
  0.4545455E+00 -0.5101859E-16 -0.4492561E-17  0.6010518E-02
    1        0.850411   1.000000
    2        3.322174   1.000000
    3        6.518570   1.000000
    4        7.370118   1.000000
    5        7.900241   1.000000
    6       10.565233   0.000000
    7       13.460481   0.000000
    8       14.540740   0.000000
 
  0.9090909E-01  0.9090909E-01  0.6302053E-17  0.6010518E-02
    1       -3.840593   1.000000
    2        5.517712   1.000000
    3        7.076412   1.000000
    4        8.329438   1.000000
    5       11.981597   0.000000
    6       13.479821   0.000000
    7       13.517010   0.000000
    8       16.115210   0.000000
 
  0.1818182E+00  0.9090909E-01 -0.1326486E-16  0.1202104E-01
    1       -2.825319   1.000000
    2        5.473841   1.000000
    3        7.482916   1.000000
    4        9.254515   0.083861
    5       10.809754   0.000000
    6       11.195303   0.000000
    7       13.382875   0.000000
    8       14.455615   0.000000
 
  0.2727273E+00  0.9090909E-01  0.1260411E-16  0.1202104E-01
    1       -1.377425   1.000000
    2        5.725104   1.000000
    3        6.845446   1.000000
    4        7.747023   1.000000
    5        9.114489   0.348480
    6       11.945861   0.000000
    7       12.392082   0.000000
    8       13.903459   0.000000
 
  0.3636364E+00  0.9090909E-01  0.3112467E-17  0.1202104E-01
    1        0.477221   1.000000
    2        3.963311   1.000000
    3        6.564601   1.000000
    4        6.803457   1.000000
    5        8.606620   0.999317
    6       10.856270   0.000000
    7       12.686418   0.000000
    8       15.064943   0.000000
 
  0.4545455E+00  0.9090909E-01 -0.2652972E-16  0.1202104E-01
    1        1.389860   1.000000
    2        2.879991   1.000000
    3        5.561524   1.000000
    4        7.268219   1.000000
    5        8.433185   0.999995
    6       11.146963   0.000000
    7       12.553037   0.000000
    8       15.528840   0.000000
 
 -0.4545455E+00  0.9090909E-01 -0.1715602E-16  0.1202104E-01
    1       -0.594662   1.000000
    2        4.426805   1.000000
    3        5.651422   1.000000
    4        6.949203   1.000000
    5        9.465477   0.002044
    6       12.269249   0.000000
    7       12.962669   0.000000
    8       14.841197   0.000000
 
 -0.3636364E+00  0.9090909E-01  0.3189586E-17  0.1202104E-01
    1       -2.230629   1.000000
    2        4.000459   1.000000
    3        6.429755   1.000000
    4        8.540328   0.999879
    5       11.123343   0.000000
    6       12.698950   0.000000
    7       13.299117   0.000000
    8       14.494104   0.000000
 
 -0.2727273E+00  0.9090909E-01  0.1302975E-17  0.1202104E-01
    1       -3.441068   1.000000
    2        3.897182   1.000000
    3        6.273579   1.000000
    4       10.079736   0.000000
    5       12.296771   0.000000
    6       12.972411   0.000000
    7       13.828625   0.000000
    8       15.015559   0.000000
 
 -0.1818182E+00  0.9090909E-01  0.7590381E-17  0.1202104E-01
    1       -4.212156   1.000000
    2        4.199481   1.000000
    3        6.382685   1.000000
    4        8.711823   0.993011
    5       12.306549   0.000000
    6       14.194847   0.000000
    7       15.776480   0.000000
    8       16.850501   0.000000
 
 -0.9090909E-01  0.9090909E-01  0.1699965E-18  0.3005259E-02
    1       -4.536761   1.000000
    2        4.879003   1.000000
    3        6.503157   1.000000
    4        7.737146   1.000000
    5       11.330200   0.000000
    6       15.484398   0.000000
    7       16.925855   0.000000
    8       18.644213   0.000000
 
  0.1818182E+00  0.1818182E+00  0.1260411E-16  0.6010518E-02
    1       -1.475475   1.000000
    2        5.739187   1.000000
    3        7.438782   1.000000
    4        7.647204   1.000000
    5        9.466502   0.001998
    6       11.351173   0.000000
    7       12.731713   0.000000
    8       12.981404   0.000000
 
  0.2727273E+00  0.1818182E+00  0.3086804E-16  0.1202104E-01
    1        0.288868   1.000000
    2        4.775452   1.000000
    3        5.739623   1.000000
    4        6.516870   1.000000
    5        9.614912   0.000043
    6       11.418854   0.000000
    7       12.212778   0.000000
    8       13.716375   0.000000
 
  0.3636364E+00  0.1818182E+00 -0.2652972E-16  0.1202104E-01
    1        1.981376   1.000000
    2        2.742790   1.000000
    3        4.383502   1.000000
    4        7.279548   1.000000
    5        8.993818   0.678622
    6       11.117903   0.000000
    7       12.789790   0.000000
    8       15.975214   0.000000
 
  0.4545455E+00  0.1818182E+00 -0.6607546E-18  0.1202104E-01
    1        0.084802   1.000000
    2        3.176934   1.000000
    3        5.219338   1.000000
    4        7.427554   1.000000
    5        9.243309   0.096746
    6       11.370471   0.000000
    7       13.998767   0.000000
    8       15.747626   0.000000
 
 -0.4545455E+00  0.1818182E+00 -0.2664766E-16  0.1202104E-01
    1       -1.638580   1.000000
    2        2.582111   1.000000
    3        6.872345   1.000000
    4        8.156992   1.000000
    5       10.454297   0.000000
    6       12.318729   0.000000
    7       13.440433   0.000000
    8       15.720413   0.000000
 
 -0.3636364E+00  0.1818182E+00  0.1518076E-16  0.1202104E-01
    1       -2.943208   1.000000
    2        2.375132   1.000000
    3        6.688749   1.000000
    4       10.491773   0.000000
    5       11.524827   0.000000
    6       12.379664   0.000000
    7       14.078379   0.000000
    8       16.169416   0.000000
 
 -0.2727273E+00  0.1818182E+00 -0.1322630E-16  0.1202104E-01
    1       -3.811819   1.000000
    2        2.587345   1.000000
    3        6.741723   1.000000
    4        9.416564   0.005778
    5       12.703187   0.000000
    6       14.175582   0.000000
    7       15.059512   0.000000
    8       16.096913   0.000000
 
 -0.1818182E+00  0.1818182E+00  0.3399929E-18  0.3005259E-02
    1       -4.235964   1.000000
    2        3.210130   1.000000
    3        6.782197   1.000000
    4        8.527161   0.999916
    5       12.997872   0.000000
    6       13.830263   0.000000
    7       15.659329   0.000000
    8       18.351399   0.000000
 
  0.2727273E+00  0.2727273E+00 -0.6379172E-17  0.6010518E-02
    1        2.181048   1.000000
    2        3.187447   1.000000
    3        3.485259   1.000000
    4        7.271662   1.000000
    5        9.434742   0.003978
    6       10.528762   0.000000
    7       14.034825   0.000000
    8       14.844740   0.000000
 
  0.3636364E+00  0.2727273E+00 -0.3602136E-16  0.1202104E-01
    1        0.949461   1.000000
    2        1.990962   1.000000
    3        5.019412   1.000000
    4        7.918855   1.000000
    5        9.025506   0.594748
    6       10.622602   0.000000
    7       15.382462   0.000000
    8       16.229003   0.000000
 
  0.4545455E+00  0.2727273E+00  0.2520821E-16  0.1202104E-01
    1       -0.853514   1.000000
    2        1.270864   1.000000
    3        7.408448   1.000000
    4        8.027543   1.000000
    5        9.581279   0.000112
    6       11.795471   0.000000
    7       14.198004   0.000000
    8       16.035453   0.000000
 
 -0.4545455E+00  0.2727273E+00  0.1937185E-16  0.1202104E-01
    1       -2.249156   1.000000
    2        0.963253   1.000000
    3        7.317152   1.000000
    4       10.104052   0.000000
    5       10.959455   0.000000
    6       12.477354   0.000000
    7       13.721978   0.000000
    8       15.170580   0.000000
 
 -0.3636364E+00  0.2727273E+00 -0.1702881E-16  0.1202104E-01
    1       -3.213347   1.000000
    2        1.084725   1.000000
    3        7.298992   1.000000
    4       10.105623   0.000000
    5       11.321696   0.000000
    6       13.959512   0.000000
    7       15.410566   0.000000
    8       15.916900   0.000000
 
 -0.2727273E+00  0.2727273E+00 -0.1434744E-16  0.3005259E-02
    1       -3.736014   1.000000
    2        1.631020   1.000000
    3        7.247187   1.000000
    4        9.190873   0.176304
    5       12.305196   0.000000
    6       14.303148   0.000000
    7       15.178122   0.000000
    8       18.075662   0.000000
 
  0.3636364E+00  0.3636364E+00  0.2520821E-16  0.6010518E-02
    1        0.111250   1.000000
    2        0.127772   1.000000
    3        7.575045   1.000000
    4        8.339062   1.000000
    5        8.919160   0.839341
    6       11.638937   0.000000
    7       14.758436   0.000000
    8       15.553347   0.000000
 
  0.4545455E+00  0.3636364E+00 -0.3979458E-16  0.1202104E-01
    1       -1.362407   1.000000
    2       -0.288063   1.000000
    3        8.130089   1.000000
    4        9.087839   0.420357
    5       10.875272   0.000000
    6       13.021614   0.000000
    7       13.542663   0.000000
    8       14.209208   0.000000
 
 -0.4545455E+00  0.3636364E+00 -0.1340671E-16  0.1202104E-01
    1       -2.419313   1.000000
    2       -0.262379   1.000000
    3        8.039794   1.000000
    4       10.056939   0.000000
    5       10.900063   0.000000
    6       12.865473   0.000000
    7       15.135044   0.000000
    8       15.872256   0.000000
 
 -0.3636364E+00  0.3636364E+00  0.6799859E-18  0.3005259E-02
    1       -3.038433   1.000000
    2        0.196886   1.000000
    3        7.898565   1.000000
    4        9.926963   0.000000
    5       10.949150   0.000000
    6       13.013660   0.000000
    7       17.451778   0.000000
    8       17.877936   0.000000
 
  0.4545455E+00  0.4545455E+00 -0.4928622E-16  0.6010518E-02
    1       -1.434343   1.000000
    2       -1.433127   1.000000
    3        8.954315   0.771311
    4        8.976412   0.721372
    5       11.743848   0.000000
    6       11.901142   0.000000
    7       15.039321   0.000000
    8       15.808655   0.000000
 
 -0.4545455E+00  0.4545455E+00 -0.2152036E-17  0.3005259E-02
    1       -2.146843   1.000000
    2       -1.066006   1.000000
    3        8.732389   0.989623
    4        9.755883   0.000000
    5       10.807136   0.000000
    6       11.840504   0.000000
    7       17.793231   0.000000
    8       17.841363   0.000000
 
  0.9090909E-01  0.9090909E-01  0.9090909E-01  0.6010518E-02
    1       -3.540746   1.000000
    2        3.868336   1.000000
    3        7.344491   1.000000
    4        9.099884   0.387381
    5       12.535213   0.000000
    6       13.052921   0.000000
    7       13.855346   0.000000
    8       15.547611   0.000000
 
  0.1818182E+00  0.9090909E-01  0.9090909E-01  0.1202104E-01
    1       -2.428137   1.000000
    2        3.901976   1.000000
    3        7.760650   1.000000
    4        9.174857   0.207167
    5       10.612912   0.000000
    6       11.208346   0.000000
    7       14.371116   0.000000
    8       15.000925   0.000000
 
  0.2727273E+00  0.9090909E-01  0.9090909E-01  0.1202104E-01
    1       -0.886828   1.000000
    2        4.306923   1.000000
    3        6.285379   1.000000
    4        7.734515   1.000000
    5        9.269825   0.068399
    6       12.755134   0.000000
    7       13.366316   0.000000
    8       14.089054   0.000000
 
  0.3636364E+00  0.9090909E-01  0.9090909E-01  0.1202104E-01
    1        1.044710   1.000000
    2        3.487355   1.000000
    3        5.267388   1.000000
    4        6.485456   1.000000
    5        9.479968   0.001471
    6       11.743494   0.000000
    7       13.673025   0.000000
    8       14.464526   0.000000
 
 -0.9090909E-01  0.9090909E-01  0.9090909E-01  0.3005259E-02
    1       -4.436555   1.000000
    2        4.580729   1.000000
    3        5.693233   1.000000
    4        8.733560   0.989393
    5       11.798478   0.000000
    6       14.319423   0.000000
    7       17.747506   0.000000
    8       18.038778   0.000000
 
  0.1818182E+00  0.1818182E+00  0.9090909E-01  0.6010518E-02
    1       -0.984292   1.000000
    2        4.244662   1.000000
    3        7.023189   1.000000
    4        7.167807   1.000000
    5       10.000926   0.000000
    6       11.944253   0.000000
    7       13.917291   0.000000
    8       14.024990   0.000000
 
  0.2727273E+00  0.1818182E+00  0.9090909E-01  0.1202104E-01
    1        0.863668   1.000000
    2        4.247342   1.000000
    3        5.027797   1.000000
    4        5.544378   1.000000
    5       10.640644   0.000000
    6       12.688782   0.000000
    7       13.147695   0.000000
    8       14.254761   0.000000
 
  0.3636364E+00  0.1818182E+00  0.9090909E-01  0.1202104E-01
    1        1.775794   1.000000
    2        3.157414   1.000000
    3        4.096746   1.000000
    4        6.264487   1.000000
    5       10.305485   0.000000
    6       12.418274   0.000000
    7       13.512348   0.000000
    8       15.228222   0.000000
 
  0.4545455E+00  0.1818182E+00  0.9090909E-01  0.1202104E-01
    1       -0.202191   1.000000
    2        2.945598   1.000000
    3        5.919782   1.000000
    4        7.625931   1.000000
    5        9.723463   0.000001
    6       12.665399   0.000000
    7       13.642763   0.000000
    8       14.862616   0.000000
 
 -0.4545455E+00  0.1818182E+00  0.9090909E-01  0.1202104E-01
    1       -1.834334   1.000000
    2        2.422385   1.000000
    3        8.106236   1.000000
    4        8.946701   0.787278
    5       10.365322   0.000000
    6       11.677091   0.000000
    7       13.258011   0.000000
    8       15.122538   0.000000
 
 -0.3636364E+00  0.1818182E+00  0.9090909E-01  0.6010518E-02
    1       -3.042294   1.000000
    2        2.299893   1.000000
    3        7.789269   1.000000
    4        9.722423   0.000001
    5       11.850350   0.000000
    6       12.635846   0.000000
    7       14.150203   0.000000
    8       14.915840   0.000000
 
 -0.1818182E+00  0.1818182E+00  0.9090909E-01  0.6010518E-02
    1       -4.136093   1.000000
    2        3.239821   1.000000
    3        5.660348   1.000000
    4        9.722694   0.000001
    5       12.707415   0.000000
    6       13.248419   0.000000
    7       16.712364   0.000000
    8       18.285392   0.000000
 
 -0.9090909E-01  0.1818182E+00  0.9090909E-01  0.6010518E-02
    1       -4.012041   1.000000
    2        3.924545   1.000000
    3        5.241985   1.000000
    4       10.072324   0.000000
    5       12.773407   0.000000
    6       13.044312   0.000000
    7       15.266364   0.000000
    8       17.389467   0.000000
 
  0.2727273E+00  0.2727273E+00  0.9090909E-01  0.6010518E-02
    1        2.455738   1.000000
    2        2.797527   1.000000
    3        3.515043   1.000000
    4        6.186628   1.000000
    5       10.893460   0.000000
    6       11.862941   0.000000
    7       14.721094   0.000000
    8       14.901984   0.000000
 
  0.3636364E+00  0.2727273E+00  0.9090909E-01  0.1202104E-01
    1        0.670377   1.000000
    2        1.724518   1.000000
    3        5.737785   1.000000
    4        7.534953   1.000000
    5       10.390586   0.000000
    6       11.644420   0.000000
    7       14.344427   0.000000
    8       15.497397   0.000000
 
  0.4545455E+00  0.2727273E+00  0.9090909E-01  0.1202104E-01
    1       -1.046735   1.000000
    2        1.091064   1.000000
    3        8.324879   1.000000
    4        8.870708   0.908958
    5       10.370074   0.000000
    6       11.977920   0.000000
    7       12.530354   0.000000
    8       14.314477   0.000000
 
 -0.4545455E+00  0.2727273E+00  0.9090909E-01  0.6010518E-02
    1       -2.346952   1.000000
    2        0.875177   1.000000
    3        8.395999   0.999999
    4       10.321795   0.000000
    5       11.094416   0.000000
    6       12.297926   0.000000
    7       13.358851   0.000000
    8       13.883267   0.000000
 
 -0.2727273E+00  0.2727273E+00  0.9090909E-01  0.6010518E-02
    1       -3.636558   1.000000
    2        1.706484   1.000000
    3        6.085959   1.000000
    4       10.461052   0.000000
    5       11.188550   0.000000
    6       15.341531   0.000000
    7       15.446246   0.000000
    8       17.900615   0.000000
 
 -0.1818182E+00  0.2727273E+00  0.9090909E-01  0.1202104E-01
    1       -3.612730   1.000000
    2        2.689343   1.000000
    3        5.218520   1.000000
    4       11.024319   0.000000
    5       11.272014   0.000000
    6       14.442320   0.000000
    7       14.957792   0.000000
    8       17.209665   0.000000
 
 -0.9090909E-01  0.2727273E+00  0.9090909E-01  0.6010518E-02
    1       -3.142638   1.000000
    2        3.689766   1.000000
    3        5.115516   1.000000
    4       10.634676   0.000000
    5       11.669010   0.000000
    6       12.782470   0.000000
    7       14.620378   0.000000
    8       15.147884   0.000000
 
  0.3636364E+00  0.3636364E+00  0.9090909E-01  0.6010518E-02
    1       -0.071808   1.000000
    2       -0.066376   1.000000
    3        8.354714   1.000000
    4        8.906204   0.860677
    5       10.562943   0.000000
    6       11.476460   0.000000
    7       13.054222   0.000000
    8       13.611303   0.000000
 
  0.4545455E+00  0.3636364E+00  0.9090909E-01  0.6010518E-02
    1       -1.458610   1.000000
    2       -0.381976   1.000000
    3        9.146223   0.269666
    4        9.982377   0.000000
    5       11.283299   0.000000
    6       11.912656   0.000000
    7       12.977056   0.000000
    8       13.117640   0.000000
 
 -0.3636364E+00  0.3636364E+00  0.9090909E-01  0.6010518E-02
    1       -2.939865   1.000000
    2        0.286226   1.000000
    3        6.733864   1.000000
    4        9.819042   0.000000
    5       11.219133   0.000000
    6       14.217889   0.000000
    7       17.311284   0.000000
    8       17.729384   0.000000
 
 -0.2727273E+00  0.3636364E+00  0.9090909E-01  0.1202104E-01
    1       -3.015866   1.000000
    2        1.247744   1.000000
    3        5.716112   1.000000
    4        9.784751   0.000000
    5       11.806265   0.000000
    6       14.224930   0.000000
    7       16.372522   0.000000
    8       16.658353   0.000000
 
 -0.1818182E+00  0.3636364E+00  0.9090909E-01  0.1202104E-01
    1       -2.646821   1.000000
    2        2.561507   1.000000
    3        5.138923   1.000000
    4        9.920041   0.000000
    5       10.797374   0.000000
    6       13.490579   0.000000
    7       14.940602   0.000000
    8       16.398441   0.000000
 
 -0.9090909E-01  0.3636364E+00  0.9090909E-01  0.6010518E-02
    1       -1.836446   1.000000
    2        3.869583   1.000000
    3        5.350907   1.000000
    4        7.952443   1.000000
    5       10.579761   0.000000
    6       13.074027   0.000000
    7       14.279943   0.000000
    8       14.434106   0.000000
 
 -0.4545455E+00  0.4545455E+00  0.9090909E-01  0.6010518E-02
    1       -2.049831   1.000000
    2       -0.971476   1.000000
    3        7.576909   1.000000
    4        8.604861   0.999346
    5       12.083869   0.000000
    6       13.086713   0.000000
    7       17.469787   0.000000
    8       17.537257   0.000000
 
 -0.3636364E+00  0.4545455E+00  0.9090909E-01  0.1202104E-01
    1       -2.224579   1.000000
    2       -0.080397   1.000000
    3        6.450337   1.000000
    4        8.499882   0.999962
    5       12.463092   0.000000
    6       13.926738   0.000000
    7       15.480176   0.000000
    8       16.867519   0.000000
 
 -0.2727273E+00  0.4545455E+00  0.9090909E-01  0.1202104E-01
    1       -1.956015   1.000000
    2        1.219407   1.000000
    3        5.712850   1.000000
    4        8.696148   0.994896
    5       10.431877   0.000000
    6       14.230718   0.000000
    7       14.746337   0.000000
    8       17.015563   0.000000
 
 -0.1818182E+00  0.4545455E+00  0.9090909E-01  0.1202104E-01
    1       -1.248321   1.000000
    2        2.853358   1.000000
    3        5.435300   1.000000
    4        7.508801   1.000000
    5        9.380937   0.011498
    6       12.960448   0.000000
    7       15.035477   0.000000
    8       15.751379   0.000000
 
 -0.9090909E-01  0.4545455E+00  0.9090909E-01  0.6010518E-02
    1       -0.110892   1.000000
    2        4.263511   1.000000
    3        5.282484   1.000000
    4        5.951200   1.000000
    5        9.609190   0.000051
    6       11.833801   0.000000
    7       12.584437   0.000000
    8       16.278531   0.000000
 
 -0.4545455E+00 -0.4545455E+00  0.9090909E-01  0.6010518E-02
    1       -1.245342   1.000000
    2       -1.241605   1.000000
    3        7.380806   1.000000
    4        7.383877   1.000000
    5       12.830348   0.000000
    6       13.769756   0.000000
    7       15.075088   0.000000
    8       16.822954   0.000000
 
 -0.3636364E+00 -0.4545455E+00  0.9090909E-01  0.1202104E-01
    1       -1.075058   1.000000
    2       -0.010895   1.000000
    3        6.526762   1.000000
    4        7.533238   1.000000
    5       10.260700   0.000000
    6       14.596765   0.000000
    7       15.039056   0.000000
    8       16.183664   0.000000
 
 -0.2727273E+00 -0.4545455E+00  0.9090909E-01  0.1202104E-01
    1       -0.469725   1.000000
    2        1.618345   1.000000
    3        6.054165   1.000000
    4        7.218115   1.000000
    5        8.228572   1.000000
    6       12.766824   0.000000
    7       16.020715   0.000000
    8       16.931285   0.000000
 
 -0.1818182E+00 -0.4545455E+00  0.9090909E-01  0.1202104E-01
    1        0.560057   1.000000
    2        3.474964   1.000000
    3        4.747566   1.000000
    4        6.172804   1.000000
    5        8.836525   0.942496
    6       11.418134   0.000000
    7       13.626924   0.000000
    8       17.182235   0.000000
 
 -0.9090909E-01 -0.4545455E+00  0.9090909E-01  0.6010518E-02
    1        1.790492   1.000000
    2        2.577298   1.000000
    3        5.660916   1.000000
    4        6.838330   1.000000
    5        8.626015   0.998910
    6       11.251061   0.000000
    7       11.362007   0.000000
    8       16.544748   0.000000
 
 -0.3636364E+00 -0.3636364E+00  0.9090909E-01  0.6010518E-02
    1        0.477403   1.000000
    2        0.506155   1.000000
    3        6.680704   1.000000
    4        6.972622   1.000000
    5        7.578661   1.000000
    6       12.691492   0.000000
    7       16.560929   0.000000
    8       17.478657   0.000000
 
 -0.2727273E+00 -0.3636364E+00  0.9090909E-01  0.1202104E-01
    1        1.406672   1.000000
    2        2.412313   1.000000
    3        4.492600   1.000000
    4        6.889352   1.000000
    5        7.843758   1.000000
    6       11.207962   0.000000
    7       15.112062   0.000000
    8       16.727030   0.000000
 
 -0.1818182E+00 -0.3636364E+00  0.9090909E-01  0.1202104E-01
    1        1.858501   1.000000
    2        2.968464   1.000000
    3        4.839248   1.000000
    4        7.100091   1.000000
    5        8.489427   0.999972
    6       10.536662   0.000000
    7       12.317556   0.000000
    8       15.692757   0.000000
 
 -0.9090909E-01 -0.3636364E+00  0.9090909E-01  0.6010518E-02
    1        0.095111   1.000000
    2        4.610144   1.000000
    3        6.986519   1.000000
    4        7.668137   1.000000
    5        7.873007   1.000000
    6       10.730142   0.000000
    7       11.503513   0.000000
    8       14.477616   0.000000
 
 -0.2727273E+00 -0.2727273E+00  0.9090909E-01  0.6010518E-02
    1        1.812069   1.000000
    2        3.737542   1.000000
    3        3.907441   1.000000
    4        7.572481   1.000000
    5        8.076706   1.000000
    6       10.270443   0.000000
    7       13.517612   0.000000
    8       14.444760   0.000000
 
 -0.1818182E+00 -0.2727273E+00  0.9090909E-01  0.1202104E-01
    1       -0.096704   1.000000
    2        5.414920   1.000000
    3        6.331693   1.000000
    4        7.572823   1.000000
    5        8.634624   0.998667
    6       10.535176   0.000000
    7       11.610220   0.000000
    8       13.130289   0.000000
 
 -0.9090909E-01 -0.2727273E+00  0.9090909E-01  0.6010518E-02
    1       -1.672703   1.000000
    2        6.870829   1.000000
    3        7.630455   1.000000
    4        7.783849   1.000000
    5        9.008823   0.639732
    6       11.284876   0.000000
    7       11.618251   0.000000
    8       13.064950   0.000000
 
 -0.1818182E+00 -0.1818182E+00  0.9090909E-01  0.6010518E-02
    1       -1.771332   1.000000
    2        7.231611   1.000000
    3        7.905703   1.000000
    4        8.135819   1.000000
    5        9.043818   0.543912
    6       10.517466   0.000000
    7       12.029000   0.000000
    8       12.208936   0.000000
 
 -0.9090909E-01 -0.1818182E+00  0.9090909E-01  0.6010518E-02
    1       -3.024343   1.000000
    2        6.866676   1.000000
    3        7.455092   1.000000
    4        8.725743   0.990848
    5       11.005239   0.000000
    6       11.365845   0.000000
    7       12.482621   0.000000
    8       13.857774   0.000000
 
 -0.9090909E-01 -0.9090909E-01  0.9090909E-01  0.1502630E-02
    1       -3.940651   1.000000
    2        6.986864   1.000000
    3        6.986887   1.000000
    4        7.228313   1.000000
    5       11.405909   0.000000
    6       13.690016   0.000000
    7       13.846330   0.000000
    8       16.041753   0.000000
 
  0.1818182E+00  0.1818182E+00  0.1818182E+00  0.6010518E-02
    1       -0.298622   1.000000
    2        2.862848   1.000000
    3        6.733804   1.000000
    4        6.815237   1.000000
    5       10.695501   0.000000
    6       12.539059   0.000000
    7       14.000665   0.000000
    8       14.483223   0.000000
 
  0.2727273E+00  0.1818182E+00  0.1818182E+00  0.1202104E-01
    1        1.619299   1.000000
    2        3.537954   1.000000
    3        4.308132   1.000000
    4        5.182800   1.000000
    5       11.632674   0.000000
    6       13.848085   0.000000
    7       13.949897   0.000000
    8       14.418107   0.000000
 
 -0.1818182E+00  0.1818182E+00  0.1818182E+00  0.3005259E-02
    1       -3.836546   1.000000
    2        3.030533   1.000000
    3        4.479708   1.000000
    4       11.094134   0.000000
    5       11.247726   0.000000
    6       14.174828   0.000000
    7       17.248762   0.000000
    8       17.846073   0.000000
 
  0.2727273E+00  0.2727273E+00  0.1818182E+00  0.6010518E-02
    1        2.499916   1.000000
    2        2.575947   1.000000
    3        4.138398   1.000000
    4        5.080581   1.000000
    5       12.352480   0.000000
    6       13.192357   0.000000
    7       14.397563   0.000000
    8       15.222113   0.000000
 
  0.3636364E+00  0.2727273E+00  0.1818182E+00  0.6010518E-02
    1        0.576937   1.000000
    2        1.634278   1.000000
    3        6.596242   1.000000
    4        6.623077   1.000000
    5       11.554147   0.000000
    6       12.504893   0.000000
    7       13.549512   0.000000
    8       14.180007   0.000000
 
 -0.2727273E+00  0.2727273E+00  0.1818182E+00  0.6010518E-02
    1       -3.338889   1.000000
    2        1.894826   1.000000
    3        4.503329   1.000000
    4        9.553189   0.000240
    5       12.323349   0.000000
    6       15.909686   0.000000
    7       16.589823   0.000000
    8       17.561219   0.000000
 
 -0.1818182E+00  0.2727273E+00  0.1818182E+00  0.6010518E-02
    1       -3.215608   1.000000
    2        2.558270   1.000000
    3        4.083865   1.000000
    4        9.644476   0.000018
    5       12.396828   0.000000
    6       14.505012   0.000000
    7       15.703679   0.000000
    8       17.884060   0.000000
 
 -0.3636364E+00  0.3636364E+00  0.1818182E+00  0.6010518E-02
    1       -2.645569   1.000000
    2        0.543464   1.000000
    3        5.082767   1.000000
    4        8.158877   1.000000
    5       13.162755   0.000000
    6       15.775058   0.000000
    7       17.090983   0.000000
    8       17.613865   0.000000
 
 -0.2727273E+00  0.3636364E+00  0.1818182E+00  0.1202104E-01
    1       -2.622142   1.000000
    2        1.525490   1.000000
    3        4.175239   1.000000
    4        8.185425   1.000000
    5       12.849647   0.000000
    6       14.756960   0.000000
    7       17.448496   0.000000
    8       18.020196   0.000000
 