       N       E                     dE             d eps       ncg     rms          rms(c)
DAV:   1    -0.539893962226E+01   -0.53989E+01   -0.17248E+03  2128   0.308E+02
DAV:   2    -0.101086144858E+02   -0.47097E+01   -0.44924E+01  3192   0.383E+01
DAV:   3    -0.101362881556E+02   -0.27674E-01   -0.27580E-01  2384   0.353E+00
DAV:   4    -0.101363159201E+02   -0.27764E-04   -0.27764E-04  3176   0.973E-02
DAV:   5    -0.101363159479E+02   -0.27829E-07   -0.27648E-07  2256   0.120E-03    0.150E+00
DAV:   6    -0.101277676404E+02    0.85483E-02   -0.17921E-03  2432   0.262E-01    0.936E-01
DAV:   7    -0.101211421773E+02    0.66255E-02   -0.50838E-03  2360   0.461E-01    0.354E-02
DAV:   8    -0.101211184332E+02    0.23744E-04   -0.76653E-05  1288   0.616E-02
   1 F= -.10121118E+02 E0= -.10113349E+02  d E =-.101211E+02
