 vasp.5.4.4.18Apr17-6-g9f103f2a35 (build Dec 09 2018 21:25:21) complex          
  
 executed on IFC18.0.1.163_CrayMP date 2019.03.20  09:05:18
 running on    8 total cores
 distrk:  each k-point on    8 cores,    1 groups
 distr:  one band on NCORES_PER_BAND=   1 cores,    8 groups


--------------------------------------------------------------------------------------------------------


 INCAR:
 POTCAR:   PAW_PBE Si 05Jan2001                   

 ----------------------------------------------------------------------------- 
|                                                                             |
|           W    W    AA    RRRRR   N    N  II  N    N   GGGG   !!!           |
|           W    W   A  A   R    R  NN   N  II  NN   N  G    G  !!!           |
|           W    W  A    A  R    R  N N  N  II  N N  N  G       !!!           |
|           W WW W  AAAAAA  RRRRR   N  N N  II  N  N N  G  GGG   !            |
|           WW  WW  A    A  R   R   N   NN  II  N   NN  G    G                |
|           W    W  A    A  R    R  N    N  II  N    N   GGGG   !!!           |
|                                                                             |
|      For optimal performance we recommend to set                            |
|        NCORE= 4 - approx SQRT( number of cores)                             |
|      NCORE specifies how many cores store one orbital (NPAR=cpu/NCORE).     |
|      This setting can  greatly improve the performance of VASP for DFT.     |
|      The default,   NCORE=1            might be grossly inefficient         |
|      on modern multi-core architectures or massively parallel machines.     |
|      Do your own testing !!!!                                               |
|      Unfortunately you need to use the default for GW and RPA calculations. |
|      (for HF NCORE is supported but not extensively tested yet)             |
|                                                                             |
 ----------------------------------------------------------------------------- 

 POTCAR:   PAW_PBE Si 05Jan2001                   
   VRHFIN =Si: s2p2                                                             
   LEXCH  = PE                                                                  
   EATOM  =   103.0669 eV,    7.5752 Ry                                         
                                                                                
   TITEL  = PAW_PBE Si 05Jan2001                                                
   LULTRA =        F    use ultrasoft PP ?                                      
   IUNSCR =        1    unscreen: 0-lin 1-nonlin 2-no                           
   RPACOR =    1.500    partial core radius                                     
   POMASS =   28.085; ZVAL   =    4.000    mass and valenz                      
   RCORE  =    1.900    outmost cutoff radius                                   
   RWIGS  =    2.480; RWIGS  =    1.312    wigner-seitz radius (au A)           
   ENMAX  =  245.345; ENMIN  =  184.009 eV                                      
   ICORE  =        2    local potential                                         
   LCOR   =        T    correct aug charges                                     
   LPAW   =        T    paw PP                                                  
   EAUG   =  322.069                                                            
   DEXC   =    -.007                                                            
   RMAX   =    2.944    core radius for proj-oper                               
   RAUG   =    1.300    factor for augmentation sphere                          
   RDEP   =    1.993    radius for radial grids                                 
   QCUT   =   -4.246; QGAM   =    8.493    optimization parameters              
                                                                                
   Description                                                                  
     l     E      TYP  RCUT    TYP  RCUT                                        
     0   .000     23  1.900                                                     
     0   .000     23  1.900                                                     
     1   .000     23  1.900                                                     
     1   .000     23  1.900                                                     
     2   .000      7  1.900                                                     
  local pseudopotential read in
  partial core-charges read in
  atomic valenz-charges read in
  non local Contribution for L=           0  read in
    real space projection operators read in
  non local Contribution for L=           0  read in
    real space projection operators read in
  non local Contribution for L=           1  read in
    real space projection operators read in
  non local Contribution for L=           1  read in
    real space projection operators read in
    PAW grid and wavefunctions read in
 
   number of l-projection  operators is LMAX  =           4
   number of lm-projection operators is LMMAX =           8
 
 PAW_PBE Si 05Jan2001                   :
 energy of atom  1       EATOM= -103.0669
 kinetic energy error for atom=    0.0210 (will be added to EATOM!!)
 
 
 POSCAR: Si2                                     
  positions in direct lattice
  No initial velocities read in
 exchange correlation table for  LEXCH =        8
   RHO(1)=    0.500       N(1)  =     2000
   RHO(2)=  100.500       N(2)  =     4000
 


--------------------------------------------------------------------------------------------------------


 ion  position               nearest neighbor table
   1  0.250  0.750  0.500-   2 2.53   2 2.53   2 2.53   2 2.53   2 3.11   2 3.11   2 3.11   2 3.11

   2  0.000  0.000  0.000-   1 2.53   1 2.53   1 2.53   1 2.53   1 3.11   1 3.11   1 3.11   1 3.11

 
  LATTYP: Found a body centered tetragonal cell.
 ALAT       =     4.9000000000
 C/A-ratio  =     0.5200000000
  
  Lattice vectors:
  
 A1 = (  -2.4500000000,   2.4500000000,   1.2740000000)
 A2 = (   2.4500000000,  -2.4500000000,   1.2740000000)
 A3 = (   2.4500000000,   2.4500000000,  -1.2740000000)


Analysis of symmetry for initial positions (statically):
=====================================================================
 Subroutine PRICEL returns:
 Original cell was already a primitive cell.
 

 Routine SETGRP: Setting up the symmetry group for a 
 body centered tetragonal supercell.


 Subroutine GETGRP returns: Found 16 space group operations
 (whereof  8 operations were pure point group operations)
 out of a pool of 16 trial point group operations.


The static configuration has the point symmetry D_2d.
 The point group associated with its full space group is D_4h.


Analysis of symmetry for dynamics (positions and initial velocities):
=====================================================================
 Subroutine PRICEL returns:
 Original cell was already a primitive cell.
 

 Routine SETGRP: Setting up the symmetry group for a 
 body centered tetragonal supercell.


 Subroutine GETGRP returns: Found 16 space group operations
 (whereof  8 operations were pure point group operations)
 out of a pool of 16 trial point group operations.


The dynamic configuration has the point symmetry D_2d.
 The point group associated with its full space group is D_4h.


 Subroutine INISYM returns: Found 16 space group operations
 (whereof  8 operations are pure point group operations),
 and found     1 'primitive' translations

 
 
 KPOINTS: Automatic kpoint scheme                 

Automatic generation of k-mesh.
Space group operators:
 irot       det(A)        alpha          n_x          n_y          n_z        tau_x        tau_y        tau_z
    1     1.000000     0.000000     1.000000     0.000000     0.000000     0.000000     0.000000     0.000000
    2    -1.000000    90.000000    -0.000000    -0.000000    -1.000000     0.000000     0.000000     0.000000
    3     1.000000   180.000000    -0.000000    -0.000000    -1.000000     0.000000     0.000000     0.000000
    4    -1.000000    90.000000    -0.000000     0.000000     1.000000     0.000000     0.000000     0.000000
    5    -1.000000   180.000000     0.000000    -1.000000     0.000000     0.000000     0.000000     0.000000
    6     1.000000   180.000000     0.707107     0.707107    -0.000000     0.000000     0.000000     0.000000
    7    -1.000000   180.000000     1.000000     0.000000     0.000000     0.000000     0.000000     0.000000
    8     1.000000   180.000000     0.707107    -0.707107     0.000000     0.000000     0.000000     0.000000
    9    -1.000000     0.000000     1.000000     0.000000     0.000000     0.250000     0.750000     0.500000
   10     1.000000    90.000000    -0.000000    -0.000000    -1.000000     0.250000     0.750000     0.500000
   11    -1.000000   180.000000    -0.000000    -0.000000    -1.000000     0.250000     0.750000     0.500000
   12     1.000000    90.000000    -0.000000     0.000000     1.000000     0.250000     0.750000     0.500000
   13     1.000000   180.000000     0.000000    -1.000000     0.000000     0.250000     0.750000     0.500000
   14    -1.000000   180.000000     0.707107     0.707107    -0.000000     0.250000     0.750000     0.500000
   15     1.000000   180.000000     1.000000     0.000000     0.000000     0.250000     0.750000     0.500000
   16    -1.000000   180.000000     0.707107    -0.707107     0.000000     0.250000     0.750000     0.500000
 
 Subroutine IBZKPT returns following result:
 ===========================================
 
 Found    126 irreducible k-points:
 
 Following reciprocal coordinates:
            Coordinates               Weight
  0.000000  0.000000  0.000000      1.000000
  0.090909 -0.000000  0.000000      8.000000
  0.181818 -0.000000  0.000000      8.000000
  0.272727 -0.000000  0.000000      8.000000
  0.363636 -0.000000  0.000000      8.000000
  0.454545 -0.000000 -0.000000      8.000000
  0.090909  0.090909  0.000000      8.000000
  0.181818  0.090909 -0.000000     16.000000
  0.272727  0.090909  0.000000     16.000000
  0.363636  0.090909  0.000000     16.000000
  0.454545  0.090909 -0.000000     16.000000
 -0.454545  0.090909 -0.000000     16.000000
 -0.363636  0.090909  0.000000     16.000000
 -0.272727  0.090909  0.000000     16.000000
 -0.181818  0.090909  0.000000     16.000000
 -0.090909  0.090909  0.000000      4.000000
  0.181818  0.181818  0.000000      8.000000
  0.272727  0.181818  0.000000     16.000000
  0.363636  0.181818 -0.000000     16.000000
  0.454545  0.181818 -0.000000     16.000000
 -0.454545  0.181818 -0.000000     16.000000
 -0.363636  0.181818  0.000000     16.000000
 -0.272727  0.181818 -0.000000     16.000000
 -0.181818  0.181818  0.000000      4.000000
  0.272727  0.272727 -0.000000      8.000000
  0.363636  0.272727 -0.000000     16.000000
  0.454545  0.272727  0.000000     16.000000
 -0.454545  0.272727  0.000000     16.000000
 -0.363636  0.272727 -0.000000     16.000000
 -0.272727  0.272727 -0.000000      4.000000
  0.363636  0.363636  0.000000      8.000000
  0.454545  0.363636 -0.000000     16.000000
 -0.454545  0.363636 -0.000000     16.000000
 -0.363636  0.363636  0.000000      4.000000
  0.454545  0.454545 -0.000000      8.000000
 -0.454545  0.454545 -0.000000      4.000000
  0.090909  0.090909  0.090909      8.000000
  0.181818  0.090909  0.090909     16.000000
  0.272727  0.090909  0.090909     16.000000
  0.363636  0.090909  0.090909     16.000000
 -0.090909  0.090909  0.090909      4.000000
  0.181818  0.181818  0.090909      8.000000
  0.272727  0.181818  0.090909     16.000000
  0.363636  0.181818  0.090909     16.000000
  0.454545  0.181818  0.090909     16.000000
 -0.454545  0.181818  0.090909     16.000000
 -0.363636  0.181818  0.090909      8.000000
 -0.181818  0.181818  0.090909      8.000000
 -0.090909  0.181818  0.090909      8.000000
  0.272727  0.272727  0.090909      8.000000
  0.363636  0.272727  0.090909     16.000000
  0.454545  0.272727  0.090909     16.000000
 -0.454545  0.272727  0.090909      8.000000
 -0.272727  0.272727  0.090909      8.000000
 -0.181818  0.272727  0.090909     16.000000
 -0.090909  0.272727  0.090909      8.000000
  0.363636  0.363636  0.090909      8.000000
  0.454545  0.363636  0.090909      8.000000
 -0.363636  0.363636  0.090909      8.000000
 -0.272727  0.363636  0.090909     16.000000
 -0.181818  0.363636  0.090909     16.000000
 -0.090909  0.363636  0.090909      8.000000
 -0.454545  0.454545  0.090909      8.000000
 -0.363636  0.454545  0.090909     16.000000
 -0.272727  0.454545  0.090909     16.000000
 -0.181818  0.454545  0.090909     16.000000
 -0.090909  0.454545  0.090909      8.000000
 -0.454545 -0.454545  0.090909      8.000000
 -0.363636 -0.454545  0.090909     16.000000
 -0.272727 -0.454545  0.090909     16.000000
 -0.181818 -0.454545  0.090909     16.000000
 -0.090909 -0.454545  0.090909      8.000000
 -0.363636 -0.363636  0.090909      8.000000
 -0.272727 -0.363636  0.090909     16.000000
 -0.181818 -0.363636  0.090909     16.000000
 -0.090909 -0.363636  0.090909      8.000000
 -0.272727 -0.272727  0.090909      8.000000
 -0.181818 -0.272727  0.090909     16.000000
 -0.090909 -0.272727  0.090909      8.000000
 -0.181818 -0.181818  0.090909      8.000000
 -0.090909 -0.181818  0.090909      8.000000
 -0.090909 -0.090909  0.090909      2.000000
  0.181818  0.181818  0.181818      8.000000
  0.272727  0.181818  0.181818     16.000000
 -0.181818  0.181818  0.181818      4.000000
  0.272727  0.272727  0.181818      8.000000
  0.363636  0.272727  0.181818      8.000000
 -0.272727  0.272727  0.181818      8.000000
 -0.181818  0.272727  0.181818      8.000000
 -0.363636  0.363636  0.181818      8.000000
 -0.272727  0.363636  0.181818     16.000000
 -0.181818  0.363636  0.181818      8.000000
 -0.454545  0.454545  0.181818      8.000000
 -0.363636  0.454545  0.181818     16.000000
 -0.272727  0.454545  0.181818     16.000000
 -0.181818  0.454545  0.181818      8.000000
 -0.454545 -0.454545  0.181818      8.000000
 -0.363636 -0.454545  0.181818     16.000000
 -0.272727 -0.454545  0.181818     16.000000
 -0.181818 -0.454545  0.181818      8.000000
 -0.363636 -0.363636  0.181818      8.000000
 -0.272727 -0.363636  0.181818     16.000000
 -0.181818 -0.363636  0.181818      8.000000
 -0.272727 -0.272727  0.181818      8.000000
 -0.181818 -0.272727  0.181818      8.000000
 -0.181818 -0.181818  0.181818      2.000000
 -0.272727  0.272727  0.272727      4.000000
 -0.363636  0.363636  0.272727      8.000000
 -0.272727  0.363636  0.272727      8.000000
 -0.454545  0.454545  0.272727      8.000000
 -0.363636  0.454545  0.272727     16.000000
 -0.272727  0.454545  0.272727      8.000000
 -0.454545 -0.454545  0.272727      8.000000
 -0.363636 -0.454545  0.272727     16.000000
 -0.272727 -0.454545  0.272727      8.000000
 -0.363636 -0.363636  0.272727      8.000000
 -0.272727 -0.363636  0.272727      8.000000
 -0.272727 -0.272727  0.272727      2.000000
 -0.363636  0.363636  0.363636      4.000000
 -0.454545  0.454545  0.363636      8.000000
 -0.363636  0.454545  0.363636      8.000000
 -0.454545 -0.454545  0.363636      8.000000
 -0.363636 -0.454545  0.363636      8.000000
 -0.363636 -0.363636  0.363636      2.000000
 -0.454545  0.454545  0.454545      4.000000
 -0.454545 -0.454545  0.454545      2.000000
 
 Following cartesian coordinates:
            Coordinates               Weight
  0.000000  0.000000  0.000000      1.000000
  0.000000  0.018553  0.035679      8.000000
  0.000000  0.037106  0.071357      8.000000
  0.000000  0.055659  0.107036      8.000000
  0.000000  0.074212  0.142714      8.000000
 -0.000000  0.092764  0.178393      8.000000
  0.018553  0.018553  0.071357      8.000000
  0.018553  0.037106  0.107036     16.000000
  0.018553  0.055659  0.142714     16.000000
  0.018553  0.074212  0.178393     16.000000
  0.018553  0.092764  0.214072     16.000000
  0.018553 -0.092764 -0.142714     16.000000
  0.018553 -0.074212 -0.107036     16.000000
  0.018553 -0.055659 -0.071357     16.000000
  0.018553 -0.037106 -0.035679     16.000000
  0.018553 -0.018553  0.000000      4.000000
  0.037106  0.037106  0.142714      8.000000
  0.037106  0.055659  0.178393     16.000000
  0.037106  0.074212  0.214072     16.000000
  0.037106  0.092764  0.249750     16.000000
  0.037106 -0.092764 -0.107036     16.000000
  0.037106 -0.074212 -0.071357     16.000000
  0.037106 -0.055659 -0.035679     16.000000
  0.037106 -0.037106  0.000000      4.000000
  0.055659  0.055659  0.214072      8.000000
  0.055659  0.074212  0.249750     16.000000
  0.055659  0.092764  0.285429     16.000000
  0.055659 -0.092764 -0.071357     16.000000
  0.055659 -0.074212 -0.035679     16.000000
  0.055659 -0.055659  0.000000      4.000000
  0.074212  0.074212  0.285429      8.000000
  0.074212  0.092764  0.321107     16.000000
  0.074212 -0.092764 -0.035679     16.000000
  0.074212 -0.074212  0.000000      4.000000
  0.092764  0.092764  0.356786      8.000000
  0.092764 -0.092764 -0.000000      4.000000
  0.037106  0.037106  0.071357      8.000000
  0.037106  0.055659  0.107036     16.000000
  0.037106  0.074212  0.142714     16.000000
  0.037106  0.092764  0.178393     16.000000
  0.037106  0.000000  0.000000      4.000000
  0.055659  0.055659  0.142714      8.000000
  0.055659  0.074212  0.178393     16.000000
  0.055659  0.092764  0.214072     16.000000
  0.055659  0.111317  0.249750     16.000000
  0.055659 -0.074212 -0.107036     16.000000
  0.055659 -0.055659 -0.071357      8.000000
  0.055659 -0.018553 -0.000000      8.000000
  0.055659 -0.000000  0.035679      8.000000
  0.074212  0.074212  0.214072      8.000000
  0.074212  0.092764  0.249750     16.000000
  0.074212  0.111317  0.285429     16.000000
  0.074212 -0.074212 -0.071357      8.000000
  0.074212 -0.037106  0.000000      8.000000
  0.074212 -0.018553  0.035679     16.000000
  0.074212  0.000000  0.071357      8.000000
  0.092764  0.092764  0.285429      8.000000
  0.092764  0.111317  0.321107      8.000000
  0.092764 -0.055659  0.000000      8.000000
  0.092764 -0.037106  0.035679     16.000000
  0.092764 -0.018553  0.071357     16.000000
  0.092764  0.000000  0.107036      8.000000
  0.111317 -0.074212 -0.000000      8.000000
  0.111317 -0.055659  0.035679     16.000000
  0.111317 -0.037106  0.071357     16.000000
  0.111317 -0.018553  0.107036     16.000000
  0.111317 -0.000000  0.142714      8.000000
 -0.074212 -0.074212 -0.356786      8.000000
 -0.074212 -0.055659 -0.321107     16.000000
 -0.074212 -0.037106 -0.285429     16.000000
 -0.074212 -0.018553 -0.249750     16.000000
 -0.074212  0.000000 -0.214072      8.000000
 -0.055659 -0.055659 -0.285429      8.000000
 -0.055659 -0.037106 -0.249750     16.000000
 -0.055659 -0.018553 -0.214072     16.000000
 -0.055659  0.000000 -0.178393      8.000000
 -0.037106 -0.037106 -0.214072      8.000000
 -0.037106 -0.018553 -0.178393     16.000000
 -0.037106  0.000000 -0.142714      8.000000
 -0.018553 -0.018553 -0.142714      8.000000
 -0.018553  0.000000 -0.107036      8.000000
  0.000000 -0.000000 -0.071357      2.000000
  0.074212  0.074212  0.142714      8.000000
  0.074212  0.092764  0.178393     16.000000
  0.074212  0.000000  0.000000      4.000000
  0.092764  0.092764  0.214072      8.000000
  0.092764  0.111317  0.249750      8.000000
  0.092764 -0.018553 -0.000000      8.000000
  0.092764  0.000000  0.035679      8.000000
  0.111317 -0.037106 -0.000000      8.000000
  0.111317 -0.018553  0.035679     16.000000
  0.111317 -0.000000  0.071357      8.000000
  0.129870 -0.055659 -0.000000      8.000000
  0.129870 -0.037106  0.035679     16.000000
  0.129870 -0.018553  0.071357     16.000000
  0.129870  0.000000  0.107036      8.000000
 -0.055659 -0.055659 -0.356786      8.000000
 -0.055659 -0.037106 -0.321107     16.000000
 -0.055659 -0.018553 -0.285429     16.000000
 -0.055659  0.000000 -0.249750      8.000000
 -0.037106 -0.037106 -0.285429      8.000000
 -0.037106 -0.018553 -0.249750     16.000000
 -0.037106  0.000000 -0.214072      8.000000
 -0.018553 -0.018553 -0.214072      8.000000
 -0.018553  0.000000 -0.178393      8.000000
  0.000000 -0.000000 -0.142714      2.000000
  0.111317  0.000000  0.000000      4.000000
  0.129870 -0.018553 -0.000000      8.000000
  0.129870 -0.000000  0.035679      8.000000
  0.148423 -0.037106 -0.000000      8.000000
  0.148423 -0.018553  0.035679     16.000000
  0.148423 -0.000000  0.071357      8.000000
 -0.037106 -0.037106 -0.356786      8.000000
 -0.037106 -0.018553 -0.321107     16.000000
 -0.037106  0.000000 -0.285429      8.000000
 -0.018553 -0.018553 -0.285429      8.000000
 -0.018553 -0.000000 -0.249750      8.000000
 -0.000000  0.000000 -0.214072      2.000000
  0.148423  0.000000  0.000000      4.000000
  0.166976 -0.018553 -0.000000      8.000000
  0.166976 -0.000000  0.035679      8.000000
 -0.018553 -0.018553 -0.356786      8.000000
 -0.018553 -0.000000 -0.321107      8.000000
  0.000000 -0.000000 -0.285429      2.000000
  0.185529 -0.000000 -0.000000      4.000000
 -0.000000 -0.000000 -0.356786      2.000000
 


--------------------------------------------------------------------------------------------------------




 Dimension of arrays:
   k-points           NKPTS =    126   k-points in BZ     NKDIM =    126   number of bands    NBANDS=      8
   number of dos      NEDOS =    301   number of ions     NIONS =      2
   non local maximal  LDIM  =      4   non local SUM 2l+1 LMDIM =      8
   total plane-waves  NPLWV =   1728
   max r-space proj   IRMAX =      1   max aug-charges    IRDMAX=   2088
   dimension x,y,z NGX =    12 NGY =   12 NGZ =   12
   dimension x,y,z NGXF=    24 NGYF=   24 NGZF=   24
   support grid    NGXF=    24 NGYF=   24 NGZF=   24
   ions per type =               2
   NGX,Y,Z   is equivalent  to a cutoff of   5.40,  5.40,  5.40 a.u.
   NGXF,Y,Z  is equivalent  to a cutoff of  10.81, 10.81, 10.81 a.u.

 SYSTEM =  unknown system                          
 POSCAR =  Si2                                     

 Startparameter for this run:
   NWRITE =      2    write-flag & timer
   PREC   = normal    normal or accurate (medium, high low for compatibility)
   ISTART =      0    job   : 0-new  1-cont  2-samecut
   ICHARG =      2    charge: 1-file 2-atom 10-const
   ISPIN  =      1    spin polarized calculation?
   LNONCOLLINEAR =      F non collinear calculations
   LSORBIT =      F    spin-orbit coupling
   INIWAV =      1    electr: 0-lowe 1-rand  2-diag
   LASPH  =      F    aspherical Exc in radial PAW
   METAGGA=      F    non-selfconsistent MetaGGA calc.

 Electronic Relaxation 1
   ENCUT  =  150.0 eV  11.02 Ry    3.32 a.u.   3.69  3.69  3.69*2*pi/ulx,y,z
   ENINI  =  150.0     initial cutoff
   ENAUG  =  322.1 eV  augmentation charge cutoff
   NELM   =     60;   NELMIN=  2; NELMDL= -5     # of ELM steps 
   EDIFF  = 0.4E-03   stopping-criterion for ELM
   LREAL  =      F    real-space projection
   NLSPLINE    = F    spline interpolate recip. space projectors
   LCOMPAT=      F    compatible to vasp.4.4
   GGA_COMPAT  = T    GGA compatible to vasp.4.4-vasp.4.6
   LMAXPAW     = -100 max onsite density
   LMAXMIX     =    2 max onsite mixed and CHGCAR
   VOSKOWN=      0    Vosko Wilk Nusair interpolation
   ROPT   =    0.00000
 Ionic relaxation
   EDIFFG = -.1E-01   stopping-criterion for IOM
   NSW    =     15    number of steps for IOM
   NBLOCK =      1;   KBLOCK =     15    inner block; outer block 
   IBRION =      2    ionic relax: 0-MD 1-quasi-New 2-CG
   NFREE  =      1    steps in history (QN), initial steepest desc. (CG)
   ISIF   =      3    stress and relaxation
   IWAVPR =     11    prediction:  0-non 1-charg 2-wave 3-comb
   ISYM   =      2    0-nonsym 1-usesym 2-fastsym
   LCORR  =      T    Harris-Foulkes like correction to forces

   POTIM  = 0.5000    time-step for ionic-motion
   TEIN   =    0.0    initial temperature
   TEBEG  =    0.0;   TEEND  =   0.0 temperature during run
   SMASS  =  -3.00    Nose mass-parameter (am)
   estimated Nose-frequenzy (Omega)   =  0.10E-29 period in steps =****** mass=  -0.311E-27a.u.
   SCALEE = 1.0000    scale energy and forces
   NPACO  =    256;   APACO  = 16.0  distance and # of slots for P.C.
   PSTRESS=    0.0 pullay stress

  Mass of Ions in am
   POMASS =  28.09
  Ionic Valenz
   ZVAL   =   4.00
  Atomic Wigner-Seitz radii
   RWIGS  =  -1.00
  virtual crystal weights 
   VCA    =   1.00
   NELECT =       8.0000    total number of electrons
   NUPDOWN=      -1.0000    fix difference up-down

 DOS related values:
   EMIN   =  10.00;   EMAX   =-10.00  energy-range for DOS
   EFERMI =   0.00
   ISMEAR =     0;   SIGMA  =   0.20  broadening in eV -4-tet -1-fermi 0-gaus

 Electronic relaxation 2 (details)
   IALGO  =     38    algorithm
   LDIAG  =      T    sub-space diagonalisation (order eigenvalues)
   LSUBROT=      F    optimize rotation matrix (better conditioning)
   TURBO    =      0    0=normal 1=particle mesh
   IRESTART =      0    0=no restart 2=restart with 2 vectors
   NREBOOT  =      0    no. of reboots
   NMIN     =      0    reboot dimension
   EREF     =   0.00    reference energy to select bands
   IMIX   =      4    mixing-type and parameters
     AMIX     =   0.40;   BMIX     =  1.00
     AMIX_MAG =   1.60;   BMIX_MAG =  1.00
     AMIN     =   0.10
     WC   =   100.;   INIMIX=   1;  MIXPRE=   1;  MAXMIX= -45

 Intra band minimization:
   WEIMIN = 0.0010     energy-eigenvalue tresh-hold
   EBREAK =  0.13E-04  absolut break condition
   DEPER  =   0.30     relativ break condition  

   TIME   =   0.40     timestep for ELM

  volume/ion in A,a.u.               =      15.29       103.21
  Fermi-wavevector in a.u.,A,eV,Ry     =   1.046930  1.978411 14.912834  1.096062
  Thomas-Fermi vector in A             =   2.181789
 
 Write flags
   LWAVE        =      T    write WAVECAR
   LDOWNSAMPLE  =      F    k-point downsampling of WAVECAR
   LCHARG       =      T    write CHGCAR
   LVTOT        =      F    write LOCPOT, total local potential
   LVHAR        =      F    write LOCPOT, Hartree potential only
   LELF         =      F    write electronic localiz. function (ELF)
   LORBIT       =      0    0 simple, 1 ext, 2 COOP (PROOUT), +10 PAW based schemes


 Dipole corrections
   LMONO  =      F    monopole corrections only (constant potential shift)
   LDIPOL =      F    correct potential (dipole corrections)
   IDIPOL =      0    1-x, 2-y, 3-z, 4-all directions 
   EPSILON=  1.0000000 bulk dielectric constant

 Exchange correlation treatment:
   GGA     =    --    GGA type
   LEXCH   =     8    internal setting for exchange type
   VOSKOWN=      0    Vosko Wilk Nusair interpolation
   LHFCALC =     F    Hartree Fock is set to
   LHFONE  =     F    Hartree Fock one center treatment
   AEXX    =    0.0000 exact exchange contribution

 Linear response parameters
   LEPSILON=     F    determine dielectric tensor
   LRPA    =     F    only Hartree local field effects (RPA)
   LNABLA  =     F    use nabla operator in PAW spheres
   LVEL    =     F    velocity operator in full k-point grid
   LINTERFAST=   F  fast interpolation
   KINTER  =     0    interpolate to denser k-point grid
   CSHIFT  =0.1000    complex shift for real part using Kramers Kronig
   OMEGAMAX=  -1.0    maximum frequency
   DEG_THRESHOLD= 0.2000000E-02 threshold for treating states as degnerate
   RTIME   =   -0.100 relaxation time in fs
  (WPLASMAI=    0.000 imaginary part of plasma frequency in eV, 0.658/RTIME)
   DFIELD  = 0.0000000 0.0000000 0.0000000 field for delta impulse in time
 
 Orbital magnetization related:
   ORBITALMAG=     F  switch on orbital magnetization
   LCHIMAG   =     F  perturbation theory with respect to B field
   DQ        =  0.001000  dq finite difference perturbation B field
   LLRAUG    =     F  two centre corrections for induced B field



--------------------------------------------------------------------------------------------------------


 conjugate gradient relaxation of ions
 charge density and potential will be updated during run
 non-spin polarized calculation
 Variant of blocked Davidson
 Davidson routine will perform the subspace rotation
 perform sub-space diagonalisation
    after iterative eigenvector-optimisation
 modified Broyden-mixing scheme, WC =      100.0
 initial mixing is a Kerker type mixing with AMIX =  0.4000 and BMIX =      1.0000
 Hartree-type preconditioning will be used
 using additional bands            4
 reciprocal scheme for non local part
 use partial core corrections
 calculate Harris-corrections to forces 
   (improved forces if not selfconsistent)
 use gradient corrections 
 use of overlap-Matrix (Vanderbilt PP)
 Gauss-broadening in eV      SIGMA  =   0.20


--------------------------------------------------------------------------------------------------------


  energy-cutoff  :      150.00
  volume of cell :       30.59
      direct lattice vectors                 reciprocal lattice vectors
    -2.450000000  2.450000000  1.274000000     0.000000000  0.204081633  0.392464678
     2.450000000 -2.450000000  1.274000000     0.204081633  0.000000000  0.392464678
     2.450000000  2.450000000 -1.274000000     0.204081633  0.204081633 -0.000000000

  length of vectors
     3.691622408  3.691622408  3.691622408     0.442354876  0.442354876  0.288615013


 
 k-points in units of 2pi/SCALE and weight: Automatic kpoint scheme                 
   0.00000000  0.00000000  0.00000000       0.001
   0.00000000  0.01855288  0.03567861       0.006
   0.00000000  0.03710575  0.07135721       0.006
   0.00000000  0.05565863  0.10703582       0.006
   0.00000000  0.07421150  0.14271443       0.006
  -0.00000000  0.09276438  0.17839304       0.006
   0.01855288  0.01855288  0.07135721       0.006
   0.01855288  0.03710575  0.10703582       0.012
   0.01855288  0.05565863  0.14271443       0.012
   0.01855288  0.07421150  0.17839304       0.012
   0.01855288  0.09276438  0.21407164       0.012
   0.01855288 -0.09276438 -0.14271443       0.012
   0.01855288 -0.07421150 -0.10703582       0.012
   0.01855288 -0.05565863 -0.07135721       0.012
   0.01855288 -0.03710575 -0.03567861       0.012
   0.01855288 -0.01855288  0.00000000       0.003
   0.03710575  0.03710575  0.14271443       0.006
   0.03710575  0.05565863  0.17839304       0.012
   0.03710575  0.07421150  0.21407164       0.012
   0.03710575  0.09276438  0.24975025       0.012
   0.03710575 -0.09276438 -0.10703582       0.012
   0.03710575 -0.07421150 -0.07135721       0.012
   0.03710575 -0.05565863 -0.03567861       0.012
   0.03710575 -0.03710575  0.00000000       0.003
   0.05565863  0.05565863  0.21407164       0.006
   0.05565863  0.07421150  0.24975025       0.012
   0.05565863  0.09276438  0.28542886       0.012
   0.05565863 -0.09276438 -0.07135721       0.012
   0.05565863 -0.07421150 -0.03567861       0.012
   0.05565863 -0.05565863  0.00000000       0.003
   0.07421150  0.07421150  0.28542886       0.006
   0.07421150  0.09276438  0.32110746       0.012
   0.07421150 -0.09276438 -0.03567861       0.012
   0.07421150 -0.07421150  0.00000000       0.003
   0.09276438  0.09276438  0.35678607       0.006
   0.09276438 -0.09276438 -0.00000000       0.003
   0.03710575  0.03710575  0.07135721       0.006
   0.03710575  0.05565863  0.10703582       0.012
   0.03710575  0.07421150  0.14271443       0.012
   0.03710575  0.09276438  0.17839304       0.012
   0.03710575 -0.00000000 -0.00000000       0.003
   0.05565863  0.05565863  0.14271443       0.006
   0.05565863  0.07421150  0.17839304       0.012
   0.05565863  0.09276438  0.21407164       0.012
   0.05565863  0.11131725  0.24975025       0.012
   0.05565863 -0.07421150 -0.10703582       0.012
   0.05565863 -0.05565863 -0.07135721       0.006
   0.05565863 -0.01855288  0.00000000       0.006
   0.05565863 -0.00000000  0.03567861       0.006
   0.07421150  0.07421150  0.21407164       0.006
   0.07421150  0.09276438  0.24975025       0.012
   0.07421150  0.11131725  0.28542886       0.012
   0.07421150 -0.07421150 -0.07135721       0.006
   0.07421150 -0.03710575 -0.00000000       0.006
   0.07421150 -0.01855288  0.03567861       0.012
   0.07421150 -0.00000000  0.07135721       0.006
   0.09276438  0.09276438  0.28542886       0.006
   0.09276438  0.11131725  0.32110746       0.006
   0.09276438 -0.05565863  0.00000000       0.006
   0.09276438 -0.03710575  0.03567861       0.012
   0.09276438 -0.01855288  0.07135721       0.012
   0.09276438  0.00000000  0.10703582       0.006
   0.11131725 -0.07421150 -0.00000000       0.006
   0.11131725 -0.05565863  0.03567861       0.012
   0.11131725 -0.03710575  0.07135721       0.012
   0.11131725 -0.01855288  0.10703582       0.012
   0.11131725 -0.00000000  0.14271443       0.006
  -0.07421150 -0.07421150 -0.35678607       0.006
  -0.07421150 -0.05565863 -0.32110746       0.012
  -0.07421150 -0.03710575 -0.28542886       0.012
  -0.07421150 -0.01855288 -0.24975025       0.012
  -0.07421150 -0.00000000 -0.21407164       0.006
  -0.05565863 -0.05565863 -0.28542886       0.006
  -0.05565863 -0.03710575 -0.24975025       0.012
  -0.05565863 -0.01855288 -0.21407164       0.012
  -0.05565863 -0.00000000 -0.17839304       0.006
  -0.03710575 -0.03710575 -0.21407164       0.006
  -0.03710575 -0.01855288 -0.17839304       0.012
  -0.03710575  0.00000000 -0.14271443       0.006
  -0.01855288 -0.01855288 -0.14271443       0.006
  -0.01855288 -0.00000000 -0.10703582       0.006
   0.00000000 -0.00000000 -0.07135721       0.002
   0.07421150  0.07421150  0.14271443       0.006
   0.07421150  0.09276438  0.17839304       0.012
   0.07421150 -0.00000000 -0.00000000       0.003
   0.09276438  0.09276438  0.21407164       0.006
   0.09276438  0.11131725  0.24975025       0.006
   0.09276438 -0.01855288  0.00000000       0.006
   0.09276438  0.00000000  0.03567861       0.006
   0.11131725 -0.03710575  0.00000000       0.006
   0.11131725 -0.01855288  0.03567861       0.012
   0.11131725 -0.00000000  0.07135721       0.006
   0.12987013 -0.05565863 -0.00000000       0.006
   0.12987013 -0.03710575  0.03567861       0.012
   0.12987013 -0.01855288  0.07135721       0.012
   0.12987013 -0.00000000  0.10703582       0.006
  -0.05565863 -0.05565863 -0.35678607       0.006
  -0.05565863 -0.03710575 -0.32110746       0.012
  -0.05565863 -0.01855288 -0.28542886       0.012
  -0.05565863  0.00000000 -0.24975025       0.006
  -0.03710575 -0.03710575 -0.28542886       0.006
  -0.03710575 -0.01855288 -0.24975025       0.012
  -0.03710575 -0.00000000 -0.21407164       0.006
  -0.01855288 -0.01855288 -0.21407164       0.006
  -0.01855288 -0.00000000 -0.17839304       0.006
   0.00000000 -0.00000000 -0.14271443       0.002
   0.11131725  0.00000000 -0.00000000       0.003
   0.12987013 -0.01855288  0.00000000       0.006
   0.12987013 -0.00000000  0.03567861       0.006
   0.14842301 -0.03710575 -0.00000000       0.006
   0.14842301 -0.01855288  0.03567861       0.012
   0.14842301 -0.00000000  0.07135721       0.006
  -0.03710575 -0.03710575 -0.35678607       0.006
  -0.03710575 -0.01855288 -0.32110746       0.012
  -0.03710575 -0.00000000 -0.28542886       0.006
  -0.01855288 -0.01855288 -0.28542886       0.006
  -0.01855288 -0.00000000 -0.24975025       0.006
   0.00000000  0.00000000 -0.21407164       0.002
   0.14842301 -0.00000000 -0.00000000       0.003
   0.16697588 -0.01855288 -0.00000000       0.006
   0.16697588 -0.00000000  0.03567861       0.006
  -0.01855288 -0.01855288 -0.35678607       0.006
  -0.01855288 -0.00000000 -0.32110746       0.006
   0.00000000 -0.00000000 -0.28542886       0.002
   0.18552876 -0.00000000 -0.00000000       0.003
  -0.00000000 -0.00000000 -0.35678607       0.002
 
 k-points in reciprocal lattice and weights: Automatic kpoint scheme                 
   0.00000000  0.00000000  0.00000000       0.001
   0.09090909 -0.00000000  0.00000000       0.006
   0.18181818 -0.00000000  0.00000000       0.006
   0.27272727 -0.00000000  0.00000000       0.006
   0.36363636 -0.00000000  0.00000000       0.006
   0.45454545 -0.00000000 -0.00000000       0.006
   0.09090909  0.09090909  0.00000000       0.006
   0.18181818  0.09090909 -0.00000000       0.012
   0.27272727  0.09090909  0.00000000       0.012
   0.36363636  0.09090909  0.00000000       0.012
   0.45454545  0.09090909 -0.00000000       0.012
  -0.45454545  0.09090909 -0.00000000       0.012
  -0.36363636  0.09090909  0.00000000       0.012
  -0.27272727  0.09090909  0.00000000       0.012
  -0.18181818  0.09090909  0.00000000       0.012
  -0.09090909  0.09090909  0.00000000       0.003
   0.18181818  0.18181818  0.00000000       0.006
   0.27272727  0.18181818  0.00000000       0.012
   0.36363636  0.18181818 -0.00000000       0.012
   0.45454545  0.18181818 -0.00000000       0.012
  -0.45454545  0.18181818 -0.00000000       0.012
  -0.36363636  0.18181818  0.00000000       0.012
  -0.27272727  0.18181818 -0.00000000       0.012
  -0.18181818  0.18181818  0.00000000       0.003
   0.27272727  0.27272727 -0.00000000       0.006
   0.36363636  0.27272727 -0.00000000       0.012
   0.45454545  0.27272727  0.00000000       0.012
  -0.45454545  0.27272727  0.00000000       0.012
  -0.36363636  0.27272727 -0.00000000       0.012
  -0.27272727  0.27272727 -0.00000000       0.003
   0.36363636  0.36363636  0.00000000       0.006
   0.45454545  0.36363636 -0.00000000       0.012
  -0.45454545  0.36363636 -0.00000000       0.012
  -0.36363636  0.36363636  0.00000000       0.003
   0.45454545  0.45454545 -0.00000000       0.006
  -0.45454545  0.45454545 -0.00000000       0.003
   0.09090909  0.09090909  0.09090909       0.006
   0.18181818  0.09090909  0.09090909       0.012
   0.27272727  0.09090909  0.09090909       0.012
   0.36363636  0.09090909  0.09090909       0.012
  -0.09090909  0.09090909  0.09090909       0.003
   0.18181818  0.18181818  0.09090909       0.006
   0.27272727  0.18181818  0.09090909       0.012
   0.36363636  0.18181818  0.09090909       0.012
   0.45454545  0.18181818  0.09090909       0.012
  -0.45454545  0.18181818  0.09090909       0.012
  -0.36363636  0.18181818  0.09090909       0.006
  -0.18181818  0.18181818  0.09090909       0.006
  -0.09090909  0.18181818  0.09090909       0.006
   0.27272727  0.27272727  0.09090909       0.006
   0.36363636  0.27272727  0.09090909       0.012
   0.45454545  0.27272727  0.09090909       0.012
  -0.45454545  0.27272727  0.09090909       0.006
  -0.27272727  0.27272727  0.09090909       0.006
  -0.18181818  0.27272727  0.09090909       0.012
  -0.09090909  0.27272727  0.09090909       0.006
   0.36363636  0.36363636  0.09090909       0.006
   0.45454545  0.36363636  0.09090909       0.006
  -0.36363636  0.36363636  0.09090909       0.006
  -0.27272727  0.36363636  0.09090909       0.012
  -0.18181818  0.36363636  0.09090909       0.012
  -0.09090909  0.36363636  0.09090909       0.006
  -0.45454545  0.45454545  0.09090909       0.006
  -0.36363636  0.45454545  0.09090909       0.012
  -0.27272727  0.45454545  0.09090909       0.012
  -0.18181818  0.45454545  0.09090909       0.012
  -0.09090909  0.45454545  0.09090909       0.006
  -0.45454545 -0.45454545  0.09090909       0.006
  -0.36363636 -0.45454545  0.09090909       0.012
  -0.27272727 -0.45454545  0.09090909       0.012
  -0.18181818 -0.45454545  0.09090909       0.012
  -0.09090909 -0.45454545  0.09090909       0.006
  -0.36363636 -0.36363636  0.09090909       0.006
  -0.27272727 -0.36363636  0.09090909       0.012
  -0.18181818 -0.36363636  0.09090909       0.012
  -0.09090909 -0.36363636  0.09090909       0.006
  -0.27272727 -0.27272727  0.09090909       0.006
  -0.18181818 -0.27272727  0.09090909       0.012
  -0.09090909 -0.27272727  0.09090909       0.006
  -0.18181818 -0.18181818  0.09090909       0.006
  -0.09090909 -0.18181818  0.09090909       0.006
  -0.09090909 -0.09090909  0.09090909       0.002
   0.18181818  0.18181818  0.18181818       0.006
   0.27272727  0.18181818  0.18181818       0.012
  -0.18181818  0.18181818  0.18181818       0.003
   0.27272727  0.27272727  0.18181818       0.006
   0.36363636  0.27272727  0.18181818       0.006
  -0.27272727  0.27272727  0.18181818       0.006
  -0.18181818  0.27272727  0.18181818       0.006
  -0.36363636  0.36363636  0.18181818       0.006
  -0.27272727  0.36363636  0.18181818       0.012
  -0.18181818  0.36363636  0.18181818       0.006
  -0.45454545  0.45454545  0.18181818       0.006
  -0.36363636  0.45454545  0.18181818       0.012
  -0.27272727  0.45454545  0.18181818       0.012
  -0.18181818  0.45454545  0.18181818       0.006
  -0.45454545 -0.45454545  0.18181818       0.006
  -0.36363636 -0.45454545  0.18181818       0.012
  -0.27272727 -0.45454545  0.18181818       0.012
  -0.18181818 -0.45454545  0.18181818       0.006
  -0.36363636 -0.36363636  0.18181818       0.006
  -0.27272727 -0.36363636  0.18181818       0.012
  -0.18181818 -0.36363636  0.18181818       0.006
  -0.27272727 -0.27272727  0.18181818       0.006
  -0.18181818 -0.27272727  0.18181818       0.006
  -0.18181818 -0.18181818  0.18181818       0.002
  -0.27272727  0.27272727  0.27272727       0.003
  -0.36363636  0.36363636  0.27272727       0.006
  -0.27272727  0.36363636  0.27272727       0.006
  -0.45454545  0.45454545  0.27272727       0.006
  -0.36363636  0.45454545  0.27272727       0.012
  -0.27272727  0.45454545  0.27272727       0.006
  -0.45454545 -0.45454545  0.27272727       0.006
  -0.36363636 -0.45454545  0.27272727       0.012
  -0.27272727 -0.45454545  0.27272727       0.006
  -0.36363636 -0.36363636  0.27272727       0.006
  -0.27272727 -0.36363636  0.27272727       0.006
  -0.27272727 -0.27272727  0.27272727       0.002
  -0.36363636  0.36363636  0.36363636       0.003
  -0.45454545  0.45454545  0.36363636       0.006
  -0.36363636  0.45454545  0.36363636       0.006
  -0.45454545 -0.45454545  0.36363636       0.006
  -0.36363636 -0.45454545  0.36363636       0.006
  -0.36363636 -0.36363636  0.36363636       0.002
  -0.45454545  0.45454545  0.45454545       0.003
  -0.45454545 -0.45454545  0.45454545       0.002
 
 position of ions in fractional coordinates (direct lattice) 
   0.25000000  0.75000000  0.50000000
   0.00000000  0.00000000  0.00000000
 
 position of ions in cartesian coordinates  (Angst):
   2.45000000  0.00000000  0.63700000
   0.00000000  0.00000000  0.00000000
 


--------------------------------------------------------------------------------------------------------


 k-point  1 :   0.0000 0.0000 0.0000  plane waves:     127
 k-point  2 :   0.0909-0.0000 0.0000  plane waves:     131
 k-point  3 :   0.1818-0.0000 0.0000  plane waves:     131
 k-point  4 :   0.2727-0.0000 0.0000  plane waves:     130
 k-point  5 :   0.3636-0.0000 0.0000  plane waves:     130
 k-point  6 :   0.4545-0.0000-0.0000  plane waves:     125
 k-point  7 :   0.0909 0.0909 0.0000  plane waves:     131
 k-point  8 :   0.1818 0.0909-0.0000  plane waves:     128
 k-point  9 :   0.2727 0.0909 0.0000  plane waves:     128
 k-point 10 :   0.3636 0.0909 0.0000  plane waves:     126
 k-point 11 :   0.4545 0.0909-0.0000  plane waves:     124
 k-point 12 :  -0.4545 0.0909-0.0000  plane waves:     128
 k-point 13 :  -0.3636 0.0909 0.0000  plane waves:     131
 k-point 14 :  -0.2727 0.0909 0.0000  plane waves:     130
 k-point 15 :  -0.1818 0.0909 0.0000  plane waves:     130
 k-point 16 :  -0.0909 0.0909 0.0000  plane waves:     127
 k-point 17 :   0.1818 0.1818 0.0000  plane waves:     123
 k-point 18 :   0.2727 0.1818 0.0000  plane waves:     125
 k-point 19 :   0.3636 0.1818-0.0000  plane waves:     123
 k-point 20 :   0.4545 0.1818-0.0000  plane waves:     128
 k-point 21 :  -0.4545 0.1818-0.0000  plane waves:     131
 k-point 22 :  -0.3636 0.1818 0.0000  plane waves:     130
 k-point 23 :  -0.2727 0.1818-0.0000  plane waves:     131
 k-point 24 :  -0.1818 0.1818 0.0000  plane waves:     131
 k-point 25 :   0.2727 0.2727-0.0000  plane waves:     121
 k-point 26 :   0.3636 0.2727-0.0000  plane waves:     125
 k-point 27 :   0.4545 0.2727 0.0000  plane waves:     126
 k-point 28 :  -0.4545 0.2727 0.0000  plane waves:     130
 k-point 29 :  -0.3636 0.2727-0.0000  plane waves:     129
 k-point 30 :  -0.2727 0.2727-0.0000  plane waves:     135
 k-point 31 :   0.3636 0.3636 0.0000  plane waves:     126
 k-point 32 :   0.4545 0.3636-0.0000  plane waves:     125
 k-point 33 :  -0.4545 0.3636-0.0000  plane waves:     130
 k-point 34 :  -0.3636 0.3636 0.0000  plane waves:     135
 k-point 35 :   0.4545 0.4545-0.0000  plane waves:     128
 k-point 36 :  -0.4545 0.4545-0.0000  plane waves:     135
 k-point 37 :   0.0909 0.0909 0.0909  plane waves:     129
 k-point 38 :   0.1818 0.0909 0.0909  plane waves:     128
 k-point 39 :   0.2727 0.0909 0.0909  plane waves:     129
 k-point 40 :   0.3636 0.0909 0.0909  plane waves:     124
 k-point 41 :  -0.0909 0.0909 0.0909  plane waves:     131
 k-point 42 :   0.1818 0.1818 0.0909  plane waves:     133
 k-point 43 :   0.2727 0.1818 0.0909  plane waves:     126
 k-point 44 :   0.3636 0.1818 0.0909  plane waves:     126
 k-point 45 :   0.4545 0.1818 0.0909  plane waves:     129
 k-point 46 :  -0.4545 0.1818 0.0909  plane waves:     128
 k-point 47 :  -0.3636 0.1818 0.0909  plane waves:     130
 k-point 48 :  -0.1818 0.1818 0.0909  plane waves:     133
 k-point 49 :  -0.0909 0.1818 0.0909  plane waves:     131
 k-point 50 :   0.2727 0.2727 0.0909  plane waves:     127
 k-point 51 :   0.3636 0.2727 0.0909  plane waves:     127
 k-point 52 :   0.4545 0.2727 0.0909  plane waves:     130
 k-point 53 :  -0.4545 0.2727 0.0909  plane waves:     128
 k-point 54 :  -0.2727 0.2727 0.0909  plane waves:     132
 k-point 55 :  -0.1818 0.2727 0.0909  plane waves:     130
 k-point 56 :  -0.0909 0.2727 0.0909  plane waves:     129
 k-point 57 :   0.3636 0.3636 0.0909  plane waves:     128
 k-point 58 :   0.4545 0.3636 0.0909  plane waves:     126
 k-point 59 :  -0.3636 0.3636 0.0909  plane waves:     128
 k-point 60 :  -0.2727 0.3636 0.0909  plane waves:     130
 k-point 61 :  -0.1818 0.3636 0.0909  plane waves:     130
 k-point 62 :  -0.0909 0.3636 0.0909  plane waves:     128
 k-point 63 :  -0.4545 0.4545 0.0909  plane waves:     131
 k-point 64 :  -0.3636 0.4545 0.0909  plane waves:     131
 k-point 65 :  -0.2727 0.4545 0.0909  plane waves:     127
 k-point 66 :  -0.1818 0.4545 0.0909  plane waves:     130
 k-point 67 :  -0.0909 0.4545 0.0909  plane waves:     128
 k-point 68 :  -0.4545-0.4545 0.0909  plane waves:     130
 k-point 69 :  -0.3636-0.4545 0.0909  plane waves:     127
 k-point 70 :  -0.2727-0.4545 0.0909  plane waves:     126
 k-point 71 :  -0.1818-0.4545 0.0909  plane waves:     123
 k-point 72 :  -0.0909-0.4545 0.0909  plane waves:     125
 k-point 73 :  -0.3636-0.3636 0.0909  plane waves:     125
 k-point 74 :  -0.2727-0.3636 0.0909  plane waves:     121
 k-point 75 :  -0.1818-0.3636 0.0909  plane waves:     126
 k-point 76 :  -0.0909-0.3636 0.0909  plane waves:     121
 k-point 77 :  -0.2727-0.2727 0.0909  plane waves:     123
 k-point 78 :  -0.1818-0.2727 0.0909  plane waves:     120
 k-point 79 :  -0.0909-0.2727 0.0909  plane waves:     123
 k-point 80 :  -0.1818-0.1818 0.0909  plane waves:     123
 k-point 81 :  -0.0909-0.1818 0.0909  plane waves:     131
 k-point 82 :  -0.0909-0.0909 0.0909  plane waves:     131
 k-point 83 :   0.1818 0.1818 0.1818  plane waves:     133
 k-point 84 :   0.2727 0.1818 0.1818  plane waves:     125
 k-point 85 :  -0.1818 0.1818 0.1818  plane waves:     129
 k-point 86 :   0.2727 0.2727 0.1818  plane waves:     130
 k-point 87 :   0.3636 0.2727 0.1818  plane waves:     128
 k-point 88 :  -0.2727 0.2727 0.1818  plane waves:     126
 k-point 89 :  -0.1818 0.2727 0.1818  plane waves:     132
 k-point 90 :  -0.3636 0.3636 0.1818  plane waves:     129
 k-point 91 :  -0.2727 0.3636 0.1818  plane waves:     128
 k-point 92 :  -0.1818 0.3636 0.1818  plane waves:     129
 k-point 93 :  -0.4545 0.4545 0.1818  plane waves:     129
 k-point 94 :  -0.3636 0.4545 0.1818  plane waves:     130
 k-point 95 :  -0.2727 0.4545 0.1818  plane waves:     129
 k-point 96 :  -0.1818 0.4545 0.1818  plane waves:     128
 k-point 97 :  -0.4545-0.4545 0.1818  plane waves:     130
 k-point 98 :  -0.3636-0.4545 0.1818  plane waves:     129
 k-point 99 :  -0.2727-0.4545 0.1818  plane waves:     126
 k-point ** :  -0.1818-0.4545 0.1818  plane waves:     124
 k-point ** :  -0.3636-0.3636 0.1818  plane waves:     127
 k-point ** :  -0.2727-0.3636 0.1818  plane waves:     123
 k-point ** :  -0.1818-0.3636 0.1818  plane waves:     121
 k-point ** :  -0.2727-0.2727 0.1818  plane waves:     120
 k-point ** :  -0.1818-0.2727 0.1818  plane waves:     115
 k-point ** :  -0.1818-0.1818 0.1818  plane waves:     127
 k-point ** :  -0.2727 0.2727 0.2727  plane waves:     125
 k-point ** :  -0.3636 0.3636 0.2727  plane waves:     129
 k-point ** :  -0.2727 0.3636 0.2727  plane waves:     129
 k-point ** :  -0.4545 0.4545 0.2727  plane waves:     128
 k-point ** :  -0.3636 0.4545 0.2727  plane waves:     129
 k-point ** :  -0.2727 0.4545 0.2727  plane waves:     131
 k-point ** :  -0.4545-0.4545 0.2727  plane waves:     131
 k-point ** :  -0.3636-0.4545 0.2727  plane waves:     129
 k-point ** :  -0.2727-0.4545 0.2727  plane waves:     127
 k-point ** :  -0.3636-0.3636 0.2727  plane waves:     123
 k-point ** :  -0.2727-0.3636 0.2727  plane waves:     122
 k-point ** :  -0.2727-0.2727 0.2727  plane waves:     122
 k-point ** :  -0.3636 0.3636 0.3636  plane waves:     133
 k-point ** :  -0.4545 0.4545 0.3636  plane waves:     131
 k-point ** :  -0.3636 0.4545 0.3636  plane waves:     131
 k-point ** :  -0.4545-0.4545 0.3636  plane waves:     128
 k-point ** :  -0.3636-0.4545 0.3636  plane waves:     126
 k-point ** :  -0.3636-0.3636 0.3636  plane waves:     114
 k-point ** :  -0.4545 0.4545 0.4545  plane waves:     128
 k-point ** :  -0.4545-0.4545 0.4545  plane waves:     126

 maximum and minimum number of plane-waves per node :       135      114

 maximum number of plane-waves:       135
 maximum index in each direction: 
   IXMAX=    4   IYMAX=    4   IZMAX=    3
   IXMIN=   -4   IYMIN=   -4   IZMIN=   -4


 serial   3D FFT for wavefunctions
 parallel 3D FFT for charge:
    minimum data exchange during FFTs selected (reduces bandwidth)


 total amount of memory used by VASP MPI-rank0    31637. kBytes
=======================================================================

   base      :      30000. kBytes
   nonl-proj :       1101. kBytes
   fftplans  :         66. kBytes
   grid      :        158. kBytes
   one-center:          6. kBytes
   wavefun   :        306. kBytes
 
     INWAV:  cpu time    0.0000: real time    0.0007
 Broyden mixing: mesh for mixing (old mesh)
   NGX =  7   NGY =  7   NGZ =  7
  (NGX  = 24   NGY  = 24   NGZ  = 24)
  gives a total of    343 points

 initial charge density was supplied:
 charge density of overlapping atoms calculated
 number of electron       8.0000000 magnetization 
 keeping initial charge density in first step


--------------------------------------------------------------------------------------------------------


 Maximum index for augmentation-charges          241 (set IRDMAX)


--------------------------------------------------------------------------------------------------------


 First call to EWALD:  gamma=   0.567
 Maximum number of real-space cells 4x 4x 3
 Maximum number of reciprocal cells 3x 3x 3

    FEWALD:  cpu time    0.0080: real time    0.0068


--------------------------------------- Iteration      1(   1)  ---------------------------------------


    POTLOK:  cpu time    0.0200: real time    0.0320
    SETDIJ:  cpu time    0.0080: real time    0.0084
     EDDAV:  cpu time    0.9280: real time    0.9313
       DOS:  cpu time    0.0040: real time    0.0054
    --------------------------------------------
      LOOP:  cpu time    0.9640: real time    0.9782

 eigenvalue-minimisations  :  2128
 total energy-change (2. order) :-0.5398940E+01  (-0.1724795E+03)
 number of electron       8.0000000 magnetization 
 augmentation part        8.0000000 magnetization 

 Free energy of the ion-electron system (eV)
  ---------------------------------------------------
  alpha Z        PSCENC =         4.40202223
  Ewald energy   TEWEN  =      -265.18101312
  -Hartree energ DENC   =        -2.30415367
  -exchange      EXHF   =         0.00000000
  -V(xc)+E(xc)   XCENC  =       -17.81530915
  PAW double counting   =        65.95520812      -30.76852678
  entropy T*S    EENTRO =        -0.01214085
  eigenvalues    EBANDS =        34.23313717
  atomic energy  EATOM  =       206.09183643
  Solvation  Ediel_sol  =         0.00000000
  ---------------------------------------------------
  free energy    TOTEN  =        -5.39893962 eV

  energy without entropy =       -5.38679877  energy(sigma->0) =       -5.39286920


--------------------------------------------------------------------------------------------------------




--------------------------------------- Iteration      1(   2)  ---------------------------------------


     EDDAV:  cpu time    1.4760: real time    1.4866
       DOS:  cpu time    0.0080: real time    0.0056
    --------------------------------------------
      LOOP:  cpu time    1.4800: real time    1.4918

 eigenvalue-minimisations  :  3192
 total energy-change (2. order) :-0.4709675E+01  (-0.4492356E+01)
 number of electron       8.0000000 magnetization 
 augmentation part        8.0000000 magnetization 

 Free energy of the ion-electron system (eV)
  ---------------------------------------------------
  alpha Z        PSCENC =         4.40202223
  Ewald energy   TEWEN  =      -265.18101312
  -Hartree energ DENC   =        -2.30415367
  -exchange      EXHF   =         0.00000000
  -V(xc)+E(xc)   XCENC  =       -17.81530915
  PAW double counting   =        65.95520812      -30.76852678
  entropy T*S    EENTRO =        -0.01555919
  eigenvalues    EBANDS =        29.52688064
  atomic energy  EATOM  =       206.09183643
  Solvation  Ediel_sol  =         0.00000000
  ---------------------------------------------------
  free energy    TOTEN  =       -10.10861449 eV

  energy without entropy =      -10.09305530  energy(sigma->0) =      -10.10083489


--------------------------------------------------------------------------------------------------------




--------------------------------------- Iteration      1(   3)  ---------------------------------------


     EDDAV:  cpu time    1.0680: real time    1.0725
       DOS:  cpu time    0.0040: real time    0.0053
    --------------------------------------------
      LOOP:  cpu time    1.0720: real time    1.0778

 eigenvalue-minimisations  :  2384
 total energy-change (2. order) :-0.2767367E-01  (-0.2758026E-01)
 number of electron       8.0000000 magnetization 
 augmentation part        8.0000000 magnetization 

 Free energy of the ion-electron system (eV)
  ---------------------------------------------------
  alpha Z        PSCENC =         4.40202223
  Ewald energy   TEWEN  =      -265.18101312
  -Hartree energ DENC   =        -2.30415367
  -exchange      EXHF   =         0.00000000
  -V(xc)+E(xc)   XCENC  =       -17.81530915
  PAW double counting   =        65.95520812      -30.76852678
  entropy T*S    EENTRO =        -0.01547041
  eigenvalues    EBANDS =        29.49911819
  atomic energy  EATOM  =       206.09183643
  Solvation  Ediel_sol  =         0.00000000
  ---------------------------------------------------
  free energy    TOTEN  =       -10.13628816 eV

  energy without entropy =      -10.12081775  energy(sigma->0) =      -10.12855295


--------------------------------------------------------------------------------------------------------




--------------------------------------- Iteration      1(   4)  ---------------------------------------


     EDDAV:  cpu time    1.4760: real time    1.4785
       DOS:  cpu time    0.0040: real time    0.0055
    --------------------------------------------
      LOOP:  cpu time    1.4800: real time    1.4841

 eigenvalue-minimisations  :  3176
 total energy-change (2. order) :-0.2776456E-04  (-0.2776385E-04)
 number of electron       8.0000000 magnetization 
 augmentation part        8.0000000 magnetization 

 Free energy of the ion-electron system (eV)
  ---------------------------------------------------
  alpha Z        PSCENC =         4.40202223
  Ewald energy   TEWEN  =      -265.18101312
  -Hartree energ DENC   =        -2.30415367
  -exchange      EXHF   =         0.00000000
  -V(xc)+E(xc)   XCENC  =       -17.81530915
  PAW double counting   =        65.95520812      -30.76852678
  entropy T*S    EENTRO =        -0.01547010
  eigenvalues    EBANDS =        29.49909012
  atomic energy  EATOM  =       206.09183643
  Solvation  Ediel_sol  =         0.00000000
  ---------------------------------------------------
  free energy    TOTEN  =       -10.13631592 eV

  energy without entropy =      -10.12084582  energy(sigma->0) =      -10.12858087


--------------------------------------------------------------------------------------------------------




--------------------------------------- Iteration      1(   5)  ---------------------------------------


     EDDAV:  cpu time    1.0200: real time    1.0242
       DOS:  cpu time    0.0040: real time    0.0057
    CHARGE:  cpu time    0.0200: real time    0.0185
    MIXING:  cpu time    0.0000: real time    0.0017
    --------------------------------------------
      LOOP:  cpu time    1.0440: real time    1.0504

 eigenvalue-minimisations  :  2256
 total energy-change (2. order) :-0.2821071E-07  (-0.2764831E-07)
 number of electron       8.0000045 magnetization 
 augmentation part       -0.4649690 magnetization 

 Broyden mixing:
  rms(total) = 0.14983E+00    rms(broyden)= 0.14972E+00
  rms(prec ) = 0.33693E+00
  weight for this iteration     100.00

 Free energy of the ion-electron system (eV)
  ---------------------------------------------------
  alpha Z        PSCENC =         4.40202223
  Ewald energy   TEWEN  =      -265.18101312
  -Hartree energ DENC   =        -2.30415367
  -exchange      EXHF   =         0.00000000
  -V(xc)+E(xc)   XCENC  =       -17.81530915
  PAW double counting   =        65.95520812      -30.76852678
  entropy T*S    EENTRO =        -0.01547010
  eigenvalues    EBANDS =        29.49909009
  atomic energy  EATOM  =       206.09183643
  Solvation  Ediel_sol  =         0.00000000
  ---------------------------------------------------
  free energy    TOTEN  =       -10.13631595 eV

  energy without entropy =      -10.12084585  energy(sigma->0) =      -10.12858090


--------------------------------------------------------------------------------------------------------




--------------------------------------- Iteration      1(   6)  ---------------------------------------


    POTLOK:  cpu time    0.0160: real time    0.0198
    SETDIJ:  cpu time    0.0080: real time    0.0080
     EDDAV:  cpu time    1.0800: real time    1.0823
       DOS:  cpu time    0.0080: real time    0.0056
    CHARGE:  cpu time    0.0160: real time    0.0176
    MIXING:  cpu time    0.0000: real time    0.0014
    --------------------------------------------
      LOOP:  cpu time    1.1280: real time    1.1342

 eigenvalue-minimisations  :  2432
 total energy-change (2. order) : 0.8548307E-02  (-0.1792051E-03)
 number of electron       8.0000045 magnetization 
 augmentation part       -0.4665903 magnetization 

 Broyden mixing:
  rms(total) = 0.93571E-01    rms(broyden)= 0.93565E-01
  rms(prec ) = 0.21075E+00
  weight for this iteration     100.00

 eigenvalues of (default mixing * dielectric matrix)
  average eigenvalue GAMMA=   2.6609
  2.6609

 Free energy of the ion-electron system (eV)
  ---------------------------------------------------
  alpha Z        PSCENC =         4.40202223
  Ewald energy   TEWEN  =      -265.18101312
  -Hartree energ DENC   =        -2.33424765
  -exchange      EXHF   =         0.00000000
  -V(xc)+E(xc)   XCENC  =       -17.71743798
  PAW double counting   =        68.46590474      -33.32021519
  entropy T*S    EENTRO =        -0.01549657
  eigenvalues    EBANDS =        29.48087946
  atomic energy  EATOM  =       206.09183643
  Solvation  Ediel_sol  =         0.00000000
  ---------------------------------------------------
  free energy    TOTEN  =       -10.12776764 eV

  energy without entropy =      -10.11227108  energy(sigma->0) =      -10.12001936


--------------------------------------------------------------------------------------------------------




--------------------------------------- Iteration      1(   7)  ---------------------------------------


    POTLOK:  cpu time    0.0160: real time    0.0197
    SETDIJ:  cpu time    0.0080: real time    0.0080
     EDDAV:  cpu time    1.0400: real time    1.0404
       DOS:  cpu time    0.0040: real time    0.0057
    CHARGE:  cpu time    0.0200: real time    0.0176
    MIXING:  cpu time    0.0000: real time    0.0012
    --------------------------------------------
      LOOP:  cpu time    1.0880: real time    1.0926

 eigenvalue-minimisations  :  2360
 total energy-change (2. order) : 0.6625464E-02  (-0.5083843E-03)
 number of electron       8.0000045 magnetization 
 augmentation part       -0.4696478 magnetization 

 Broyden mixing:
  rms(total) = 0.35401E-02    rms(broyden)= 0.35233E-02
  rms(prec ) = 0.93576E-02
  weight for this iteration     100.00

 eigenvalues of (default mixing * dielectric matrix)
  average eigenvalue GAMMA=   2.5520
  2.5520  2.5520

 Free energy of the ion-electron system (eV)
  ---------------------------------------------------
  alpha Z        PSCENC =         4.40202223
  Ewald energy   TEWEN  =      -265.18101312
  -Hartree energ DENC   =        -2.48425218
  -exchange      EXHF   =         0.00000000
  -V(xc)+E(xc)   XCENC  =       -17.53948174
  PAW double counting   =        72.53376792      -37.45877654
  entropy T*S    EENTRO =        -0.01555240
  eigenvalues    EBANDS =        29.53030721
  atomic energy  EATOM  =       206.09183643
  Solvation  Ediel_sol  =         0.00000000
  ---------------------------------------------------
  free energy    TOTEN  =       -10.12114218 eV

  energy without entropy =      -10.10558978  energy(sigma->0) =      -10.11336598


--------------------------------------------------------------------------------------------------------




--------------------------------------- Iteration      1(   8)  ---------------------------------------


    POTLOK:  cpu time    0.0160: real time    0.0212
    SETDIJ:  cpu time    0.0080: real time    0.0080
     EDDAV:  cpu time    0.6240: real time    0.6249
       DOS:  cpu time    0.0040: real time    0.0057
    --------------------------------------------
      LOOP:  cpu time    0.6520: real time    0.6597

 eigenvalue-minimisations  :  1288
 total energy-change (2. order) : 0.2374315E-04  (-0.7665271E-05)
 number of electron       8.0000045 magnetization 
 augmentation part       -0.4696478 magnetization 

 Free energy of the ion-electron system (eV)
  ---------------------------------------------------
  alpha Z        PSCENC =         4.40202223
  Ewald energy   TEWEN  =      -265.18101312
  -Hartree energ DENC   =        -2.50549124
  -exchange      EXHF   =         0.00000000
  -V(xc)+E(xc)   XCENC  =       -17.53901048
  PAW double counting   =        72.35896512      -37.28506989
  entropy T*S    EENTRO =        -0.01553868
  eigenvalues    EBANDS =        29.55218119
  atomic energy  EATOM  =       206.09183643
  Solvation  Ediel_sol  =         0.00000000
  ---------------------------------------------------
  free energy    TOTEN  =       -10.12111843 eV

  energy without entropy =      -10.10557976  energy(sigma->0) =      -10.11334910


--------------------------------------------------------------------------------------------------------




 average (electrostatic) potential at core
  the test charge radii are     0.9892
  (the norm of the test charge is              1.0000)
       1 -80.5596       2 -80.5596
 
 
 
 E-fermi :   9.1537     XC(G=0): -10.8939     alpha+bet :-15.6819


 k-point     1 :       0.0000    0.0000    0.0000
  band No.  band energies     occupation 
      1      -4.6156      2.00000
      2       6.2015      2.00000
      3       6.3074      2.00000
      4       6.3074      2.00000
      5      10.6564      0.00000
      6      17.0745      0.00000
      7      17.3785      0.00000
      8      17.3786      0.00000

 k-point     2 :       0.0909   -0.0000    0.0000
  band No.  band energies     occupation 
      1      -4.3822      2.00000
      2       5.4427      2.00000
      3       6.2663      2.00000
      4       7.4802      2.00000
      5      11.1417      0.00000
      6      15.6722      0.00000
      7      16.7462      0.00000
      8      17.3959      0.00000

 k-point     3 :       0.1818   -0.0000    0.0000
  band No.  band energies     occupation 
      1      -3.6836      2.00000
      2       5.0601      2.00000
      3       6.2734      2.00000
      4       9.0261      1.63314
      5      12.4318      0.00000
      6      13.4910      0.00000
      7      13.9085      0.00000
      8      15.8746      0.00000

 k-point     4 :       0.2727   -0.0000    0.0000
  band No.  band energies     occupation 
      1      -2.5255      2.00000
      2       5.1121      2.00000
      3       6.5026      2.00000
      4       9.3498      0.16557
      5      11.4415      0.00000
      6      12.1209      0.00000
      7      13.7263      0.00000
      8      14.5809      0.00000

 k-point     5 :       0.3636   -0.0000    0.0000
  band No.  band energies     occupation 
      1      -0.9191      2.00000
      2       5.5285      2.00000
      3       6.5473      2.00000
      4       7.0175      2.00000
      5       9.6817      0.00019
      6      12.1640      0.00000
      7      13.7297      0.00000
      8      13.8726      0.00000

 k-point     6 :       0.4545   -0.0000   -0.0000
  band No.  band energies     occupation 
      1       1.1090      2.00000
      2       3.6236      2.00000
      3       6.4922      2.00000
      4       7.6497      2.00000
      5       8.0634      2.00000
      6      10.7542      0.00000
      7      13.5589      0.00000
      8      14.6450      0.00000

 k-point     7 :       0.0909    0.0909    0.0000
  band No.  band energies     occupation 
      1      -3.7816      2.00000
      2       5.3738      2.00000
      3       7.0273      2.00000
      4       8.0978      2.00000
      5      11.9758      0.00000
      6      13.9349      0.00000
      7      14.0681      0.00000
      8      16.4167      0.00000

 k-point     8 :       0.1818    0.0909   -0.0000
  band No.  band energies     occupation 
      1      -2.7202      2.00000
      2       5.4019      2.00000
      3       7.5120      2.00000
      4       9.2573      0.46423
      5      11.0740      0.00000
      6      11.5964      0.00000
      7      13.5508      0.00000
      8      14.7511      0.00000

 k-point     9 :       0.2727    0.0909    0.0000
  band No.  band energies     occupation 
      1      -1.2077      2.00000
      2       5.7882      2.00000
      3       7.1409      2.00000
      4       7.8750      2.00000
      5       9.3310      0.21009
      6      12.1335      0.00000
      7      12.5615      0.00000
      8      14.0348      0.00000

 k-point    10 :       0.3636    0.0909    0.0000
  band No.  band energies     occupation 
      1       0.7367      2.00000
      2       4.2574      2.00000
      3       6.6059      2.00000
      4       7.0047      2.00000
      5       8.8148      1.98345
      6      11.0006      0.00000
      7      12.8732      0.00000
      8      15.0246      0.00000

 k-point    11 :       0.4545    0.0909   -0.0000
  band No.  band energies     occupation 
      1       1.6565      2.00000
      2       3.1749      2.00000
      3       5.6265      2.00000
      4       7.4517      2.00000
      5       8.5991      1.99991
      6      11.3239      0.00000
      7      12.6296      0.00000
      8      15.6540      0.00000

 k-point    12 :      -0.4545    0.0909   -0.0000
  band No.  band energies     occupation 
      1      -0.4391      2.00000
      2       4.5202      2.00000
      3       5.9743      2.00000
      4       7.0396      2.00000
      5       9.6852      0.00017
      6      12.4295      0.00000
      7      13.1079      0.00000
      8      14.8504      0.00000

 k-point    13 :      -0.3636    0.0909    0.0000
  band No.  band energies     occupation 
      1      -2.1369      2.00000
      2       3.9529      2.00000
      3       6.4587      2.00000
      4       8.9644      1.81932
      5      11.3290      0.00000
      6      12.5700      0.00000
      7      13.4287      0.00000
      8      14.8582      0.00000

 k-point    14 :      -0.2727    0.0909    0.0000
  band No.  band energies     occupation 
      1      -3.3898      2.00000
      2       3.7835      2.00000
      3       6.2256      2.00000
      4       9.9244      0.00000
      5      12.6480      0.00000
      6      13.1587      0.00000
      7      13.8201      0.00000
      8      15.3407      0.00000

 k-point    15 :      -0.1818    0.0909    0.0000
  band No.  band energies     occupation 
      1      -4.1855      2.00000
      2       4.0414      2.00000
      3       6.2895      2.00000
      4       8.4597      2.00000
      5      12.2343      0.00000
      6      14.1556      0.00000
      7      16.0940      0.00000
      8      17.0836      0.00000

 k-point    16 :      -0.0909    0.0909    0.0000
  band No.  band energies     occupation 
      1      -4.5171      2.00000
      2       4.6925      2.00000
      3       6.3997      2.00000
      4       7.4688      2.00000
      5      11.2672      0.00000
      6      15.4028      0.00000
      7      16.6665      0.00000
      8      19.0195      0.00000

 k-point    17 :       0.1818    0.1818    0.0000
  band No.  band energies     occupation 
      1      -1.3040      2.00000
      2       5.7860      2.00000
      3       7.7627      2.00000
      4       7.8903      2.00000
      5       9.5466      0.00547
      6      11.3791      0.00000
      7      13.0377      0.00000
      8      13.1899      0.00000

 k-point    18 :       0.2727    0.1818    0.0000
  band No.  band energies     occupation 
      1       0.5498      2.00000
      2       5.0579      2.00000
      3       5.9995      2.00000
      4       6.5414      2.00000
      5       9.8139      0.00000
      6      11.6204      0.00000
      7      12.2970      0.00000
      8      13.6878      0.00000

 k-point    19 :       0.3636    0.1818   -0.0000
  band No.  band energies     occupation 
      1       2.3157      2.00000
      2       2.9695      2.00000
      3       4.4933      2.00000
      4       7.4408      2.00000
      5       9.1395      1.08021
      6      11.2325      0.00000
      7      12.9167      0.00000
      8      16.0117      0.00000

 k-point    20 :       0.4545    0.1818   -0.0000
  band No.  band energies     occupation 
      1       0.2283      2.00000
      2       3.2711      2.00000
      3       5.5974      2.00000
      4       7.5056      2.00000
      5       9.4173      0.06239
      6      11.4486      0.00000
      7      14.2204      0.00000
      8      15.7392      0.00000

 k-point    21 :      -0.4545    0.1818   -0.0000
  band No.  band energies     occupation 
      1      -1.5563      2.00000
      2       2.5753      2.00000
      3       6.9061      2.00000
      4       8.5982      1.99991
      5      10.5303      0.00000
      6      12.5237      0.00000
      7      13.3432      0.00000
      8      15.9950      0.00000

 k-point    22 :      -0.3636    0.1818    0.0000
  band No.  band energies     occupation 
      1      -2.9015      2.00000
      2       2.3048      2.00000
      3       6.6281      2.00000
      4      10.5045      0.00000
      5      11.4873      0.00000
      6      12.6901      0.00000
      7      14.5238      0.00000
      8      16.0440      0.00000

 k-point    23 :      -0.2727    0.1818   -0.0000
  band No.  band energies     occupation 
      1      -3.7928      2.00000
      2       2.4729      2.00000
      3       6.6412      2.00000
      4       9.1754      0.87844
      5      12.6135      0.00000
      6      14.0830      0.00000
      7      15.0255      0.00000
      8      16.5988      0.00000

 k-point    24 :      -0.1818    0.1818    0.0000
  band No.  band energies     occupation 
      1      -4.2220      2.00000
      2       3.0681      2.00000
      3       6.6761      2.00000
      4       8.2652      2.00000
      5      12.8811      0.00000
      6      13.7095      0.00000
      7      15.3616      0.00000
      8      19.3462      0.00000

 k-point    25 :       0.2727    0.2727   -0.0000
  band No.  band energies     occupation 
      1       2.5953      2.00000
      2       3.3741      2.00000
      3       3.5663      2.00000
      4       7.4331      2.00000
      5       9.5543      0.00462
      6      10.6627      0.00000
      7      14.1332      0.00000
      8      14.9069      0.00000

 k-point    26 :       0.3636    0.2727   -0.0000
  band No.  band energies     occupation 
      1       1.0782      2.00000
      2       2.1013      2.00000
      3       5.4134      2.00000
      4       8.0406      2.00000
      5       9.0723      1.43510
      6      10.7861      0.00000
      7      15.4846      0.00000
      8      16.3074      0.00000

 k-point    27 :       0.4545    0.2727    0.0000
  band No.  band energies     occupation 
      1      -0.7866      2.00000
      2       1.2942      2.00000
      3       7.5540      2.00000
      4       8.3701      2.00000
      5       9.5582      0.00424
      6      12.1433      0.00000
      7      14.0526      0.00000
      8      15.9390      0.00000

 k-point    28 :      -0.4545    0.2727    0.0000
  band No.  band energies     occupation 
      1      -2.2210      2.00000
      2       0.9257      2.00000
      3       7.2509      2.00000
      4      10.1428      0.00000
      5      11.0439      0.00000
      6      12.5850      0.00000
      7      14.2742      0.00000
      8      15.0191      0.00000

 k-point    29 :      -0.3636    0.2727   -0.0000
  band No.  band energies     occupation 
      1      -3.2059      2.00000
      2       1.0048      2.00000
      3       7.1923      2.00000
      4       9.8701      0.00000
      5      11.2049      0.00000
      6      13.7962      0.00000
      7      15.8446      0.00000
      8      16.4365      0.00000

 k-point    30 :      -0.2727    0.2727   -0.0000
  band No.  band energies     occupation 
      1      -3.7316      2.00000
      2       1.5261      2.00000
      3       7.1368      2.00000
      4       8.9344      1.87915
      5      12.1739      0.00000
      6      14.0006      0.00000
      7      15.0307      0.00000
      8      19.0793      0.00000

 k-point    31 :       0.3636    0.3636    0.0000
  band No.  band energies     occupation 
      1       0.1623      2.00000
      2       0.1716      2.00000
      3       8.0531      2.00000
      4       8.3500      2.00000
      5       8.8724      1.95336
      6      12.0234      0.00000
      7      14.6024      0.00000
      8      15.3942      0.00000

 k-point    32 :       0.4545    0.3636   -0.0000
  band No.  band energies     occupation 
      1      -1.3518      2.00000
      2      -0.2992      2.00000
      3       8.0643      2.00000
      4       9.0410      1.57450
      5      11.2127      0.00000
      6      12.8709      0.00000
      7      14.1204      0.00000
      8      14.1373      0.00000

 k-point    33 :      -0.4545    0.3636   -0.0000
  band No.  band energies     occupation 
      1      -2.4273      2.00000
      2      -0.3137      2.00000
      3       7.9271      2.00000
      4       9.9375      0.00000
      5      10.6623      0.00000
      6      12.6404      0.00000
      7      15.8376      0.00000
      8      16.6000      0.00000

 k-point    34 :      -0.3636    0.3636    0.0000
  band No.  band energies     occupation 
      1      -3.0475      2.00000
      2       0.1230      2.00000
      3       7.7826      2.00000
      4       9.6673      0.00028
      5      10.8166      0.00000
      6      12.7200      0.00000
      7      17.3741      0.00000
      8      18.8848      0.00000

 k-point    35 :       0.4545    0.4545   -0.0000
  band No.  band energies     occupation 
      1      -1.4616      2.00000
      2      -1.4608      2.00000
      3       8.8333      1.97653
      4       8.8616      1.96116
      5      11.5248      0.00000
      6      11.6450      0.00000
      7      15.7705      0.00000
      8      16.5620      0.00000

 k-point    36 :      -0.4545    0.4545   -0.0000
  band No.  band energies     occupation 
      1      -2.1733      2.00000
      2      -1.1140      2.00000
      3       8.6102      1.99988
      4       9.6274      0.00081
      5      10.5384      0.00000
      6      11.5594      0.00000
      7      18.7949      0.00000
      8      18.8301      0.00000

 k-point    37 :       0.0909    0.0909    0.0909
  band No.  band energies     occupation 
      1      -3.4875      2.00000
      2       3.7671      2.00000
      3       7.2968      2.00000
      4       8.8763      1.95021
      5      12.9238      0.00000
      6      13.5134      0.00000
      7      13.8480      0.00000
      8      15.5498      0.00000

 k-point    38 :       0.1818    0.0909    0.0909
  band No.  band energies     occupation 
      1      -2.3306      2.00000
      2       3.8703      2.00000
      3       7.8154      2.00000
      4       9.3998      0.08194
      5      10.9042      0.00000
      6      11.3455      0.00000
      7      14.3676      0.00000
      8      15.2255      0.00000

 k-point    39 :       0.2727    0.0909    0.0909
  band No.  band energies     occupation 
      1      -0.7260      2.00000
      2       4.3796      2.00000
      3       6.6363      2.00000
      4       7.9294      2.00000
      5       9.4087      0.07147
      6      12.8363      0.00000
      7      13.4460      0.00000
      8      14.1911      0.00000

 k-point    40 :       0.3636    0.0909    0.0909
  band No.  band energies     occupation 
      1       1.3005      2.00000
      2       3.7957      2.00000
      3       5.3757      2.00000
      4       6.6621      2.00000
      5       9.6404      0.00058
      6      11.8733      0.00000
      7      13.7716      0.00000
      8      14.5626      0.00000

 k-point    41 :      -0.0909    0.0909    0.0909
  band No.  band energies     occupation 
      1      -4.4188      2.00000
      2       4.3730      2.00000
      3       5.6184      2.00000
      4       8.4629      2.00000
      5      11.7284      0.00000
      6      14.1632      0.00000
      7      17.5434      0.00000
      8      18.3386      0.00000

 k-point    42 :       0.1818    0.1818    0.0909
  band No.  band energies     occupation 
      1      -0.8218      2.00000
      2       4.3147      2.00000
      3       7.3723      2.00000
      4       7.4662      2.00000
      5      10.0368      0.00000
      6      11.9162      0.00000
      7      14.0789      0.00000
      8      14.3325      0.00000

 k-point    43 :       0.2727    0.1818    0.0909
  band No.  band energies     occupation 
      1       1.1178      2.00000
      2       4.5734      2.00000
      3       5.2098      2.00000
      4       5.6588      2.00000
      5      10.7934      0.00000
      6      12.8097      0.00000
      7      13.2801      0.00000
      8      14.2323      0.00000

 k-point    44 :       0.3636    0.1818    0.0909
  band No.  band energies     occupation 
[...]
      6      14.7570      0.00000
      7      17.4485      0.00000
      8      18.0202      0.00000

 k-point    92 :      -0.1818    0.3636    0.1818
  band No.  band energies     occupation 
      1      -2.1547      2.00000
      2       2.5202      2.00000
      3       4.0816      2.00000
      4       8.5427      1.99974
      5      10.2748      0.00000
      6      15.0437      0.00000
      7      15.8884      0.00000
      8      16.7803      0.00000

 k-point    93 :      -0.4545    0.4545    0.1818
  band No.  band energies     occupation 
      1      -1.7610      2.00000
      2      -0.6928      2.00000
      3       5.9122      2.00000
      4       6.9432      2.00000
      5      13.9995      0.00000
      6      14.8846      0.00000
      7      17.1134      0.00000
      8      17.2611      0.00000

 k-point    94 :      -0.3636    0.4545    0.1818
  band No.  band energies     occupation 
      1      -1.8368      2.00000
      2       0.2717      2.00000
      3       4.8411      2.00000
      4       6.8818      2.00000
      5      12.8515      0.00000
      6      15.3532      0.00000
      7      17.2660      0.00000
      8      17.9862      0.00000

 k-point    95 :      -0.2727    0.4545    0.1818
  band No.  band energies     occupation 
      1      -1.4704      2.00000
      2       1.5890      2.00000
      3       4.2521      2.00000
      4       7.2000      2.00000
      5       9.9239      0.00000
      6      15.9191      0.00000
      7      16.2604      0.00000
      8      17.9806      0.00000

 k-point    96 :      -0.1818    0.4545    0.1818
  band No.  band energies     occupation 
      1      -0.6672      2.00000
      2       2.8981      2.00000
      3       4.4855      2.00000
      4       7.0082      2.00000
      5       8.0639      2.00000
      6      13.8403      0.00000
      7      15.3759      0.00000
      8      17.1227      0.00000

 k-point    97 :      -0.4545   -0.4545    0.1818
  band No.  band energies     occupation 
      1      -0.8702      2.00000
      2      -0.8639      2.00000
      3       5.7586      2.00000
      4       5.7632      2.00000
      5      12.8260      0.00000
      6      15.8688      0.00000
      7      16.6758      0.00000
      8      17.9233      0.00000

 k-point    98 :      -0.3636   -0.4545    0.1818
  band No.  band energies     occupation 
      1      -0.6015      2.00000
      2       0.4370      2.00000
      3       5.0032      2.00000
      4       6.0047      2.00000
      5       9.7487      0.00000
      6      15.8960      0.00000
      7      17.1064      0.00000
      8      18.2150      0.00000

 k-point    99 :      -0.2727   -0.4545    0.1818
  band No.  band energies     occupation 
      1       0.0987      2.00000
      2       2.0786      2.00000
      3       4.7297      2.00000
      4       6.4526      2.00000
      5       7.0947      2.00000
      6      14.0648      0.00000
      7      16.4231      0.00000
      8      18.0622      0.00000

 k-point   100 :      -0.1818   -0.4545    0.1818
  band No.  band energies     occupation 
      1       1.2123      2.00000
      2       3.4966      2.00000
      3       4.5505      2.00000
      4       5.2811      2.00000
      5       7.6990      2.00000
      6      12.2834      0.00000
      7      13.7137      0.00000
      8      17.5000      0.00000

 k-point   101 :      -0.3636   -0.3636    0.1818
  band No.  band energies     occupation 
      1       1.0109      2.00000
      2       1.0551      2.00000
      3       5.4849      2.00000
      4       5.5797      2.00000
      5       6.8684      2.00000
      6      14.0544      0.00000
      7      17.6782      0.00000
      8      17.7291      0.00000

 k-point   102 :      -0.2727   -0.3636    0.1818
  band No.  band energies     occupation 
      1       2.0129      2.00000
      2       2.9088      2.00000
      3       4.2152      2.00000
      4       5.6653      2.00000
      5       6.5873      2.00000
      6      12.5256      0.00000
      7      14.8055      0.00000
      8      16.4921      0.00000

 k-point   103 :      -0.1818   -0.3636    0.1818
  band No.  band energies     occupation 
      1       1.6413      2.00000
      2       3.6336      2.00000
      3       5.1088      2.00000
      4       6.4163      2.00000
      5       7.7589      2.00000
      6      11.1515      0.00000
      7      12.3624      0.00000
      8      14.8785      0.00000

 k-point   104 :      -0.2727   -0.2727    0.1818
  band No.  band energies     occupation 
      1       1.5593      2.00000
      2       4.3996      2.00000
      3       4.5341      2.00000
      4       6.8156      2.00000
      5       6.9100      2.00000
      6      11.3700      0.00000
      7      13.2037      0.00000
      8      13.8624      0.00000

 k-point   105 :      -0.1818   -0.2727    0.1818
  band No.  band energies     occupation 
      1      -0.2899      2.00000
      2       6.1612      2.00000
      3       6.7169      2.00000
      4       7.6757      2.00000
      5       8.0607      2.00000
      6      10.5364      0.00000
      7      11.5502      0.00000
      8      12.3517      0.00000

 k-point   106 :      -0.1818   -0.1818    0.1818
  band No.  band energies     occupation 
      1      -1.8701      2.00000
      2       8.1957      2.00000
      3       8.1957      2.00000
      4       8.3321      2.00000
      5       8.8032      1.92998
      6       9.8090      0.00000
      7      11.8969      0.00000
      8      11.8969      0.00000

 k-point   107 :      -0.2727    0.2727    0.2727
  band No.  band energies     occupation 
      1      -2.8445      2.00000
      2       1.8496      2.00000
      3       3.4354      2.00000
      4       7.9975      2.00000
      5      13.8480      0.00000
      6      16.4208      0.00000
      7      17.1322      0.00000
      8      17.3086      0.00000

 k-point   108 :      -0.3636    0.3636    0.2727
  band No.  band energies     occupation 
      1      -2.1580      2.00000
      2       0.9150      2.00000
      3       3.6043      2.00000
      4       6.5957      2.00000
      5      14.7787      0.00000
      6      16.0419      0.00000
      7      17.2657      0.00000
      8      18.8738      0.00000

 k-point   109 :      -0.2727    0.3636    0.2727
  band No.  band energies     occupation 
      1      -2.0355      2.00000
      2       1.5726      2.00000
      3       3.1912      2.00000
      4       6.7064      2.00000
      5      12.7643      0.00000
      6      16.1784      0.00000
      7      18.5132      0.00000
      8      18.6854      0.00000

 k-point   110 :      -0.4545    0.4545    0.2727
  band No.  band energies     occupation 
      1      -1.2854      2.00000
      2      -0.2431      2.00000
      3       4.3626      2.00000
      4       5.3789      2.00000
      5      15.3305      0.00000
      6      15.7018      0.00000
      7      17.5618      0.00000
      8      18.1686      0.00000

 k-point   111 :      -0.3636    0.4545    0.2727
  band No.  band energies     occupation 
      1      -1.2625      2.00000
      2       0.7394      2.00000
      3       3.4458      2.00000
      4       5.4017      2.00000
      5      12.5814      0.00000
      6      17.2631      0.00000
      7      18.6500      0.00000
      8      19.3756      0.00000

 k-point   112 :      -0.2727    0.4545    0.2727
  band No.  band energies     occupation 
      1      -0.7989      2.00000
      2       1.7297      2.00000
      3       3.3618      2.00000
      4       5.8266      2.00000
      5       9.5723      0.00029
      6      16.9068      0.00000
      7      18.0160      0.00000
      8      18.3251      0.00000

 k-point   113 :      -0.4545   -0.4545    0.2727
  band No.  band energies     occupation 
      1      -0.3235      2.00000
      2      -0.3149      2.00000
      3       4.2921      2.00000
      4       4.2967      2.00000
      5      12.5100      0.00000
      6      17.7761      0.00000
      7      18.7683      0.00000
      8      18.9413      0.00000

 k-point   114 :      -0.3636   -0.4545    0.2727
  band No.  band energies     occupation 
      1       0.0434      2.00000
      2       1.0000      2.00000
      3       3.7034      2.00000
      4       4.6387      2.00000
      5       9.3953      0.01754
      6      17.2301      0.00000
      7      18.8921      0.00000
      8      19.3605      0.00000

 k-point   115 :      -0.2727   -0.4545    0.2727
  band No.  band energies     occupation 
      1       0.8362      2.00000
      2       2.3097      2.00000
      3       3.9480      2.00000
      4       5.3537      2.00000
      5       6.6487      2.00000
      6      15.1845      0.00000
      7      16.6214      0.00000
      8      18.5082      0.00000

 k-point   116 :      -0.3636   -0.3636    0.2727
  band No.  band energies     occupation 
      1       1.6530      2.00000
      2       1.7210      2.00000
      3       4.3505      2.00000
      4       4.3861      2.00000
      5       6.5345      2.00000
      6      15.4951      0.00000
      7      17.4614      0.00000
      8      17.8199      0.00000

 k-point   117 :      -0.2727   -0.3636    0.2727
  band No.  band energies     occupation 
      1       2.6489      2.00000
      2       3.1982      2.00000
      3       4.2363      2.00000
      4       4.9350      2.00000
      5       5.4972      2.00000
      6      13.7509      0.00000
      7      14.8329      0.00000
      8      15.7445      0.00000

 k-point   118 :      -0.2727   -0.2727    0.2727
  band No.  band energies     occupation 
      1       1.4716      2.00000
      2       4.8431      2.00000
      3       4.9964      2.00000
      4       6.2643      2.00000
      5       6.2643      2.00000
      6      12.4703      0.00000
      7      13.0938      0.00000
      8      13.0938      0.00000

 k-point   119 :      -0.3636    0.3636    0.3636
  band No.  band energies     occupation 
      1      -1.4841      2.00000
      2       1.0549      2.00000
      3       2.7064      2.00000
      4       5.1942      2.00000
      5      15.3873      0.00000
      6      15.8008      0.00000
      7      18.1904      0.00000
      8      20.1429      0.00000

 k-point   120 :      -0.4545    0.4545    0.3636
  band No.  band energies     occupation 
      1      -0.6384      2.00000
      2       0.3219      2.00000
      3       3.0497      2.00000
      4       3.9932      2.00000
      5      15.5118      0.00000
      6      15.6144      0.00000
      7      19.1859      0.00000
      8      19.9847      0.00000

 k-point   121 :      -0.3636    0.4545    0.3636
  band No.  band energies     occupation 
      1      -0.5172      2.00000
      2       0.9758      2.00000
      3       2.6399      2.00000
      4       4.1096      2.00000
      5      12.3607      0.00000
      6      18.4103      0.00000
      7      19.4352      0.00000
      8      20.4859      0.00000

 k-point   122 :      -0.4545   -0.4545    0.3636
  band No.  band energies     occupation 
      1       0.3380      2.00000
      2       0.3498      2.00000
      3       3.0727      2.00000
      4       3.0762      2.00000
      5      12.2843      0.00000
      6      18.5634      0.00000
      7      20.2162      0.00000
      8      20.5556      0.00000

 k-point   123 :      -0.3636   -0.4545    0.3636
  band No.  band energies     occupation 
      1       0.8023      2.00000
      2       1.3344      2.00000
      3       2.9943      2.00000
      4       3.5187      2.00000
      5       9.2168      0.26568
      6      18.2303      0.00000
      7      19.5530      0.00000
      8      19.8804      0.00000

 k-point   124 :      -0.3636   -0.3636    0.3636
  band No.  band energies     occupation 
      1       2.0656      2.00000
      2       2.1619      2.00000
      3       3.7704      2.00000
      4       3.7704      2.00000
      5       6.4303      2.00000
      6      16.4678      0.00000
      7      17.4131      0.00000
      8      17.4131      0.00000

 k-point   125 :      -0.4545    0.4545    0.4545
  band No.  band energies     occupation 
      1       0.1230      2.00000
      2       0.6561      2.00000
      3       2.3369      2.00000
      4       2.8632      2.00000
      5      15.4707      0.00000
      6      15.4959      0.00000
      7      20.7124      0.00000
      8      21.2219      0.00000

 k-point   126 :      -0.4545   -0.4545    0.4545
  band No.  band energies     occupation 
      1       0.7687      2.00000
      2       0.7838      2.00000
      3       2.4554      2.00000
      4       2.4554      2.00000
      5      12.2069      0.00000
      6      18.6512      0.00000
      7      21.2169      0.00000
      8      21.2169      0.00000


--------------------------------------------------------------------------------------------------------


 soft charge-density along one line, spin component           1
         0         1         2         3         4         5         6         7         8         9
 total charge-density along one line
 
 pseudopotential strength for first ion, spin component:           1
 18.081  -0.003   0.000  -0.000  -0.000  -0.000   0.000   0.000
 -0.003   0.005  -0.000   0.000   0.000   0.000  -0.000  -0.000
  0.000  -0.000   4.119   0.000   0.000  -0.006  -0.000  -0.000
 -0.000   0.000   0.000   4.120   0.000  -0.000  -0.006  -0.000
 -0.000   0.000   0.000   0.000   4.119  -0.000  -0.000  -0.006
 -0.000   0.000  -0.006  -0.000  -0.000   0.005   0.000   0.000
  0.000  -0.000  -0.000  -0.006  -0.000   0.000   0.005   0.000
  0.000  -0.000  -0.000  -0.000  -0.006   0.000   0.000   0.005
 total augmentation occupancy for first ion, spin component:           1
  1.616  -0.674   0.000   0.000   0.000   0.000   0.000   0.000
 -0.674   1.079  -0.000   0.000   0.000   0.000   0.000  -0.000
  0.000   0.000   0.889  -0.000  -0.000  -0.812   0.000   0.000
  0.000   0.000   0.000   0.817  -0.000   0.000  -0.790   0.000
 -0.000   0.000  -0.000  -0.000   0.889   0.000   0.000  -0.812
  0.000   0.000  -0.812   0.000   0.000   0.832   0.000  -0.000
  0.000   0.000   0.000  -0.790   0.000   0.000   0.848  -0.000
  0.000  -0.000   0.000   0.000  -0.812  -0.000  -0.000   0.832


------------------------ aborting loop because EDIFF is reached ----------------------------------------


    CHARGE:  cpu time    0.0040: real time    0.0064
    FORLOC:  cpu time    0.0000: real time    0.0001
    FORNL :  cpu time    0.0040: real time    0.0048
    STRESS:  cpu time    0.0640: real time    0.0630
    FORCOR:  cpu time    0.0040: real time    0.0035
    FORHAR:  cpu time    0.0000: real time    0.0010
    MIXING:  cpu time    0.0000: real time    0.0003
    OFIELD:  cpu time    0.0000: real time    0.0003

  FORCE on cell =-STRESS in cart. coord.  units (eV):
  Direction    XX          YY          ZZ          XY          YZ          ZX
  --------------------------------------------------------------------------------------
  Alpha Z     4.36406     4.36406     4.36406
  Ewald     -88.78811   -88.78811   -86.94991     0.00000    -0.00000    -0.00000
  Hartree     0.69788     0.69788     1.11232     0.00000    -0.00000    -0.00000
  E(xc)     -25.39062   -25.39062   -25.28878     0.00011     0.00006     0.00006
  Local     -13.45930   -13.45930   -13.55215    -0.00004    -0.00012    -0.00012
  n-local    77.79309    77.44967    76.06238     1.18000    -0.43846    -0.59622
  augment   -12.01068   -12.01068   -11.81327     0.00008     0.00008     0.00008
  Kinetic    59.31944    54.45108    56.00631     3.58255    -1.55441    -3.24544
  Fock        0.00000     0.00000     0.00000     0.00000     0.00000     0.00000
  -------------------------------------------------------------------------------------
  Total      -0.08012    -0.08012    -0.05905     0.00000    -0.00000    -0.00000
  in kB      -4.16058    -4.16058    -3.06617     0.00000    -0.00000    -0.00000
  external pressure =       -3.80 kB  Pullay stress =        0.00 kB


 VOLUME and BASIS-vectors are now :
 -----------------------------------------------------------------------------
  energy-cutoff  :      150.00
  volume of cell :       30.85
      direct lattice vectors                 reciprocal lattice vectors
    -2.428800523  2.428800523  1.307614588     0.000000000  0.205862933  0.382375667
     2.428800523 -2.428800523  1.307614588     0.205862933  0.000000000  0.382375667
     2.428800523  2.428800523 -1.307614588     0.205862933  0.205862933  0.000000000

  length of vectors
     3.675323098  3.675323098  3.675323098     0.434270305  0.434270305  0.291134152


 FORCES acting on ions
    electron-ion (+dipol)            ewald-force                    non-local-force                 convergence-correction
 -----------------------------------------------------------------------------------------------
   -.252E-04 0.252E-04 0.318E-14   0.407E-14 -.464E-15 0.223E-14   -.125E-16 0.430E-16 -.149E-16   0.728E-10 -.728E-10 -.358E-15
   0.252E-04 -.252E-04 -.559E-14   -.399E-14 0.545E-15 -.124E-14   0.438E-16 -.568E-16 0.234E-16   -.728E-10 0.728E-10 -.107E-15
 -----------------------------------------------------------------------------------------------
   -.987E-14 0.166E-15 -.241E-14   0.803E-16 0.811E-16 0.987E-15   0.313E-16 -.138E-16 0.851E-17   -.177E-15 0.166E-15 -.465E-15
 
 
 POSITION                                       TOTAL-FORCE (eV/Angst)
 -----------------------------------------------------------------------------------
      2.42880      0.00000      0.65381         0.000000      0.000000     -0.000000
      0.00000     -0.00000      0.00000        -0.000000     -0.000000      0.000000
 -----------------------------------------------------------------------------------
    total drift:                               -0.000000      0.000000     -0.000000


--------------------------------------------------------------------------------------------------------



  FREE ENERGIE OF THE ION-ELECTRON SYSTEM (eV)
  ---------------------------------------------------
  free  energy   TOTEN  =       -10.13700052 eV

  energy  without entropy=      -10.12086539  energy(sigma->0) =      -10.12893296
 
 d Force = 0.0000000E+00[ 0.000E+00, 0.000E+00]  d Energy = 0.1440299E-08-0.144E-08
 d Force = 0.0000000E+00[ 0.000E+00, 0.000E+00]  d Ewald  = 0.5482513E-05-0.548E-05


--------------------------------------------------------------------------------------------------------


    POTLOK:  cpu time    0.0160: real time    0.0368


--------------------------------------------------------------------------------------------------------




--------------------------------------------------------------------------------------------------------


 writing wavefunctions
     LOOP+:  cpu time    0.7440: real time    1.2829
    4ORBIT:  cpu time    0.0000: real time    0.0000

 total amount of memory used by VASP MPI-rank0    31637. kBytes
=======================================================================

   base      :      30000. kBytes
   nonl-proj :       1101. kBytes
   fftplans  :         66. kBytes
   grid      :        158. kBytes
   one-center:          6. kBytes
   wavefun   :        306. kBytes
 
  
  
 General timing and accounting informations for this job:
 ========================================================
  
                  Total CPU time used (sec):       36.352
                            User time (sec):       32.864
                          System time (sec):        3.488
                         Elapsed time (sec):       42.770
  
                   Maximum memory used (kb):       10180.
                   Average memory used (kb):           0.
  
                          Minor page faults:        38223
                          Major page faults:           16
                 Voluntary context switches:        76136
