unknown system                          
   1.00000000000000     
     0.000000    2.715000    2.715000
     2.715000    0.000000    2.715000
     2.715000    2.715000    0.000000
   Si
     2
Direct
  0.500000  0.500000  0.500000
  0.750000  0.750000  0.750000
 
   24   24   24
 0.87240     0.90973      1.0268      1.2381      1.5648      2.0297      2.6482      3.4154      4.2922      5.1939    
  5.9944      6.5518      6.7523      6.5519      5.9945      5.1940      4.2921      3.4152      2.6479      2.0295    
  1.5647      1.2382      1.0269     0.90981     0.90973     0.97052      1.0999      1.3119      1.6231      2.0473    
  2.5869      3.2236      3.9092      4.5633      5.0841      5.3744      5.3745      5.0841      4.5634      3.9092    
  3.2235      2.5867      2.0470      1.6230      1.3119      1.1000     0.97067     0.90980      1.0268      1.0999    
  1.2316      1.4340      1.7185      2.0902      2.5422      3.0484      3.5601      4.0083      4.3177      4.4285    
  4.3177      4.0083      3.5601      3.0484      2.5421      2.0901      1.7184      1.4341      1.2318      1.1001    
  1.0269      1.0036      1.2381      1.3119      1.4340      1.6141      1.8587      2.1668      2.5259      2.9079    
  3.2687      3.5541      3.7126      3.7126      3.5541      3.2687      2.9077      2.5258      2.1668      1.8588    
  1.6143      1.4342      1.3120      1.2382      1.2039      1.2039      1.5648      1.6231      1.7185      1.8587    
  2.0472      2.2798      2.5422      2.8081      3.0412      3.2021      3.2597      3.2020      3.0411      2.8080    
  2.5422      2.2799      2.0473      1.8588      1.7186      1.6232      1.5648      1.5346      1.5254      1.5346    
  2.0297      2.0473      2.0902      2.1668      2.2798      2.4244      2.5869      2.7451      2.8723      2.9435    
  2.9434      2.8721      2.7450      2.5868      2.4245      2.2800      2.1669      2.0902      2.0472      2.0296    
  2.0266      2.0281      2.0282      2.0267      2.6482      2.5869      2.5422      2.5259      2.5422      2.5869    
  2.6481      2.7096      2.7546      2.7711      2.7545      2.7094      2.6480      2.5868      2.5422      2.5259    
  2.5422      2.5868      2.6479      2.7093      2.7545      2.7711      2.7546      2.7096      3.4154      3.2236    
  3.0484      2.9079      2.8081      2.7451      2.7096      2.6915      2.6841      2.6840      2.6914      2.7094    
  2.7450      2.8080      2.9078      3.0484      3.2236      3.4153      3.5969      3.7390      3.8171      3.8172    
  3.7392      3.5971      4.2922      3.9092      3.5601      3.2687      3.0412      2.8723      2.7546      2.6841    
  2.6603      2.6839      2.7544      2.8722      3.0411      3.2687      3.5601      3.9092      4.2922      4.6679    
  4.9859      5.1990      5.2739      5.1990      4.9860      4.6680      5.1939      4.5633      4.0083      3.5541    
  3.2021      2.9435      2.7711      2.6840      2.6839      2.7709      2.9433      3.2021      3.5541      4.0084    
  4.5634      5.1941      5.8455      6.4401      6.8950      7.1415      7.1415      6.8950      6.4401      5.8454    
  5.9944      5.0841      4.3177      3.7126      3.2597      2.9434      2.7545      2.6914      2.7544      2.9433    
  3.2597      3.7127      4.3178      5.0842      5.9946      6.9889      7.9638      8.7911      9.3472      9.5432    
  9.3471      8.7911      7.9637      6.9887      6.5518      5.3744      4.4285      3.7126      3.2020      2.8721    
  2.7094      2.7094      2.8722      3.2021      3.7127      4.4285      5.3745      6.5520      7.9112      9.3373    
  10.660      11.687      12.249      12.249      11.686      10.660      9.3372      7.9110      6.7523      5.3745    
  4.3177      3.5541      3.0411      2.7450      2.6480      2.7450      3.0411      3.5541      4.3178      5.3745    
  6.7524      8.4296      10.304      12.186      13.818      14.935      15.332      14.935      13.818      12.186    
  10.304      8.4295      6.5519      5.0841      4.0083      3.2687      2.8080      2.5868      2.5868      2.8080    
  3.2687      4.0084      5.0842      6.5520      8.4296      10.654      13.050      15.331      17.124      18.099    
  18.100      17.125      15.331      13.050      10.654      8.4295      5.9945      4.5634      3.5601      2.9077    
  2.5422      2.4245      2.5422      2.9078      3.5601      4.5634      5.9946      7.9112      10.304      13.050    
  15.879      18.347      19.995      20.568      19.995      18.347      15.879      13.050      10.304      7.9111    
  5.1940      3.9092      3.0484      2.5258      2.2799      2.2800      2.5259      3.0484      3.9092      5.1941    
  6.9889      9.3373      12.186      15.331      18.347      20.665      21.905      21.904      20.665      18.347    
  15.331      12.186      9.3373      6.9887      4.2921      3.2235      2.5421      2.1668      2.0473      2.1669    
  2.5422      3.2236      4.2922      5.8455      7.9638      10.660      13.818      17.124      19.995      21.905    
  22.569      21.905      19.995      17.124      13.818      10.660      7.9638      5.8454      3.4152      2.5867    
  2.0901      1.8588      1.8588      2.0902      2.5868      3.4153      4.6679      6.4401      8.7911      11.687    
  14.935      18.099      20.568      21.904      21.905      20.568      18.099      14.935      11.686      8.7912    
  6.4401      4.6678      2.6479      2.0470      1.7184      1.6143      1.7186      2.0472      2.6479      3.5969    
  4.9859      6.8950      9.3472      12.249      15.332      18.100      19.995      20.665      19.995      18.099    
  15.332      12.249      9.3472      6.8950      4.9858      3.5969      2.0295      1.6230      1.4341      1.4342    
  1.6232      2.0296      2.7093      3.7390      5.1990      7.1415      9.5432      12.249      14.935      17.125    
  18.347      18.347      17.124      14.935      12.249      9.5433      7.1415      5.1989      3.7390      2.7093    
  1.5647      1.3119      1.2318      1.3120      1.5648      2.0266      2.7545      3.8171      5.2739      7.1415    
  9.3471      11.686      13.818      15.331      15.879      15.331      13.818      11.686      9.3472      7.1415    
  5.2739      3.8169      2.7544      2.0265      1.2382      1.1000      1.1001      1.2382      1.5346      2.0281    
  2.7711      3.8172      5.1990      6.8950      8.7911      10.660      12.186      13.050      13.050      12.186    
  10.660      8.7912      6.8950      5.1989      3.8169      2.7709      2.0280      1.5345      1.0269     0.97067    
  1.0269      1.2039      1.5254      2.0282      2.7546      3.7392      4.9860      6.4401      7.9637      9.3372    
  10.304      10.654      10.304      9.3373      7.9638      6.4401      4.9858      3.7390      2.7544      2.0280    
  1.5253      1.2039     0.90981     0.90980      1.0036      1.2039      1.5346      2.0267      2.7096      3.5971    
  4.6680      5.8454      6.9887      7.9110      8.4295      8.4295      7.9111      6.9887      5.8454      4.6678    
  3.5969      2.7093      2.0265      1.5345      1.2039      1.0036     0.90973     0.97051      1.0999      1.3119    
  1.6231      2.0473      2.5869      3.2236      3.9092      4.5633      5.0841      5.3744      5.3744      5.0841    
  4.5633      3.9092      3.2235      2.5867      2.0471      1.6230      1.3119      1.1001     0.97067     0.90979    
 0.97051      1.0387      1.1628      1.3554      1.6283      1.9870      2.4244      2.9148      3.4101      3.8434    
  4.1420      4.2489      4.1421      3.8434      3.4102      2.9148      2.4243      1.9868      1.6282      1.3554    
  1.1630      1.0389     0.97062     0.94893      1.0999      1.1628      1.2701      1.4325      1.6573      1.9438    
  2.2798      2.6379      2.9759      3.2427      3.3907      3.3907      3.2427      2.9759      2.6379      2.2798    
  1.9438      1.6573      1.4326      1.2702      1.1629      1.1000      1.0715      1.0714      1.3119      1.3554    
  1.4325      1.5523      1.7188      1.9283      2.1668      2.4096      2.6227      2.7699      2.8226      2.7698    
  2.6226      2.4094      2.1667      1.9282      1.7189      1.5524      1.4327      1.3555      1.3119      1.2914    
  1.2856      1.2914      1.6231      1.6283      1.6573      1.7188      1.8158      1.9438      2.0902      2.2345    
  2.3513      2.4171      2.4170      2.3512      2.2343      2.0901      1.9438      1.8159      1.7189      1.6574    
  1.6283      1.6231      1.6297      1.6366      1.6366      1.6298      2.0473      1.9870      1.9438      1.9283    
  1.9438      1.9870      2.0473      2.1092      2.1554      2.1726      2.1553      2.1090      2.0472      1.9870    
  1.9439      1.9284      1.9439      1.9870      2.0472      2.1090      2.1554      2.1726      2.1554      2.1092    
  2.5869      2.4244      2.2798      2.1668      2.0902      2.0473      2.0297      2.0267      2.0282      2.0281    
  2.0266      2.0296      2.0472      2.0902      2.1669      2.2799      2.4245      2.5868      2.7449      2.8721    
  2.9434      2.9435      2.8723      2.7452      3.2236      2.9148      2.6379      2.4096      2.2345      2.1092    
  2.0267      1.9803      1.9653      1.9803      2.0266      2.1091      2.2344      2.4096      2.6380      2.9150    
  3.2236      3.5334      3.8028      3.9876      4.0536      3.9878      3.8030      3.5336      3.9092      3.4101    
  2.9759      2.6227      2.3513      2.1554      2.0282      1.9653      1.9653      2.0281      2.1554      2.3513    
  2.6227      2.9760      3.4103      3.9094      4.4352      4.9279      5.3148      5.5288      5.5288      5.3149    
  4.9279      4.4351      4.5633      3.8434      3.2427      2.7699      2.4171      2.1726      2.0281      1.9803    
  2.0281      2.1725      2.4171      2.7700      3.2430      3.8437      4.5636      5.3640      6.1697      6.8732    
  7.3576      7.5308      7.3576      6.8731      6.1696      5.3639      5.0841      4.1420      3.3907      2.8226    
  2.4170      2.1553      2.0266      2.0266      2.1554      2.4171      2.8227      3.3910      4.1425      5.0844    
  6.1903      7.3810      8.5189      9.4268      9.9338      9.9337      9.4266      8.5187      7.3809      6.1901    
  5.3744      4.2489      3.3907      2.7698      2.3512      2.1090      2.0296      2.1091      2.3513      2.7700    
  3.3910      4.2493      5.3747      6.7666      8.3624      10.014      11.490      12.523      12.896      12.523    
  11.489      10.013      8.3623      6.7665      5.3744      4.1421      3.2427      2.6226      2.2343      2.0472    
  2.0472      2.2344      2.6227      3.2430      4.1425      5.3747      6.9740      8.9155      11.072      13.189    
  14.915      15.891      15.891      14.914      13.189      11.072      8.9155      6.9739      5.0841      3.8434    
  2.9759      2.4094      2.0901      1.9870      2.0902      2.4096      2.9760      3.8437      5.0844      6.7666    
  8.9155      11.456      14.157      16.628      18.386      19.025      18.385      16.627      14.157      11.455    
  8.9154      6.7665      4.5633      3.4102      2.6379      2.1667      1.9438      1.9439      2.1669      2.6380    
  3.4103      4.5636      6.1903      8.3624      11.072      14.157      17.253      19.816      21.278      21.278    
  19.816      17.252      14.157      11.072      8.3622      6.1901      3.9092      2.9148      2.2798      1.9282    
  1.8159      1.9284      2.2799      2.9150      3.9094      5.3640      7.3810      10.014      13.189      16.628    
  19.816      22.098      22.927      22.098      19.816      16.627      13.189      10.013      7.3809      5.3639    
  3.2235      2.4243      1.9438      1.7189      1.7189      1.9439      2.4245      3.2236      4.4352      6.1697    
  8.5189      11.490      14.915      18.386      21.278      22.927      22.927      21.278      18.385      14.914    
  11.489      8.5188      6.1696      4.4350      2.5867      1.9868      1.6573      1.5524      1.6574      1.9870    
  2.5868      3.5334      4.9279      6.8732      9.4268      12.523      15.891      19.025      21.278      22.098    
  21.278      19.025      15.891      12.523      9.4264      6.8730      4.9278      3.5334      2.0471      1.6282    
  1.4326      1.4327      1.6283      2.0472      2.7449      3.8028      5.3148      7.3576      9.9338      12.896    
  15.891      18.385      19.816      19.816      18.385      15.891      12.896      9.9334      7.3574      5.3147    
  3.8027      2.7449      1.6230      1.3554      1.2702      1.3555      1.6231      2.1090      2.8721      3.9876    
  5.5288      7.5308      9.9337      12.523      14.914      16.627      17.252      16.627      14.914      12.523    
  9.9334      7.5307      5.5287      3.9875      2.8720      2.1089      1.3119      1.1630      1.1629      1.3119    
  1.6297      2.1554      2.9434      4.0536      5.5288      7.3576      9.4266      11.489      13.189      14.157    
  14.157      13.189      11.489      9.4264      7.3574      5.5287      4.0534      2.9432      2.1552      1.6296    
  1.1001      1.0389      1.1000      1.2914      1.6366      2.1726      2.9435      3.9878      5.3149      6.8731    
  8.5187      10.013      11.072      11.455      11.072      10.013      8.5188      6.8730      5.3147      3.9875    
  2.9432      2.1723      1.6365      1.2914     0.97067     0.97062      1.0715      1.2856      1.6366      2.1554    
  2.8723      3.8030      4.9279      6.1696      7.3809      8.3623      8.9155      8.9154      8.3622      7.3809    
  6.1696      4.9278      3.8027      2.8720      2.1552      1.6365      1.2857      1.0716     0.90979     0.94893    
  1.0714      1.2914      1.6298      2.1092      2.7452      3.5336      4.4351      5.3639      6.1901      6.7665    
  6.9739      6.7665      6.1901      5.3639      4.4350      3.5334      2.7449      2.1089      1.6296      1.2914    
  1.0716     0.94906      1.0268      1.0999      1.2316      1.4340      1.7185      2.0902      2.5422      3.0484    
  3.5601      4.0083      4.3177      4.4284      4.3177      4.0083      3.5600      3.0484      2.5421      2.0902    
  1.7185      1.4341      1.2318      1.1001      1.0269      1.0036      1.0999      1.1628      1.2701      1.4325    
  1.6573      1.9438      2.2798      2.6379      2.9759      3.2427      3.3907      3.3907      3.2427      2.9758    
  2.6379      2.2798      1.9438      1.6573      1.4326      1.2702      1.1629      1.1000      1.0715      1.0714    
  1.2316      1.2701      1.3411      1.4540      1.6135      1.8158      2.0472      2.2830      2.4900      2.6329    
  2.6840      2.6328      2.4899      2.2829      2.0472      1.8158      1.6135      1.4541      1.3411      1.2702    
  1.2317      1.2145      1.2098      1.2144      1.4340      1.4325      1.4540      1.5079      1.5976      1.7188    
  1.8587      1.9971      2.1094      2.1726      2.1725      2.1093      1.9970      1.8586      1.7188      1.5977    
  1.5081      1.4541      1.4326      1.4340      1.4457      1.4553      1.4553      1.4457      1.7185      1.6573    
  1.6135      1.5976      1.6135      1.6573      1.7185      1.7813      1.8283      1.8457      1.8282      1.7812    
  1.7184      1.6573      1.6136      1.5978      1.6136      1.6573      1.7184      1.7812      1.8282      1.8457    
  1.8283      1.7813      2.0902      1.9438      1.8158      1.7188      1.6573      1.6283      1.6231      1.6298    
  1.6366      1.6366      1.6297      1.6231      1.6283      1.6574      1.7189      1.8159      1.9439      2.0902    
  2.2344      2.3512      2.4170      2.4171      2.3513      2.2345      2.5422      2.2798      2.0472      1.8587    
  1.7185      1.6231      1.5648      1.5346      1.5254      1.5346      1.5648      1.6232      1.7186      1.8588    
  2.0473      2.2799      2.5422      2.8080      3.0411      3.2020      3.2597      3.2021      3.0412      2.8081    
  3.0484      2.6379      2.2830      1.9971      1.7813      1.6298      1.5346      1.4890      1.4890      1.5347    
  1.6299      1.7814      1.9972      2.2831      2.6379      3.0485      3.4840      3.8953      4.2207      4.4016    
  4.4016      4.2208      3.8953      3.4840      3.5601      2.9759      2.4900      2.1094      1.8283      1.6366    
  1.5254      1.4890      1.5255      1.6368      1.8285      2.1095      2.4901      2.9759      3.5602      4.2131    
  4.8748      5.4571      5.8608      6.0056      5.8607      5.4570      4.8746      4.2130      4.0083      3.2427    
  2.6329      2.1726      1.8457      1.6366      1.5346      1.5347      1.6368      1.8459      2.1727      2.6330    
  3.2428      4.0084      4.9107      5.8887      6.8312      7.5891      8.0147      8.0146      7.5889      6.8309    
  5.8885      4.9105      4.3177      3.3907      2.6840      2.1725      1.8282      1.6297      1.5648      1.6299    
  1.8285      2.1727      2.6842      3.3909      4.3178      5.4680      6.7956      8.1820      9.4325      10.315    
  10.634      10.314      9.4323      8.1817      6.7954      5.4678      4.4284      3.3907      2.6328      2.1093    
  1.7812      1.6231      1.6232      1.7814      2.1095      2.6330      3.3909      4.4285      5.7794      7.4311    
  9.2839      11.122      12.633      13.492      13.492      12.632      11.122      9.2837      7.4310      5.7793    
  4.3177      3.2427      2.4899      1.9970      1.7184      1.6283      1.7186      1.9972      2.4901      3.2428    
  4.3178      5.7794      7.6603      9.9078      12.326      14.559      16.159      16.743      16.159      14.559    
  12.326      9.9077      7.6603      5.7793      4.0083      2.9758      2.2829      1.8586      1.6573      1.6574    
  1.8588      2.2831      2.9759      4.0084      5.4680      7.4311      9.9078      12.764      15.662      18.082    
  19.473      19.473      18.082      15.662      12.764      9.9078      7.4310      5.4678      3.5600      2.6379    
  2.0472      1.7188      1.6136      1.7189      2.0473      2.6379      3.5602      4.9107      6.7956      9.2839    
  12.326      15.662      18.787      21.047      21.876      21.047      18.787      15.662      12.326      9.2838    
  6.7955      4.9105      3.0484      2.2798      1.8158      1.5977      1.5978      1.8159      2.2799      3.0485    
  4.2131      5.8887      8.1820      11.122      14.559      18.082      21.047      22.758      22.758      21.047    
  18.082      14.559      11.122      8.1819      5.8886      4.2129      2.5421      1.9438      1.6135      1.5081    
  1.6136      1.9439      2.5422      3.4840      4.8748      6.8312      9.4325      12.633      16.159      19.473    
  21.876      22.758      21.876      19.473      16.159      12.632      9.4323      6.8310      4.8745      3.4839    
  2.0902      1.6573      1.4541      1.4541      1.6573      2.0902      2.8080      3.8953      5.4571      7.5891    
  10.315      13.492      16.743      19.473      21.047      21.047      19.473      16.743      13.492      10.314    
  7.5888      5.4568      3.8951      2.8079      1.7185      1.4326      1.3411      1.4326      1.7184      2.2344    
  3.0411      4.2207      5.8608      8.0147      10.634      13.492      16.159      18.082      18.787      18.082    
  16.159      13.492      10.634      8.0143      5.8605      4.2205      3.0410      2.2344      1.4341      1.2702    
  1.2702      1.4340      1.7812      2.3512      3.2020      4.4016      6.0056      8.0146      10.314      12.632    
  14.559      15.662      15.662      14.559      12.632      10.314      8.0143      6.0054      4.4014      3.2019    
  2.3512      1.7813      1.2318      1.1629      1.2317      1.4457      1.8282      2.4170      3.2597      4.4016    
  5.8607      7.5889      9.4323      11.122      12.326      12.764      12.326      11.122      9.4323      7.5888    
  5.8605      4.4014      3.2595      2.4169      1.8283      1.4458      1.1001      1.1000      1.2145      1.4553    
  1.8457      2.4171      3.2021      4.2208      5.4570      6.8309      8.1817      9.2837      9.9077      9.9078    
  9.2838      8.1819      6.8310      5.4568      4.2205      3.2019      2.4169      1.8457      1.4555      1.2146    
  1.0269      1.0715      1.2098      1.4553      1.8283      2.3513      3.0412      3.8953      4.8746      5.8885    
  6.7954      7.4310      7.6603      7.4310      6.7955      5.8886      4.8745      3.8951      3.0410      2.3512    
  1.8283      1.4555      1.2100      1.0716      1.0036      1.0714      1.2144      1.4457      1.7813      2.2345    
  2.8081      3.4840      4.2130      4.9105      5.4678      5.7793      5.7793      5.4678      4.9105      4.2129    
  3.4839      2.8079      2.2344      1.7813      1.4458      1.2146      1.0716      1.0037      1.2381      1.3119    
  1.4340      1.6141      1.8587      2.1668      2.5259      2.9079      3.2687      3.5541      3.7126      3.7126    
  3.5541      3.2686      2.9078      2.5258      2.1668      1.8588      1.6143      1.4342      1.3120      1.2382    
  1.2039      1.2039      1.3119      1.3554      1.4325      1.5523      1.7188      1.9283      2.1668      2.4095    
  2.6227      2.7699      2.8225      2.7698      2.6226      2.4095      2.1668      1.9283      1.7189      1.5524    
  1.4327      1.3555      1.3119      1.2914      1.2856      1.2914      1.4340      1.4325      1.4540      1.5079    
  1.5976      1.7188      1.8587      1.9971      2.1094      2.1726      2.1725      2.1093      1.9970      1.8586    
  1.7188      1.5978      1.5081      1.4541      1.4325      1.4340      1.4457      1.4553      1.4553      1.4457    
  1.6141      1.5523      1.5079      1.4919      1.5079      1.5523      1.6141      1.6775      1.7249      1.7424    
  1.7248      1.6774      1.6141      1.5523      1.5081      1.4921      1.5081      1.5523      1.6141      1.6774    
  1.7248      1.7424      1.7249      1.6775      1.8587      1.7188      1.5976      1.5079      1.4540      1.4325    
  1.4340      1.4457      1.4553      1.4553      1.4457      1.4340      1.4325      1.4541      1.5081      1.5978    
  1.7188      1.8586      1.9970      2.1093      2.1725      2.1726      2.1094      1.9971      2.1668      1.9283    
  1.7188      1.5523      1.4325      1.3554      1.3119      1.2914      1.2856      1.2914      1.3119      1.3555    
  1.4327      1.5524      1.7189      1.9283      2.1668      2.4095      2.6226      2.7698      2.8225      2.7699    
  2.6227      2.4095      2.5259      2.1668      1.8587      1.6141      1.4340      1.3119      1.2381      1.2039    
  1.2039      1.2382      1.3120      1.4342      1.6143      1.8588      2.1668      2.5258      2.9078      3.2686    
  3.5541      3.7126      3.7126      3.5541      3.2687      2.9079      2.9079      2.4095      1.9971      1.6775    
  1.4457      1.2914      1.2039      1.1756      1.2040      1.2916      1.4459      1.6777      1.9972      2.4095    
  2.9078      3.4652      4.0297      4.5257      4.8692      4.9924      4.8692      4.5257      4.0297      3.4653    
  3.2687      2.6227      2.1094      1.7249      1.4553      1.2856      1.2039      1.2040      1.2858      1.4556    
  1.7251      2.1095      2.6226      3.2685      4.0296      4.8530      5.6448      6.2802      6.6365      6.6365    
  6.2800      5.6445      4.8529      4.0297      3.5541      2.7699      2.1726      1.7424      1.4553      1.2914    
  1.2382      1.2916      1.4556      1.7427      2.1727      2.7698      3.5539      4.5255      5.6446      6.8104    
  7.8597      8.5986      8.8658      8.5983      7.8593      6.8101      5.6445      4.5257      3.7126      2.8225    
  2.1725      1.7248      1.4457      1.3119      1.3120      1.4459      1.7251      2.1727      2.8225      3.7124    
  4.8689      6.2800      7.8596      9.4238      10.708      11.438      11.437      10.707      9.4235      7.8593    
  6.2800      4.8692      3.7126      2.7698      2.1093      1.6774      1.4340      1.3555      1.4342      1.6777    
  2.1095      2.7698      3.7124      4.9921      6.6363      8.5985      10.708      12.654      14.047      14.556    
  14.047      12.654      10.707      8.5983      6.6365      4.9924      3.5541      2.6226      1.9970      1.6141    
  1.4325      1.4327      1.6143      1.9972      2.6226      3.5539      4.8689      6.6363      8.8658      11.438    
  14.048      16.228      17.481      17.481      16.228      14.047      11.437      8.8658      6.6365      4.8692    
  3.2686      2.4095      1.8586      1.5523      1.4541      1.5524      1.8588      2.4095      3.2685      4.5255    
  6.2800      8.5985      11.438      14.556      17.481      19.598      20.375      19.598      17.481      14.556    
  11.438      8.5986      6.2802      4.5257      2.9078      2.1668      1.7188      1.5081      1.5081      1.7189    
  2.1668      2.9078      4.0296      5.6446      7.8596      10.708      14.048      17.481      20.375      22.046    
  22.046      20.375      17.481      14.047      10.708      7.8597      5.6448      4.0297      2.5258      1.9283    
  1.5978      1.4921      1.5978      1.9283      2.5258      3.4652      4.8530      6.8104      9.4238      12.654    
  16.228      19.598      22.046      22.946      22.046      19.598      16.228      12.654      9.4238      6.8104    
  4.8530      3.4652      2.1668      1.7189      1.5081      1.5081      1.7188      2.1668      2.9078      4.0297    
  5.6448      7.8597      10.708      14.047      17.481      20.375      22.046      22.046      20.375      17.481    
  14.048      10.708      7.8596      5.6446      4.0296      2.9078      1.8588      1.5524      1.4541      1.5523    
  1.8586      2.4095      3.2686      4.5257      6.2802      8.5986      11.438      14.556      17.481      19.598    
  20.375      19.598      17.481      14.556      11.438      8.5985      6.2800      4.5255      3.2685      2.4095    
  1.6143      1.4327      1.4325      1.6141      1.9970      2.6226      3.5541      4.8692      6.6365      8.8658    
  11.437      14.047      16.228      17.481      17.481      16.228      14.048      11.438      8.8658      6.6363    
  4.8689      3.5539      2.6226      1.9972      1.4342      1.3555      1.4340      1.6774      2.1093      2.7698    
  3.7126      4.9924      6.6365      8.5983      10.707      12.654      14.047      14.556      14.047      12.654    
  10.708      8.5985      6.6363      4.9921      3.7124      2.7698      2.1095      1.6777      1.3120      1.3119    
  1.4457      1.7248      2.1725      2.8225      3.7126      4.8692      6.2800      7.8593      9.4235      10.707    
  11.437      11.438      10.708      9.4238      7.8596      6.2800      4.8689      3.7124      2.8225      2.1727    
  1.7251      1.4459      1.2382      1.2914      1.4553      1.7424      2.1726      2.7699      3.5541      4.5257    
  5.6445      6.8101      7.8593      8.5983      8.8658      8.5986      7.8597      6.8104      5.6446      4.5255    
  3.5539      2.7698      2.1727      1.7427      1.4556      1.2916      1.2039      1.2856      1.4553      1.7249    
  2.1094      2.6227      3.2687      4.0297      4.8529      5.6445      6.2800      6.6365      6.6365      6.2802    
  5.6448      4.8530      4.0296      3.2685      2.6226      2.1095      1.7251      1.4556      1.2858      1.2040    
  1.2039      1.2914      1.4457      1.6775      1.9971      2.4095      2.9079      3.4653      4.0297      4.5257    
  4.8692      4.9924      4.8692      4.5257      4.0297      3.4652      2.9078      2.4095      1.9972      1.6777    
  1.4459      1.2916      1.2040      1.1756      1.5648      1.6231      1.7185      1.8587      2.0472      2.2798    
  2.5422      2.8081      3.0412      3.2021      3.2597      3.2020      3.0411      2.8080      2.5422      2.2799    
  2.0473      1.8588      1.7186      1.6232      1.5648      1.5346      1.5254      1.5346      1.6231      1.6283    
  1.6573      1.7188      1.8158      1.9438      2.0902      2.2345      2.3513      2.4171      2.4170      2.3512    
  2.2344      2.0902      1.9439      1.8159      1.7189      1.6574      1.6283      1.6231      1.6297      1.6366    
  1.6366      1.6298      1.7185      1.6573      1.6135      1.5976      1.6135      1.6573      1.7185      1.7813    
  1.8283      1.8457      1.8282      1.7812      1.7184      1.6573      1.6136      1.5978      1.6136      1.6573    
  1.7184      1.7812      1.8282      1.8457      1.8283      1.7813      1.8587      1.7188      1.5976      1.5079    
  1.4540      1.4325      1.4340      1.4457      1.4553      1.4553      1.4457      1.4340      1.4326      1.4541    
  1.5081      1.5977      1.7188      1.8586      1.9970      2.1093      2.1725      2.1726      2.1094      1.9971    
  2.0472      1.8158      1.6135      1.4540      1.3411      1.2701      1.2316      1.2144      1.2098      1.2145    
  1.2317      1.2702      1.3411      1.4541      1.6135      1.8158      2.0472      2.2829      2.4899      2.6328    
  2.6840      2.6329      2.4900      2.2830      2.2798      1.9438      1.6573      1.4325      1.2701      1.1628    
  1.0999      1.0714      1.0715      1.1000      1.1629      1.2702      1.4326      1.6573      1.9438      2.2798    
  2.6379      2.9758      3.2427      3.3907      3.3907      3.2427      2.9759      2.6379      2.5422      2.0902    