unknown system                          
   1.00000000000000     
     0.000000    2.715000    2.715000
     2.715000    0.000000    2.715000
     2.715000    2.715000    0.000000
   Si
     2
Direct
  0.500000  0.500000  0.500000
  0.750000  0.750000  0.750000
 
   24   24   24
 0.87240382411E+00 0.90973078204E+00 0.10268390387E+01 0.12381273153E+01 0.15648382147E+01
 0.20297277590E+01 0.26481559581E+01 0.34154463052E+01 0.42922445639E+01 0.51939425296E+01
 0.59944117476E+01 0.65518389622E+01 0.67522951798E+01 0.65519229506E+01 0.59945097812E+01
 0.51939604275E+01 0.42921240312E+01 0.34152006116E+01 0.26478639676E+01 0.20294919943E+01
 0.15647304844E+01 0.12381523586E+01 0.10269356890E+01 0.90981048442E+00 0.90973078204E+00
 0.97051658020E+00 0.10999119008E+01 0.13118798562E+01 0.16231207658E+01 0.20472880303E+01
 0.25869044546E+01 0.32236045735E+01 0.39092044066E+01 0.45632749452E+01 0.50840507285E+01
 0.53744253951E+01 0.53744512546E+01 0.50841241410E+01 0.45633647055E+01 0.39092375932E+01
 0.32235104409E+01 0.25866878968E+01 0.20470467637E+01 0.16229784527E+01 0.13118970970E+01
 0.11000495520E+01 0.97066939574E+00 0.90979567950E+00 0.10268390387E+01 0.10999119008E+01
 0.12316236606E+01 0.14340270338E+01 0.17184610601E+01 0.20902181237E+01 0.25421959850E+01
 0.30484324933E+01 0.35600755202E+01 0.40082782486E+01 0.43176733193E+01 0.44284535735E+01
 0.43177067987E+01 0.40083143800E+01 0.35600729746E+01 0.30483701519E+01 0.25420925841E+01
 0.20901233572E+01 0.17184266519E+01 0.14340796700E+01 0.12317508973E+01 0.11000622655E+01
 0.10269408626E+01 0.10035881548E+01 0.12381273153E+01 0.13118798562E+01 0.14340270338E+01
 0.16141382943E+01 0.18586844389E+01 0.21667969100E+01 0.25258655472E+01 0.29078580780E+01
 0.32687200082E+01 0.35541079910E+01 0.37126373508E+01 0.37126423556E+01 0.35540983385E+01
 0.32686550325E+01 0.29077418641E+01 0.25257629654E+01 0.21667829869E+01 0.18587807169E+01
 0.16143000891E+01 0.14341863085E+01 0.13119933863E+01 0.12381880835E+01 0.12039044900E+01
 0.12038862572E+01 0.15648382147E+01 0.16231207658E+01 0.17184610601E+01 0.18586844389E+01
 0.20471833650E+01 0.22798273925E+01 0.25422021965E+01 0.28080842416E+01 0.30411925125E+01
 0.32021284998E+01 0.32597156707E+01 0.32020381293E+01 0.30410564475E+01 0.28079668224E+01
 0.25421562837E+01 0.22798729564E+01 0.20473004172E+01 0.18588226876E+01 0.17185675520E+01
 0.16231701988E+01 0.15648421643E+01 0.15345984747E+01 0.15254073736E+01 0.15346086498E+01
 0.20297277590E+01 0.20472880303E+01 0.20902181237E+01 0.21667969100E+01 0.22798273925E+01
 0.24244438586E+01 0.25869013937E+01 0.27451481720E+01 0.28723299917E+01 0.29434711085E+01
 0.29433876623E+01 0.28721341767E+01 0.27449632176E+01 0.25868335969E+01 0.24245169347E+01
 0.22799734127E+01 0.21669041048E+01 0.20902099438E+01 0.20471760635E+01 0.20295887844E+01
 0.20265987228E+01 0.20281374178E+01 0.20281694599E+01 0.20266954145E+01 0.26481559581E+01
 0.25869044546E+01 0.25421959850E+01 0.25258655472E+01 0.25422021965E+01 0.25869013937E+01
 0.26481419411E+01 0.27095771003E+01 0.27546429275E+01 0.27711059695E+01 0.27545007037E+01
 0.27093744808E+01 0.26479769327E+01 0.25868315261E+01 0.25422283757E+01 0.25259304035E+01
 0.25422020425E+01 0.25867788275E+01 0.26479182833E+01 0.27093401026E+01 0.27544955805E+01
 0.27711105652E+01 0.27546475712E+01 0.27095881268E+01 0.34154463052E+01 0.32236045735E+01
 0.30484324933E+01 0.29078580780E+01 0.28080842416E+01 0.27451481720E+01 0.27095771003E+01
 0.26915292791E+01 0.26840778256E+01 0.26840042129E+01 0.26913552879E+01 0.27093882160E+01
 0.27449915262E+01 0.28079749368E+01 0.29078102229E+01 0.30484292255E+01 0.32235694658E+01
 0.34153059303E+01 0.35968965438E+01 0.37390196938E+01 0.38170793944E+01 0.38171629966E+01
 0.37392285825E+01 0.35971236751E+01 0.42922445639E+01 0.39092044066E+01 0.35600755202E+01
 0.32687200082E+01 0.30411925125E+01 0.28723299917E+01 0.27546429275E+01 0.26840778256E+01
 0.26603341594E+01 0.26839333805E+01 0.27544450292E+01 0.28721663136E+01 0.30410980962E+01
 0.32687034788E+01 0.35601209902E+01 0.39092459088E+01 0.42922085779E+01 0.46678651711E+01
 0.49858943276E+01 0.51989534848E+01 0.52739264484E+01 0.51990163089E+01 0.49860103691E+01
 0.46679772434E+01 0.51939425296E+01 0.45632749452E+01 0.40082782486E+01 0.35541079910E+01
 0.32021284998E+01 0.29434711085E+01 0.27711059695E+01 0.26840042129E+01 0.26839333805E+01
 0.27709494932E+01 0.29433335908E+01 0.32020721027E+01 0.35541479189E+01 0.40084071071E+01
 0.45634420140E+01 0.51940596963E+01 0.58454550838E+01 0.64401010993E+01 0.68949564374E+01
 0.71415130573E+01 0.71415157182E+01 0.68949761205E+01 0.64401299737E+01 0.58454324307E+01
 0.59944117476E+01 0.50840507285E+01 0.43176733193E+01 0.37126373508E+01 0.32597156707E+01
 0.29433876623E+01 0.27545007037E+01 0.26913552879E+01 0.27544450292E+01 0.29433335908E+01
 0.32597061399E+01 0.37126775327E+01 0.43177694255E+01 0.50842125872E+01 0.59946090326E+01
 0.69888749144E+01 0.79638166029E+01 0.87911463095E+01 0.93471867955E+01 0.95432273718E+01
 0.93471422741E+01 0.87910701290E+01 0.79637003038E+01 0.69887035798E+01 0.65518389622E+01
 0.53744253951E+01 0.44284535735E+01 0.37126423556E+01 0.32020381293E+01 0.28721341767E+01
 0.27093744808E+01 0.27093882160E+01 0.28721663136E+01 0.32020721027E+01 0.37126775327E+01
 0.44285112397E+01 0.53745240038E+01 0.65519688613E+01 0.79111769497E+01 0.93373244901E+01
 0.10660037977E+02 0.11686595043E+02 0.12248866107E+02 0.12248791616E+02 0.11686419866E+02
 0.10659850159E+02 0.93371650975E+01 0.79110353370E+01 0.67522951798E+01 0.53744512546E+01
 0.43177067987E+01 0.35540983385E+01 0.30410564475E+01 0.27449632176E+01 0.26479769327E+01
 0.27449915262E+01 0.30410980962E+01 0.35541479189E+01 0.43177694255E+01 0.53745240038E+01
 0.67523726271E+01 0.84295760157E+01 0.10304217792E+02 0.12185722887E+02 0.13818249807E+02
 0.14935211977E+02 0.15332058483E+02 0.14935151836E+02 0.13818133779E+02 0.12185580286E+02
 0.10304091646E+02 0.84294822937E+01 0.65519229506E+01 0.50841241410E+01 0.40083143800E+01
 0.32686550325E+01 0.28079668224E+01 0.25868335969E+01 0.25868315261E+01 0.28079749368E+01
 0.32687034788E+01 0.40084071071E+01 0.50842125872E+01 0.65519688613E+01 0.84295760157E+01
 0.10653886762E+02 0.13049999599E+02 0.15330983602E+02 0.17124478163E+02 0.18099479919E+02
 0.18099553202E+02 0.17124587846E+02 0.15330963462E+02 0.13049859108E+02 0.10653764408E+02
 0.84295256819E+01 0.59945097812E+01 0.45633647055E+01 0.35600729746E+01 0.29077418641E+01
 0.25421562837E+01 0.24245169347E+01 0.25422283757E+01 0.29078102229E+01 0.35601209902E+01
 0.45634420140E+01 0.59946090326E+01 0.79111769497E+01 0.10304217792E+02 0.13049999599E+02
 0.15879463823E+02 0.18347158337E+02 0.19994711832E+02 0.20568432620E+02 0.19994762022E+02
 0.18347173149E+02 0.15879423613E+02 0.13049966076E+02 0.10304202045E+02 0.79111199871E+01
 0.51939604275E+01 0.39092375932E+01 0.30483701519E+01 0.25257629654E+01 0.22798729564E+01
 0.22799734127E+01 0.25259304035E+01 0.30484292255E+01 0.39092459088E+01 0.51940596963E+01
 0.69888749144E+01 0.93373244901E+01 0.12185722887E+02 0.15330983602E+02 0.18347158337E+02
 0.20665047497E+02 0.21904527731E+02 0.21904472293E+02 0.20664919477E+02 0.18347067730E+02
 0.15331017082E+02 0.12185809252E+02 0.93373040797E+01 0.69887365998E+01 0.42921240312E+01
 0.32235104409E+01 0.25420925841E+01 0.21667829869E+01 0.20473004172E+01 0.21669041048E+01
 0.25422020425E+01 0.32235694658E+01 0.42922085779E+01 0.58454550838E+01 0.79638166029E+01
 0.10660037977E+02 0.13818249807E+02 0.17124478163E+02 0.19994711832E+02 0.21904527731E+02
 0.22568971484E+02 0.21904519086E+02 0.19994611919E+02 0.17124322890E+02 0.13818170671E+02
 0.10660040363E+02 0.79637791463E+01 0.58453501530E+01 0.34152006116E+01 0.25866878968E+01
 0.20901233572E+01 0.18587807169E+01 0.18588226876E+01 0.20902099438E+01 0.25867788275E+01
 0.34153059303E+01 0.46678651711E+01 0.64401010993E+01 0.87911463095E+01 0.11686595043E+02
 0.14935211977E+02 0.18099479919E+02 0.20568432620E+02 0.21904472293E+02 0.21904519086E+02
 0.20568422783E+02 0.18099240945E+02 0.14934880524E+02 0.11686427302E+02 0.87911527953E+01
 0.64400972914E+01 0.46677772424E+01 0.26478639676E+01 0.20470467637E+01 0.17184266519E+01
 0.16143000891E+01 0.17185675520E+01 0.20471760635E+01 0.26479182833E+01 0.35968965438E+01
 0.49858943276E+01 0.68949564374E+01 0.93471867955E+01 0.12248866107E+02 0.15332058483E+02
 0.18099553202E+02 0.19994762022E+02 0.20664919477E+02 0.19994611919E+02 0.18099240945E+02
 0.15331710674E+02 0.12248674004E+02 0.93471677902E+01 0.68949590472E+01 0.49858473905E+01
 0.35968510718E+01 0.20294919943E+01 0.16229784527E+01 0.14340796700E+01 0.14341863085E+01
 0.16231701988E+01 0.20295887844E+01 0.27093401026E+01 0.37390196938E+01 0.51989534848E+01
 0.71415130573E+01 0.95432273718E+01 0.12248791616E+02 0.14935151836E+02 0.17124587846E+02
 0.18347173149E+02 0.18347067730E+02 0.17124322890E+02 0.14934880524E+02 0.12248674004E+02
 0.95432605483E+01 0.71415396781E+01 0.51988960798E+01 0.37389617456E+01 0.27093154831E+01
 0.15647304844E+01 0.13118970970E+01 0.12317508973E+01 0.13119933863E+01 0.15648421643E+01
 0.20265987228E+01 0.27544955805E+01 0.38170793944E+01 0.52739264484E+01 0.71415157182E+01
 0.93471422741E+01 0.11686419866E+02 0.13818133779E+02 0.15330963462E+02 0.15879423613E+02
 0.15331017082E+02 0.13818170671E+02 0.11686427302E+02 0.93471677902E+01 0.71415396781E+01
 0.52738714870E+01 0.38169477447E+01 0.27543669763E+01 0.20264972508E+01 0.12381523586E+01
 0.11000495520E+01 0.11000622655E+01 0.12381880835E+01 0.15345984747E+01 0.20281374178E+01
 0.27711105652E+01 0.38171629966E+01 0.51990163089E+01 0.68949761205E+01 0.87910701290E+01
 0.10659850159E+02 0.12185580286E+02 0.13049859108E+02 0.13049966076E+02 0.12185809252E+02
 0.10660040363E+02 0.87911527953E+01 0.68949590472E+01 0.51988960798E+01 0.38169477447E+01
 0.27708775662E+01 0.20279763313E+01 0.15345208191E+01 0.10269356890E+01 0.97066939574E+00
 0.10269408626E+01 0.12039044900E+01 0.15254073736E+01 0.20281694599E+01 0.27546475712E+01
 0.37392285825E+01 0.49860103691E+01 0.64401299737E+01 0.79637003038E+01 0.93371650975E+01
 0.10304091646E+02 0.10653764408E+02 0.10304202045E+02 0.93373040797E+01 0.79637791463E+01
 0.64400972914E+01 0.49858473905E+01 0.37389617456E+01 0.27543669763E+01 0.20279763313E+01
 0.15253265744E+01 0.12038850925E+01 0.90981048442E+00 0.90979567950E+00 0.10035881548E+01
 0.12038862572E+01 0.15346086498E+01 0.20266954145E+01 0.27095881268E+01 0.35971236751E+01
 0.46679772434E+01 0.58454324307E+01 0.69887035798E+01 0.79110353370E+01 0.84294822937E+01
 0.84295256819E+01 0.79111199871E+01 0.69887365998E+01 0.58453501530E+01 0.46677772424E+01
 0.35968510718E+01 0.27093154831E+01 0.20264972508E+01 0.15345208191E+01 0.12038850925E+01
 0.10036174677E+01 0.90972534278E+00 0.97051392917E+00 0.10999129605E+01 0.13118800927E+01
 0.16231188685E+01 0.20472884480E+01 0.25869098426E+01 0.32236131674E+01 0.39092158984E+01
 0.45632902016E+01 0.50840634319E+01 0.53744227239E+01 0.53744269020E+01 0.50840849954E+01
 0.45633235340E+01 0.39092059738E+01 0.32234985918E+01 0.25867009449E+01 0.20470771459E+01
 0.16230094673E+01 0.13119175503E+01 0.11000597001E+01 0.97067262689E+00 0.90979305143E+00
 0.97051392917E+00 0.10387287520E+01 0.11628226819E+01 0.13554041220E+01 0.16282868183E+01
 0.19869937646E+01 0.24244440276E+01 0.29148242672E+01 0.34101137127E+01 0.38433855676E+01
 0.41420464976E+01 0.42488801977E+01 0.41420685520E+01 0.38434455710E+01 0.34101841261E+01
 0.29148276667E+01 0.24243361270E+01 0.19868301425E+01 0.16281817480E+01 0.13554297488E+01
 0.11629583214E+01 0.10388919567E+01 0.97061989638E+00 0.94893468150E+00 0.10999129605E+01
 0.11628226819E+01 0.12701313324E+01 0.14325227504E+01 0.16572647680E+01 0.19438404012E+01
 0.22798220827E+01 0.26378720301E+01 0.29758584175E+01 0.32426995908E+01 0.33907000284E+01
 0.33907005196E+01 0.32427021665E+01 0.29758587028E+01 0.26378553192E+01 0.22797807590E+01
 0.19437941377E+01 0.16572521093E+01 0.14325695539E+01 0.12702304087E+01 0.11629398673E+01
 0.11000058570E+01 0.10714728749E+01 0.10714376980E+01 0.13118800927E+01 0.13554041220E+01
 0.14325227504E+01 0.15522890119E+01 0.17187921869E+01 0.19282535101E+01 0.21667970913E+01
 0.24095537948E+01 0.26226879363E+01 0.27698803306E+01 0.28225672938E+01 0.27698421940E+01
 0.26226092630E+01 0.24094480060E+01 0.21667057490E+01 0.19282295546E+01 0.17188604466E+01
 0.15524209987E+01 0.14326553006E+01 0.13554866098E+01 0.13119061465E+01 0.12914029693E+01
 0.12856312351E+01 0.12914043903E+01 0.16231188685E+01 0.16282868183E+01 0.16572647680E+01
 0.17187921869E+01 0.18158034076E+01 0.19438436812E+01 0.20902223112E+01 0.22344664024E+01
 0.23513446758E+01 0.24170709793E+01 0.24170248156E+01 0.23512287942E+01 0.22343335023E+01
 0.20901268789E+01 0.19438239667E+01 0.18158706879E+01 0.17189191432E+01 0.16573891280E+01
 0.16283468141E+01 0.16230992918E+01 0.16297078028E+01 0.16366112772E+01 0.16366397907E+01
 0.16297637405E+01 0.20472884480E+01 0.19869937646E+01 0.19438404012E+01 0.19282535101E+01
 0.19438436812E+01 0.19869937601E+01 0.20472851306E+01 0.21091542179E+01 0.21554455330E+01
 0.21725690172E+01 0.21553492580E+01 0.21090194312E+01 0.20471867727E+01 0.19869816106E+01
 0.19439208979E+01 0.19283730018E+01 0.19439243311E+01 0.19869819021E+01 0.20471838738E+01
 0.21090198310E+01 0.21553529005E+01 0.21725693132E+01 0.21554424622E+01 0.21091543307E+01
 0.25869098426E+01 0.24244440276E+01 0.22798220827E+01 0.21667970913E+01 0.20902223112E+01
 0.20472851306E+01 0.20297188403E+01 0.20266926308E+01 0.20281757412E+01 0.20281473251E+01
 0.20266158391E+01 0.20296199393E+01 0.20472099251E+01 0.20902232558E+01 0.21668894148E+01
 0.22799423301E+01 0.24244794628E+01 0.25867947151E+01 0.27449358041E+01 0.28721316459E+01
 0.29434035690E+01 0.29434861242E+01 0.28723379933E+01 0.27451566103E+01 0.32236131674E+01
 0.29148242672E+01 0.26378720301E+01 0.24095537948E+01 0.22344664024E+01 0.21091542179E+01
 0.20266926308E+01 0.19802888183E+01 0.19653462718E+01 0.19802690130E+01 0.20266377344E+01
 0.21090662984E+01 0.22343951044E+01 0.24095719447E+01 0.26379958193E+01 0.29149666386E+01
 0.32236466243E+01 0.35334332851E+01 0.38027835115E+01 0.39876014369E+01 0.40536015974E+01
 0.39877534030E+01 0.38029900038E+01 0.35335577797E+01 0.39092158984E+01 0.34101137127E+01
 0.29758584175E+01 0.26226879363E+01 0.23513446758E+01 0.21554455330E+01 0.20281757412E+01
 0.19653462718E+01 0.19653382783E+01 0.20281418248E+01 0.21553842381E+01 0.23513035871E+01
 0.26227424240E+01 0.29760318513E+01 0.34103339713E+01 0.39093717761E+01 0.44351586962E+01
 0.49278522848E+01 0.53148472842E+01 0.55288088850E+01 0.55288289996E+01 0.53148978238E+01
 0.49278922003E+01 0.44351193385E+01 0.45632902016E+01 0.38433855676E+01 0.32426995908E+01
 0.27698803306E+01 0.24170709793E+01 0.21725690172E+01 0.20281473251E+01 0.19802690130E+01
 0.20281418248E+01 0.21725399661E+01 0.24170623629E+01 0.27699970854E+01 0.32429825226E+01
 0.38437338505E+01 0.45635551237E+01 0.53640402382E+01 0.61696560353E+01 0.68731627699E+01
 0.73576478199E+01 0.75308491930E+01 0.73575776950E+01 0.68730802683E+01 0.61695814150E+01
 0.53639055961E+01 0.50840634319E+01 0.41420464976E+01 0.33907000284E+01 0.28225672938E+01
 0.24170248156E+01 0.21553492580E+01 0.20266158391E+01 0.20266377344E+01 0.21553842381E+01
 0.24170623629E+01 0.28226981464E+01 0.33910070119E+01 0.41424559013E+01 0.50844027776E+01
 0.61903275984E+01 0.73810051548E+01 0.85188754987E+01 0.94267715486E+01 0.99337953454E+01
 0.99337313207E+01 0.94266267751E+01 0.85187362734E+01 0.73808846942E+01 0.61901350790E+01
 0.53744227239E+01 0.42488801977E+01 0.33907005196E+01 0.27698421940E+01 0.23512287942E+01
 0.21090194312E+01 0.20296199393E+01 0.21090662984E+01 0.23513035871E+01 0.27699970854E+01
 0.33910070119E+01 0.42492727259E+01 0.53747271351E+01 0.67666423239E+01 0.83623615748E+01
 0.10013589484E+02 0.11489548919E+02 0.12523310460E+02 0.12896187305E+02 0.12523177521E+02
 0.11489349116E+02 0.10013425004E+02 0.83622597392E+01 0.67664936392E+01 0.53744269020E+01
 0.41420685520E+01 0.32427021665E+01 0.26226092630E+01 0.22343335023E+01 0.20471867727E+01
 0.20472099251E+01 0.22343951044E+01 0.26227424240E+01 0.32429825226E+01 0.41424559013E+01
 0.53747271351E+01 0.69740155715E+01 0.89154935012E+01 0.11071798451E+02 0.13189116378E+02
 0.14914578162E+02 0.15891226780E+02 0.15891172114E+02 0.14914412590E+02 0.13188901598E+02
 0.11071666013E+02 0.89154616795E+01 0.69739137858E+01 0.50840849954E+01 0.38434455710E+01
 0.29758587028E+01 0.24094480060E+01 0.20901268789E+01 0.19869816106E+01 0.20902232558E+01
 0.24095719447E+01 0.29760318513E+01 0.38437338505E+01 0.50844027776E+01 0.67666423239E+01
 0.89154935012E+01 0.11455571722E+02 0.14157386432E+02 0.16627558787E+02 0.18385500292E+02
 0.19024890673E+02 0.18385427723E+02 0.16627383381E+02 0.14157191387E+02 0.11455480177E+02
 0.89154475230E+01 0.67664659618E+01 0.45633235340E+01 0.34101841261E+01 0.26378553192E+01
 0.21667057490E+01 0.19438239667E+01 0.19439208979E+01 0.21668894148E+01 0.26379958193E+01
 0.34103339713E+01 0.45635551237E+01 0.61903275984E+01 0.83623615748E+01 0.11071798451E+02
 0.14157386432E+02 0.17252610727E+02 0.19815934750E+02 0.21277724210E+02 0.21277700329E+02
 0.19815814515E+02 0.17252381723E+02 0.14157180416E+02 0.11071695083E+02 0.83622481920E+01
 0.61901087082E+01 0.39092059738E+01 0.29148276667E+01 0.22797807590E+01 0.19282295546E+01
 0.18158706879E+01 0.19283730018E+01 0.22799423301E+01 0.29149666386E+01 0.39093717761E+01
 0.53640402382E+01 0.73810051548E+01 0.10013589484E+02 0.13189116378E+02 0.16627558787E+02
 0.19815934750E+02 0.22098193933E+02 0.22926838616E+02 0.22098183981E+02 0.19815749783E+02
 0.16627210273E+02 0.13188832041E+02 0.10013468440E+02 0.73809119414E+01 0.53638799277E+01
 0.32234985918E+01 0.24243361270E+01 0.19437941377E+01 0.17188604466E+01 0.17189191432E+01
 0.19439243311E+01 0.24244794628E+01 0.32236466243E+01 0.44351586962E+01 0.61696560353E+01
 0.85188754987E+01 0.11489548919E+02 0.14914578162E+02 0.18385500292E+02 0.21277724210E+02
 0.22926838616E+02 0.22926909568E+02 0.21277729433E+02 0.18385173338E+02 0.14914057395E+02
 0.11489189850E+02 0.85187648241E+01 0.61696036419E+01 0.44350412560E+01 0.25867009449E+01
 0.19868301425E+01 0.16572521093E+01 0.15524209987E+01 0.16573891280E+01 0.19869819021E+01
 0.25867947151E+01 0.35334332851E+01 0.49278522848E+01 0.68731627699E+01 0.94267715486E+01
 0.12523310460E+02 0.15891226780E+02 0.19024890673E+02 0.21277700329E+02 0.22098183981E+02
 0.21277729433E+02 0.19024677360E+02 0.15890695504E+02 0.12522744644E+02 0.94264407431E+01
 0.68730460459E+01 0.49278029269E+01 0.35333774269E+01 0.20470771459E+01 0.16281817480E+01
 0.14325695539E+01 0.14326553006E+01 0.16283468141E+01 0.20471838738E+01 0.27449358041E+01
 0.38027835115E+01 0.53148472842E+01 0.73576478199E+01 0.99337953454E+01 0.12896187305E+02
 0.15891172114E+02 0.18385427723E+02 0.19815814515E+02 0.19815749783E+02 0.18385173338E+02
 0.15890695504E+02 0.12895649136E+02 0.99334043413E+01 0.73574429736E+01 0.53147472057E+01
 0.38027335091E+01 0.27448934186E+01 0.16230094673E+01 0.13554297488E+01 0.12702304087E+01
 0.13554866098E+01 0.16230992918E+01 0.21090198310E+01 0.28721316459E+01 0.39876014369E+01
 0.55288088850E+01 0.75308491930E+01 0.99337313207E+01 0.12523177521E+02 0.14914412590E+02
 0.16627383381E+02 0.17252381723E+02 0.16627210273E+02 0.14914057395E+02 0.12522744644E+02
 0.99334043413E+01 0.75306916632E+01 0.55287183351E+01 0.39874782108E+01 0.28719874725E+01
 0.21089003643E+01 0.13119175503E+01 0.11629583214E+01 0.11629398673E+01 0.13119061465E+01
 0.16297078028E+01 0.21553529005E+01 0.29434035690E+01 0.40536015974E+01 0.55288289996E+01
 0.73575776950E+01 0.94266267751E+01 0.11489349116E+02 0.13188901598E+02 0.14157191387E+02
 0.14157180416E+02 0.13188832041E+02 0.11489189850E+02 0.94264407431E+01 0.73574429736E+01
 0.55287183351E+01 0.40534277580E+01 0.29431644376E+01 0.21551518163E+01 0.16296262558E+01
 0.11000597001E+01 0.10388919567E+01 0.11000058570E+01 0.12914029693E+01 0.16366112772E+01
 0.21725693132E+01 0.29434861242E+01 0.39877534030E+01 0.53148978238E+01 0.68730802683E+01
 0.85187362734E+01 0.10013425004E+02 0.11071666013E+02 0.11455480177E+02 0.11071695083E+02
 0.10013468440E+02 0.85187648241E+01 0.68730460459E+01 0.53147472057E+01 0.39874782108E+01
 0.29431644376E+01 0.21723266485E+01 0.16365212901E+01 0.12914334726E+01 0.97067262689E+00
 0.97061989638E+00 0.10714728749E+01 0.12856312351E+01 0.16366397907E+01 0.21554424622E+01
 0.28723379933E+01 0.38029900038E+01 0.49278922003E+01 0.61695814150E+01 0.73808846942E+01
 0.83622597392E+01 0.89154616795E+01 0.89154475230E+01 0.83622481920E+01 0.73809119414E+01
 0.61696036419E+01 0.49278029269E+01 0.38027335091E+01 0.28719874725E+01 0.21551518163E+01
 0.16365212901E+01 0.12856783338E+01 0.10715814472E+01 0.90979305143E+00 0.94893468150E+00
 0.10714376980E+01 0.12914043903E+01 0.16297637405E+01 0.21091543307E+01 0.27451566103E+01
 0.35335577797E+01 0.44351193385E+01 0.53639055961E+01 0.61901350790E+01 0.67664936392E+01
 0.69739137858E+01 0.67664659618E+01 0.61901087082E+01 0.53638799277E+01 0.44350412560E+01
 0.35333774269E+01 0.27448934186E+01 0.21089003643E+01 0.16296262558E+01 0.12914334726E+01
 0.10715814472E+01 0.94906281852E+00 0.10268292220E+01 0.10999087217E+01 0.12316258847E+01
 0.14340273544E+01 0.17184590547E+01 0.20902211394E+01 0.25422061646E+01 0.30484440424E+01
 0.35600845698E+01 0.40082829275E+01 0.43176643517E+01 0.44284195355E+01 0.43176521949E+01
 0.40082612659E+01 0.35600422343E+01 0.30483699592E+01 0.25421225514E+01 0.20901754188E+01
 0.17184808927E+01 0.14341140592E+01 0.12317600091E+01 0.11000574586E+01 0.10269322230E+01
 0.10035774702E+01 0.10999087217E+01 0.11628223269E+01 0.12701326492E+01 0.14325229552E+01
 0.16572647838E+01 0.19438431354E+01 0.22798269994E+01 0.26378751070E+01 0.29758561281E+01
 0.32426891879E+01 0.33906784986E+01 0.33906692335E+01 0.32426719440E+01 0.29758446931E+01
 0.26378655988E+01 0.22798119334E+01 0.19438356613E+01 0.16572908272E+01 0.14325931202E+01
 0.12702335300E+01 0.11629283721E+01 0.10999908590E+01 0.10714610318E+01 0.10714297203E+01
 0.12316258847E+01 0.12701326492E+01 0.13410598207E+01 0.14540129474E+01 0.16134691856E+01
 0.18158013057E+01 0.20471791840E+01 0.22829664428E+01 0.24899725456E+01 0.26328577667E+01
 0.26839773159E+01 0.26328147739E+01 0.24899132859E+01 0.22829246660E+01 0.20471764135E+01
 0.18158409733E+01 0.16135391952E+01 0.14540916279E+01 0.13411267396E+01 0.12701787997E+01
 0.12316532540E+01 0.12144523777E+01 0.12098209744E+01 0.12144394687E+01 0.14340273544E+01
 0.14325229552E+01 0.14540129474E+01 0.15079370672E+01 0.15976475876E+01 0.17187922787E+01
 0.18586846296E+01 0.19970898797E+01 0.21093884101E+01 0.21725662237E+01 0.21725298850E+01
 0.21092931416E+01 0.19969761862E+01 0.18586097792E+01 0.17188021223E+01 0.15977433353E+01
 0.15080686632E+01 0.14541131621E+01 0.14325548230E+01 0.14340030321E+01 0.14456899426E+01
 0.14553319101E+01 0.14553496844E+01 0.14457294707E+01 0.17184590547E+01 0.16572647838E+01
 0.16134691856E+01 0.15976475876E+01 0.16134711791E+01 0.16572679177E+01 0.17184650224E+01
 0.17812806311E+01 0.18283032141E+01 0.18457085594E+01 0.18282186931E+01 0.17811614760E+01
 0.17183787494E+01 0.16572618784E+01 0.16135511685E+01 0.15977767649E+01 0.16135855543E+01
 0.16573143555E+01 0.17184289332E+01 0.17811955250E+01 0.18282316608E+01 0.18457036693E+01
 0.18282901571E+01 0.17812694238E+01 0.20902211394E+01 0.19438431354E+01 0.18158013057E+01
 0.17187922787E+01 0.16572679177E+01 0.16282893616E+01 0.16231202997E+01 0.16297666038E+01
 0.16366405575E+01 0.16366006913E+01 0.16296829299E+01 0.16230680882E+01 0.16283200771E+01
 0.16573754402E+01 0.17189265758E+01 0.18159023412E+01 0.19438691960E+01 0.20901659186E+01
 0.22343540015E+01 0.23512319980E+01 0.24170165297E+01 0.24170557983E+01 0.23513293364E+01
 0.22344582111E+01 0.25422061646E+01 0.22798269994E+01 0.20471791840E+01 0.18586846296E+01
 0.17184650224E+01 0.16231202997E+01 0.15648338837E+01 0.15346086385E+01 0.15254111362E+01
 0.15345978801E+01 0.15648378402E+01 0.16231703699E+01 0.17185716748E+01 0.18588225918E+01
 0.20472966557E+01 0.22798736604E+01 0.25421608180E+01 0.28079669480E+01 0.30410526876E+01
 0.32020386296E+01 0.32597198505E+01 0.32021281997E+01 0.30411883400E+01 0.28080844110E+01
 0.30484440424E+01 0.26378751070E+01 0.22829664428E+01 0.19970898797E+01 0.17812806311E+01
 0.16297666038E+01 0.15346086385E+01 0.14889646984E+01 0.14889930864E+01 0.15346826203E+01
 0.16298653173E+01 0.17813901644E+01 0.19971998427E+01 0.22830630911E+01 0.26379474901E+01
 0.30484854088E+01 0.34840122111E+01 0.38952748015E+01 0.42206988993E+01 0.44015924439E+01
 0.44016253643E+01 0.42207676626E+01 0.38953235348E+01 0.34840130193E+01 0.35600845698E+01
 0.29758561281E+01 0.24899725456E+01 0.21093884101E+01 0.18283032141E+01 0.16366405575E+01
 0.15254111362E+01 0.14889930864E+01 0.15255130312E+01 0.16367924146E+01 0.18284593834E+01
 0.21095312544E+01 0.24900876596E+01 0.29759380876E+01 0.35601647901E+01 0.42130775024E+01
 0.48747685707E+01 0.54570850432E+01 0.58607657337E+01 0.60056338913E+01 0.58607094598E+01
 0.54569678908E+01 0.48746230896E+01 0.42129589172E+01 0.40082829275E+01 0.32426891879E+01
 0.26328577667E+01 0.21725662237E+01 0.18457085594E+01 0.16366006913E+01 0.15345978801E+01
 0.15346826203E+01 0.16367924146E+01 0.18459080347E+01 0.21727488176E+01 0.26330365442E+01
 0.32428434459E+01 0.40084040373E+01 0.49106867471E+01 0.58887178192E+01 0.68312079311E+01
 0.75891022006E+01 0.80146586238E+01 0.80145864331E+01 0.75888994086E+01 0.68309391892E+01
 0.58884868218E+01 0.49105383627E+01 0.43176643517E+01 0.33906784986E+01 0.26839773159E+01
 0.21725298850E+01 0.18282186931E+01 0.16296829299E+01 0.15648378402E+01 0.16298653173E+01
 0.18284593834E+01 0.21727488176E+01 0.26841843119E+01 0.33908682008E+01 0.43178078448E+01
 0.54679560862E+01 0.67956242397E+01 0.81820283005E+01 0.94325137264E+01 0.10314517294E+02
 0.10633873366E+02 0.10314416974E+02 0.94322864015E+01 0.81817373374E+01 0.67953942061E+01
 0.54678120396E+01 0.44284195355E+01 0.33906692335E+01 0.26328147739E+01 0.21092931416E+01
 0.17811614760E+01 0.16230680882E+01 0.16231703699E+01 0.17813901644E+01 0.21095312544E+01
 0.26330365442E+01 0.33908682008E+01 0.44285431646E+01 0.57793637991E+01 0.74310930681E+01
 0.92839148728E+01 0.11121950905E+02 0.12632515138E+02 0.13492186922E+02 0.13492177609E+02
 0.12632418330E+02 0.11121713357E+02 0.92836578624E+01 0.74309543685E+01 0.57792973308E+01
 0.43176521949E+01 0.32426719440E+01 0.24899132859E+01 0.19969761862E+01 0.17183787494E+01
 0.16283200771E+01 0.17185716748E+01 0.19971998427E+01 0.24900876596E+01 0.32428434459E+01
 0.43178078448E+01 0.57793637991E+01 0.76603333243E+01 0.99078498149E+01 0.12326053366E+02
 0.14558819061E+02 0.16158829458E+02 0.16742821149E+02 0.16158762930E+02 0.14558636487E+02
 0.12325826617E+02 0.99077274032E+01 0.76603118590E+01 0.57792997534E+01 0.40082612659E+01
 0.29758446931E+01 0.22829246660E+01 0.18586097792E+01 0.16572618784E+01 0.16573754402E+01
 0.18588225918E+01 0.22830630911E+01 0.29759380876E+01 0.40084040373E+01 0.54679560862E+01
 0.74310930681E+01 0.99078498149E+01 0.12764253349E+02 0.15662109301E+02 0.18082469268E+02
 0.19473229368E+02 0.19473184023E+02 0.18082315250E+02 0.15661883022E+02 0.12764089572E+02
 0.99078006618E+01 0.74310410359E+01 0.54678184831E+01 0.35600422343E+01 0.26378655988E+01
 0.20471764135E+01 0.17188021223E+01 0.16135511685E+01 0.17189265758E+01 0.20472966557E+01
 0.26379474901E+01 0.35601647901E+01 0.49106867471E+01 0.67956242397E+01 0.92839148728E+01
 0.12326053366E+02 0.15662109301E+02 0.18786803434E+02 0.21047178859E+02 0.21876039668E+02
 0.21047116881E+02 0.18786619053E+02 0.15661862330E+02 0.12325889512E+02 0.92838421819E+01
 0.67955216690E+01 0.49105292436E+01 0.30483699592E+01 0.22798119334E+01 0.18158409733E+01
 0.15977433353E+01 0.15977767649E+01 0.18159023412E+01 0.22798736604E+01 0.30484854088E+01
 0.42130775024E+01 0.58887178192E+01 0.81820283005E+01 0.11121950905E+02 0.14558819061E+02
 0.18082469268E+02 0.21047178859E+02 0.22758042438E+02 0.22758035348E+02 0.21047089361E+02
 0.18082242776E+02 0.14558567007E+02 0.11121794984E+02 0.81819193925E+01 0.58885551325E+01
 0.42128941115E+01 0.25421225514E+01 0.19438356613E+01 0.16135391952E+01 0.15080686632E+01
 0.16135855543E+01 0.19438691960E+01 0.25421608180E+01 0.34840122111E+01 0.48747685707E+01
 0.68312079311E+01 0.94325137264E+01 0.12632515138E+02 0.16158829458E+02 0.19473229368E+02
 0.21876039668E+02 0.22758035348E+02 0.21875993019E+02 0.19473081173E+02 0.16158597045E+02
 0.12632281587E+02 0.94322977176E+01 0.68309712123E+01 0.48745425807E+01 0.34838824162E+01
 0.20901754188E+01 0.16572908272E+01 0.14540916279E+01 0.14541131621E+01 0.16573143555E+01
 0.20901659186E+01 0.28079669480E+01 0.38952748015E+01 0.54570850432E+01 0.75891022006E+01
 0.10314517294E+02 0.13492186922E+02 0.16742821149E+02 0.19473184023E+02 0.21047116881E+02
 0.21047089361E+02 0.19473081173E+02 0.16742623054E+02 0.13491915261E+02 0.10314202116E+02
 0.75887665663E+01 0.54567912246E+01 0.38951100435E+01 0.28079381497E+01 0.17184808927E+01
 0.14325931202E+01 0.13411267396E+01 0.14325548230E+01 0.17184289332E+01 0.22343540015E+01
 0.30410526876E+01 0.42206988993E+01 0.58607657337E+01 0.80146586238E+01 0.10633873366E+02
 0.13492177609E+02 0.16158762930E+02 0.18082315250E+02 0.18786619053E+02 0.18082242776E+02
 0.16158597045E+02 0.13491915261E+02 0.10633546225E+02 0.80143138048E+01 0.58604553350E+01
 0.42204777102E+01 0.30409556654E+01 0.22343627277E+01 0.14341140592E+01 0.12702335300E+01
 0.12701787997E+01 0.14340030321E+01 0.17811955250E+01 0.23512319980E+01 0.32020386296E+01
 0.44015924439E+01 0.60056338913E+01 0.80145864331E+01 0.10314416974E+02 0.12632418330E+02
 0.14558636487E+02 0.15661883022E+02 0.15661862330E+02 0.14558567007E+02 0.12632281587E+02
 0.10314202116E+02 0.80143138048E+01 0.60053539110E+01 0.44013554957E+01 0.32018816376E+01