   2   2   0   0
  0.2001288E+02  0.3839590E-09  0.3839590E-09  0.3839590E-09  0.5000000E-15
  1.000000000000000E-004
  CAR 
 unknown system                          
     17.77572221     -8.11226848  301      6.18028675      1.00000000
     -8.112  0.0000E+00  0.0000E+00
     -8.026  0.0000E+00  0.0000E+00
     -7.940  0.0000E+00  0.0000E+00
     -7.853  0.0000E+00  0.0000E+00
     -7.767  0.0000E+00  0.0000E+00
     -7.681  0.0000E+00  0.0000E+00
     -7.595  0.0000E+00  0.0000E+00
     -7.508  0.0000E+00  0.0000E+00
     -7.422  0.0000E+00  0.0000E+00
     -7.336  0.0000E+00  0.0000E+00
     -7.249  0.7942E-18  0.6853E-19
     -7.163  0.1069E-15  0.9295E-17
     -7.077  0.9202E-14  0.8034E-15
     -6.990  0.5541E-12  0.4861E-13
     -6.904  0.2337E-10  0.2065E-11
     -6.818  0.6929E-09  0.6186E-10
     -6.732  0.1450E-07  0.1313E-08
     -6.645  0.2150E-06  0.1986E-07
     -6.559  0.2273E-05  0.2160E-06
     -6.473  0.1726E-04  0.1706E-05
     -6.386  0.9507E-04  0.9910E-05
     -6.300  0.3847E-03  0.4311E-04
     -6.214  0.1165E-02  0.1437E-03
     -6.128  0.2709E-02  0.3774E-03
     -6.041  0.5004E-02  0.8093E-03
     -5.955  0.7668E-02  0.1471E-02
     -5.869  0.1024E-01  0.2354E-02
     -5.782  0.1248E-01  0.3432E-02
     -5.696  0.1440E-01  0.4674E-02
     -5.610  0.1607E-01  0.6061E-02
     -5.523  0.1765E-01  0.7584E-02
     -5.437  0.1911E-01  0.9233E-02
     -5.351  0.2042E-01  0.1100E-01
     -5.265  0.2171E-01  0.1287E-01
     -5.178  0.2314E-01  0.1486E-01
     -5.092  0.2446E-01  0.1698E-01
     -5.006  0.2548E-01  0.1917E-01
     -4.919  0.2660E-01  0.2147E-01
     -4.833  0.2812E-01  0.2390E-01
     -4.747  0.2963E-01  0.2645E-01
     -4.661  0.3074E-01  0.2911E-01
     -4.574  0.3161E-01  0.3183E-01
     -4.488  0.3288E-01  0.3467E-01
     -4.402  0.3488E-01  0.3768E-01
     -4.315  0.3698E-01  0.4087E-01
     -4.229  0.3834E-01  0.4418E-01
     -4.143  0.3941E-01  0.4758E-01
     -4.056  0.4151E-01  0.5116E-01
     -3.970  0.4508E-01  0.5505E-01
     -3.884  0.4924E-01  0.5930E-01
     -3.798  0.5277E-01  0.6386E-01
     -3.711  0.5460E-01  0.6857E-01
     -3.625  0.5440E-01  0.7326E-01
     -3.539  0.5345E-01  0.7787E-01
     -3.452  0.5293E-01  0.8244E-01
     -3.366  0.5234E-01  0.8696E-01
     -3.280  0.5092E-01  0.9135E-01
     -3.194  0.4856E-01  0.9554E-01
     -3.107  0.4505E-01  0.9943E-01
     -3.021  0.4119E-01  0.1030E+00
     -2.935  0.3933E-01  0.1064E+00
     -2.848  0.4026E-01  0.1099E+00
     -2.762  0.4104E-01  0.1134E+00
     -2.676  0.3836E-01  0.1167E+00
     -2.589  0.3251E-01  0.1195E+00
     -2.503  0.2689E-01  0.1218E+00
     -2.417  0.2456E-01  0.1239E+00
     -2.331  0.2543E-01  0.1261E+00
     -2.244  0.2617E-01  0.1284E+00
     -2.158  0.2345E-01  0.1304E+00
     -2.072  0.1718E-01  0.1319E+00
     -1.985  0.1021E-01  0.1328E+00
     -1.899  0.5645E-02  0.1333E+00
     -1.813  0.5396E-02  0.1337E+00
     -1.727  0.9833E-02  0.1346E+00
     -1.640  0.1697E-01  0.1361E+00
     -1.554  0.2260E-01  0.1380E+00
     -1.468  0.2379E-01  0.1401E+00
     -1.381  0.2242E-01  0.1420E+00
     -1.295  0.2385E-01  0.1441E+00
     -1.209  0.3289E-01  0.1469E+00
     -1.123  0.5019E-01  0.1512E+00
     -1.036  0.6975E-01  0.1572E+00
     -0.950  0.8171E-01  0.1643E+00
     -0.864  0.8106E-01  0.1713E+00
     -0.777  0.7201E-01  0.1775E+00
     -0.691  0.6200E-01  0.1828E+00
     -0.605  0.5469E-01  0.1876E+00
     -0.518  0.5041E-01  0.1919E+00
     -0.432  0.4844E-01  0.1961E+00
     -0.346  0.4625E-01  0.2001E+00
     -0.260  0.4155E-01  0.2037E+00
     -0.173  0.3629E-01  0.2068E+00
     -0.087  0.3356E-01  0.2097E+00
     -0.001  0.3226E-01  0.2125E+00
      0.086  0.2990E-01  0.2151E+00
      0.172  0.2787E-01  0.2175E+00
      0.258  0.2860E-01  0.2199E+00
      0.344  0.3001E-01  0.2225E+00
      0.431  0.2808E-01  0.2250E+00
      0.517  0.2341E-01  0.2270E+00
      0.603  0.2050E-01  0.2287E+00
      0.690  0.2109E-01  0.2306E+00
      0.776  0.2217E-01  0.2325E+00
      0.862  0.2075E-01  0.2343E+00
      0.949  0.1807E-01  0.2358E+00
      1.035  0.1737E-01  0.2373E+00
      1.121  0.1899E-01  0.2390E+00
      1.207  0.2009E-01  0.2407E+00
      1.294  0.1955E-01  0.2424E+00
      1.380  0.2060E-01  0.2442E+00
      1.466  0.2729E-01  0.2465E+00
      1.553  0.3998E-01  0.2500E+00
      1.639  0.5487E-01  0.2547E+00
      1.725  0.6651E-01  0.2604E+00
      1.811  0.7147E-01  0.2666E+00
      1.898  0.7142E-01  0.2728E+00
      1.984  0.7086E-01  0.2789E+00
      2.070  0.7149E-01  0.2851E+00
      2.157  0.7132E-01  0.2912E+00
      2.243  0.6904E-01  0.2972E+00
      2.329  0.6671E-01  0.3029E+00
      2.416  0.6734E-01  0.3087E+00
      2.502  0.7110E-01  0.3149E+00
      2.588  0.7510E-01  0.3213E+00
      2.674  0.7720E-01  0.3280E+00
      2.761  0.7846E-01  0.3348E+00
      2.847  0.8105E-01  0.3418E+00
      2.933  0.8582E-01  0.3492E+00
      3.020  0.9206E-01  0.3571E+00
      3.106  0.9756E-01  0.3655E+00
      3.192  0.9972E-01  0.3741E+00
      3.278  0.9793E-01  0.3826E+00
      3.365  0.9445E-01  0.3907E+00
      3.451  0.9245E-01  0.3987E+00
      3.537  0.9282E-01  0.4067E+00
      3.624  0.9315E-01  0.4148E+00
      3.710  0.9097E-01  0.4226E+00
      3.796  0.8736E-01  0.4302E+00
      3.883  0.8523E-01  0.4375E+00
      3.969  0.8484E-01  0.4448E+00
      4.055  0.8409E-01  0.4521E+00
      4.141  0.8230E-01  0.4592E+00
      4.228  0.8062E-01  0.4662E+00
      4.314  0.7946E-01  0.4730E+00
      4.400  0.7794E-01  0.4797E+00
      4.487  0.7515E-01  0.4862E+00
      4.573  0.7131E-01  0.4924E+00
      4.659  0.6720E-01  0.4982E+00
      4.745  0.6215E-01  0.5035E+00
      4.832  0.5478E-01  0.5083E+00
      4.918  0.4619E-01  0.5123E+00
      5.004  0.3930E-01  0.5156E+00
      5.091  0.3509E-01  0.5187E+00
      5.177  0.3200E-01  0.5214E+00
      5.263  0.2846E-01  0.5239E+00
      5.349  0.2444E-01  0.5260E+00
      5.436  0.2078E-01  0.5278E+00
      5.522  0.1782E-01  0.5293E+00
      5.608  0.1513E-01  0.5306E+00
      5.695  0.1215E-01  0.5317E+00
      5.781  0.8807E-02  0.5324E+00
      5.867  0.5563E-02  0.5329E+00
      5.954  0.2959E-02  0.5332E+00
      6.040  0.1275E-02  0.5333E+00
      6.126  0.4361E-03  0.5333E+00
      6.212  0.1810E-03  0.5333E+00
      6.299  0.3721E-03  0.5334E+00
      6.385  0.1200E-02  0.5335E+00
      6.471  0.3015E-02  0.5337E+00
      6.558  0.5926E-02  0.5342E+00
      6.644  0.9798E-02  0.5351E+00
      6.730  0.1450E-01  0.5363E+00
      6.816  0.1951E-01  0.5380E+00
      6.903  0.2371E-01  0.5401E+00
      6.989  0.2644E-01  0.5424E+00
      7.075  0.2846E-01  0.5448E+00
      7.162  0.3148E-01  0.5475E+00
      7.248  0.3630E-01  0.5507E+00
      7.334  0.4139E-01  0.5542E+00
      7.421  0.4487E-01  0.5581E+00
      7.507  0.4757E-01  0.5622E+00
      7.593  0.5138E-01  0.5666E+00
      7.679  0.5654E-01  0.5715E+00
      7.766  0.6270E-01  0.5769E+00
      7.852  0.7002E-01  0.5830E+00
      7.938  0.7821E-01  0.5897E+00
      8.025  0.8682E-01  0.5972E+00
      8.111  0.9490E-01  0.6054E+00
      8.197  0.9970E-01  0.6140E+00
      8.283  0.9947E-01  0.6226E+00
      8.370  0.9668E-01  0.6309E+00
      8.456  0.9427E-01  0.6391E+00
      8.542  0.9149E-01  0.6470E+00
      8.629  0.8673E-01  0.6544E+00
      8.715  0.8108E-01  0.6614E+00
      8.801  0.7686E-01  0.6681E+00
      8.888  0.7528E-01  0.6746E+00
      8.974  0.7740E-01  0.6813E+00
      9.060  0.8537E-01  0.6886E+00
      9.146  0.9954E-01  0.6972E+00
      9.233  0.1152E+00  0.7071E+00
      9.319  0.1253E+00  0.7180E+00
      9.405  0.1267E+00  0.7289E+00
      9.492  0.1216E+00  0.7394E+00
      9.578  0.1140E+00  0.7492E+00
      9.664  0.1071E+00  0.7585E+00
      9.750  0.1020E+00  0.7673E+00
      9.837  0.9747E-01  0.7757E+00
      9.923  0.9245E-01  0.7837E+00
     10.009  0.8803E-01  0.7913E+00
     10.096  0.8549E-01  0.7986E+00
     10.182  0.8425E-01  0.8059E+00
     10.268  0.8295E-01  0.8131E+00
     10.354  0.8134E-01  0.8201E+00
     10.441  0.8091E-01  0.8271E+00
     10.527  0.8269E-01  0.8342E+00
     10.613  0.8465E-01  0.8415E+00
     10.700  0.8431E-01  0.8488E+00
     10.786  0.8256E-01  0.8559E+00
     10.872  0.8173E-01  0.8630E+00
     10.959  0.8169E-01  0.8700E+00
     11.045  0.8117E-01  0.8770E+00
     11.131  0.8088E-01  0.8840E+00
     11.217  0.8125E-01  0.8910E+00
     11.304  0.7981E-01  0.8979E+00
     11.390  0.7513E-01  0.9044E+00
     11.476  0.7049E-01  0.9105E+00
     11.563  0.6959E-01  0.9165E+00
     11.649  0.7140E-01  0.9226E+00
     11.735  0.7263E-01  0.9289E+00
     11.821  0.7291E-01  0.9352E+00
     11.908  0.7330E-01  0.9415E+00
     11.994  0.7271E-01  0.9478E+00
     12.080  0.6953E-01  0.9538E+00
     12.167  0.6452E-01  0.9594E+00
     12.253  0.5974E-01  0.9645E+00
     12.339  0.5675E-01  0.9694E+00
     12.426  0.5658E-01  0.9743E+00
     12.512  0.5945E-01  0.9794E+00
     12.598  0.6359E-01  0.9849E+00
     12.684  0.6574E-01  0.9906E+00
     12.771  0.6384E-01  0.9961E+00
     12.857  0.5809E-01  0.1001E+01
     12.943  0.4991E-01  0.1005E+01
     13.030  0.4200E-01  0.1009E+01
     13.116  0.3826E-01  0.1012E+01
     13.202  0.4027E-01  0.1016E+01
     13.288  0.4512E-01  0.1020E+01
     13.375  0.4869E-01  0.1024E+01
     13.461  0.4933E-01  0.1028E+01
     13.547  0.4727E-01  0.1032E+01
     13.634  0.4297E-01  0.1036E+01
     13.720  0.3731E-01  0.1039E+01
     13.806  0.3168E-01  0.1042E+01
     13.893  0.2716E-01  0.1044E+01
     13.979  0.2412E-01  0.1046E+01
     14.065  0.2304E-01  0.1048E+01
     14.151  0.2455E-01  0.1050E+01
     14.238  0.2692E-01  0.1053E+01
     14.324  0.2603E-01  0.1055E+01
     14.410  0.2020E-01  0.1057E+01
     14.497  0.1274E-01  0.1058E+01
     14.583  0.7934E-02  0.1059E+01
     14.669  0.6704E-02  0.1059E+01
     14.755  0.7311E-02  0.1060E+01
     14.842  0.8516E-02  0.1060E+01
     14.928  0.1040E-01  0.1061E+01
     15.014  0.1222E-01  0.1062E+01
     15.101  0.1191E-01  0.1063E+01
     15.187  0.8811E-02  0.1064E+01
     15.273  0.4930E-02  0.1065E+01
     15.360  0.2582E-02  0.1065E+01
     15.446  0.2254E-02  0.1065E+01
     15.532  0.2986E-02  0.1065E+01
     15.618  0.3687E-02  0.1066E+01
     15.705  0.3860E-02  0.1066E+01
     15.791  0.3439E-02  0.1066E+01
     15.877  0.2507E-02  0.1066E+01
     15.964  0.1406E-02  0.1067E+01
     16.050  0.5788E-03  0.1067E+01
     16.136  0.1704E-03  0.1067E+01
     16.222  0.3546E-04  0.1067E+01
     16.309  0.5185E-05  0.1067E+01
     16.395  0.5310E-06  0.1067E+01
     16.481  0.3803E-07  0.1067E+01
     16.568  0.1901E-08  0.1067E+01
     16.654  0.6627E-10  0.1067E+01
     16.740  0.1609E-11  0.1067E+01
     16.826  0.2718E-13  0.1067E+01
     16.913  0.3193E-15  0.1067E+01
     16.999  0.2383E-17  0.1067E+01
     17.085  0.0000E+00  0.1067E+01
     17.172  0.0000E+00  0.1067E+01
     17.258  0.0000E+00  0.1067E+01
     17.344  0.0000E+00  0.1067E+01
     17.431  0.0000E+00  0.1067E+01
     17.517  0.0000E+00  0.1067E+01
     17.603  0.0000E+00  0.1067E+01
     17.689  0.0000E+00  0.1067E+01
     17.776  0.0000E+00  0.1067E+01
