   2   2   0   0
  0.2001288E+02  0.3839590E-09  0.3839590E-09  0.3839590E-09  0.5000000E-15
  1.000000000000000E-004
  CAR 
 unknown system                          
     17.77477101     -8.11343578  301      6.17853486      1.00000000
     -8.113  0.0000E+00  0.0000E+00
     -8.027  0.0000E+00  0.0000E+00
     -7.941  0.0000E+00  0.0000E+00
     -7.855  0.0000E+00  0.0000E+00
     -7.768  0.0000E+00  0.0000E+00
     -7.682  0.0000E+00  0.0000E+00
     -7.596  0.0000E+00  0.0000E+00
     -7.509  0.0000E+00  0.0000E+00
     -7.423  0.0000E+00  0.0000E+00
     -7.337  0.0000E+00  0.0000E+00
     -7.250  0.7942E-18  0.6853E-19
     -7.164  0.1070E-15  0.9303E-17
     -7.078  0.9206E-14  0.8037E-15
     -6.992  0.5543E-12  0.4863E-13
     -6.905  0.2338E-10  0.2066E-11
     -6.819  0.6932E-09  0.6189E-10
     -6.733  0.1450E-07  0.1313E-08
     -6.646  0.2150E-06  0.1987E-07
     -6.560  0.2274E-05  0.2161E-06
     -6.474  0.1727E-04  0.1706E-05
     -6.388  0.9509E-04  0.9912E-05
     -6.301  0.3848E-03  0.4312E-04
     -6.215  0.1165E-02  0.1437E-03
     -6.129  0.2709E-02  0.3775E-03
     -6.042  0.5005E-02  0.8094E-03
     -5.956  0.7668E-02  0.1471E-02
     -5.870  0.1024E-01  0.2355E-02
     -5.783  0.1248E-01  0.3432E-02
     -5.697  0.1440E-01  0.4674E-02
     -5.611  0.1607E-01  0.6061E-02
     -5.525  0.1764E-01  0.7584E-02
     -5.438  0.1911E-01  0.9233E-02
     -5.352  0.2042E-01  0.1099E-01
     -5.266  0.2171E-01  0.1287E-01
     -5.179  0.2314E-01  0.1486E-01
     -5.093  0.2446E-01  0.1698E-01
     -5.007  0.2548E-01  0.1917E-01
     -4.921  0.2660E-01  0.2147E-01
     -4.834  0.2812E-01  0.2390E-01
     -4.748  0.2963E-01  0.2645E-01
     -4.662  0.3073E-01  0.2911E-01
     -4.575  0.3161E-01  0.3183E-01
     -4.489  0.3287E-01  0.3467E-01
     -4.403  0.3487E-01  0.3768E-01
     -4.316  0.3698E-01  0.4087E-01
     -4.230  0.3834E-01  0.4418E-01
     -4.144  0.3940E-01  0.4758E-01
     -4.058  0.4151E-01  0.5116E-01
     -3.971  0.4507E-01  0.5505E-01
     -3.885  0.4923E-01  0.5930E-01
     -3.799  0.5277E-01  0.6385E-01
     -3.712  0.5459E-01  0.6856E-01
     -3.626  0.5440E-01  0.7326E-01
     -3.540  0.5345E-01  0.7787E-01
     -3.454  0.5293E-01  0.8244E-01
     -3.367  0.5234E-01  0.8695E-01
     -3.281  0.5092E-01  0.9135E-01
     -3.195  0.4856E-01  0.9554E-01
     -3.108  0.4505E-01  0.9943E-01
     -3.022  0.4119E-01  0.1030E+00
     -2.936  0.3933E-01  0.1064E+00
     -2.850  0.4026E-01  0.1098E+00
     -2.763  0.4104E-01  0.1134E+00
     -2.677  0.3836E-01  0.1167E+00
     -2.591  0.3251E-01  0.1195E+00
     -2.504  0.2689E-01  0.1218E+00
     -2.418  0.2457E-01  0.1239E+00
     -2.332  0.2543E-01  0.1261E+00
     -2.245  0.2617E-01  0.1284E+00
     -2.159  0.2345E-01  0.1304E+00
     -2.073  0.1719E-01  0.1319E+00
     -1.987  0.1022E-01  0.1328E+00
     -1.900  0.5649E-02  0.1333E+00
     -1.814  0.5394E-02  0.1337E+00
     -1.728  0.9826E-02  0.1346E+00
     -1.641  0.1697E-01  0.1361E+00
     -1.555  0.2260E-01  0.1380E+00
     -1.469  0.2379E-01  0.1401E+00
     -1.383  0.2242E-01  0.1420E+00
     -1.296  0.2385E-01  0.1440E+00
     -1.210  0.3289E-01  0.1469E+00
     -1.124  0.5020E-01  0.1512E+00
     -1.037  0.6976E-01  0.1572E+00
     -0.951  0.8172E-01  0.1643E+00
     -0.865  0.8106E-01  0.1713E+00
     -0.778  0.7200E-01  0.1775E+00
     -0.692  0.6199E-01  0.1828E+00
     -0.606  0.5468E-01  0.1876E+00
     -0.520  0.5041E-01  0.1919E+00
     -0.433  0.4843E-01  0.1961E+00
     -0.347  0.4624E-01  0.2001E+00
     -0.261  0.4155E-01  0.2037E+00
     -0.174  0.3629E-01  0.2068E+00
     -0.088  0.3356E-01  0.2097E+00
     -0.002  0.3226E-01  0.2125E+00
      0.084  0.2990E-01  0.2151E+00
      0.171  0.2787E-01  0.2175E+00
      0.257  0.2860E-01  0.2199E+00
      0.343  0.3002E-01  0.2225E+00
      0.430  0.2808E-01  0.2250E+00
      0.516  0.2341E-01  0.2270E+00
      0.602  0.2050E-01  0.2287E+00
      0.689  0.2109E-01  0.2306E+00
      0.775  0.2217E-01  0.2325E+00
      0.861  0.2075E-01  0.2343E+00
      0.947  0.1806E-01  0.2358E+00
      1.034  0.1737E-01  0.2373E+00
      1.120  0.1899E-01  0.2390E+00
      1.206  0.2009E-01  0.2407E+00
      1.293  0.1956E-01  0.2424E+00
      1.379  0.2062E-01  0.2442E+00
      1.465  0.2732E-01  0.2465E+00
      1.551  0.4001E-01  0.2500E+00
      1.638  0.5490E-01  0.2547E+00
      1.724  0.6653E-01  0.2605E+00
      1.810  0.7147E-01  0.2666E+00
      1.897  0.7141E-01  0.2728E+00
      1.983  0.7084E-01  0.2789E+00
      2.069  0.7148E-01  0.2851E+00
      2.156  0.7131E-01  0.2912E+00
      2.242  0.6903E-01  0.2972E+00
      2.328  0.6669E-01  0.3029E+00
      2.414  0.6733E-01  0.3087E+00
      2.501  0.7109E-01  0.3149E+00
      2.587  0.7509E-01  0.3214E+00
      2.673  0.7718E-01  0.3280E+00
      2.760  0.7844E-01  0.3348E+00
      2.846  0.8102E-01  0.3418E+00
      2.932  0.8580E-01  0.3492E+00
      3.018  0.9204E-01  0.3571E+00
      3.105  0.9754E-01  0.3655E+00
      3.191  0.9970E-01  0.3741E+00
      3.277  0.9792E-01  0.3826E+00
      3.364  0.9444E-01  0.3907E+00
      3.450  0.9245E-01  0.3987E+00
      3.536  0.9281E-01  0.4067E+00
      3.623  0.9314E-01  0.4148E+00
      3.709  0.9097E-01  0.4226E+00
      3.795  0.8736E-01  0.4302E+00
      3.881  0.8522E-01  0.4375E+00
      3.968  0.8484E-01  0.4448E+00
      4.054  0.8409E-01  0.4521E+00
      4.140  0.8231E-01  0.4592E+00
      4.227  0.8062E-01  0.4661E+00
      4.313  0.7946E-01  0.4730E+00
      4.399  0.7794E-01  0.4797E+00
      4.485  0.7516E-01  0.4862E+00
      4.572  0.7132E-01  0.4924E+00
      4.658  0.6721E-01  0.4982E+00
      4.744  0.6217E-01  0.5035E+00
      4.831  0.5479E-01  0.5083E+00
      4.917  0.4620E-01  0.5122E+00
      5.003  0.3931E-01  0.5156E+00
      5.090  0.3510E-01  0.5187E+00
      5.176  0.3201E-01  0.5214E+00
      5.262  0.2846E-01  0.5239E+00
      5.348  0.2444E-01  0.5260E+00
      5.435  0.2078E-01  0.5278E+00
      5.521  0.1782E-01  0.5293E+00
      5.607  0.1513E-01  0.5306E+00
      5.694  0.1215E-01  0.5317E+00
      5.780  0.8806E-02  0.5324E+00
      5.866  0.5561E-02  0.5329E+00
      5.952  0.2957E-02  0.5332E+00
      6.039  0.1273E-02  0.5333E+00
      6.125  0.4358E-03  0.5333E+00
      6.211  0.1827E-03  0.5333E+00
      6.298  0.3793E-03  0.5334E+00
      6.384  0.1219E-02  0.5335E+00
      6.470  0.3049E-02  0.5337E+00
      6.557  0.5975E-02  0.5343E+00
      6.643  0.9858E-02  0.5351E+00
      6.729  0.1457E-01  0.5364E+00
      6.815  0.1957E-01  0.5381E+00
      6.902  0.2375E-01  0.5401E+00
      6.988  0.2645E-01  0.5424E+00
      7.074  0.2847E-01  0.5448E+00
      7.161  0.3152E-01  0.5476E+00
      7.247  0.3636E-01  0.5507E+00
      7.333  0.4143E-01  0.5543E+00
      7.419  0.4489E-01  0.5581E+00
      7.506  0.4759E-01  0.5623E+00
      7.592  0.5141E-01  0.5667E+00
      7.678  0.5658E-01  0.5716E+00
      7.765  0.6275E-01  0.5770E+00
      7.851  0.7007E-01  0.5830E+00
      7.937  0.7826E-01  0.5898E+00
      8.024  0.8686E-01  0.5973E+00
      8.110  0.9491E-01  0.6055E+00
      8.196  0.9967E-01  0.6141E+00
      8.282  0.9941E-01  0.6227E+00
      8.369  0.9662E-01  0.6310E+00
      8.455  0.9422E-01  0.6391E+00
      8.541  0.9144E-01  0.6470E+00
      8.628  0.8667E-01  0.6545E+00
      8.714  0.8100E-01  0.6615E+00
      8.800  0.7680E-01  0.6681E+00
      8.886  0.7524E-01  0.6746E+00
      8.973  0.7737E-01  0.6813E+00
      9.059  0.8533E-01  0.6886E+00
      9.145  0.9949E-01  0.6972E+00
      9.232  0.1151E+00  0.7072E+00
      9.318  0.1253E+00  0.7180E+00
      9.404  0.1268E+00  0.7289E+00
      9.491  0.1217E+00  0.7394E+00
      9.577  0.1140E+00  0.7493E+00
      9.663  0.1071E+00  0.7585E+00
      9.749  0.1020E+00  0.7673E+00
      9.836  0.9745E-01  0.7757E+00
      9.922  0.9248E-01  0.7837E+00
     10.008  0.8810E-01  0.7913E+00
     10.095  0.8555E-01  0.7987E+00
     10.181  0.8425E-01  0.8059E+00
     10.267  0.8290E-01  0.8131E+00
     10.353  0.8128E-01  0.8201E+00
     10.440  0.8090E-01  0.8271E+00
     10.526  0.8272E-01  0.8342E+00
     10.612  0.8469E-01  0.8415E+00
     10.699  0.8433E-01  0.8488E+00
     10.785  0.8256E-01  0.8559E+00
     10.871  0.8172E-01  0.8630E+00
     10.958  0.8166E-01  0.8700E+00
     11.044  0.8114E-01  0.8770E+00
     11.130  0.8087E-01  0.8840E+00
     11.216  0.8127E-01  0.8910E+00
     11.303  0.7982E-01  0.8979E+00
     11.389  0.7513E-01  0.9044E+00
     11.475  0.7049E-01  0.9105E+00
     11.562  0.6962E-01  0.9165E+00
     11.648  0.7141E-01  0.9227E+00
     11.734  0.7260E-01  0.9289E+00
     11.820  0.7286E-01  0.9352E+00
     11.907  0.7329E-01  0.9415E+00
     11.993  0.7272E-01  0.9478E+00
     12.079  0.6955E-01  0.9538E+00
     12.166  0.6453E-01  0.9594E+00
     12.252  0.5973E-01  0.9645E+00
     12.338  0.5674E-01  0.9694E+00
     12.425  0.5657E-01  0.9743E+00
     12.511  0.5944E-01  0.9794E+00
     12.597  0.6357E-01  0.9849E+00
     12.683  0.6573E-01  0.9906E+00
     12.770  0.6384E-01  0.9961E+00
     12.856  0.5810E-01  0.1001E+01
     12.942  0.4992E-01  0.1005E+01
     13.029  0.4201E-01  0.1009E+01
     13.115  0.3826E-01  0.1012E+01
     13.201  0.4027E-01  0.1016E+01
     13.287  0.4512E-01  0.1020E+01
     13.374  0.4869E-01  0.1024E+01
     13.460  0.4935E-01  0.1028E+01
     13.546  0.4735E-01  0.1032E+01
     13.633  0.4308E-01  0.1036E+01
     13.719  0.3738E-01  0.1039E+01
     13.805  0.3166E-01  0.1042E+01
     13.892  0.2707E-01  0.1044E+01
     13.978  0.2399E-01  0.1046E+01
     14.064  0.2292E-01  0.1048E+01
     14.150  0.2446E-01  0.1050E+01
     14.237  0.2686E-01  0.1053E+01
     14.323  0.2600E-01  0.1055E+01
     14.409  0.2018E-01  0.1057E+01
     14.496  0.1273E-01  0.1058E+01
     14.582  0.7931E-02  0.1059E+01
     14.668  0.6702E-02  0.1059E+01
     14.754  0.7307E-02  0.1060E+01
     14.841  0.8512E-02  0.1060E+01
     14.927  0.1039E-01  0.1061E+01
     15.013  0.1222E-01  0.1062E+01
     15.100  0.1192E-01  0.1063E+01
     15.186  0.8812E-02  0.1064E+01
     15.272  0.4929E-02  0.1065E+01
     15.359  0.2580E-02  0.1065E+01
     15.445  0.2252E-02  0.1065E+01
     15.531  0.2984E-02  0.1065E+01
     15.617  0.3686E-02  0.1066E+01
     15.704  0.3860E-02  0.1066E+01
     15.790  0.3440E-02  0.1066E+01
     15.876  0.2508E-02  0.1066E+01
     15.963  0.1407E-02  0.1067E+01
     16.049  0.5793E-03  0.1067E+01
     16.135  0.1706E-03  0.1067E+01
     16.221  0.3550E-04  0.1067E+01
     16.308  0.5191E-05  0.1067E+01
     16.394  0.5317E-06  0.1067E+01
     16.480  0.3808E-07  0.1067E+01
     16.567  0.1904E-08  0.1067E+01
     16.653  0.6636E-10  0.1067E+01
     16.739  0.1611E-11  0.1067E+01
     16.826  0.2722E-13  0.1067E+01
     16.912  0.3199E-15  0.1067E+01
     16.998  0.2383E-17  0.1067E+01
     17.084  0.0000E+00  0.1067E+01
     17.171  0.0000E+00  0.1067E+01
     17.257  0.0000E+00  0.1067E+01
     17.343  0.0000E+00  0.1067E+01
     17.430  0.0000E+00  0.1067E+01
     17.516  0.0000E+00  0.1067E+01
     17.602  0.0000E+00  0.1067E+01
     17.688  0.0000E+00  0.1067E+01
     17.775  0.0000E+00  0.1067E+01
