    2    2   15    1
  0.2001288E+02  0.3839590E-09  0.3839590E-09  0.3839590E-09  0.5000000E-15
  1.000000000000000E-004
  CAR 
 unknown system                          
      8    182      8
 
  0.4166667E-01  0.4166667E-01  0.4166667E-01  0.1157407E-02
    1       -6.113436   1.000000
    2        5.615471   0.999966
    3        5.835750   0.992322
    4        5.835751   0.992322
    5        8.505479   0.000000
    6        8.512359   0.000000
    7        8.512359   0.000000
    8        9.365193   0.000000
 
  0.1250000E+00  0.4166667E-01  0.4166667E-01  0.3472222E-02
    1       -5.992055   1.000000
    2        4.718817   1.000000
    3        5.407221   1.000000
    4        5.781989   0.997476
    5        8.586041   0.000000
    6        8.630989   0.000000
    7        8.834605   0.000000
    8       10.196709   0.000000
 
  0.2083333E+00  0.4166667E-01  0.4166667E-01  0.3472222E-02
    1       -5.692423   1.000000
    2        3.200658   1.000000
    3        5.030597   1.000000
    4        5.507455   0.999999
    5        8.328324   0.000000
    6        9.027309   0.000000
    7        9.337060   0.000000
    8       11.535302   0.000000
 
  0.2916667E+00  0.4166667E-01  0.4166667E-01  0.3472222E-02
    1       -5.227292   1.000000
    2        1.673094   1.000000
    3        4.730912   1.000000
    4        5.183243   1.000000
    5        8.025237   0.000000
    6        9.325377   0.000000
    7        9.591113   0.000000
    8       12.682174   0.000000
 
  0.3750000E+00  0.4166667E-01  0.4166667E-01  0.3472222E-02
    1       -4.632029   1.000000
    2        0.299087   1.000000
    3        4.535561   1.000000
    4        4.906274   1.000000
    5        7.777371   0.000000
    6        9.377343   0.000000
    7        9.513539   0.000000
    8       13.562251   0.000000
 
  0.4583333E+00  0.4166667E-01  0.4166667E-01  0.3472222E-02
    1       -4.024605   1.000000
    2       -0.763792   1.000000
    3        4.452889   1.000000
    4        4.708315   1.000000
    5        7.617945   0.000000
    6        9.342803   0.000000
    7        9.346911   0.000000
    8       13.726800   0.000000
 
 -0.4583333E+00  0.4166667E-01  0.4166667E-01  0.3472222E-02
    1       -3.790769   1.000000
    2       -1.112344   1.000000
    3        4.481520   1.000000
    4        4.606295   1.000000
    5        7.581541   0.000000
    6        9.243185   0.000000
    7        9.377373   0.000000
    8       13.691701   0.000000
 
 -0.3750000E+00  0.4166667E-01  0.4166667E-01  0.3472222E-02
    1       -4.212810   1.000000
    2       -0.461523   1.000000
    3        4.611091   1.000000
    4        4.616074   1.000000
    5        7.658585   0.000000
    6        9.247248   0.000000
    7        9.511391   0.000000
    8       13.652480   0.000000
 
 -0.2916667E+00  0.4166667E-01  0.4166667E-01  0.3472222E-02
    1       -4.840514   1.000000
    2        0.732478   1.000000
    3        4.723844   1.000000
    4        4.845430   1.000000
    5        7.858110   0.000000
    6        9.288188   0.000000
    7        9.665405   0.000000
    8       12.946463   0.000000
 
 -0.2083333E+00  0.4166667E-01  0.4166667E-01  0.3472222E-02
    1       -5.399217   1.000000
    2        2.171106   1.000000
    3        4.947013   1.000000
    4        5.148035   1.000000
    5        8.125249   0.000000
    6        9.173077   0.000000
    7        9.655005   0.000000
    8       12.129040   0.000000
 
 -0.1250000E+00  0.4166667E-01  0.4166667E-01  0.3472222E-02
    1       -5.811506   1.000000
    2        3.725058   1.000000
    3        5.262320   1.000000
    4        5.481274   1.000000
    5        8.400043   0.000000
    6        8.826408   0.000000
    7        9.309705   0.000000
    8       11.054020   0.000000
 
 -0.4166667E-01  0.4166667E-01  0.4166667E-01  0.3472222E-02
    1       -6.052619   1.000000
    2        5.190594   1.000000
    3        5.606203   0.999974
    4        5.712171   0.999513
    5        8.372753   0.000000
    6        8.716808   0.000000
    7        8.815563   0.000000
    8        9.756961   0.000000
 
  0.1250000E+00  0.1250000E+00  0.4166667E-01  0.3472222E-02
    1       -5.931226   1.000000
    2        4.637402   1.000000
    3        5.254231   1.000000
    4        5.361422   1.000000
    5        8.130585   0.000000
    6        9.155018   0.000000
    7        9.313771   0.000000
    8       10.257514   0.000000
 
  0.2083333E+00  0.1250000E+00  0.4166667E-01  0.6944444E-02
    1       -5.690542   1.000000
    2        3.590512   1.000000
    3        4.654411   1.000000
    4        5.215288   1.000000
    5        8.149398   0.000000
    6        9.344163   0.000000
    7        9.830718   0.000000
    8       10.865537   0.000000
 
  0.2916667E+00  0.1250000E+00  0.4166667E-01  0.6944444E-02
    1       -5.278958   1.000000
    2        2.156501   1.000000
    3        4.270204   1.000000
    4        4.917381   1.000000
    5        8.359958   0.000000
    6        9.299612   0.000000
    7       10.220709   0.000000
    8       11.089892   0.000000
 
  0.3750000E+00  0.1250000E+00  0.4166667E-01  0.6944444E-02
    1       -4.721031   1.000000
    2        0.763975   1.000000
    3        4.008760   1.000000
    4        4.607479   1.000000
    5        8.313028   0.000000
    6        9.300725   0.000000
    7       10.224442   0.000000
    8       11.695758   0.000000
 
  0.4583333E+00  0.1250000E+00  0.4166667E-01  0.6944444E-02
    1       -4.093075   1.000000
    2       -0.408950   1.000000
    3        3.825851   1.000000
    4        4.409835   1.000000
    5        8.193887   0.000000
    6        9.210247   0.000000
    7       10.053796   0.000000
    8       12.826547   0.000000
 
 -0.4583333E+00  0.1250000E+00  0.4166667E-01  0.6944444E-02
    1       -3.669258   1.000000
    2       -1.053301   1.000000
    3        3.700497   1.000000
    4        4.383995   1.000000
    5        8.157453   0.000000
    6        9.158287   0.000000
    7        9.915075   0.000000
    8       13.919841   0.000000
 
 -0.3750000E+00  0.1250000E+00  0.4166667E-01  0.6944444E-02
    1       -3.905603   1.000000
    2       -0.705079   1.000000
    3        3.650952   1.000000
    4        4.522216   1.000000
    5        8.221224   0.000000
    6        9.206200   0.000000
    7        9.890931   0.000000
    8       13.649395   0.000000
 
 -0.2916667E+00  0.1250000E+00  0.4166667E-01  0.6944444E-02
    1       -4.514201   1.000000
    2        0.343766   1.000000
    3        3.712991   1.000000
    4        4.782498   1.000000
    5        8.386288   0.000000
    6        9.291381   0.000000
    7        9.968074   0.000000
    8       12.494954   0.000000
 
 -0.2083333E+00  0.1250000E+00  0.4166667E-01  0.6944444E-02
    1       -5.108555   1.000000
    2        1.677029   1.000000
    3        3.912254   1.000000
    4        5.115736   1.000000
    5        8.600331   0.000000
    6        9.233230   0.000000
    7        9.988301   0.000000
    8       11.644476   0.000000
 
 -0.1250000E+00  0.1250000E+00  0.4166667E-01  0.6944444E-02
    1       -5.572505   1.000000
    2        3.085444   1.000000
    3        4.297421   1.000000
    4        5.440592   1.000000
    5        8.649459   0.000000
    6        9.046286   0.000000
    7        9.654478   0.000000
    8       11.285939   0.000000
 
 -0.4166667E-01  0.1250000E+00  0.4166667E-01  0.6944444E-02
    1       -5.871222   1.000000
    2        4.169434   1.000000
    3        5.049953   1.000000
    4        5.597557   0.999980
    5        8.423008   0.000000
    6        8.891958   0.000000
    7        9.233873   0.000000
    8       10.707649   0.000000
 
  0.2083333E+00  0.2083333E+00  0.4166667E-01  0.3472222E-02
    1       -5.508853   1.000000
    2        3.336083   1.000000
    3        4.483362   1.000000
    4        4.499764   1.000000
    5        7.532161   0.000000
    6        9.970824   0.000000
    7       10.560528   0.000000
    8       10.586934   0.000000
 
  0.2916667E+00  0.2083333E+00  0.4166667E-01  0.6944444E-02
    1       -5.153258   1.000000
    2        2.366665   1.000000
    3        3.892543   1.000000
    4        4.314795   1.000000
    5        7.570264   0.000000
    6        9.609565   0.000000
    7       10.771671   0.000000
    8       11.206884   0.000000
 
  0.3750000E+00  0.2083333E+00  0.4166667E-01  0.6944444E-02
    1       -4.640713   1.000000
    2        1.149838   1.000000
    3        3.437009   1.000000
    4        4.045451   1.000000
    5        7.838584   0.000000
    6        9.824986   0.000000
    7       10.572001   0.000000
    8       11.417037   0.000000
 
  0.4583333E+00  0.2083333E+00  0.4166667E-01  0.6944444E-02
    1       -4.020561   1.000000
    2       -0.014993   1.000000
    3        3.041118   1.000000
    4        3.903727   1.000000
    5        7.909956   0.000000
    6       10.289840   0.000000
    7       10.826888   0.000000
    8       11.287340   0.000000
 
 -0.4583333E+00  0.2083333E+00  0.4166667E-01  0.6944444E-02
    1       -3.472288   1.000000
    2       -0.848185   1.000000
    3        2.726996   1.000000
    4        3.941034   1.000000
    5        7.987695   0.000000
    6       10.059680   0.000000
    7       11.091297   0.000000
    8       12.280074   0.000000
 
 -0.3750000E+00  0.2083333E+00  0.4166667E-01  0.6944444E-02
    1       -3.482851   1.000000
    2       -0.829430   1.000000
    3        2.543039   1.000000
    4        4.133572   1.000000
    5        8.185902   0.000000
    6        9.914338   0.000000
    7       10.955053   0.000000
    8       13.655541   0.000000
 
 -0.2916667E+00  0.2083333E+00  0.4166667E-01  0.6944444E-02
    1       -4.037359   1.000000
    2        0.016713   1.000000
    3        2.532860   1.000000
    4        4.450143   1.000000
    5        8.505734   0.000000
    6        9.834246   0.000000
    7       10.867417   0.000000
    8       12.274267   0.000000
 
 -0.2083333E+00  0.2083333E+00  0.4166667E-01  0.6944444E-02
    1       -4.654714   1.000000
    2        1.123462   1.000000
    3        2.781136   1.000000
    4        4.835285   1.000000
    5        8.870387   0.000000
    6        9.603131   0.000000
    7       10.687931   0.000000
    8       11.329112   0.000000
 
 -0.1250000E+00  0.2083333E+00  0.4166667E-01  0.6944444E-02
    1       -5.163023   1.000000
    2        2.056558   1.000000
    3        3.513154   1.000000
    4        5.184356   1.000000
    5        8.955557   0.000000
    6        9.167229   0.000000
    7       10.127285   0.000000
    8       11.257922   0.000000
 
 -0.4166667E-01  0.2083333E+00  0.4166667E-01  0.6944444E-02
    1       -5.514594   1.000000
    2        2.672693   1.000000
    3        4.663968   1.000000
    4        5.311065   1.000000
    5        8.425720   0.000000
    6        9.026143   0.000000
    7        9.710912   0.000000
    8       11.598643   0.000000
 
  0.2916667E+00  0.2916667E+00  0.4166667E-01  0.3472222E-02
    1       -4.853377   1.000000
    2        1.904914   1.000000
    3        3.764791   1.000000
    4        3.817476   1.000000
    5        6.992817   0.000000
    6        8.814006   0.000000
    7       11.941681   0.000000
    8       12.015574   0.000000
 
  0.3750000E+00  0.2916667E+00  0.4166667E-01  0.6944444E-02
    1       -4.390765   1.000000
    2        1.053561   1.000000
    3        3.266302   1.000000
    4        3.585188   1.000000
    5        7.113484   0.000000
    6        8.476295   0.000000
    7       12.089881   0.000000
    8       12.705351   0.000000
 
  0.4583333E+00  0.2916667E+00  0.4166667E-01  0.6944444E-02
    1       -3.797079   1.000000
    2        0.108709   1.000000
    3        2.629900   1.000000
    4        3.454499   1.000000
    5        7.355023   0.000000
    6        9.018658   0.000000
    7       11.862700   0.000000
    8       12.792181   0.000000
 
 -0.4583333E+00  0.2916667E+00  0.4166667E-01  0.6944444E-02
    1       -3.184115   1.000000
    2       -0.721917   1.000000
    3        2.078170   1.000000
    4        3.494030   1.000000
    5        7.471092   0.000000
    6       10.293620   0.000000
    7       11.588817   0.000000
    8       12.620152   0.000000
 
 -0.3750000E+00  0.2916667E+00  0.4166667E-01  0.6944444E-02
    1       -2.977695   1.000000
    2       -0.967210   1.000000
    3        1.735566   1.000000
    4        3.691006   1.000000
    5        7.690642   0.000000
    6       11.243843   0.000000
    7       11.983097   0.000000
    8       12.441420   0.000000
 
 -0.2916667E+00  0.2916667E+00  0.4166667E-01  0.6944444E-02
    1       -3.447070   1.000000
    2       -0.389798   1.000000
    3        1.699333   1.000000
    4        4.018415   1.000000
    5        8.057776   0.000000
    6       11.004726   0.000000
    7       12.070807   0.000000
    8       12.321115   0.000000
 
 -0.2083333E+00  0.2916667E+00  0.4166667E-01  0.6944444E-02
    1       -4.068953   1.000000
    2        0.304782   1.000000
    3        2.158480   1.000000
    4        4.432646   1.000000
    5        8.503424   0.000000
    6       10.243620   0.000000
    7       11.344641   0.000000
    8       11.702879   0.000000
 
 -0.1250000E+00  0.2916667E+00  0.4166667E-01  0.6944444E-02
    1       -4.607241   1.000000
    2        0.782449   1.000000
    3        3.178309   1.000000
    4        4.819210   1.000000
    5        8.722217   0.000000
    6        9.414542   0.000000
    7       10.329937   0.000000
    8       11.827408   0.000000
 
 -0.4166667E-01  0.2916667E+00  0.4166667E-01  0.6944444E-02
    1       -5.000456   1.000000
    2        1.201842   1.000000
    3        4.393553   1.000000
    4        4.985520   1.000000
    5        8.184179   0.000000
    6        9.243039   0.000000
    7        9.832640   0.000000
    8       12.238006   0.000000
 
  0.3750000E+00  0.3750000E+00  0.4166667E-01  0.3472222E-02
    1       -3.977469   1.000000
    2        0.443003   1.000000
    3        3.243483   1.000000
    4        3.334138   1.000000
    5        6.650873   0.000419
    6        7.727960   0.000000
    7       13.489602   0.000000
    8       13.512335   0.000000
 
  0.4583333E+00  0.3750000E+00  0.4166667E-01  0.6944444E-02
    1       -3.420554   1.000000
    2       -0.309470   1.000000
    3        2.840182   1.000000
    4        3.131988   1.000000
    5        6.863069   0.000001
    6        7.633130   0.000000
    7       13.526370   0.000000
    8       14.275883   0.000000
 
 -0.4583333E+00  0.3750000E+00  0.4166667E-01  0.6944444E-02
    1       -2.786973   1.000000
    2       -1.018552   1.000000
    3        2.122370   1.000000
    4        3.148082   1.000000
    5        7.055034   0.000000
    6        8.565227   0.000000
    7       13.256300   0.000000
    8       14.280753   0.000000
 
 -0.3750000E+00  0.3750000E+00  0.4166667E-01  0.6944444E-02
    1       -2.437617   1.000000
    2       -1.350068   1.000000
    3        1.571895   1.000000
    4        3.324115   1.000000
    5        7.262396   0.000000
    6       10.073206   0.000000
    7       12.915730   0.000000
    8       13.754332   0.000000
 
 -0.2916667E+00  0.3750000E+00  0.4166667E-01  0.6944444E-02
    1       -2.864515   1.000000
    2       -0.948090   1.000000
    3        1.474134   1.000000
    4        3.639863   1.000000
    5        7.622593   0.000000
    6       11.647785   0.000000
    7       12.120904   0.000000
    8       12.878567   0.000000
 
 -0.2083333E+00  0.3750000E+00  0.4166667E-01  0.6944444E-02
    1       -3.455107   1.000000
    2       -0.586768   1.000000
    3        2.029333   1.000000
    4        4.057250   1.000000
    5        8.103228   0.000000
    6       10.481973   0.000000
    7       11.567458   0.000000
    8       12.900923   0.000000
 
 -0.1250000E+00  0.3750000E+00  0.4166667E-01  0.6944444E-02
    1       -3.979161   1.000000
    2       -0.357916   1.000000
    3        3.073756   1.000000
    4        4.483292   1.000000
    5        8.451851   0.000000
    6        9.416904   0.000000
    7       10.342885   0.000000
    8       12.993283   0.000000
 
 -0.4166667E-01  0.3750000E+00  0.4166667E-01  0.6944444E-02
    1       -4.380401   1.000000
    2       -0.084618   1.000000
    3        4.233542   1.000000
    4        4.716240   1.000000
    5        7.966693   0.000000
    6        9.240376   0.000000
    7        9.698348   0.000000
    8       13.203599   0.000000
 
  0.4583333E+00  0.4583333E+00  0.4166667E-01  0.3472222E-02
    1       -2.900233   1.000000
    2       -0.977513   1.000000
    3        2.951407   1.000000
    4        3.060258   1.000000
    5        6.556984   0.003725
    6        7.012093   0.000000
    7       15.050954   0.000000
    8       15.061899   0.000000
 
 -0.4583333E+00  0.4583333E+00  0.4166667E-01  0.6944444E-02
    1       -2.272147   1.000000
    2       -1.639041   1.000000
    3        2.651403   1.000000
    4        2.942338   1.000000
    5        6.815514   0.000003
    6        7.203648   0.000000
    7       15.001190   0.000000
    8       15.538390   0.000000
 
 -0.3750000E+00  0.4583333E+00  0.4166667E-01  0.6944444E-02
    1       -2.263174   1.000000
    2       -1.569064   1.000000
    3        2.019505   1.000000
    4        3.087807   1.000000
    5        6.991270   0.000000
    6        8.474533   0.000000
    7       13.963826   0.000000
    8       14.684070   0.000000
 
 -0.2916667E+00  0.4583333E+00  0.4166667E-01  0.6944444E-02
    1       -2.763994   1.000000
    2       -1.068511   1.000000
    3        1.746732   1.000000
    4        3.380372   1.000000
    5        7.331070   0.000000
    6       10.144332   0.000000
    7       12.258576   0.000000
    8       13.332083   0.000000
 
 -0.2083333E+00  0.4583333E+00  0.4166667E-01  0.6944444E-02
    1       -3.190787   1.000000
    2       -0.946779   1.000000
    3        2.181742   1.000000
    4        3.791353   1.000000
    5        7.817104   0.000000
    6       10.649625   0.000000
    7       11.718724   0.000000
    8       12.125196   0.000000
 
 -0.1250000E+00  0.4583333E+00  0.4166667E-01  0.6944444E-02
    1       -3.549809   1.000000
    2       -1.002939   1.000000
    3        3.126710   1.000000
    4        4.242982   1.000000
    5        8.251810   0.000000
    6        9.422998   0.000000
    7       10.388160   0.000000
    8       13.958650   0.000000
 
 -0.4166667E-01  0.4583333E+00  0.4166667E-01  0.6944444E-02
    1       -3.835077   1.000000
    2       -0.968861   1.000000
    3        4.169178   1.000000
    4        4.560532   1.000000
    5        7.857492   0.000000
    6        9.191826   0.000000
    7        9.562793   0.000000
    8       13.809928   0.000000
 
 -0.4583333E+00 -0.4583333E+00  0.4166667E-01  0.3472222E-02
    1       -2.295346   1.000000
    2       -1.652599   1.000000
    3        2.892957   1.000000
    4        3.004989   1.000000
    5        6.602866   0.001348
    6        6.799059   0.000006
    7       15.733599   0.000000
    8       15.774771   0.000000
 
 -0.3750000E+00 -0.4583333E+00  0.4166667E-01  0.6944444E-02
    1       -2.866048   1.000000
    2       -0.984042   1.000000
    3        2.714350   1.000000
    4        3.005320   1.000000
    5        6.820132   0.000003
    6        7.359341   0.000000
    7       14.263905   0.000000
    8       15.048438   0.000000
 
 -0.2916667E+00 -0.4583333E+00  0.4166667E-01  0.6944444E-02
    1       -3.309088   1.000000
    2       -0.447317   1.000000
    3        2.327326   1.000000
    4        3.269123   1.000000
    5        7.177312   0.000000
    6        8.742242   0.000000
    7       12.546897   0.000000
    8       13.534029   0.000000
 
 -0.2083333E+00 -0.4583333E+00  0.4166667E-01  0.6944444E-02
    1       -3.613046   1.000000
    2       -0.371497   1.000000
    3        2.527310   1.000000
    4        3.666174   1.000000
    5        7.668362   0.000000
    6       10.502029   0.000000
    7       10.949734   0.000000
    8       11.922681   0.000000
 
 -0.1250000E+00 -0.4583333E+00  0.4166667E-01  0.6944444E-02
    1       -3.783354   1.000000
    2       -0.666284   1.000000
    3        3.299943   1.000000
    4        4.144615   1.000000
    5        8.159196   0.000000
    6        9.532868   0.000000
    7       10.524025   0.000000
    8       12.518357   0.000000
 
 -0.3750000E+00 -0.3750000E+00  0.4166667E-01  0.3472222E-02
    1       -3.462310   1.000000
    2       -0.276156   1.000000
    3        3.068582   1.000000
    4        3.170411   1.000000
    5        6.570801   0.002771
    6        7.324659   0.000000
    7       14.283567   0.000000
    8       14.284811   0.000000
 
 -0.2916667E+00 -0.3750000E+00  0.4166667E-01  0.6944444E-02
    1       -3.930228   1.000000
    2        0.373476   1.000000
    3        3.025528   1.000000
    4        3.324408   1.000000
    5        6.961399   0.000000
    6        8.006321   0.000000
    7       12.801267   0.000000
    8       13.487890   0.000000
 
 -0.2083333E+00 -0.3750000E+00  0.4166667E-01  0.6944444E-02
    1       -4.242896   1.000000
    2        0.639427   1.000000
    3        3.011367   1.000000
    4        3.709537   1.000000
    5        7.578219   0.000000
    6        9.382580   0.000000
    7       11.196322   0.000000
    8       12.082514   0.000000
 
 -0.1250000E+00 -0.3750000E+00  0.4166667E-01  0.6944444E-02
    1       -4.392677   1.000000
    2        0.360397   1.000000
    3        3.555552   1.000000
    4        4.219163   1.000000
    5        8.162256   0.000000
    6        9.719475   0.000000
    7       10.700342   0.000000
    8       11.227058   0.000000
 
 -0.2916667E+00 -0.2916667E+00  0.4166667E-01  0.3472222E-02
    1       -4.442132   1.000000
    2        1.172340   1.000000
    3        3.475292   1.000000
    4        3.549875   1.000000
    5        6.790912   0.000007
    6        8.222711   0.000000
    7       12.702189   0.000000
    8       12.748551   0.000000
 
 -0.2083333E+00 -0.2916667E+00  0.4166667E-01  0.6944444E-02
    1       -4.799362   1.000000
    2        1.720909   1.000000
    3        3.556767   1.000000
    4        3.917473   1.000000
    5        7.316966   0.000000
    6        9.032060   0.000000
    7       11.402020   0.000000
    8       11.944598   0.000000
 
 -0.1250000E+00 -0.2916667E+00  0.4166667E-01  0.6944444E-02
    1       -4.986989   1.000000
    2        1.651427   1.000000
    3        3.861337   1.000000
    4        4.464064   1.000000
    5        8.112244   0.000000
    6        9.811274   0.000000
    7       10.499314   0.000000
    8       10.810077   0.000000
 
 -0.2083333E+00 -0.2083333E+00  0.4166667E-01  0.3472222E-02
    1       -5.209669   1.000000
    2        2.629387   1.000000
    3        4.106783   1.000000
    4        4.129523   1.000000
    5        7.244061   0.000000
    6        9.431403   0.000000
    7       11.205804   0.000000
    8       11.288892   0.000000
 
 -0.1250000E+00 -0.2083333E+00  0.4166667E-01  0.6944444E-02
    1       -5.450871   1.000000
    2        2.989070   1.000000
    3        4.261290   1.000000
    4        4.760974   1.000000
    5        7.853541   0.000000
    6        9.813589   0.000000
    7       10.494951   0.000000
    8       10.546312   0.000000
 
 -0.1250000E+00 -0.1250000E+00  0.4166667E-01  0.3472222E-02
    1       -5.749712   1.000000
    2        4.011619   1.000000
    3        4.866492   1.000000
    4        4.930481   1.000000
    5        7.838065   0.000000
    6        9.720955   0.000000
    7        9.922332   0.000000
    8       10.497300   0.000000
 
  0.1250000E+00  0.1250000E+00  0.1250000E+00  0.1157407E-02
    1       -5.931787   1.000000
    2        4.260348   1.000000
    3        5.581269   0.999988
    4        5.581269   0.999988
    5        8.383544   0.000000
    6        8.885305   0.000000
    7        8.885305   0.000000
    8       10.567006   0.000000
 
  0.2083333E+00  0.1250000E+00  0.1250000E+00  0.3472222E-02
    1       -5.751451   1.000000
    2        3.634475   1.000000
    3        4.693915   1.000000
    4        5.656760   0.999888
    5        8.741275   0.000000
    6        8.868971   0.000000
    7        9.169125   0.000000
    8       11.199278   0.000000
 
  0.2916667E+00  0.1250000E+00  0.1250000E+00  0.3472222E-02
    1       -5.396294   1.000000
    2        2.568587   1.000000
    3        3.901773   1.000000
    4        5.439786   1.000000
    5        8.876170   0.000000
    6        9.233698   0.000000
    7        9.543379   0.000000
    8       11.607027   0.000000
 
  0.3750000E+00  0.1250000E+00  0.1250000E+00  0.3472222E-02
    1       -4.883851   1.000000
    2        1.216004   1.000000
    3        3.540828   1.000000
    4        5.086485   1.000000
    5        8.616387   0.000000
    6        9.596727   0.000000
    7        9.786577   0.000000
    8       12.216945   0.000000
 
  0.4583333E+00  0.1250000E+00  0.1250000E+00  0.3472222E-02
    1       -4.264389   1.000000
    2       -0.033517   1.000000
    3        3.396616   1.000000
    4        4.737507   1.000000
    5        8.356867   0.000000
    6        9.638413   0.000000
    7        9.760042   0.000000
    8       13.295877   0.000000
 
 -0.4583333E+00  0.1250000E+00  0.1250000E+00  0.3472222E-02
    1       -3.716227   1.000000
    2       -0.910507   1.000000
    3        3.413048   1.000000
    4        4.461345   1.000000
    5        8.170696   0.000000
    6        9.480647   0.000000
    7        9.873865   0.000000
    8       14.139875   0.000000
 
 -0.3750000E+00  0.1250000E+00  0.1250000E+00  0.3472222E-02
    1       -3.713292   1.000000
    2       -0.916245   1.000000
    3        3.567929   1.000000
    4        4.290024   1.000000
    5        8.088896   0.000000
    6        9.432683   0.000000
    7       10.052808   0.000000
    8       13.320842   0.000000
 
 -0.2916667E+00  0.1250000E+00  0.1250000E+00  0.3472222E-02
    1       -4.259352   1.000000
    2       -0.044626   1.000000
    3        3.847123   1.000000
    4        4.238253   1.000000
    5        8.115524   0.000000
    6        9.498363   0.000000
    7       10.292583   0.000000
    8       11.994789   0.000000
 
 -0.2083333E+00  0.1250000E+00  0.1250000E+00  0.3472222E-02
    1       -4.879689   1.000000
    2        1.211498   1.000000
    3        4.213355   1.000000
    4        4.323476   1.000000
    5        8.171797   0.000000
    6        9.589963   0.000000
    7       10.487127   0.000000
    8       11.005042   0.000000
 
 -0.1250000E+00  0.1250000E+00  0.1250000E+00  0.3472222E-02
    1       -5.393402   1.000000
    2        2.625200   1.000000
    3        4.537863   1.000000
    4        4.616992   1.000000
    5        8.046132   0.000000
    6        9.603465   0.000000
    7       10.395555   0.000000
    8       10.714971   0.000000
 
  0.2083333E+00  0.2083333E+00  0.1250000E+00  0.3472222E-02
    1       -5.631772   1.000000
    2        3.175478   1.000000
    3        4.898232   1.000000
    4        5.111933   1.000000
    5        8.305787   0.000000
    6        9.079013   0.000000
    7        9.830038   0.000000
    8       11.151987   0.000000
 
  0.2916667E+00  0.2083333E+00  0.1250000E+00  0.6944444E-02
    1       -5.335299   1.000000
    2        2.534025   1.000000
    3        3.905951   1.000000
    4        5.036336   1.000000
    5        8.390072   0.000000
    6        9.436817   0.000000
    7       10.333255   0.000000
    8       10.803870   0.000000
 
  0.3750000E+00  0.2083333E+00  0.1250000E+00  0.6944444E-02
    1       -4.874325   1.000000
    2        1.553705   1.000000
    3        3.155818   1.000000
    4        4.756115   1.000000
    5        8.799949   0.000000
    6        9.391064   0.000000
    7       10.636193   0.000000
    8       10.915901   0.000000
 
  0.4583333E+00  0.2083333E+00  0.1250000E+00  0.6944444E-02
    1       -4.282197   1.000000
    2        0.376950   1.000000
    3        2.838362   1.000000
    4        4.396481   1.000000
    5        8.906577   0.000000
    6        9.230312   0.000000
    7       11.012099   0.000000
    8       11.425479   0.000000
 
 -0.4583333E+00  0.2083333E+00  0.1250000E+00  0.6944444E-02
    1       -3.671200   1.000000
    2       -0.622570   1.000000
    3        2.745375   1.000000
    4        4.103769   1.000000
    5        8.708166   0.000000
    6        9.168629   0.000000
    7       11.074558   0.000000
    8       12.658140   0.000000
 
 -0.3750000E+00  0.2083333E+00  0.1250000E+00  0.6944444E-02
    1       -3.428789   1.000000
    2       -0.968289   1.000000
    3        2.789108   1.000000
    4        3.963208   1.000000
    5        8.509927   0.000000
    6        9.276607   0.000000
    7       11.104527   0.000000
    8       13.223589   0.000000
 
 -0.2916667E+00  0.2083333E+00  0.1250000E+00  0.6944444E-02
    1       -3.856323   1.000000
    2       -0.342970   1.000000
    3        2.924565   1.000000
    4        4.011628   1.000000
    5        8.410043   0.000000
    6        9.512782   0.000000
    7       11.175236   0.000000
    8       11.721414   0.000000
 
 -0.2083333E+00  0.2083333E+00  0.1250000E+00  0.6944444E-02
    1       -4.485161   1.000000
    2        0.761400   1.000000
    3        3.151865   1.000000
    4        4.242724   1.000000
    5        8.353365   0.000000
    6        9.805255   0.000000
    7       10.525361   0.000000
    8       11.280512   0.000000
 
 -0.1250000E+00  0.2083333E+00  0.1250000E+00  0.6944444E-02
    1       -5.041133   1.000000
    2        1.979869   1.000000
    3        3.542296   1.000000
    4        4.559660   1.000000
    5        8.120043   0.000000
    6        9.808829   0.000000
    7       10.315009   0.000000
    8       11.075989   0.000000
 