    2    2   15    1
  0.2001288E+02  0.3839590E-09  0.3839590E-09  0.3839590E-09  0.5000000E-15
  1.000000000000000E-004
  CAR 
 unknown system                          
      8    182      8
 
  0.4166667E-01  0.4166667E-01  0.4166667E-01  0.1157407E-02
    1       -6.112268   1.000000
    2        5.616617   0.999966
    3        5.836922   0.992408
    4        5.836923   0.992408
    5        8.505923   0.000000
    6        8.512636   0.000000
    7        8.512636   0.000000
    8        9.367102   0.000000
 
  0.1250000E+00  0.4166667E-01  0.4166667E-01  0.3472222E-02
    1       -5.990893   1.000000
    2        4.719938   1.000000
    3        5.408269   1.000000
    4        5.783141   0.997509
    5        8.587011   0.000000
    6        8.631265   0.000000
    7        8.835150   0.000000
    8       10.198455   0.000000
 
  0.2083333E+00  0.4166667E-01  0.4166667E-01  0.3472222E-02
    1       -5.691272   1.000000
    2        3.201777   1.000000
    3        5.031592   1.000000
    4        5.508523   0.999999
    5        8.329802   0.000000
    6        9.027637   0.000000
    7        9.337632   0.000000
    8       11.537389   0.000000
 
  0.2916667E+00  0.4166667E-01  0.4166667E-01  0.3472222E-02
    1       -5.226164   1.000000
    2        1.674247   1.000000
    3        4.731877   1.000000
    4        5.184240   1.000000
    5        8.026987   0.000000
    6        9.325740   0.000000
    7        9.591675   0.000000
    8       12.684539   0.000000
 
  0.3750000E+00  0.4166667E-01  0.4166667E-01  0.3472222E-02
    1       -4.630940   1.000000
    2        0.300296   1.000000
    3        4.536513   1.000000
    4        4.907222   1.000000
    5        7.779250   0.000000
    6        9.377736   0.000000
    7        9.514120   0.000000
    8       13.565786   0.000000
 
  0.4583333E+00  0.4166667E-01  0.4166667E-01  0.3472222E-02
    1       -4.023580   1.000000
    2       -0.762508   1.000000
    3        4.453837   1.000000
    4        4.709236   1.000000
    5        7.619867   0.000000
    6        9.343227   0.000000
    7        9.347501   0.000000
    8       13.732010   0.000000
 
 -0.4583333E+00  0.4166667E-01  0.4166667E-01  0.3472222E-02
    1       -3.789783   1.000000
    2       -1.111018   1.000000
    3        4.482473   1.000000
    4        4.607203   1.000000
    5        7.583478   0.000000
    6        9.243756   0.000000
    7        9.377817   0.000000
    8       13.697085   0.000000
 
 -0.3750000E+00  0.4166667E-01  0.4166667E-01  0.3472222E-02
    1       -4.211760   1.000000
    2       -0.460266   1.000000
    3        4.611997   1.000000
    4        4.617043   1.000000
    5        7.660507   0.000000
    6        9.247776   0.000000
    7        9.511846   0.000000
    8       13.656906   0.000000
 
 -0.2916667E+00  0.4166667E-01  0.4166667E-01  0.3472222E-02
    1       -4.839410   1.000000
    2        0.733667   1.000000
    3        4.724763   1.000000
    4        4.846424   1.000000
    5        7.859982   0.000000
    6        9.288646   0.000000
    7        9.665870   0.000000
    8       12.948363   0.000000
 
 -0.2083333E+00  0.4166667E-01  0.4166667E-01  0.3472222E-02
    1       -5.398079   1.000000
    2        2.172245   1.000000
    3        4.947960   1.000000
    4        5.149069   1.000000
    5        8.126970   0.000000
    6        9.173472   0.000000
    7        9.655471   0.000000
    8       12.130926   0.000000
 
 -0.1250000E+00  0.4166667E-01  0.4166667E-01  0.3472222E-02
    1       -5.810351   1.000000
    2        3.726174   1.000000
    3        5.263322   1.000000
    4        5.482362   1.000000
    5        8.401426   0.000000
    6        8.826791   0.000000
    7        9.310151   0.000000
    8       11.055961   0.000000
 
 -0.4166667E-01  0.4166667E-01  0.4166667E-01  0.3472222E-02
    1       -6.051454   1.000000
    2        5.191741   1.000000
    3        5.607291   0.999975
    4        5.713306   0.999520
    5        8.373298   0.000000
    6        8.717340   0.000000
    7        8.815933   0.000000
    8        9.758780   0.000000
 
  0.1250000E+00  0.1250000E+00  0.4166667E-01  0.3472222E-02
    1       -5.930065   1.000000
    2        4.638549   1.000000
    3        5.255229   1.000000
    4        5.362496   1.000000
    5        8.131465   0.000000
    6        9.155667   0.000000
    7        9.314248   0.000000
    8       10.259280   0.000000
 
  0.2083333E+00  0.1250000E+00  0.4166667E-01  0.6944444E-02
    1       -5.689391   1.000000
    2        3.591630   1.000000
    3        4.655384   1.000000
    4        5.216326   1.000000
    5        8.150564   0.000000
    6        9.344966   0.000000
    7        9.831407   0.000000
    8       10.867178   0.000000
 
  0.2916667E+00  0.1250000E+00  0.4166667E-01  0.6944444E-02
    1       -5.277825   1.000000
    2        2.157622   1.000000
    3        4.271201   1.000000
    4        4.918389   1.000000
    5        8.361488   0.000000
    6        9.300282   0.000000
    7       10.221377   0.000000
    8       11.091690   0.000000
 
  0.3750000E+00  0.1250000E+00  0.4166667E-01  0.6944444E-02
    1       -4.719929   1.000000
    2        0.765140   1.000000
    3        4.009791   1.000000
    4        4.608435   1.000000
    5        8.314753   0.000000
    6        9.301491   0.000000
    7       10.225060   0.000000
    8       11.697601   0.000000
 
  0.4583333E+00  0.1250000E+00  0.4166667E-01  0.6944444E-02
    1       -4.092028   1.000000
    2       -0.407719   1.000000
    3        3.826918   1.000000
    4        4.410738   1.000000
    5        8.195614   0.000000
    6        9.211274   0.000000
    7       10.054365   0.000000
    8       12.828591   0.000000
 
 -0.4583333E+00  0.1250000E+00  0.4166667E-01  0.6944444E-02
    1       -3.668272   1.000000
    2       -1.052002   1.000000
    3        3.701578   1.000000
    4        4.384881   1.000000
    5        8.159147   0.000000
    6        9.159457   0.000000
    7        9.915636   0.000000
    8       13.923385   0.000000
 
 -0.3750000E+00  0.1250000E+00  0.4166667E-01  0.6944444E-02
    1       -3.904579   1.000000
    2       -0.703821   1.000000
    3        3.652026   1.000000
    4        4.523118   1.000000
    5        8.222882   0.000000
    6        9.207323   0.000000
    7        9.891550   0.000000
    8       13.652089   0.000000
 
 -0.2916667E+00  0.1250000E+00  0.4166667E-01  0.6944444E-02
    1       -4.513116   1.000000
    2        0.344951   1.000000
    3        3.714055   1.000000
    4        4.783435   1.000000
    5        8.387907   0.000000
    6        9.292246   0.000000
    7        9.968842   0.000000
    8       12.496805   0.000000
 
 -0.2083333E+00  0.1250000E+00  0.4166667E-01  0.6944444E-02
    1       -5.107432   1.000000
    2        1.678159   1.000000
    3        3.913305   1.000000
    4        5.116727   1.000000
    5        8.601858   0.000000
    6        9.233776   0.000000
    7        9.989224   0.000000
    8       11.646295   0.000000
 
 -0.1250000E+00  0.1250000E+00  0.4166667E-01  0.6944444E-02
    1       -5.571359   1.000000
    2        3.086551   1.000000
    3        4.298447   1.000000
    4        5.441647   1.000000
    5        8.650560   0.000000
    6        9.046947   0.000000
    7        9.655482   0.000000
    8       11.287691   0.000000
 
 -0.4166667E-01  0.1250000E+00  0.4166667E-01  0.6944444E-02
    1       -5.870064   1.000000
    2        4.170554   1.000000
    3        5.050960   1.000000
    4        5.598659   0.999980
    5        8.423888   0.000000
    6        8.892668   0.000000
    7        9.234507   0.000000
    8       10.709382   0.000000
 
  0.2083333E+00  0.2083333E+00  0.4166667E-01  0.3472222E-02
    1       -5.507708   1.000000
    2        3.337230   1.000000
    3        4.484243   1.000000
    4        4.500691   1.000000
    5        7.533674   0.000000
    6        9.972416   0.000000
    7       10.561391   0.000000
    8       10.587582   0.000000
 
  0.2916667E+00  0.2083333E+00  0.4166667E-01  0.6944444E-02
    1       -5.152127   1.000000
    2        2.367765   1.000000
    3        3.893495   1.000000
    4        4.315698   1.000000
    5        7.571920   0.000000
    6        9.611282   0.000000
    7       10.772645   0.000000
    8       11.207677   0.000000
 
  0.3750000E+00  0.2083333E+00  0.4166667E-01  0.6944444E-02
    1       -4.639607   1.000000
    2        1.150936   1.000000
    3        3.438082   1.000000
    4        4.046335   1.000000
    5        7.840324   0.000000
    6        9.826618   0.000000
    7       10.573297   0.000000
    8       11.417825   0.000000
 
  0.4583333E+00  0.2083333E+00  0.4166667E-01  0.6944444E-02
    1       -4.019498   1.000000
    2       -0.013850   1.000000
    3        3.042267   1.000000
    4        3.904588   1.000000
    5        7.911738   0.000000
    6       10.291243   0.000000
    7       10.828517   0.000000
    8       11.288166   0.000000
 
 -0.4583333E+00  0.2083333E+00  0.4166667E-01  0.6944444E-02
    1       -3.471288   1.000000
    2       -0.846972   1.000000
    3        2.728175   1.000000
    4        3.941891   1.000000
    5        7.989430   0.000000
    6       10.061216   0.000000
    7       11.092099   0.000000
    8       12.281807   0.000000
 
 -0.3750000E+00  0.2083333E+00  0.4166667E-01  0.6944444E-02
    1       -3.481853   1.000000
    2       -0.828216   1.000000
    3        2.544230   1.000000
    4        4.134446   1.000000
    5        8.187502   0.000000
    6        9.915899   0.000000
    7       10.955984   0.000000
    8       13.657468   0.000000
 
 -0.2916667E+00  0.2083333E+00  0.4166667E-01  0.6944444E-02
    1       -4.036300   1.000000
    2        0.017854   1.000000
    3        2.534054   1.000000
    4        4.451042   1.000000
    5        8.507107   0.000000
    6        9.835688   0.000000
    7       10.868553   0.000000
    8       12.276047   0.000000
 
 -0.2083333E+00  0.2083333E+00  0.4166667E-01  0.6944444E-02
    1       -4.653613   1.000000
    2        1.124548   1.000000
    3        2.782318   1.000000
    4        4.836227   1.000000
    5        8.871431   0.000000
    6        9.604287   0.000000
    7       10.689414   0.000000
    8       11.330964   0.000000
 
 -0.1250000E+00  0.2083333E+00  0.4166667E-01  0.6944444E-02
    1       -5.161896   1.000000
    2        2.057654   1.000000
    3        3.514253   1.000000
    4        5.185353   1.000000
    5        8.956679   0.000000
    6        9.167980   0.000000
    7       10.128591   0.000000
    8       11.259759   0.000000
 
 -0.4166667E-01  0.2083333E+00  0.4166667E-01  0.6944444E-02
    1       -5.513451   1.000000
    2        2.673815   1.000000
    3        4.664963   1.000000
    4        5.312105   1.000000
    5        8.427304   0.000000
    6        9.026547   0.000000
    7        9.711542   0.000000
    8       11.600503   0.000000
 
  0.2916667E+00  0.2916667E+00  0.4166667E-01  0.3472222E-02
    1       -4.852255   1.000000
    2        1.906009   1.000000
    3        3.765651   1.000000
    4        3.818298   1.000000
    5        6.994753   0.000000
    6        8.816003   0.000000
    7       11.942543   0.000000
    8       12.016349   0.000000
 
  0.3750000E+00  0.2916667E+00  0.4166667E-01  0.6944444E-02
    1       -4.389662   1.000000
    2        1.054621   1.000000
    3        3.267256   1.000000
    4        3.586029   1.000000
    5        7.115463   0.000000
    6        8.478345   0.000000
    7       12.090870   0.000000
    8       12.706230   0.000000
 
  0.4583333E+00  0.2916667E+00  0.4166667E-01  0.6944444E-02
    1       -3.796007   1.000000
    2        0.109760   1.000000
    3        2.631037   1.000000
    4        3.455337   1.000000
    5        7.357047   0.000000
    6        9.020645   0.000000
    7       11.863847   0.000000
    8       12.793086   0.000000
 
 -0.4583333E+00  0.2916667E+00  0.4166667E-01  0.6944444E-02
    1       -3.183096   1.000000
    2       -0.720832   1.000000
    3        2.079415   1.000000
    4        3.494873   1.000000
    5        7.473114   0.000000
    6       10.295696   0.000000
    7       11.589922   0.000000
    8       12.621120   0.000000
 
 -0.3750000E+00  0.2916667E+00  0.4166667E-01  0.6944444E-02
    1       -2.976714   1.000000
    2       -0.966093   1.000000
    3        1.736864   1.000000
    4        3.691858   1.000000
    5        7.692566   0.000000
    6       11.245696   0.000000
    7       11.984721   0.000000
    8       12.442286   0.000000
 
 -0.2916667E+00  0.2916667E+00  0.4166667E-01  0.6944444E-02
    1       -3.446046   1.000000
    2       -0.388727   1.000000
    3        1.700650   1.000000
    4        4.019285   1.000000
    5        8.059504   0.000000
    6       11.006059   0.000000
    7       12.072236   0.000000
    8       12.323112   0.000000
 
 -0.2083333E+00  0.2916667E+00  0.4166667E-01  0.6944444E-02
    1       -4.067887   1.000000
    2        0.305859   1.000000
    3        2.159737   1.000000
    4        4.433545   1.000000
    5        8.504825   0.000000
    6       10.244855   0.000000
    7       11.346164   0.000000
    8       11.704716   0.000000
 
 -0.1250000E+00  0.2916667E+00  0.4166667E-01  0.6944444E-02
    1       -4.606145   1.000000
    2        0.783586   1.000000
    3        3.179436   1.000000
    4        4.820150   1.000000
    5        8.723477   0.000000
    6        9.415660   0.000000
    7       10.331033   0.000000
    8       11.829235   0.000000
 
 -0.4166667E-01  0.2916667E+00  0.4166667E-01  0.6944444E-02
    1       -4.999340   1.000000
    2        1.203004   1.000000
    3        4.394546   1.000000
    4        4.986502   1.000000
    5        8.185949   0.000000
    6        9.243517   0.000000
    7        9.833241   0.000000
    8       12.239780   0.000000
 
  0.3750000E+00  0.3750000E+00  0.4166667E-01  0.3472222E-02
    1       -3.976377   1.000000
    2        0.444050   1.000000
    3        3.244322   1.000000
    4        3.334932   1.000000
    5        6.653066   0.000414
    6        7.730158   0.000000
    7       13.490575   0.000000
    8       13.513203   0.000000
 
  0.4583333E+00  0.3750000E+00  0.4166667E-01  0.6944444E-02
    1       -3.419484   1.000000
    2       -0.308441   1.000000
    3        2.841141   1.000000
    4        3.132819   1.000000
    5        6.865251   0.000001
    6        7.635321   0.000000
    7       13.527419   0.000000
    8       14.276829   0.000000
 
 -0.4583333E+00  0.3750000E+00  0.4166667E-01  0.6944444E-02
    1       -2.785939   1.000000
    2       -1.017530   1.000000
    3        2.123552   1.000000
    4        3.148917   1.000000
    5        7.057235   0.000000
    6        8.567267   0.000000
    7       13.257435   0.000000
    8       14.281780   0.000000
 
 -0.3750000E+00  0.3750000E+00  0.4166667E-01  0.6944444E-02
    1       -2.436641   1.000000
    2       -1.349021   1.000000
    3        1.573214   1.000000
    4        3.324956   1.000000
    5        7.264524   0.000000
    6       10.075250   0.000000
    7       12.916745   0.000000
    8       13.755511   0.000000
 
 -0.2916667E+00  0.3750000E+00  0.4166667E-01  0.6944444E-02
    1       -2.863530   1.000000
    2       -0.947028   1.000000
    3        1.475483   1.000000
    4        3.640716   1.000000
    5        7.624556   0.000000
    6       11.650316   0.000000
    7       12.121645   0.000000
    8       12.879835   0.000000
 
 -0.2083333E+00  0.3750000E+00  0.4166667E-01  0.6944444E-02
    1       -3.454093   1.000000
    2       -0.585629   1.000000
    3        2.030589   1.000000
    4        4.058121   1.000000
    5        8.104908   0.000000
    6       10.483449   0.000000
    7       11.568655   0.000000
    8       12.902742   0.000000
 
 -0.1250000E+00  0.3750000E+00  0.4166667E-01  0.6944444E-02
    1       -3.978117   1.000000
    2       -0.356713   1.000000
    3        3.074890   1.000000
    4        4.484191   1.000000
    5        8.453269   0.000000
    6        9.418335   0.000000
    7       10.343736   0.000000
    8       12.995170   0.000000
 
 -0.4166667E-01  0.3750000E+00  0.4166667E-01  0.6944444E-02
    1       -4.379332   1.000000
    2       -0.083395   1.000000
    3        4.234546   1.000000
    4        4.717172   1.000000
    5        7.968520   0.000000
    6        9.241020   0.000000
    7        9.698901   0.000000
    8       13.205968   0.000000
 
  0.4583333E+00  0.4583333E+00  0.4166667E-01  0.3472222E-02
    1       -2.899172   1.000000
    2       -0.976480   1.000000
    3        2.952237   1.000000
    4        3.061037   1.000000
    5        6.559317   0.003679
    6        7.014406   0.000000
    7       15.051833   0.000000
    8       15.062930   0.000000
 
 -0.4583333E+00  0.4583333E+00  0.4166667E-01  0.6944444E-02
    1       -2.271107   1.000000
    2       -1.638009   1.000000
    3        2.652364   1.000000
    4        2.943168   1.000000
    5        6.817807   0.000003
    6        7.205866   0.000000
    7       15.002223   0.000000
    8       15.539257   0.000000
 
 -0.3750000E+00  0.4583333E+00  0.4166667E-01  0.6944444E-02
    1       -2.262163   1.000000
    2       -1.568033   1.000000
    3        2.020698   1.000000
    4        3.088641   1.000000
    5        6.993505   0.000000
    6        8.476581   0.000000
    7       13.964873   0.000000
    8       14.685127   0.000000
 
 -0.2916667E+00  0.4583333E+00  0.4166667E-01  0.6944444E-02
    1       -2.762998   1.000000
    2       -1.067454   1.000000
    3        1.748022   1.000000
    4        3.381212   1.000000
    5        7.333160   0.000000
    6       10.146380   0.000000
    7       12.259672   0.000000
    8       13.333159   0.000000
 
 -0.2083333E+00  0.4583333E+00  0.4166667E-01  0.6944444E-02
    1       -3.189804   1.000000
    2       -0.945603   1.000000
    3        2.182979   1.000000
    4        3.792204   1.000000
    5        7.818949   0.000000
    6       10.651236   0.000000
    7       11.719911   0.000000
    8       12.126613   0.000000
 
 -0.1250000E+00  0.4583333E+00  0.4166667E-01  0.6944444E-02
    1       -3.548824   1.000000
    2       -1.001669   1.000000
    3        3.127848   1.000000
    4        4.243856   1.000000
    5        8.253365   0.000000
    6        9.424489   0.000000
    7       10.388882   0.000000
    8       13.961071   0.000000
 
 -0.4166667E-01  0.4583333E+00  0.4166667E-01  0.6944444E-02
    1       -3.834076   1.000000
    2       -0.967561   1.000000
    3        4.170198   1.000000
    4        4.561428   1.000000
    5        7.859342   0.000000
    6        9.192601   0.000000
    7        9.563289   0.000000
    8       13.814616   0.000000
 
 -0.4583333E+00 -0.4583333E+00  0.4166667E-01  0.3472222E-02
    1       -2.294298   1.000000
    2       -1.651560   1.000000
    3        2.893785   1.000000
    4        3.005766   1.000000
    5        6.605233   0.001329
    6        6.801380   0.000006
    7       15.734408   0.000000
    8       15.775722   0.000000
 
 -0.3750000E+00 -0.4583333E+00  0.4166667E-01  0.6944444E-02
    1       -2.864993   1.000000
    2       -0.983015   1.000000
    3        2.715310   1.000000
    4        3.006149   1.000000
    5        6.822380   0.000003
    6        7.361559   0.000000
    7       14.264959   0.000000
    8       15.049375   0.000000
 
 -0.2916667E+00 -0.4583333E+00  0.4166667E-01  0.6944444E-02
    1       -3.308035   1.000000
    2       -0.446287   1.000000
    3        2.328490   1.000000
    4        3.269956   1.000000
    5        7.179438   0.000000
    6        8.744264   0.000000
    7       12.548024   0.000000
    8       13.535020   0.000000
 
 -0.2083333E+00 -0.4583333E+00  0.4166667E-01  0.6944444E-02
    1       -3.612005   1.000000
    2       -0.370379   1.000000
    3        2.528508   1.000000
    4        3.667017   1.000000
    5        7.670276   0.000000
    6       10.504246   0.000000
    7       10.950669   0.000000
    8       11.923548   0.000000
 
 -0.1250000E+00 -0.4583333E+00  0.4166667E-01  0.6944444E-02
    1       -3.782331   1.000000
    2       -0.665054   1.000000
    3        3.301078   1.000000
    4        4.145481   1.000000
    5        8.160845   0.000000
    6        9.534249   0.000000
    7       10.524678   0.000000
    8       12.520228   0.000000
 
 -0.3750000E+00 -0.3750000E+00  0.4166667E-01  0.3472222E-02
    1       -3.461233   1.000000
    2       -0.275119   1.000000
    3        3.069415   1.000000
    4        3.171196   1.000000
    5        6.573076   0.002739
    6        7.326931   0.000000
    7       14.284578   0.000000
    8       14.285692   0.000000
 
 -0.2916667E+00 -0.3750000E+00  0.4166667E-01  0.6944444E-02
    1       -3.929140   1.000000
    2        0.374517   1.000000
    3        3.026488   1.000000
    4        3.325238   1.000000
    5        6.963491   0.000000
    6        8.008456   0.000000
    7       12.802278   0.000000
    8       13.488817   0.000000
 
 -0.2083333E+00 -0.3750000E+00  0.4166667E-01  0.6944444E-02
    1       -4.241807   1.000000
    2        0.640503   1.000000
    3        3.012480   1.000000
    4        3.710382   1.000000
    5        7.580109   0.000000
    6        9.384482   0.000000
    7       11.197467   0.000000
    8       12.083362   0.000000
 
 -0.1250000E+00 -0.3750000E+00  0.4166667E-01  0.6944444E-02
    1       -4.391593   1.000000
    2        0.361556   1.000000
    3        3.556655   1.000000
    4        4.220052   1.000000
    5        8.163934   0.000000
    6        9.720567   0.000000
    7       10.700981   0.000000
    8       11.228953   0.000000
 
 -0.2916667E+00 -0.2916667E+00  0.4166667E-01  0.3472222E-02
    1       -4.441024   1.000000
    2        1.173409   1.000000
    3        3.476138   1.000000
    4        3.550680   1.000000
    5        6.792992   0.000007
    6        8.224814   0.000000
    7       12.703108   0.000000
    8       12.749373   0.000000
 
 -0.2083333E+00 -0.2916667E+00  0.4166667E-01  0.6944444E-02
    1       -4.798244   1.000000
    2        1.721991   1.000000
    3        3.557723   1.000000
    4        3.918330   1.000000
    5        7.318799   0.000000
    6        9.033986   0.000000
    7       11.402969   0.000000
    8       11.945436   0.000000
 
 -0.1250000E+00 -0.2916667E+00  0.4166667E-01  0.6944444E-02
    1       -4.985868   1.000000
    2        1.652541   1.000000
    3        3.862374   1.000000
    4        4.465000   1.000000
    5        8.113840   0.000000
    6        9.812044   0.000000
    7       10.501173   0.000000
    8       10.810920   0.000000
 
 -0.2083333E+00 -0.2083333E+00  0.4166667E-01  0.3472222E-02
    1       -5.208535   1.000000
    2        2.630514   1.000000
    3        4.107665   1.000000
    4        4.130369   1.000000
    5        7.245808   0.000000
    6        9.433244   0.000000
    7       11.206605   0.000000
    8       11.289607   0.000000
 
 -0.1250000E+00 -0.2083333E+00  0.4166667E-01  0.6944444E-02
    1       -5.449729   1.000000
    2        2.990185   1.000000
    3        4.262253   1.000000
    4        4.761929   1.000000
    5        7.854974   0.000000
    6        9.814626   0.000000
    7       10.495687   0.000000
    8       10.547782   0.000000
 
 -0.1250000E+00 -0.1250000E+00  0.4166667E-01  0.3472222E-02
    1       -5.748559   1.000000
    2        4.012781   1.000000
    3        4.867422   1.000000
    4        4.931464   1.000000
    5        7.839282   0.000000
    6        9.721751   0.000000
    7        9.922899   0.000000
    8       10.498913   0.000000
 
  0.1250000E+00  0.1250000E+00  0.1250000E+00  0.1157407E-02
    1       -5.930627   1.000000
    2        4.261452   1.000000
    3        5.582352   0.999988
    4        5.582352   0.999988
    5        8.384739   0.000000
    6        8.885659   0.000000
    7        8.885659   0.000000
    8       10.568901   0.000000
 
  0.2083333E+00  0.1250000E+00  0.1250000E+00  0.3472222E-02
    1       -5.750297   1.000000
    2        3.635578   1.000000
    3        4.694932   1.000000
    4        5.657873   0.999890
    5        8.742381   0.000000
    6        8.869249   0.000000
    7        9.170220   0.000000
    8       11.201078   0.000000
 
  0.2916667E+00  0.1250000E+00  0.1250000E+00  0.3472222E-02
    1       -5.395155   1.000000
    2        2.569686   1.000000
    3        3.902834   1.000000
    4        5.440838   1.000000
    5        8.877110   0.000000
    6        9.233977   0.000000
    7        9.545111   0.000000
    8       11.609051   0.000000
 
  0.3750000E+00  0.1250000E+00  0.1250000E+00  0.3472222E-02
    1       -4.882740   1.000000
    2        1.217140   1.000000
    3        3.541913   1.000000
    4        5.087464   1.000000
    5        8.617680   0.000000
    6        9.597048   0.000000
    7        9.788188   0.000000
    8       12.219303   0.000000
 
  0.4583333E+00  0.1250000E+00  0.1250000E+00  0.3472222E-02
    1       -4.263323   1.000000
    2       -0.032320   1.000000
    3        3.397708   1.000000
    4        4.738428   1.000000
    5        8.358327   0.000000
    6        9.640028   0.000000
    7        9.760431   0.000000
    8       13.298600   0.000000
 
 -0.4583333E+00  0.1250000E+00  0.1250000E+00  0.3472222E-02
    1       -3.715226   1.000000
    2       -0.909234   1.000000
    3        3.414144   1.000000
    4        4.462232   1.000000
    5        8.172272   0.000000
    6        9.482190   0.000000
    7        9.874317   0.000000
    8       14.143591   0.000000
 
 -0.3750000E+00  0.1250000E+00  0.1250000E+00  0.3472222E-02
    1       -3.712291   1.000000
    2       -0.914972   1.000000
    3        3.569031   1.000000
    4        4.290892   1.000000
    5        8.090561   0.000000
    6        9.434055   0.000000
    7       10.053300   0.000000
    8       13.323092   0.000000
 
 -0.2916667E+00  0.1250000E+00  0.1250000E+00  0.3472222E-02
    1       -4.258284   1.000000
    2       -0.043428   1.000000
    3        3.848228   1.000000
    4        4.239116   1.000000
    5        8.117236   0.000000
    6        9.499476   0.000000
    7       10.293111   0.000000
    8       11.996671   0.000000
 
 -0.2083333E+00  0.1250000E+00  0.1250000E+00  0.3472222E-02
    1       -4.878576   1.000000
    2        1.212639   1.000000
    3        4.214458   1.000000
    4        4.324344   1.000000
    5        8.173467   0.000000
    6        9.590759   0.000000
    7       10.487692   0.000000
    8       11.006962   0.000000
 
 -0.1250000E+00  0.1250000E+00  0.1250000E+00  0.3472222E-02
    1       -5.392263   1.000000
    2        2.626315   1.000000
    3        4.538751   1.000000
    4        4.618060   1.000000
    5        8.047588   0.000000
    6        9.604327   0.000000
    7       10.396150   0.000000
    8       10.716696   0.000000
 
  0.2083333E+00  0.2083333E+00  0.1250000E+00  0.3472222E-02
    1       -5.630623   1.000000
    2        3.176585   1.000000
    3        4.899168   1.000000
    4        5.113028   1.000000
    5        8.307129   0.000000
    6        9.079710   0.000000
    7        9.830571   0.000000
    8       11.153756   0.000000
 
  0.2916667E+00  0.2083333E+00  0.1250000E+00  0.6944444E-02
    1       -5.334162   1.000000
    2        2.535119   1.000000
    3        3.906988   1.000000
    4        5.037335   1.000000
    5        8.391399   0.000000
    6        9.437578   0.000000
    7       10.334217   0.000000
    8       10.805613   0.000000
 
  0.3750000E+00  0.2083333E+00  0.1250000E+00  0.6944444E-02
    1       -4.873210   1.000000
    2        1.554789   1.000000
    3        3.156938   1.000000
    4        4.757079   1.000000
    5        8.801352   0.000000
    6        9.391899   0.000000
    7       10.637993   0.000000
    8       10.917172   0.000000
 
  0.4583333E+00  0.2083333E+00  0.1250000E+00  0.6944444E-02
    1       -4.281119   1.000000
    2        0.378080   1.000000
    3        2.839512   1.000000
    4        4.397418   1.000000
    5        8.907968   0.000000
    6        9.231670   0.000000
    7       11.013073   0.000000
    8       11.427319   0.000000
 
 -0.4583333E+00  0.2083333E+00  0.1250000E+00  0.6944444E-02
    1       -3.670180   1.000000
    2       -0.621369   1.000000
    3        2.746535   1.000000
    4        4.104686   1.000000
    5        8.709588   0.000000
    6        9.170252   0.000000
    7       11.075428   0.000000
    8       12.659958   0.000000
 
 -0.3750000E+00  0.2083333E+00  0.1250000E+00  0.6944444E-02
    1       -3.427804   1.000000
    2       -0.967049   1.000000
    3        2.790270   1.000000
    4        3.964114   1.000000
    5        8.511498   0.000000
    6        9.278165   0.000000
    7       11.105353   0.000000
    8       13.225465   0.000000
 
 -0.2916667E+00  0.2083333E+00  0.1250000E+00  0.6944444E-02
    1       -3.855280   1.000000
    2       -0.341794   1.000000
    3        2.925711   1.000000
    4        4.012537   1.000000
    5        8.411694   0.000000
    6        9.514177   0.000000
    7       11.175978   0.000000
    8       11.723244   0.000000
 
 -0.2083333E+00  0.2083333E+00  0.1250000E+00  0.6944444E-02
    1       -4.484067   1.000000
    2        0.762514   1.000000
    3        3.152975   1.000000
    4        4.243649   1.000000
    5        8.355007   0.000000
    6        9.806253   0.000000
    7       10.527163   0.000000
    8       11.281519   0.000000
 
 -0.1250000E+00  0.2083333E+00  0.1250000E+00  0.6944444E-02
    1       -5.040009   1.000000
    2        1.980959   1.000000
    3        3.543344   1.000000
    4        4.560598   1.000000
    5        8.121578   0.000000
    6        9.809852   0.000000
    7       10.316669   0.000000
    8       11.076957   0.000000
 