       N       E                     dE             d eps       ncg     rms          rms(c)
DAV:   1    -0.421733764184E+01   -0.42173E+01   -0.17560E+03  3184   0.299E+02
DAV:   2    -0.108777576702E+02   -0.66604E+01   -0.63316E+01  4560   0.455E+01
DAV:   3    -0.109253149298E+02   -0.47557E-01   -0.47557E-01  3552   0.463E+00
DAV:   4    -0.109253931344E+02   -0.78205E-04   -0.78204E-04  4640   0.181E-01
DAV:   5    -0.109253931578E+02   -0.23433E-07   -0.24122E-07  3328   0.244E-03    0.296E+00
DAV:   6    -0.108014684426E+02    0.12392E+00   -0.76806E-02  3304   0.141E+00    0.175E+00
DAV:   7    -0.107434963045E+02    0.57972E-01   -0.14375E-01  3800   0.202E+00    0.146E-01
DAV:   8    -0.107447146371E+02   -0.12183E-02   -0.33297E-03  3208   0.397E-01    0.249E-02
DAV:   9    -0.107448078644E+02   -0.93227E-04   -0.87249E-05  2288   0.726E-02
   1 F= -.10744808E+02 E0= -.10744783E+02  d E =-.107448E+02
