 vasp.5.4.4.18Apr17-6-g9f103f2a35 (build Dec 09 2018 21:25:21) complex          
  
 executed on IFC18.0.1.163_CrayMP date 2019.03.19  13:24:26
 running on    8 total cores
 distrk:  each k-point on    8 cores,    1 groups
 distr:  one band on NCORES_PER_BAND=   1 cores,    8 groups


--------------------------------------------------------------------------------------------------------


 INCAR:
 POTCAR:   PAW_PBE Si 05Jan2001                   

 ----------------------------------------------------------------------------- 
|                                                                             |
|           W    W    AA    RRRRR   N    N  II  N    N   GGGG   !!!           |
|           W    W   A  A   R    R  NN   N  II  NN   N  G    G  !!!           |
|           W    W  A    A  R    R  N N  N  II  N N  N  G       !!!           |
|           W WW W  AAAAAA  RRRRR   N  N N  II  N  N N  G  GGG   !            |
|           WW  WW  A    A  R   R   N   NN  II  N   NN  G    G                |
|           W    W  A    A  R    R  N    N  II  N    N   GGGG   !!!           |
|                                                                             |
|      For optimal performance we recommend to set                            |
|        NCORE= 4 - approx SQRT( number of cores)                             |
|      NCORE specifies how many cores store one orbital (NPAR=cpu/NCORE).     |
|      This setting can  greatly improve the performance of VASP for DFT.     |
|      The default,   NCORE=1            might be grossly inefficient         |
|      on modern multi-core architectures or massively parallel machines.     |
|      Do your own testing !!!!                                               |
|      Unfortunately you need to use the default for GW and RPA calculations. |
|      (for HF NCORE is supported but not extensively tested yet)             |
|                                                                             |
 ----------------------------------------------------------------------------- 

 POTCAR:   PAW_PBE Si 05Jan2001                   
   VRHFIN =Si: s2p2                                                             
   LEXCH  = PE                                                                  
   EATOM  =   103.0669 eV,    7.5752 Ry                                         
                                                                                
   TITEL  = PAW_PBE Si 05Jan2001                                                
   LULTRA =        F    use ultrasoft PP ?                                      
   IUNSCR =        1    unscreen: 0-lin 1-nonlin 2-no                           
   RPACOR =    1.500    partial core radius                                     
   POMASS =   28.085; ZVAL   =    4.000    mass and valenz                      
   RCORE  =    1.900    outmost cutoff radius                                   
   RWIGS  =    2.480; RWIGS  =    1.312    wigner-seitz radius (au A)           
   ENMAX  =  245.345; ENMIN  =  184.009 eV                                      
   ICORE  =        2    local potential                                         
   LCOR   =        T    correct aug charges                                     
   LPAW   =        T    paw PP                                                  
   EAUG   =  322.069                                                            
   DEXC   =    -.007                                                            
   RMAX   =    2.944    core radius for proj-oper                               
   RAUG   =    1.300    factor for augmentation sphere                          
   RDEP   =    1.993    radius for radial grids                                 
   QCUT   =   -4.246; QGAM   =    8.493    optimization parameters              
                                                                                
   Description                                                                  
     l     E      TYP  RCUT    TYP  RCUT                                        
     0   .000     23  1.900                                                     
     0   .000     23  1.900                                                     
     1   .000     23  1.900                                                     
     1   .000     23  1.900                                                     
     2   .000      7  1.900                                                     
  local pseudopotential read in
  partial core-charges read in
  atomic valenz-charges read in
  non local Contribution for L=           0  read in
    real space projection operators read in
  non local Contribution for L=           0  read in
    real space projection operators read in
  non local Contribution for L=           1  read in
    real space projection operators read in
  non local Contribution for L=           1  read in
    real space projection operators read in
    PAW grid and wavefunctions read in
 
   number of l-projection  operators is LMAX  =           4
   number of lm-projection operators is LMMAX =           8
 
 PAW_PBE Si 05Jan2001                   :
 energy of atom  1       EATOM= -103.0669
 kinetic energy error for atom=    0.0210 (will be added to EATOM!!)
 
 
 POSCAR: Si2                                     
  positions in direct lattice
  No initial velocities read in
 exchange correlation table for  LEXCH =        8
   RHO(1)=    0.500       N(1)  =     2000
   RHO(2)=  100.500       N(2)  =     4000
 


--------------------------------------------------------------------------------------------------------


 ion  position               nearest neighbor table
   1  0.500  0.500  0.500-   2 2.35   2 2.35   2 2.35   2 2.35
   2  0.750  0.750  0.750-   1 2.35   1 2.35   1 2.35   1 2.35
 
  LATTYP: Found a face centered cubic cell.
 ALAT       =     5.4300000000
  
  Lattice vectors:
  
 A1 = (   0.0000000000,   2.7150000000,   2.7150000000)
 A2 = (   2.7150000000,   0.0000000000,   2.7150000000)
 A3 = (   2.7150000000,   2.7150000000,   0.0000000000)


Analysis of symmetry for initial positions (statically):
=====================================================================
 Subroutine PRICEL returns:
 Original cell was already a primitive cell.
 

 Routine SETGRP: Setting up the symmetry group for a 
 face centered cubic supercell.


 Subroutine GETGRP returns: Found 48 space group operations
 (whereof 24 operations were pure point group operations)
 out of a pool of 48 trial point group operations.


The static configuration has the point symmetry T_d .
 The point group associated with its full space group is O_h .


Analysis of symmetry for dynamics (positions and initial velocities):
=====================================================================
 Subroutine PRICEL returns:
 Original cell was already a primitive cell.
 

 Routine SETGRP: Setting up the symmetry group for a 
 face centered cubic supercell.


 Subroutine GETGRP returns: Found 48 space group operations
 (whereof 24 operations were pure point group operations)
 out of a pool of 48 trial point group operations.


The dynamic configuration has the point symmetry T_d .
 The point group associated with its full space group is O_h .


 Subroutine INISYM returns: Found 48 space group operations
 (whereof 24 operations are pure point group operations),
 and found     1 'primitive' translations

 
 
 KPOINTS: Automatic kpoint scheme                 

Automatic generation of k-mesh.
Space group operators:
 irot       det(A)        alpha          n_x          n_y          n_z        tau_x        tau_y        tau_z
    1     1.000000     0.000001     1.000000     0.000000     0.000000     0.000000     0.000000     0.000000
    2     1.000000   120.000000    -0.577350    -0.577350    -0.577350     0.000000     0.000000     0.000000
    3     1.000000   120.000000     0.577350     0.577350     0.577350     0.000000     0.000000     0.000000
    4    -1.000000    90.000000    -0.000000    -0.000000    -1.000000     0.000000     0.000000     0.000000
    5    -1.000000   180.000000    -0.000000     0.707107     0.707107     0.000000     0.000000     0.000000
    6    -1.000000    90.000000    -0.000000     1.000000    -0.000000     0.000000     0.000000     0.000000
    7     1.000000   180.000000     0.000000     0.000000    -1.000000     0.000000     0.000000     0.000000
    8     1.000000   120.000000    -0.577350     0.577350     0.577350     0.000000     0.000000     0.000000
    9     1.000000   120.000000    -0.577350     0.577350    -0.577350     0.000000     0.000000     0.000000
   10    -1.000000    90.000000     0.000000     0.000000     1.000000     0.000000     0.000000     0.000000
   11    -1.000000    90.000000    -1.000000     0.000000    -0.000000     0.000000     0.000000     0.000000
   12    -1.000000   180.000000     0.707107     0.000000     0.707107     0.000000     0.000000     0.000000
   13     1.000000   120.000000     0.577350    -0.577350     0.577350     0.000000     0.000000     0.000000
   14     1.000000   120.000000    -0.577350    -0.577350     0.577350     0.000000     0.000000     0.000000
   15     1.000000   180.000000     1.000000     0.000000     0.000000     0.000000     0.000000     0.000000
   16    -1.000000    90.000000     0.000000    -1.000000     0.000000     0.000000     0.000000     0.000000
   17    -1.000000   180.000000     0.707107     0.707107    -0.000000     0.000000     0.000000     0.000000
   18    -1.000000    90.000000     1.000000     0.000000     0.000000     0.000000     0.000000     0.000000
   19     1.000000   120.000000     0.577350    -0.577350    -0.577350     0.000000     0.000000     0.000000
   20     1.000000   180.000000     0.000000    -1.000000     0.000000     0.000000     0.000000     0.000000
   21     1.000000   120.000000     0.577350     0.577350    -0.577350     0.000000     0.000000     0.000000
   22    -1.000000   180.000000    -0.000000    -0.707107     0.707107     0.000000     0.000000     0.000000
   23    -1.000000   180.000000     0.707107    -0.707107    -0.000000     0.000000     0.000000     0.000000
   24    -1.000000   180.000000    -0.707107     0.000000     0.707107     0.000000     0.000000     0.000000
   25    -1.000000     0.000001     1.000000     0.000000     0.000000     0.250000     0.250000     0.250000
   26    -1.000000   120.000000    -0.577350    -0.577350    -0.577350     0.250000     0.250000     0.250000
   27    -1.000000   120.000000     0.577350     0.577350     0.577350     0.250000     0.250000     0.250000
   28     1.000000    90.000000    -0.000000    -0.000000    -1.000000     0.250000     0.250000     0.250000
   29     1.000000   180.000000    -0.000000     0.707107     0.707107     0.250000     0.250000     0.250000
   30     1.000000    90.000000    -0.000000     1.000000    -0.000000     0.250000     0.250000     0.250000
   31    -1.000000   180.000000     0.000000     0.000000    -1.000000     0.250000     0.250000     0.250000
   32    -1.000000   120.000000    -0.577350     0.577350     0.577350     0.250000     0.250000     0.250000
   33    -1.000000   120.000000    -0.577350     0.577350    -0.577350     0.250000     0.250000     0.250000
   34     1.000000    90.000000     0.000000     0.000000     1.000000     0.250000     0.250000     0.250000
   35     1.000000    90.000000    -1.000000     0.000000    -0.000000     0.250000     0.250000     0.250000
   36     1.000000   180.000000     0.707107     0.000000     0.707107     0.250000     0.250000     0.250000
   37    -1.000000   120.000000     0.577350    -0.577350     0.577350     0.250000     0.250000     0.250000
   38    -1.000000   120.000000    -0.577350    -0.577350     0.577350     0.250000     0.250000     0.250000
   39    -1.000000   180.000000     1.000000     0.000000     0.000000     0.250000     0.250000     0.250000
   40     1.000000    90.000000     0.000000    -1.000000     0.000000     0.250000     0.250000     0.250000
   41     1.000000   180.000000     0.707107     0.707107    -0.000000     0.250000     0.250000     0.250000
   42     1.000000    90.000000     1.000000     0.000000     0.000000     0.250000     0.250000     0.250000
   43    -1.000000   120.000000     0.577350    -0.577350    -0.577350     0.250000     0.250000     0.250000
   44    -1.000000   180.000000     0.000000    -1.000000     0.000000     0.250000     0.250000     0.250000
   45    -1.000000   120.000000     0.577350     0.577350    -0.577350     0.250000     0.250000     0.250000
   46     1.000000   180.000000    -0.000000    -0.707107     0.707107     0.250000     0.250000     0.250000
   47     1.000000   180.000000     0.707107    -0.707107    -0.000000     0.250000     0.250000     0.250000
   48     1.000000   180.000000    -0.707107     0.000000     0.707107     0.250000     0.250000     0.250000
 
 Subroutine IBZKPT returns following result:
 ===========================================
 
 Found    182 irreducible k-points:
 
 Following reciprocal coordinates:
            Coordinates               Weight
  0.041667  0.041667  0.041667     96.000000
  0.125000  0.041667  0.041667    288.000000
  0.208333  0.041667  0.041667    288.000000
  0.291667  0.041667  0.041667    288.000000
  0.375000  0.041667  0.041667    288.000000
  0.458333  0.041667  0.041667    288.000000
 -0.458333  0.041667  0.041667    288.000000
 -0.375000  0.041667  0.041667    288.000000
 -0.291667  0.041667  0.041667    288.000000
 -0.208333  0.041667  0.041667    288.000000
 -0.125000  0.041667  0.041667    288.000000
 -0.041667  0.041667  0.041667    288.000000
  0.125000  0.125000  0.041667    288.000000
  0.208333  0.125000  0.041667    576.000000
  0.291667  0.125000  0.041667    576.000000
  0.375000  0.125000  0.041667    576.000000
  0.458333  0.125000  0.041667    576.000000
 -0.458333  0.125000  0.041667    576.000000
 -0.375000  0.125000  0.041667    576.000000
 -0.291667  0.125000  0.041667    576.000000
 -0.208333  0.125000  0.041667    576.000000
 -0.125000  0.125000  0.041667    576.000000
 -0.041667  0.125000  0.041667    576.000000
  0.208333  0.208333  0.041667    288.000000
  0.291667  0.208333  0.041667    576.000000
  0.375000  0.208333  0.041667    576.000000
  0.458333  0.208333  0.041667    576.000000
 -0.458333  0.208333  0.041667    576.000000
 -0.375000  0.208333  0.041667    576.000000
 -0.291667  0.208333  0.041667    576.000000
 -0.208333  0.208333  0.041667    576.000000
 -0.125000  0.208333  0.041667    576.000000
 -0.041667  0.208333  0.041667    576.000000
  0.291667  0.291667  0.041667    288.000000
  0.375000  0.291667  0.041667    576.000000
  0.458333  0.291667  0.041667    576.000000
 -0.458333  0.291667  0.041667    576.000000
 -0.375000  0.291667  0.041667    576.000000
 -0.291667  0.291667  0.041667    576.000000
 -0.208333  0.291667  0.041667    576.000000
 -0.125000  0.291667  0.041667    576.000000
 -0.041667  0.291667  0.041667    576.000000
  0.375000  0.375000  0.041667    288.000000
  0.458333  0.375000  0.041667    576.000000
 -0.458333  0.375000  0.041667    576.000000
 -0.375000  0.375000  0.041667    576.000000
 -0.291667  0.375000  0.041667    576.000000
 -0.208333  0.375000  0.041667    576.000000
 -0.125000  0.375000  0.041667    576.000000
 -0.041667  0.375000  0.041667    576.000000
  0.458333  0.458333  0.041667    288.000000
 -0.458333  0.458333  0.041667    576.000000
 -0.375000  0.458333  0.041667    576.000000
 -0.291667  0.458333  0.041667    576.000000
 -0.208333  0.458333  0.041667    576.000000
 -0.125000  0.458333  0.041667    576.000000
 -0.041667  0.458333  0.041667    576.000000
 -0.458333 -0.458333  0.041667    288.000000
 -0.375000 -0.458333  0.041667    576.000000
 -0.291667 -0.458333  0.041667    576.000000
 -0.208333 -0.458333  0.041667    576.000000
 -0.125000 -0.458333  0.041667    576.000000
 -0.375000 -0.375000  0.041667    288.000000
 -0.291667 -0.375000  0.041667    576.000000
 -0.208333 -0.375000  0.041667    576.000000
 -0.125000 -0.375000  0.041667    576.000000
 -0.291667 -0.291667  0.041667    288.000000
 -0.208333 -0.291667  0.041667    576.000000
 -0.125000 -0.291667  0.041667    576.000000
 -0.208333 -0.208333  0.041667    288.000000
 -0.125000 -0.208333  0.041667    576.000000
 -0.125000 -0.125000  0.041667    288.000000
  0.125000  0.125000  0.125000     96.000000
  0.208333  0.125000  0.125000    288.000000
  0.291667  0.125000  0.125000    288.000000
  0.375000  0.125000  0.125000    288.000000
  0.458333  0.125000  0.125000    288.000000
 -0.458333  0.125000  0.125000    288.000000
 -0.375000  0.125000  0.125000    288.000000
 -0.291667  0.125000  0.125000    288.000000
 -0.208333  0.125000  0.125000    288.000000
 -0.125000  0.125000  0.125000    288.000000
  0.208333  0.208333  0.125000    288.000000
  0.291667  0.208333  0.125000    576.000000
  0.375000  0.208333  0.125000    576.000000
  0.458333  0.208333  0.125000    576.000000
 -0.458333  0.208333  0.125000    576.000000
 -0.375000  0.208333  0.125000    576.000000
 -0.291667  0.208333  0.125000    576.000000
 -0.208333  0.208333  0.125000    576.000000
 -0.125000  0.208333  0.125000    576.000000
  0.291667  0.291667  0.125000    288.000000
  0.375000  0.291667  0.125000    576.000000
  0.458333  0.291667  0.125000    576.000000
 -0.458333  0.291667  0.125000    576.000000
 -0.375000  0.291667  0.125000    576.000000
 -0.291667  0.291667  0.125000    576.000000
 -0.208333  0.291667  0.125000    576.000000
 -0.125000  0.291667  0.125000    576.000000
  0.375000  0.375000  0.125000    288.000000
  0.458333  0.375000  0.125000    576.000000
 -0.458333  0.375000  0.125000    576.000000
 -0.375000  0.375000  0.125000    576.000000
 -0.291667  0.375000  0.125000    576.000000
 -0.208333  0.375000  0.125000    576.000000
 -0.125000  0.375000  0.125000    576.000000
  0.458333  0.458333  0.125000    288.000000
 -0.458333  0.458333  0.125000    576.000000
 -0.375000  0.458333  0.125000    576.000000
 -0.291667  0.458333  0.125000    576.000000
 -0.208333  0.458333  0.125000    576.000000
 -0.125000  0.458333  0.125000    576.000000
 -0.458333 -0.458333  0.125000    288.000000
 -0.375000 -0.458333  0.125000    576.000000
 -0.291667 -0.458333  0.125000    576.000000
 -0.208333 -0.458333  0.125000    576.000000
 -0.375000 -0.375000  0.125000    288.000000
 -0.291667 -0.375000  0.125000    576.000000
 -0.208333 -0.375000  0.125000    576.000000
 -0.291667 -0.291667  0.125000    288.000000
 -0.208333 -0.291667  0.125000    576.000000
 -0.208333 -0.208333  0.125000    288.000000
  0.208333  0.208333  0.208333     96.000000
  0.291667  0.208333  0.208333    288.000000
  0.375000  0.208333  0.208333    288.000000
  0.458333  0.208333  0.208333    288.000000
 -0.458333  0.208333  0.208333    288.000000
 -0.375000  0.208333  0.208333    288.000000
 -0.291667  0.208333  0.208333    288.000000
 -0.208333  0.208333  0.208333    288.000000
  0.291667  0.291667  0.208333    288.000000
  0.375000  0.291667  0.208333    576.000000
  0.458333  0.291667  0.208333    576.000000
 -0.458333  0.291667  0.208333    576.000000
 -0.375000  0.291667  0.208333    576.000000
 -0.291667  0.291667  0.208333    576.000000
 -0.208333  0.291667  0.208333    576.000000
  0.375000  0.375000  0.208333    288.000000
  0.458333  0.375000  0.208333    576.000000
 -0.458333  0.375000  0.208333    576.000000
 -0.375000  0.375000  0.208333    576.000000
 -0.291667  0.375000  0.208333    576.000000
 -0.208333  0.375000  0.208333    576.000000
  0.458333  0.458333  0.208333    288.000000
 -0.458333  0.458333  0.208333    576.000000
 -0.375000  0.458333  0.208333    576.000000
 -0.291667  0.458333  0.208333    576.000000
 -0.208333  0.458333  0.208333    576.000000
 -0.458333 -0.458333  0.208333    288.000000
 -0.375000 -0.458333  0.208333    576.000000
 -0.291667 -0.458333  0.208333    576.000000
 -0.375000 -0.375000  0.208333    288.000000
 -0.291667 -0.375000  0.208333    576.000000
 -0.291667 -0.291667  0.208333    288.000000
  0.291667  0.291667  0.291667     96.000000
  0.375000  0.291667  0.291667    288.000000
  0.458333  0.291667  0.291667    288.000000
 -0.458333  0.291667  0.291667    288.000000
 -0.375000  0.291667  0.291667    288.000000
 -0.291667  0.291667  0.291667    288.000000
  0.375000  0.375000  0.291667    288.000000
  0.458333  0.375000  0.291667    576.000000
 -0.458333  0.375000  0.291667    576.000000
 -0.375000  0.375000  0.291667    576.000000
 -0.291667  0.375000  0.291667    576.000000
  0.458333  0.458333  0.291667    288.000000
 -0.458333  0.458333  0.291667    576.000000
 -0.375000  0.458333  0.291667    576.000000
 -0.291667  0.458333  0.291667    576.000000
 -0.458333 -0.458333  0.291667    288.000000
 -0.375000 -0.458333  0.291667    576.000000
 -0.375000 -0.375000  0.291667    288.000000
  0.375000  0.375000  0.375000     96.000000
  0.458333  0.375000  0.375000    288.000000
 -0.458333  0.375000  0.375000    288.000000
 -0.375000  0.375000  0.375000    288.000000
  0.458333  0.458333  0.375000    288.000000
 -0.458333  0.458333  0.375000    576.000000
 -0.375000  0.458333  0.375000    576.000000
 -0.458333 -0.458333  0.375000    288.000000
  0.458333  0.458333  0.458333     96.000000
 -0.458333  0.458333  0.458333    288.000000
 
 Following cartesian coordinates:
            Coordinates               Weight
  0.007673  0.007673  0.007673     96.000000
 -0.007673  0.023020  0.023020    288.000000
 -0.023020  0.038367  0.038367    288.000000
 -0.038367  0.053714  0.053714    288.000000
 -0.053714  0.069061  0.069061    288.000000
 -0.069061  0.084408  0.084408    288.000000
  0.099754 -0.084408 -0.084408    288.000000
  0.084408 -0.069061 -0.069061    288.000000
  0.069061 -0.053714 -0.053714    288.000000
  0.053714 -0.038367 -0.038367    288.000000
  0.038367 -0.023020 -0.023020    288.000000
  0.023020 -0.007673 -0.007673    288.000000
  0.007673  0.007673  0.038367    288.000000
 -0.007673  0.023020  0.053714    576.000000
 -0.023020  0.038367  0.069061    576.000000
 -0.038367  0.053714  0.084408    576.000000
 -0.053714  0.069061  0.099754    576.000000
  0.115101 -0.099754 -0.069061    576.000000
  0.099754 -0.084408 -0.053714    576.000000
  0.084408 -0.069061 -0.038367    576.000000
  0.069061 -0.053714 -0.023020    576.000000
  0.053714 -0.038367 -0.007673    576.000000
  0.038367 -0.023020  0.007673    576.000000
  0.007673  0.007673  0.069061    288.000000
 -0.007673  0.023020  0.084408    576.000000
 -0.023020  0.038367  0.099754    576.000000
 -0.038367  0.053714  0.115101    576.000000
  0.130448 -0.115101 -0.053714    576.000000
  0.115101 -0.099754 -0.038367    576.000000
  0.099754 -0.084408 -0.023020    576.000000
  0.084408 -0.069061 -0.007673    576.000000
  0.069061 -0.053714  0.007673    576.000000
  0.053714 -0.038367  0.023020    576.000000
  0.007673  0.007673  0.099754    288.000000
 -0.007673  0.023020  0.115101    576.000000
 -0.023020  0.038367  0.130448    576.000000
  0.145795 -0.130448 -0.038367    576.000000
  0.130448 -0.115101 -0.023020    576.000000
  0.115101 -0.099754 -0.007673    576.000000
  0.099754 -0.084408  0.007673    576.000000
  0.084408 -0.069061  0.023020    576.000000
  0.069061 -0.053714  0.038367    576.000000
  0.007673  0.007673  0.130448    288.000000
 -0.007673  0.023020  0.145795    576.000000
  0.161142 -0.145795 -0.023020    576.000000
  0.145795 -0.130448 -0.007673    576.000000
  0.130448 -0.115101  0.007673    576.000000
  0.115101 -0.099754  0.023020    576.000000
  0.099754 -0.084408  0.038367    576.000000
  0.084408 -0.069061  0.053714    576.000000
  0.007673  0.007673  0.161142    288.000000
  0.176489 -0.161142 -0.007673    576.000000
  0.161142 -0.145795  0.007673    576.000000
  0.145795 -0.130448  0.023020    576.000000
  0.130448 -0.115101  0.038367    576.000000
  0.115101 -0.099754  0.053714    576.000000
  0.099754 -0.084408  0.069061    576.000000
  0.007673  0.007673 -0.176489    288.000000
 -0.007673  0.023020 -0.161142    576.000000
 -0.023020  0.038367 -0.145795    576.000000
 -0.038367  0.053714 -0.130448    576.000000
 -0.053714  0.069061 -0.115101    576.000000
  0.007673  0.007673 -0.145795    288.000000
 -0.007673  0.023020 -0.130448    576.000000
 -0.023020  0.038367 -0.115101    576.000000
 -0.038367  0.053714 -0.099754    576.000000
  0.007673  0.007673 -0.115101    288.000000
 -0.007673  0.023020 -0.099754    576.000000
 -0.023020  0.038367 -0.084408    576.000000
  0.007673  0.007673 -0.084408    288.000000
 -0.007673  0.023020 -0.069061    576.000000
  0.007673  0.007673 -0.053714    288.000000
  0.023020  0.023020  0.023020     96.000000
  0.007673  0.038367  0.038367    288.000000
 -0.007673  0.053714  0.053714    288.000000
 -0.023020  0.069061  0.069061    288.000000
 -0.038367  0.084408  0.084408    288.000000
  0.130448 -0.084408 -0.084408    288.000000
  0.115101 -0.069061 -0.069061    288.000000
  0.099754 -0.053714 -0.053714    288.000000
  0.084408 -0.038367 -0.038367    288.000000
  0.069061 -0.023020 -0.023020    288.000000
  0.023020  0.023020  0.053714    288.000000
  0.007673  0.038367  0.069061    576.000000
 -0.007673  0.053714  0.084408    576.000000
 -0.023020  0.069061  0.099754    576.000000
  0.145795 -0.099754 -0.069061    576.000000
  0.130448 -0.084408 -0.053714    576.000000
  0.115101 -0.069061 -0.038367    576.000000
  0.099754 -0.053714 -0.023020    576.000000
  0.084408 -0.038367 -0.007673    576.000000
  0.023020  0.023020  0.084408    288.000000
  0.007673  0.038367  0.099754    576.000000
 -0.007673  0.053714  0.115101    576.000000
  0.161142 -0.115101 -0.053714    576.000000
  0.145795 -0.099754 -0.038367    576.000000
  0.130448 -0.084408 -0.023020    576.000000
  0.115101 -0.069061 -0.007673    576.000000
  0.099754 -0.053714  0.007673    576.000000
  0.023020  0.023020  0.115101    288.000000
  0.007673  0.038367  0.130448    576.000000
  0.176489 -0.130448 -0.038367    576.000000
  0.161142 -0.115101 -0.023020    576.000000
  0.145795 -0.099754 -0.007673    576.000000
  0.130448 -0.084408  0.007673    576.000000
  0.115101 -0.069061  0.023020    576.000000
  0.023020  0.023020  0.145795    288.000000
  0.191835 -0.145795 -0.023020    576.000000
  0.176489 -0.130448 -0.007673    576.000000
  0.161142 -0.115101  0.007673    576.000000
  0.145795 -0.099754  0.023020    576.000000
  0.130448 -0.084408  0.038367    576.000000
  0.023020  0.023020 -0.191835    288.000000
  0.007673  0.038367 -0.176489    576.000000
 -0.007673  0.053714 -0.161142    576.000000
 -0.023020  0.069061 -0.145795    576.000000
  0.023020  0.023020 -0.161142    288.000000
  0.007673  0.038367 -0.145795    576.000000
 -0.007673  0.053714 -0.130448    576.000000
  0.023020  0.023020 -0.130448    288.000000
  0.007673  0.038367 -0.115101    576.000000
  0.023020  0.023020 -0.099754    288.000000
  0.038367  0.038367  0.038367     96.000000
  0.023020  0.053714  0.053714    288.000000
  0.007673  0.069061  0.069061    288.000000
 -0.007673  0.084408  0.084408    288.000000
  0.161142 -0.084408 -0.084408    288.000000
  0.145795 -0.069061 -0.069061    288.000000
  0.130448 -0.053714 -0.053714    288.000000
  0.115101 -0.038367 -0.038367    288.000000
  0.038367  0.038367  0.069061    288.000000
  0.023020  0.053714  0.084408    576.000000
  0.007673  0.069061  0.099754    576.000000
  0.176489 -0.099754 -0.069061    576.000000
  0.161142 -0.084408 -0.053714    576.000000
  0.145795 -0.069061 -0.038367    576.000000
  0.130448 -0.053714 -0.023020    576.000000
  0.038367  0.038367  0.099754    288.000000
  0.023020  0.053714  0.115101    576.000000
  0.191835 -0.115101 -0.053714    576.000000
  0.176489 -0.099754 -0.038367    576.000000
  0.161142 -0.084408 -0.023020    576.000000
  0.145795 -0.069061 -0.007673    576.000000
  0.038367  0.038367  0.130448    288.000000
  0.207182 -0.130448 -0.038367    576.000000
  0.191835 -0.115101 -0.023020    576.000000
  0.176489 -0.099754 -0.007673    576.000000
  0.161142 -0.084408  0.007673    576.000000
  0.038367  0.038367 -0.207182    288.000000
  0.023020  0.053714 -0.191835    576.000000
  0.007673  0.069061 -0.176489    576.000000
  0.038367  0.038367 -0.176489    288.000000
  0.023020  0.053714 -0.161142    576.000000
  0.038367  0.038367 -0.145795    288.000000
  0.053714  0.053714  0.053714     96.000000
  0.038367  0.069061  0.069061    288.000000
  0.023020  0.084408  0.084408    288.000000
  0.191835 -0.084408 -0.084408    288.000000
  0.176489 -0.069061 -0.069061    288.000000
  0.161142 -0.053714 -0.053714    288.000000
  0.053714  0.053714  0.084408    288.000000
  0.038367  0.069061  0.099754    576.000000
  0.207182 -0.099754 -0.069061    576.000000
  0.191835 -0.084408 -0.053714    576.000000
  0.176489 -0.069061 -0.038367    576.000000
  0.053714  0.053714  0.115101    288.000000
  0.222529 -0.115101 -0.053714    576.000000
  0.207182 -0.099754 -0.038367    576.000000
  0.191835 -0.084408 -0.023020    576.000000
  0.053714  0.053714 -0.222529    288.000000
  0.038367  0.069061 -0.207182    576.000000
  0.053714  0.053714 -0.191835    288.000000
  0.069061  0.069061  0.069061     96.000000
  0.053714  0.084408  0.084408    288.000000
  0.222529 -0.084408 -0.084408    288.000000
  0.207182 -0.069061 -0.069061    288.000000
  0.069061  0.069061  0.099754    288.000000
  0.237876 -0.099754 -0.069061    576.000000
  0.222529 -0.084408 -0.053714    576.000000
  0.069061  0.069061 -0.237876    288.000000
  0.084408  0.084408  0.084408     96.000000
  0.253223 -0.084408 -0.084408    288.000000
 


--------------------------------------------------------------------------------------------------------




 Dimension of arrays:
   k-points           NKPTS =    182   k-points in BZ     NKDIM =    182   number of bands    NBANDS=      8
   number of dos      NEDOS =    301   number of ions     NIONS =      2
   non local maximal  LDIM  =      4   non local SUM 2l+1 LMDIM =      8
   total plane-waves  NPLWV =   1728
   max r-space proj   IRMAX =      1   max aug-charges    IRDMAX=   1643
   dimension x,y,z NGX =    12 NGY =   12 NGZ =   12
   dimension x,y,z NGXF=    24 NGYF=   24 NGZF=   24
   support grid    NGXF=    24 NGYF=   24 NGZF=   24
   ions per type =               2
   NGX,Y,Z   is equivalent  to a cutoff of   5.20,  5.20,  5.20 a.u.
   NGXF,Y,Z  is equivalent  to a cutoff of  10.39, 10.39, 10.39 a.u.

 SYSTEM =  unknown system                          
 POSCAR =  Si2                                     

 Startparameter for this run:
   NWRITE =      2    write-flag & timer
   PREC   = normal    normal or accurate (medium, high low for compatibility)
   ISTART =      1    job   : 0-new  1-cont  2-samecut
   ICHARG =      0    charge: 1-file 2-atom 10-const
   ISPIN  =      1    spin polarized calculation?
   LNONCOLLINEAR =      F non collinear calculations
   LSORBIT =      F    spin-orbit coupling
   INIWAV =      1    electr: 0-lowe 1-rand  2-diag
   LASPH  =      F    aspherical Exc in radial PAW
   METAGGA=      F    non-selfconsistent MetaGGA calc.

 Electronic Relaxation 1
   ENCUT  =  150.0 eV  11.02 Ry    3.32 a.u.   3.83  3.83  3.83*2*pi/ulx,y,z
   ENINI  =  150.0     initial cutoff
   ENAUG  =  322.1 eV  augmentation charge cutoff
   NELM   =     60;   NELMIN=  2; NELMDL=  0     # of ELM steps 
   EDIFF  = 0.4E-03   stopping-criterion for ELM
   LREAL  =      F    real-space projection
   NLSPLINE    = F    spline interpolate recip. space projectors
   LCOMPAT=      F    compatible to vasp.4.4
   GGA_COMPAT  = T    GGA compatible to vasp.4.4-vasp.4.6
   LMAXPAW     = -100 max onsite density
   LMAXMIX     =    2 max onsite mixed and CHGCAR
   VOSKOWN=      0    Vosko Wilk Nusair interpolation
   ROPT   =    0.00000
 Ionic relaxation
   EDIFFG = -.1E-01   stopping-criterion for IOM
   NSW    =     15    number of steps for IOM
   NBLOCK =      1;   KBLOCK =     15    inner block; outer block 
   IBRION =      2    ionic relax: 0-MD 1-quasi-New 2-CG
   NFREE  =      1    steps in history (QN), initial steepest desc. (CG)
   ISIF   =      2    stress and relaxation
   IWAVPR =     11    prediction:  0-non 1-charg 2-wave 3-comb
   ISYM   =      2    0-nonsym 1-usesym 2-fastsym
   LCORR  =      T    Harris-Foulkes like correction to forces

   POTIM  = 0.5000    time-step for ionic-motion
   TEIN   =    0.0    initial temperature
   TEBEG  =    0.0;   TEEND  =   0.0 temperature during run
   SMASS  =  -3.00    Nose mass-parameter (am)
   estimated Nose-frequenzy (Omega)   =  0.10E-29 period in steps =****** mass=  -0.337E-27a.u.
   SCALEE = 1.0000    scale energy and forces
   NPACO  =    256;   APACO  = 16.0  distance and # of slots for P.C.
   PSTRESS=    0.0 pullay stress

  Mass of Ions in am
   POMASS =  28.09
  Ionic Valenz
   ZVAL   =   4.00
  Atomic Wigner-Seitz radii
   RWIGS  =  -1.00
  virtual crystal weights 
   VCA    =   1.00
   NELECT =       8.0000    total number of electrons
   NUPDOWN=      -1.0000    fix difference up-down

 DOS related values:
   EMIN   =  10.00;   EMAX   =-10.00  energy-range for DOS
   EFERMI =   0.00
   ISMEAR =     0;   SIGMA  =   0.20  broadening in eV -4-tet -1-fermi 0-gaus

 Electronic relaxation 2 (details)
   IALGO  =     38    algorithm
   LDIAG  =      T    sub-space diagonalisation (order eigenvalues)
   LSUBROT=      F    optimize rotation matrix (better conditioning)
   TURBO    =      0    0=normal 1=particle mesh
   IRESTART =      0    0=no restart 2=restart with 2 vectors
   NREBOOT  =      0    no. of reboots
   NMIN     =      0    reboot dimension
   EREF     =   0.00    reference energy to select bands
   IMIX   =      4    mixing-type and parameters
     AMIX     =   0.40;   BMIX     =  1.00
     AMIX_MAG =   1.60;   BMIX_MAG =  1.00
     AMIN     =   0.10
     WC   =   100.;   INIMIX=   1;  MIXPRE=   1;  MAXMIX= -45

 Intra band minimization:
   WEIMIN = 0.0010     energy-eigenvalue tresh-hold
   EBREAK =  0.13E-04  absolut break condition
   DEPER  =   0.30     relativ break condition  

   TIME   =   0.40     timestep for ELM

  volume/ion in A,a.u.               =      20.01       135.05
  Fermi-wavevector in a.u.,A,eV,Ry     =   0.957176  1.808800 12.465458  0.916185
  Thomas-Fermi vector in A             =   2.086170
 
 Write flags
   LWAVE        =      T    write WAVECAR
   LDOWNSAMPLE  =      F    k-point downsampling of WAVECAR
   LCHARG       =      T    write CHGCAR
   LVTOT        =      F    write LOCPOT, total local potential
   LVHAR        =      F    write LOCPOT, Hartree potential only
   LELF         =      F    write electronic localiz. function (ELF)
   LORBIT       =      0    0 simple, 1 ext, 2 COOP (PROOUT), +10 PAW based schemes


 Dipole corrections
   LMONO  =      F    monopole corrections only (constant potential shift)
   LDIPOL =      F    correct potential (dipole corrections)
   IDIPOL =      0    1-x, 2-y, 3-z, 4-all directions 
   EPSILON=  1.0000000 bulk dielectric constant

 Exchange correlation treatment:
   GGA     =    --    GGA type
   LEXCH   =     8    internal setting for exchange type
   VOSKOWN=      0    Vosko Wilk Nusair interpolation
   LHFCALC =     F    Hartree Fock is set to
   LHFONE  =     F    Hartree Fock one center treatment
   AEXX    =    0.0000 exact exchange contribution

 Linear response parameters
   LEPSILON=     F    determine dielectric tensor
   LRPA    =     F    only Hartree local field effects (RPA)
   LNABLA  =     F    use nabla operator in PAW spheres
   LVEL    =     F    velocity operator in full k-point grid
   LINTERFAST=   F  fast interpolation
   KINTER  =     0    interpolate to denser k-point grid
   CSHIFT  =0.1000    complex shift for real part using Kramers Kronig
   OMEGAMAX=  -1.0    maximum frequency
   DEG_THRESHOLD= 0.2000000E-02 threshold for treating states as degnerate
   RTIME   =   -0.100 relaxation time in fs
  (WPLASMAI=    0.000 imaginary part of plasma frequency in eV, 0.658/RTIME)
   DFIELD  = 0.0000000 0.0000000 0.0000000 field for delta impulse in time
 
 Orbital magnetization related:
   ORBITALMAG=     F  switch on orbital magnetization
   LCHIMAG   =     F  perturbation theory with respect to B field
   DQ        =  0.001000  dq finite difference perturbation B field
   LLRAUG    =     F  two centre corrections for induced B field



--------------------------------------------------------------------------------------------------------


 conjugate gradient relaxation of ions
 charge density and potential will be updated during run
 non-spin polarized calculation
 Variant of blocked Davidson
 Davidson routine will perform the subspace rotation
 perform sub-space diagonalisation
    after iterative eigenvector-optimisation
 modified Broyden-mixing scheme, WC =      100.0
 initial mixing is a Kerker type mixing with AMIX =  0.4000 and BMIX =      1.0000
 Hartree-type preconditioning will be used
 using additional bands            4
 reciprocal scheme for non local part
 use partial core corrections
 calculate Harris-corrections to forces 
   (improved forces if not selfconsistent)
 use gradient corrections 
 use of overlap-Matrix (Vanderbilt PP)
 Gauss-broadening in eV      SIGMA  =   0.20


--------------------------------------------------------------------------------------------------------


  energy-cutoff  :      150.00
  volume of cell :       40.03
      direct lattice vectors                 reciprocal lattice vectors
     0.000000000  2.715000000  2.715000000    -0.184162063  0.184162063  0.184162063
     2.715000000  0.000000000  2.715000000     0.184162063 -0.184162063  0.184162063
     2.715000000  2.715000000  0.000000000     0.184162063  0.184162063 -0.184162063

  length of vectors
     3.839589822  3.839589822  3.839589822     0.318978049  0.318978049  0.318978049


 
 old parameters found on file WAVECAR:
  energy-cutoff  :      150.00
  volume of cell :       40.03
      direct lattice vectors                 reciprocal lattice vectors
     0.000000000  2.715000000  2.715000000    -0.184162063  0.184162063  0.184162063
     2.715000000  0.000000000  2.715000000     0.184162063 -0.184162063  0.184162063
     2.715000000  2.715000000  0.000000000     0.184162063  0.184162063 -0.184162063

  length of vectors

 
 k-points in units of 2pi/SCALE and weight: Automatic kpoint scheme                 
   0.00767342  0.00767342  0.00767342       0.001
  -0.00767342  0.02302026  0.02302026       0.003
  -0.02302026  0.03836710  0.03836710       0.003
  -0.03836710  0.05371393  0.05371393       0.003
  -0.05371393  0.06906077  0.06906077       0.003
  -0.06906077  0.08440761  0.08440761       0.003
   0.09975445 -0.08440761 -0.08440761       0.003
   0.08440761 -0.06906077 -0.06906077       0.003
   0.06906077 -0.05371393 -0.05371393       0.003
   0.05371393 -0.03836710 -0.03836710       0.003
   0.03836710 -0.02302026 -0.02302026       0.003
   0.02302026 -0.00767342 -0.00767342       0.003
   0.00767342  0.00767342  0.03836710       0.003
  -0.00767342  0.02302026  0.05371393       0.007
  -0.02302026  0.03836710  0.06906077       0.007
  -0.03836710  0.05371393  0.08440761       0.007
  -0.05371393  0.06906077  0.09975445       0.007
   0.11510129 -0.09975445 -0.06906077       0.007
   0.09975445 -0.08440761 -0.05371393       0.007
   0.08440761 -0.06906077 -0.03836710       0.007
   0.06906077 -0.05371393 -0.02302026       0.007
   0.05371393 -0.03836710 -0.00767342       0.007
   0.03836710 -0.02302026  0.00767342       0.007
   0.00767342  0.00767342  0.06906077       0.003
  -0.00767342  0.02302026  0.08440761       0.007
  -0.02302026  0.03836710  0.09975445       0.007
  -0.03836710  0.05371393  0.11510129       0.007
   0.13044813 -0.11510129 -0.05371393       0.007
   0.11510129 -0.09975445 -0.03836710       0.007
   0.09975445 -0.08440761 -0.02302026       0.007
   0.08440761 -0.06906077 -0.00767342       0.007
   0.06906077 -0.05371393  0.00767342       0.007
   0.05371393 -0.03836710  0.02302026       0.007
   0.00767342  0.00767342  0.09975445       0.003
  -0.00767342  0.02302026  0.11510129       0.007
  -0.02302026  0.03836710  0.13044813       0.007
   0.14579497 -0.13044813 -0.03836710       0.007
   0.13044813 -0.11510129 -0.02302026       0.007
   0.11510129 -0.09975445 -0.00767342       0.007
   0.09975445 -0.08440761  0.00767342       0.007
   0.08440761 -0.06906077  0.02302026       0.007
   0.06906077 -0.05371393  0.03836710       0.007
   0.00767342  0.00767342  0.13044813       0.003
  -0.00767342  0.02302026  0.14579497       0.007
   0.16114180 -0.14579497 -0.02302026       0.007
   0.14579497 -0.13044813 -0.00767342       0.007
   0.13044813 -0.11510129  0.00767342       0.007
   0.11510129 -0.09975445  0.02302026       0.007
   0.09975445 -0.08440761  0.03836710       0.007
   0.08440761 -0.06906077  0.05371393       0.007
   0.00767342  0.00767342  0.16114180       0.003
   0.17648864 -0.16114180 -0.00767342       0.007
   0.16114180 -0.14579497  0.00767342       0.007
   0.14579497 -0.13044813  0.02302026       0.007
   0.13044813 -0.11510129  0.03836710       0.007
   0.11510129 -0.09975445  0.05371393       0.007
   0.09975445 -0.08440761  0.06906077       0.007
   0.00767342  0.00767342 -0.17648864       0.003
  -0.00767342  0.02302026 -0.16114180       0.007
  -0.02302026  0.03836710 -0.14579497       0.007
  -0.03836710  0.05371393 -0.13044813       0.007
  -0.05371393  0.06906077 -0.11510129       0.007
   0.00767342  0.00767342 -0.14579497       0.003
  -0.00767342  0.02302026 -0.13044813       0.007
  -0.02302026  0.03836710 -0.11510129       0.007
  -0.03836710  0.05371393 -0.09975445       0.007
   0.00767342  0.00767342 -0.11510129       0.003
  -0.00767342  0.02302026 -0.09975445       0.007
  -0.02302026  0.03836710 -0.08440761       0.007
   0.00767342  0.00767342 -0.08440761       0.003
  -0.00767342  0.02302026 -0.06906077       0.007
   0.00767342  0.00767342 -0.05371393       0.003
   0.02302026  0.02302026  0.02302026       0.001
   0.00767342  0.03836710  0.03836710       0.003
  -0.00767342  0.05371393  0.05371393       0.003
  -0.02302026  0.06906077  0.06906077       0.003
  -0.03836710  0.08440761  0.08440761       0.003
   0.13044813 -0.08440761 -0.08440761       0.003
   0.11510129 -0.06906077 -0.06906077       0.003
   0.09975445 -0.05371393 -0.05371393       0.003
   0.08440761 -0.03836710 -0.03836710       0.003
   0.06906077 -0.02302026 -0.02302026       0.003
   0.02302026  0.02302026  0.05371393       0.003
   0.00767342  0.03836710  0.06906077       0.007
  -0.00767342  0.05371393  0.08440761       0.007
  -0.02302026  0.06906077  0.09975445       0.007
   0.14579497 -0.09975445 -0.06906077       0.007
   0.13044813 -0.08440761 -0.05371393       0.007
   0.11510129 -0.06906077 -0.03836710       0.007
   0.09975445 -0.05371393 -0.02302026       0.007
   0.08440761 -0.03836710 -0.00767342       0.007
   0.02302026  0.02302026  0.08440761       0.003
   0.00767342  0.03836710  0.09975445       0.007
  -0.00767342  0.05371393  0.11510129       0.007
   0.16114180 -0.11510129 -0.05371393       0.007
   0.14579497 -0.09975445 -0.03836710       0.007
   0.13044813 -0.08440761 -0.02302026       0.007
   0.11510129 -0.06906077 -0.00767342       0.007
   0.09975445 -0.05371393  0.00767342       0.007
   0.02302026  0.02302026  0.11510129       0.003
   0.00767342  0.03836710  0.13044813       0.007
   0.17648864 -0.13044813 -0.03836710       0.007
   0.16114180 -0.11510129 -0.02302026       0.007
   0.14579497 -0.09975445 -0.00767342       0.007
   0.13044813 -0.08440761  0.00767342       0.007
   0.11510129 -0.06906077  0.02302026       0.007
   0.02302026  0.02302026  0.14579497       0.003
   0.19183548 -0.14579497 -0.02302026       0.007
   0.17648864 -0.13044813 -0.00767342       0.007
   0.16114180 -0.11510129  0.00767342       0.007
   0.14579497 -0.09975445  0.02302026       0.007
   0.13044813 -0.08440761  0.03836710       0.007
   0.02302026  0.02302026 -0.19183548       0.003
   0.00767342  0.03836710 -0.17648864       0.007
  -0.00767342  0.05371393 -0.16114180       0.007
  -0.02302026  0.06906077 -0.14579497       0.007
   0.02302026  0.02302026 -0.16114180       0.003
   0.00767342  0.03836710 -0.14579497       0.007
  -0.00767342  0.05371393 -0.13044813       0.007
   0.02302026  0.02302026 -0.13044813       0.003
   0.00767342  0.03836710 -0.11510129       0.007
   0.02302026  0.02302026 -0.09975445       0.003
   0.03836710  0.03836710  0.03836710       0.001
   0.02302026  0.05371393  0.05371393       0.003
   0.00767342  0.06906077  0.06906077       0.003
  -0.00767342  0.08440761  0.08440761       0.003
   0.16114180 -0.08440761 -0.08440761       0.003
   0.14579497 -0.06906077 -0.06906077       0.003
   0.13044813 -0.05371393 -0.05371393       0.003
   0.11510129 -0.03836710 -0.03836710       0.003
   0.03836710  0.03836710  0.06906077       0.003
   0.02302026  0.05371393  0.08440761       0.007
   0.00767342  0.06906077  0.09975445       0.007
   0.17648864 -0.09975445 -0.06906077       0.007
   0.16114180 -0.08440761 -0.05371393       0.007
   0.14579497 -0.06906077 -0.03836710       0.007
   0.13044813 -0.05371393 -0.02302026       0.007
   0.03836710  0.03836710  0.09975445       0.003
   0.02302026  0.05371393  0.11510129       0.007
   0.19183548 -0.11510129 -0.05371393       0.007
   0.17648864 -0.09975445 -0.03836710       0.007
   0.16114180 -0.08440761 -0.02302026       0.007
   0.14579497 -0.06906077 -0.00767342       0.007
   0.03836710  0.03836710  0.13044813       0.003
   0.20718232 -0.13044813 -0.03836710       0.007
   0.19183548 -0.11510129 -0.02302026       0.007
   0.17648864 -0.09975445 -0.00767342       0.007
   0.16114180 -0.08440761  0.00767342       0.007
   0.03836710  0.03836710 -0.20718232       0.003
   0.02302026  0.05371393 -0.19183548       0.007
   0.00767342  0.06906077 -0.17648864       0.007
   0.03836710  0.03836710 -0.17648864       0.003
   0.02302026  0.05371393 -0.16114180       0.007
   0.03836710  0.03836710 -0.14579497       0.003
   0.05371393  0.05371393  0.05371393       0.001
   0.03836710  0.06906077  0.06906077       0.003
   0.02302026  0.08440761  0.08440761       0.003
   0.19183548 -0.08440761 -0.08440761       0.003
   0.17648864 -0.06906077 -0.06906077       0.003
   0.16114180 -0.05371393 -0.05371393       0.003
   0.05371393  0.05371393  0.08440761       0.003
   0.03836710  0.06906077  0.09975445       0.007
   0.20718232 -0.09975445 -0.06906077       0.007
   0.19183548 -0.08440761 -0.05371393       0.007
   0.17648864 -0.06906077 -0.03836710       0.007
   0.05371393  0.05371393  0.11510129       0.003
   0.22252916 -0.11510129 -0.05371393       0.007
   0.20718232 -0.09975445 -0.03836710       0.007
   0.19183548 -0.08440761 -0.02302026       0.007
   0.05371393  0.05371393 -0.22252916       0.003
   0.03836710  0.06906077 -0.20718232       0.007
   0.05371393  0.05371393 -0.19183548       0.003
   0.06906077  0.06906077  0.06906077       0.001
   0.05371393  0.08440761  0.08440761       0.003
   0.22252916 -0.08440761 -0.08440761       0.003
   0.20718232 -0.06906077 -0.06906077       0.003
   0.06906077  0.06906077  0.09975445       0.003
   0.23787600 -0.09975445 -0.06906077       0.007
   0.22252916 -0.08440761 -0.05371393       0.007
   0.06906077  0.06906077 -0.23787600       0.003
   0.08440761  0.08440761  0.08440761       0.001
   0.25322284 -0.08440761 -0.08440761       0.003
 
 k-points in reciprocal lattice and weights: Automatic kpoint scheme                 
   0.04166667  0.04166667  0.04166667       0.001
   0.12500000  0.04166667  0.04166667       0.003
   0.20833333  0.04166667  0.04166667       0.003
   0.29166667  0.04166667  0.04166667       0.003
   0.37500000  0.04166667  0.04166667       0.003
   0.45833333  0.04166667  0.04166667       0.003
  -0.45833333  0.04166667  0.04166667       0.003
  -0.37500000  0.04166667  0.04166667       0.003
  -0.29166667  0.04166667  0.04166667       0.003
  -0.20833333  0.04166667  0.04166667       0.003
  -0.12500000  0.04166667  0.04166667       0.003
  -0.04166667  0.04166667  0.04166667       0.003
   0.12500000  0.12500000  0.04166667       0.003
   0.20833333  0.12500000  0.04166667       0.007
   0.29166667  0.12500000  0.04166667       0.007
   0.37500000  0.12500000  0.04166667       0.007
   0.45833333  0.12500000  0.04166667       0.007
  -0.45833333  0.12500000  0.04166667       0.007
  -0.37500000  0.12500000  0.04166667       0.007
  -0.29166667  0.12500000  0.04166667       0.007
  -0.20833333  0.12500000  0.04166667       0.007
  -0.12500000  0.12500000  0.04166667       0.007
  -0.04166667  0.12500000  0.04166667       0.007
   0.20833333  0.20833333  0.04166667       0.003
   0.29166667  0.20833333  0.04166667       0.007
   0.37500000  0.20833333  0.04166667       0.007
   0.45833333  0.20833333  0.04166667       0.007
  -0.45833333  0.20833333  0.04166667       0.007
  -0.37500000  0.20833333  0.04166667       0.007
  -0.29166667  0.20833333  0.04166667       0.007
  -0.20833333  0.20833333  0.04166667       0.007
  -0.12500000  0.20833333  0.04166667       0.007
  -0.04166667  0.20833333  0.04166667       0.007
   0.29166667  0.29166667  0.04166667       0.003
   0.37500000  0.29166667  0.04166667       0.007
   0.45833333  0.29166667  0.04166667       0.007
  -0.45833333  0.29166667  0.04166667       0.007
  -0.37500000  0.29166667  0.04166667       0.007
  -0.29166667  0.29166667  0.04166667       0.007
  -0.20833333  0.29166667  0.04166667       0.007
  -0.12500000  0.29166667  0.04166667       0.007
  -0.04166667  0.29166667  0.04166667       0.007
   0.37500000  0.37500000  0.04166667       0.003
   0.45833333  0.37500000  0.04166667       0.007
  -0.45833333  0.37500000  0.04166667       0.007
  -0.37500000  0.37500000  0.04166667       0.007
  -0.29166667  0.37500000  0.04166667       0.007
  -0.20833333  0.37500000  0.04166667       0.007
  -0.12500000  0.37500000  0.04166667       0.007
  -0.04166667  0.37500000  0.04166667       0.007
   0.45833333  0.45833333  0.04166667       0.003
  -0.45833333  0.45833333  0.04166667       0.007
  -0.37500000  0.45833333  0.04166667       0.007
  -0.29166667  0.45833333  0.04166667       0.007
  -0.20833333  0.45833333  0.04166667       0.007
  -0.12500000  0.45833333  0.04166667       0.007
  -0.04166667  0.45833333  0.04166667       0.007
  -0.45833333 -0.45833333  0.04166667       0.003
  -0.37500000 -0.45833333  0.04166667       0.007
  -0.29166667 -0.45833333  0.04166667       0.007
  -0.20833333 -0.45833333  0.04166667       0.007
  -0.12500000 -0.45833333  0.04166667       0.007
  -0.37500000 -0.37500000  0.04166667       0.003
  -0.29166667 -0.37500000  0.04166667       0.007
  -0.20833333 -0.37500000  0.04166667       0.007
  -0.12500000 -0.37500000  0.04166667       0.007
  -0.29166667 -0.29166667  0.04166667       0.003
  -0.20833333 -0.29166667  0.04166667       0.007
  -0.12500000 -0.29166667  0.04166667       0.007
  -0.20833333 -0.20833333  0.04166667       0.003
  -0.12500000 -0.20833333  0.04166667       0.007
  -0.12500000 -0.12500000  0.04166667       0.003
   0.12500000  0.12500000  0.12500000       0.001
   0.20833333  0.12500000  0.12500000       0.003
   0.29166667  0.12500000  0.12500000       0.003
   0.37500000  0.12500000  0.12500000       0.003
   0.45833333  0.12500000  0.12500000       0.003
  -0.45833333  0.12500000  0.12500000       0.003
  -0.37500000  0.12500000  0.12500000       0.003
  -0.29166667  0.12500000  0.12500000       0.003
  -0.20833333  0.12500000  0.12500000       0.003
  -0.12500000  0.12500000  0.12500000       0.003
   0.20833333  0.20833333  0.12500000       0.003
   0.29166667  0.20833333  0.12500000       0.007
   0.37500000  0.20833333  0.12500000       0.007
   0.45833333  0.20833333  0.12500000       0.007
  -0.45833333  0.20833333  0.12500000       0.007
  -0.37500000  0.20833333  0.12500000       0.007
  -0.29166667  0.20833333  0.12500000       0.007
  -0.20833333  0.20833333  0.12500000       0.007
  -0.12500000  0.20833333  0.12500000       0.007
   0.29166667  0.29166667  0.12500000       0.003
   0.37500000  0.29166667  0.12500000       0.007
   0.45833333  0.29166667  0.12500000       0.007
  -0.45833333  0.29166667  0.12500000       0.007
  -0.37500000  0.29166667  0.12500000       0.007
  -0.29166667  0.29166667  0.12500000       0.007
  -0.20833333  0.29166667  0.12500000       0.007
  -0.12500000  0.29166667  0.12500000       0.007
   0.37500000  0.37500000  0.12500000       0.003
   0.45833333  0.37500000  0.12500000       0.007
  -0.45833333  0.37500000  0.12500000       0.007
  -0.37500000  0.37500000  0.12500000       0.007
  -0.29166667  0.37500000  0.12500000       0.007
  -0.20833333  0.37500000  0.12500000       0.007
  -0.12500000  0.37500000  0.12500000       0.007
   0.45833333  0.45833333  0.12500000       0.003
  -0.45833333  0.45833333  0.12500000       0.007
  -0.37500000  0.45833333  0.12500000       0.007
  -0.29166667  0.45833333  0.12500000       0.007
  -0.20833333  0.45833333  0.12500000       0.007
  -0.12500000  0.45833333  0.12500000       0.007
  -0.45833333 -0.45833333  0.12500000       0.003
  -0.37500000 -0.45833333  0.12500000       0.007
  -0.29166667 -0.45833333  0.12500000       0.007
  -0.20833333 -0.45833333  0.12500000       0.007
  -0.37500000 -0.37500000  0.12500000       0.003
  -0.29166667 -0.37500000  0.12500000       0.007
  -0.20833333 -0.37500000  0.12500000       0.007
  -0.29166667 -0.29166667  0.12500000       0.003
  -0.20833333 -0.29166667  0.12500000       0.007
  -0.20833333 -0.20833333  0.12500000       0.003
   0.20833333  0.20833333  0.20833333       0.001
   0.29166667  0.20833333  0.20833333       0.003
   0.37500000  0.20833333  0.20833333       0.003
   0.45833333  0.20833333  0.20833333       0.003
  -0.45833333  0.20833333  0.20833333       0.003
  -0.37500000  0.20833333  0.20833333       0.003
  -0.29166667  0.20833333  0.20833333       0.003
  -0.20833333  0.20833333  0.20833333       0.003
   0.29166667  0.29166667  0.20833333       0.003
   0.37500000  0.29166667  0.20833333       0.007
   0.45833333  0.29166667  0.20833333       0.007
  -0.45833333  0.29166667  0.20833333       0.007
  -0.37500000  0.29166667  0.20833333       0.007
  -0.29166667  0.29166667  0.20833333       0.007
  -0.20833333  0.29166667  0.20833333       0.007
   0.37500000  0.37500000  0.20833333       0.003
   0.45833333  0.37500000  0.20833333       0.007
  -0.45833333  0.37500000  0.20833333       0.007
  -0.37500000  0.37500000  0.20833333       0.007
  -0.29166667  0.37500000  0.20833333       0.007
  -0.20833333  0.37500000  0.20833333       0.007
   0.45833333  0.45833333  0.20833333       0.003
  -0.45833333  0.45833333  0.20833333       0.007
  -0.37500000  0.45833333  0.20833333       0.007
  -0.29166667  0.45833333  0.20833333       0.007
  -0.20833333  0.45833333  0.20833333       0.007
  -0.45833333 -0.45833333  0.20833333       0.003
  -0.37500000 -0.45833333  0.20833333       0.007
  -0.29166667 -0.45833333  0.20833333       0.007
  -0.37500000 -0.37500000  0.20833333       0.003
  -0.29166667 -0.37500000  0.20833333       0.007
  -0.29166667 -0.29166667  0.20833333       0.003
   0.29166667  0.29166667  0.29166667       0.001
   0.37500000  0.29166667  0.29166667       0.003
   0.45833333  0.29166667  0.29166667       0.003
  -0.45833333  0.29166667  0.29166667       0.003
  -0.37500000  0.29166667  0.29166667       0.003
  -0.29166667  0.29166667  0.29166667       0.003
   0.37500000  0.37500000  0.29166667       0.003
   0.45833333  0.37500000  0.29166667       0.007
  -0.45833333  0.37500000  0.29166667       0.007
  -0.37500000  0.37500000  0.29166667       0.007
  -0.29166667  0.37500000  0.29166667       0.007
   0.45833333  0.45833333  0.29166667       0.003
  -0.45833333  0.45833333  0.29166667       0.007
  -0.37500000  0.45833333  0.29166667       0.007
  -0.29166667  0.45833333  0.29166667       0.007
  -0.45833333 -0.45833333  0.29166667       0.003
  -0.37500000 -0.45833333  0.29166667       0.007
  -0.37500000 -0.37500000  0.29166667       0.003
   0.37500000  0.37500000  0.37500000       0.001
   0.45833333  0.37500000  0.37500000       0.003
  -0.45833333  0.37500000  0.37500000       0.003
  -0.37500000  0.37500000  0.37500000       0.003
   0.45833333  0.45833333  0.37500000       0.003
  -0.45833333  0.45833333  0.37500000       0.007
  -0.37500000  0.45833333  0.37500000       0.007
  -0.45833333 -0.45833333  0.37500000       0.003
   0.45833333  0.45833333  0.45833333       0.001
  -0.45833333  0.45833333  0.45833333       0.003
 
 position of ions in fractional coordinates (direct lattice) 
   0.50000000  0.50000000  0.50000000
   0.75000000  0.75000000  0.75000000
 
 position of ions in cartesian coordinates  (Angst):
   2.71500000  2.71500000  2.71500000
   4.07250000  4.07250000  4.07250000
 


--------------------------------------------------------------------------------------------------------


 k-point  1 :   0.0417 0.0417 0.0417  plane waves:     169
 k-point  2 :   0.1250 0.0417 0.0417  plane waves:     169
 k-point  3 :   0.2083 0.0417 0.0417  plane waves:     167
 k-point  4 :   0.2917 0.0417 0.0417  plane waves:     163
 k-point  5 :   0.3750 0.0417 0.0417  plane waves:     161
 k-point  6 :   0.4583 0.0417 0.0417  plane waves:     164
 k-point  7 :  -0.4583 0.0417 0.0417  plane waves:     166
 k-point  8 :  -0.3750 0.0417 0.0417  plane waves:     163
 k-point  9 :  -0.2917 0.0417 0.0417  plane waves:     160
 k-point 10 :  -0.2083 0.0417 0.0417  plane waves:     164
 k-point 11 :  -0.1250 0.0417 0.0417  plane waves:     167
 k-point 12 :  -0.0417 0.0417 0.0417  plane waves:     169
 k-point 13 :   0.1250 0.1250 0.0417  plane waves:     169
 k-point 14 :   0.2083 0.1250 0.0417  plane waves:     165
 k-point 15 :   0.2917 0.1250 0.0417  plane waves:     162
 k-point 16 :   0.3750 0.1250 0.0417  plane waves:     162
 k-point 17 :   0.4583 0.1250 0.0417  plane waves:     167
 k-point 18 :  -0.4583 0.1250 0.0417  plane waves:     166
 k-point 19 :  -0.3750 0.1250 0.0417  plane waves:     166
 k-point 20 :  -0.2917 0.1250 0.0417  plane waves:     164
 k-point 21 :  -0.2083 0.1250 0.0417  plane waves:     162
 k-point 22 :  -0.1250 0.1250 0.0417  plane waves:     162
 k-point 23 :  -0.0417 0.1250 0.0417  plane waves:     169
 k-point 24 :   0.2083 0.2083 0.0417  plane waves:     166
 k-point 25 :   0.2917 0.2083 0.0417  plane waves:     164
 k-point 26 :   0.3750 0.2083 0.0417  plane waves:     164
 k-point 27 :   0.4583 0.2083 0.0417  plane waves:     167
 k-point 28 :  -0.4583 0.2083 0.0417  plane waves:     169
 k-point 29 :  -0.3750 0.2083 0.0417  plane waves:     168
 k-point 30 :  -0.2917 0.2083 0.0417  plane waves:     166
 k-point 31 :  -0.2083 0.2083 0.0417  plane waves:     165
 k-point 32 :  -0.1250 0.2083 0.0417  plane waves:     162
 k-point 33 :  -0.0417 0.2083 0.0417  plane waves:     165
 k-point 34 :   0.2917 0.2917 0.0417  plane waves:     165
 k-point 35 :   0.3750 0.2917 0.0417  plane waves:     167
 k-point 36 :   0.4583 0.2917 0.0417  plane waves:     166
 k-point 37 :  -0.4583 0.2917 0.0417  plane waves:     168
 k-point 38 :  -0.3750 0.2917 0.0417  plane waves:     173
 k-point 39 :  -0.2917 0.2917 0.0417  plane waves:     169
 k-point 40 :  -0.2083 0.2917 0.0417  plane waves:     166
 k-point 41 :  -0.1250 0.2917 0.0417  plane waves:     165
 k-point 42 :  -0.0417 0.2917 0.0417  plane waves:     162
 k-point 43 :   0.3750 0.3750 0.0417  plane waves:     168
 k-point 44 :   0.4583 0.3750 0.0417  plane waves:     168
 k-point 45 :  -0.4583 0.3750 0.0417  plane waves:     169
 k-point 46 :  -0.3750 0.3750 0.0417  plane waves:     172
 k-point 47 :  -0.2917 0.3750 0.0417  plane waves:     172
 k-point 48 :  -0.2083 0.3750 0.0417  plane waves:     170
 k-point 49 :  -0.1250 0.3750 0.0417  plane waves:     165
 k-point 50 :  -0.0417 0.3750 0.0417  plane waves:     165
 k-point 51 :   0.4583 0.4583 0.0417  plane waves:     168
 k-point 52 :  -0.4583 0.4583 0.0417  plane waves:     170
 k-point 53 :  -0.3750 0.4583 0.0417  plane waves:     172
 k-point 54 :  -0.2917 0.4583 0.0417  plane waves:     173
 k-point 55 :  -0.2083 0.4583 0.0417  plane waves:     169
 k-point 56 :  -0.1250 0.4583 0.0417  plane waves:     167
 k-point 57 :  -0.0417 0.4583 0.0417  plane waves:     167
 k-point 58 :  -0.4583-0.4583 0.0417  plane waves:     170
 k-point 59 :  -0.3750-0.4583 0.0417  plane waves:     170
 k-point 60 :  -0.2917-0.4583 0.0417  plane waves:     170
 k-point 61 :  -0.2083-0.4583 0.0417  plane waves:     168
 k-point 62 :  -0.1250-0.4583 0.0417  plane waves:     167
 k-point 63 :  -0.3750-0.3750 0.0417  plane waves:     166
 k-point 64 :  -0.2917-0.3750 0.0417  plane waves:     167
 k-point 65 :  -0.2083-0.3750 0.0417  plane waves:     167
 k-point 66 :  -0.1250-0.3750 0.0417  plane waves:     164
 k-point 67 :  -0.2917-0.2917 0.0417  plane waves:     171
 k-point 68 :  -0.2083-0.2917 0.0417  plane waves:     166
 k-point 69 :  -0.1250-0.2917 0.0417  plane waves:     162
 k-point 70 :  -0.2083-0.2083 0.0417  plane waves:     165
 k-point 71 :  -0.1250-0.2083 0.0417  plane waves:     165
 k-point 72 :  -0.1250-0.1250 0.0417  plane waves:     165
 k-point 73 :   0.1250 0.1250 0.1250  plane waves:     169
 k-point 74 :   0.2083 0.1250 0.1250  plane waves:     165
 k-point 75 :   0.2917 0.1250 0.1250  plane waves:     160
 k-point 76 :   0.3750 0.1250 0.1250  plane waves:     163
 k-point 77 :   0.4583 0.1250 0.1250  plane waves:     165
 k-point 78 :  -0.4583 0.1250 0.1250  plane waves:     164
 k-point 79 :  -0.3750 0.1250 0.1250  plane waves:     166
 k-point 80 :  -0.2917 0.1250 0.1250  plane waves:     164
 k-point 81 :  -0.2083 0.1250 0.1250  plane waves:     162
 k-point 82 :  -0.1250 0.1250 0.1250  plane waves:     162
 k-point 83 :   0.2083 0.2083 0.1250  plane waves:     166
 k-point 84 :   0.2917 0.2083 0.1250  plane waves:     163
 k-point 85 :   0.3750 0.2083 0.1250  plane waves:     166
 k-point 86 :   0.4583 0.2083 0.1250  plane waves:     165
 k-point 87 :  -0.4583 0.2083 0.1250  plane waves:     168
 k-point 88 :  -0.3750 0.2083 0.1250  plane waves:     166
 k-point 89 :  -0.2917 0.2083 0.1250  plane waves:     167
 k-point 90 :  -0.2083 0.2083 0.1250  plane waves:     166
 k-point 91 :  -0.1250 0.2083 0.1250  plane waves:     165
 k-point 92 :   0.2917 0.2917 0.1250  plane waves:     162
 k-point 93 :   0.3750 0.2917 0.1250  plane waves:     165
 k-point 94 :   0.4583 0.2917 0.1250  plane waves:     168
 k-point 95 :  -0.4583 0.2917 0.1250  plane waves:     166
 k-point 96 :  -0.3750 0.2917 0.1250  plane waves:     168
 k-point 97 :  -0.2917 0.2917 0.1250  plane waves:     169
 k-point 98 :  -0.2083 0.2917 0.1250  plane waves:     167
 k-point 99 :  -0.1250 0.2917 0.1250  plane waves:     166
 k-point ** :   0.3750 0.3750 0.1250  plane waves:     163
 k-point ** :   0.4583 0.3750 0.1250  plane waves:     170
 k-point ** :  -0.4583 0.3750 0.1250  plane waves:     167
 k-point ** :  -0.3750 0.3750 0.1250  plane waves:     167
 k-point ** :  -0.2917 0.3750 0.1250  plane waves:     171
 k-point ** :  -0.2083 0.3750 0.1250  plane waves:     167
 k-point ** :  -0.1250 0.3750 0.1250  plane waves:     167
 k-point ** :   0.4583 0.4583 0.1250  plane waves:     168
 k-point ** :  -0.4583 0.4583 0.1250  plane waves:     168
 k-point ** :  -0.3750 0.4583 0.1250  plane waves:     169
 k-point ** :  -0.2917 0.4583 0.1250  plane waves:     169
 k-point ** :  -0.2083 0.4583 0.1250  plane waves:     168
 k-point ** :  -0.1250 0.4583 0.1250  plane waves:     168
 k-point ** :  -0.4583-0.4583 0.1250  plane waves:     174
 k-point ** :  -0.3750-0.4583 0.1250  plane waves:     170
 k-point ** :  -0.2917-0.4583 0.1250  plane waves:     169
 k-point ** :  -0.2083-0.4583 0.1250  plane waves:     166
 k-point ** :  -0.3750-0.3750 0.1250  plane waves:     170
 k-point ** :  -0.2917-0.3750 0.1250  plane waves:     171
 k-point ** :  -0.2083-0.3750 0.1250  plane waves:     169
 k-point ** :  -0.2917-0.2917 0.1250  plane waves:     167
 k-point ** :  -0.2083-0.2917 0.1250  plane waves:     166
 k-point ** :  -0.2083-0.2083 0.1250  plane waves:     163
 k-point ** :   0.2083 0.2083 0.2083  plane waves:     168
 k-point ** :   0.2917 0.2083 0.2083  plane waves:     163
 k-point ** :   0.3750 0.2083 0.2083  plane waves:     166
 k-point ** :   0.4583 0.2083 0.2083  plane waves:     165
 k-point ** :  -0.4583 0.2083 0.2083  plane waves:     168
 k-point ** :  -0.3750 0.2083 0.2083  plane waves:     168
 k-point ** :  -0.2917 0.2083 0.2083  plane waves:     168
 k-point ** :  -0.2083 0.2083 0.2083  plane waves:     167
 k-point ** :   0.2917 0.2917 0.2083  plane waves:     161
 k-point ** :   0.3750 0.2917 0.2083  plane waves:     165
 k-point ** :   0.4583 0.2917 0.2083  plane waves:     165
 k-point ** :  -0.4583 0.2917 0.2083  plane waves:     168
 k-point ** :  -0.3750 0.2917 0.2083  plane waves:     170
 k-point ** :  -0.2917 0.2917 0.2083  plane waves:     168
 k-point ** :  -0.2083 0.2917 0.2083  plane waves:     169
 k-point ** :   0.3750 0.3750 0.2083  plane waves:     164
 k-point ** :   0.4583 0.3750 0.2083  plane waves:     167
 k-point ** :  -0.4583 0.3750 0.2083  plane waves:     168
 k-point ** :  -0.3750 0.3750 0.2083  plane waves:     165
 k-point ** :  -0.2917 0.3750 0.2083  plane waves:     167
 k-point ** :  -0.2083 0.3750 0.2083  plane waves:     164
 k-point ** :   0.4583 0.4583 0.2083  plane waves:     169
 k-point ** :  -0.4583 0.4583 0.2083  plane waves:     170
 k-point ** :  -0.3750 0.4583 0.2083  plane waves:     165
 k-point ** :  -0.2917 0.4583 0.2083  plane waves:     169
 k-point ** :  -0.2083 0.4583 0.2083  plane waves:     166
 k-point ** :  -0.4583-0.4583 0.2083  plane waves:     172
 k-point ** :  -0.3750-0.4583 0.2083  plane waves:     171
 k-point ** :  -0.2917-0.4583 0.2083  plane waves:     167
 k-point ** :  -0.3750-0.3750 0.2083  plane waves:     170
 k-point ** :  -0.2917-0.3750 0.2083  plane waves:     170
 k-point ** :  -0.2917-0.2917 0.2083  plane waves:     170
 k-point ** :   0.2917 0.2917 0.2917  plane waves:     162
 k-point ** :   0.3750 0.2917 0.2917  plane waves:     159
 k-point ** :   0.4583 0.2917 0.2917  plane waves:     164
 k-point ** :  -0.4583 0.2917 0.2917  plane waves:     169
 k-point ** :  -0.3750 0.2917 0.2917  plane waves:     170
 k-point ** :  -0.2917 0.2917 0.2917  plane waves:     170
 k-point ** :   0.3750 0.3750 0.2917  plane waves:     162
 k-point ** :   0.4583 0.3750 0.2917  plane waves:     164
 k-point ** :  -0.4583 0.3750 0.2917  plane waves:     168
 k-point ** :  -0.3750 0.3750 0.2917  plane waves:     170
 k-point ** :  -0.2917 0.3750 0.2917  plane waves:     172
 k-point ** :   0.4583 0.4583 0.2917  plane waves:     164
 k-point ** :  -0.4583 0.4583 0.2917  plane waves:     168
 k-point ** :  -0.3750 0.4583 0.2917  plane waves:     168
 k-point ** :  -0.2917 0.4583 0.2917  plane waves:     169
 k-point ** :  -0.4583-0.4583 0.2917  plane waves:     172
 k-point ** :  -0.3750-0.4583 0.2917  plane waves:     170
 k-point ** :  -0.3750-0.3750 0.2917  plane waves:     170
 k-point ** :   0.3750 0.3750 0.3750  plane waves:     162
 k-point ** :   0.4583 0.3750 0.3750  plane waves:     167
 k-point ** :  -0.4583 0.3750 0.3750  plane waves:     166
 k-point ** :  -0.3750 0.3750 0.3750  plane waves:     172
 k-point ** :   0.4583 0.4583 0.3750  plane waves:     167
 k-point ** :  -0.4583 0.4583 0.3750  plane waves:     167
 k-point ** :  -0.3750 0.4583 0.3750  plane waves:     169
 k-point ** :  -0.4583-0.4583 0.3750  plane waves:     168
 k-point ** :   0.4583 0.4583 0.4583  plane waves:     168
 k-point ** :  -0.4583 0.4583 0.4583  plane waves:     165

 maximum and minimum number of plane-waves per node :       174      159

 maximum number of plane-waves:       174
 maximum index in each direction: 
   IXMAX=    4   IYMAX=    4   IZMAX=    3
   IXMIN=   -4   IYMIN=   -4   IZMIN=   -4


 serial   3D FFT for wavefunctions
 parallel 3D FFT for charge:
    minimum data exchange during FFTs selected (reduces bandwidth)


 total amount of memory used by VASP MPI-rank0    32844. kBytes
=======================================================================

   base      :      30000. kBytes
   nonl-proj :       2055. kBytes
   fftplans  :         66. kBytes
   grid      :        158. kBytes
   one-center:          6. kBytes
   wavefun   :        559. kBytes
 
     INWAV:  cpu time    0.1840: real time    0.5373
 Broyden mixing: mesh for mixing (old mesh)
   NGX =  7   NGY =  7   NGZ =  7
  (NGX  = 24   NGY  = 24   NGZ  = 24)
  gives a total of    343 points

 charge density for first step will be calculated from the start-wavefunctions


--------------------------------------------------------------------------------------------------------


 Maximum index for augmentation-charges          204 (set IRDMAX)


--------------------------------------------------------------------------------------------------------


 initial charge from wavefunction
 First call to EWALD:  gamma=   0.518
 Maximum number of real-space cells 3x 3x 3
 Maximum number of reciprocal cells 3x 3x 3

    FEWALD:  cpu time    0.0080: real time    0.0081


--------------------------------------- Iteration      1(   1)  ---------------------------------------


    POTLOK:  cpu time    0.0240: real time    0.0634
    SETDIJ:  cpu time    0.0080: real time    0.0089
     EDDAV:  cpu time    0.7720: real time    0.7775
       DOS:  cpu time    0.0080: real time    0.0085
    CHARGE:  cpu time    0.0240: real time    0.0251
    MIXING:  cpu time    0.0040: real time    0.0017
    --------------------------------------------
      LOOP:  cpu time    0.8400: real time    0.8862

 eigenvalue-minimisations  :  1504
 total energy-change (2. order) :-0.1074483E+02  (-0.2457557E-05)
 number of electron       8.0000042 magnetization 
 augmentation part       -0.4535220 magnetization 

 Broyden mixing:
  rms(total) = 0.13349E-03    rms(broyden)= 0.13282E-03
  rms(prec ) = 0.35282E-03
  weight for this iteration     100.00

 Free energy of the ion-electron system (eV)
  ---------------------------------------------------
  alpha Z        PSCENC =         3.36414203
  Ewald energy   TEWEN  =      -228.56352493
  -Hartree energ DENC   =       -14.88198194
  -exchange      EXHF   =         0.00000000
  -V(xc)+E(xc)   XCENC  =       -17.92438089
  PAW double counting   =        76.67661310      -41.72828478
  entropy T*S    EENTRO =        -0.00004894
  eigenvalues    EBANDS =         6.22080347
  atomic energy  EATOM  =       206.09183643
  Solvation  Ediel_sol  =         0.00000000
  ---------------------------------------------------
  free energy    TOTEN  =       -10.74482644 eV

  energy without entropy =      -10.74477750  energy(sigma->0) =      -10.74480197


--------------------------------------------------------------------------------------------------------




--------------------------------------- Iteration      1(   2)  ---------------------------------------


    POTLOK:  cpu time    0.0120: real time    0.0355
    SETDIJ:  cpu time    0.0080: real time    0.0082
     EDDAV:  cpu time    0.7480: real time    0.7449
       DOS:  cpu time    0.0040: real time    0.0076
    --------------------------------------------
      LOOP:  cpu time    0.7760: real time    0.7963

 eigenvalue-minimisations  :  1456
 total energy-change (2. order) :-0.1776363E-06  (-0.7758816E-07)
 number of electron       8.0000042 magnetization 
 augmentation part       -0.4535220 magnetization 

 Free energy of the ion-electron system (eV)
  ---------------------------------------------------
  alpha Z        PSCENC =         3.36414203
  Ewald energy   TEWEN  =      -228.56352493
  -Hartree energ DENC   =       -14.88189859
  -exchange      EXHF   =         0.00000000
  -V(xc)+E(xc)   XCENC  =       -17.92436129
  PAW double counting   =        76.67538558      -41.72700745
  entropy T*S    EENTRO =        -0.00004889
  eigenvalues    EBANDS =         6.22065049
  atomic energy  EATOM  =       206.09183643
  Solvation  Ediel_sol  =         0.00000000
  ---------------------------------------------------
  free energy    TOTEN  =       -10.74482662 eV

  energy without entropy =      -10.74477773  energy(sigma->0) =      -10.74480218


--------------------------------------------------------------------------------------------------------




 average (electrostatic) potential at core
  the test charge radii are     0.9892
  (the norm of the test charge is              1.0000)
       1 -83.2632       2 -83.2632
 
 
 
 E-fermi :   6.1803     XC(G=0):  -9.4139     alpha+bet :-11.9845


 k-point     1 :       0.0417    0.0417    0.0417
  band No.  band energies     occupation 
      1      -6.1123      2.00000
      2       5.6166      1.99993
      3       5.8369      1.98482
      4       5.8369      1.98482
      5       8.5059      0.00000
      6       8.5126      0.00000
      7       8.5126      0.00000
      8       9.3671      0.00000

 k-point     2 :       0.1250    0.0417    0.0417
  band No.  band energies     occupation 
      1      -5.9909      2.00000
      2       4.7199      2.00000
      3       5.4083      2.00000
      4       5.7831      1.99502
      5       8.5870      0.00000
      6       8.6313      0.00000
      7       8.8351      0.00000
      8      10.1985      0.00000

 k-point     3 :       0.2083    0.0417    0.0417
  band No.  band energies     occupation 
      1      -5.6913      2.00000
      2       3.2018      2.00000
      3       5.0316      2.00000
      4       5.5085      2.00000
      5       8.3298      0.00000
      6       9.0276      0.00000
      7       9.3376      0.00000
      8      11.5374      0.00000

 k-point     4 :       0.2917    0.0417    0.0417
  band No.  band energies     occupation 
      1      -5.2262      2.00000
      2       1.6742      2.00000
      3       4.7319      2.00000
      4       5.1842      2.00000
      5       8.0270      0.00000
      6       9.3257      0.00000
      7       9.5917      0.00000
      8      12.6845      0.00000

 k-point     5 :       0.3750    0.0417    0.0417
  band No.  band energies     occupation 
      1      -4.6309      2.00000
      2       0.3003      2.00000
      3       4.5365      2.00000
      4       4.9072      2.00000
      5       7.7793      0.00000
      6       9.3777      0.00000
      7       9.5141      0.00000
      8      13.5658      0.00000

 k-point     6 :       0.4583    0.0417    0.0417
  band No.  band energies     occupation 
      1      -4.0236      2.00000
      2      -0.7625      2.00000
      3       4.4538      2.00000
      4       4.7092      2.00000
      5       7.6199      0.00000
      6       9.3432      0.00000
      7       9.3475      0.00000
      8      13.7320      0.00000

 k-point     7 :      -0.4583    0.0417    0.0417
  band No.  band energies     occupation 
      1      -3.7898      2.00000
      2      -1.1110      2.00000
      3       4.4825      2.00000
      4       4.6072      2.00000
      5       7.5835      0.00000
      6       9.2438      0.00000
      7       9.3778      0.00000
      8      13.6971      0.00000

 k-point     8 :      -0.3750    0.0417    0.0417
  band No.  band energies     occupation 
      1      -4.2118      2.00000
      2      -0.4603      2.00000
      3       4.6120      2.00000
      4       4.6170      2.00000
      5       7.6605      0.00000
      6       9.2478      0.00000
      7       9.5118      0.00000
      8      13.6569      0.00000

 k-point     9 :      -0.2917    0.0417    0.0417
  band No.  band energies     occupation 
      1      -4.8394      2.00000
      2       0.7337      2.00000
      3       4.7248      2.00000
      4       4.8464      2.00000
      5       7.8600      0.00000
      6       9.2886      0.00000
      7       9.6659      0.00000
      8      12.9484      0.00000

 k-point    10 :      -0.2083    0.0417    0.0417
  band No.  band energies     occupation 
      1      -5.3981      2.00000
      2       2.1722      2.00000
      3       4.9480      2.00000
      4       5.1491      2.00000
      5       8.1270      0.00000
      6       9.1735      0.00000
      7       9.6555      0.00000
      8      12.1309      0.00000

 k-point    11 :      -0.1250    0.0417    0.0417
  band No.  band energies     occupation 
      1      -5.8104      2.00000
      2       3.7262      2.00000
      3       5.2633      2.00000
      4       5.4824      2.00000
      5       8.4014      0.00000
      6       8.8268      0.00000
      7       9.3102      0.00000
      8      11.0560      0.00000

 k-point    12 :      -0.0417    0.0417    0.0417
  band No.  band energies     occupation 
      1      -6.0515      2.00000
      2       5.1917      2.00000
      3       5.6073      1.99995
      4       5.7133      1.99904
      5       8.3733      0.00000
      6       8.7173      0.00000
      7       8.8159      0.00000
      8       9.7588      0.00000

 k-point    13 :       0.1250    0.1250    0.0417
  band No.  band energies     occupation 
      1      -5.9301      2.00000
      2       4.6385      2.00000
      3       5.2552      2.00000
      4       5.3625      2.00000
      5       8.1315      0.00000
      6       9.1557      0.00000
      7       9.3142      0.00000
      8      10.2593      0.00000

 k-point    14 :       0.2083    0.1250    0.0417
  band No.  band energies     occupation 
      1      -5.6894      2.00000
      2       3.5916      2.00000
      3       4.6554      2.00000
      4       5.2163      2.00000
      5       8.1506      0.00000
      6       9.3450      0.00000
      7       9.8314      0.00000
      8      10.8672      0.00000

 k-point    15 :       0.2917    0.1250    0.0417
  band No.  band energies     occupation 
      1      -5.2778      2.00000
      2       2.1576      2.00000
      3       4.2712      2.00000
      4       4.9184      2.00000
      5       8.3615      0.00000
      6       9.3003      0.00000
      7      10.2214      0.00000
      8      11.0917      0.00000

 k-point    16 :       0.3750    0.1250    0.0417
  band No.  band energies     occupation 
      1      -4.7199      2.00000
      2       0.7651      2.00000
      3       4.0098      2.00000
      4       4.6084      2.00000
      5       8.3148      0.00000
      6       9.3015      0.00000
      7      10.2251      0.00000
      8      11.6976      0.00000

 k-point    17 :       0.4583    0.1250    0.0417
  band No.  band energies     occupation 
      1      -4.0920      2.00000
      2      -0.4077      2.00000
      3       3.8269      2.00000
      4       4.4107      2.00000
      5       8.1956      0.00000
      6       9.2113      0.00000
      7      10.0544      0.00000
      8      12.8286      0.00000

 k-point    18 :      -0.4583    0.1250    0.0417
  band No.  band energies     occupation 
      1      -3.6683      2.00000
      2      -1.0520      2.00000
      3       3.7016      2.00000
      4       4.3849      2.00000
      5       8.1591      0.00000
      6       9.1595      0.00000
      7       9.9156      0.00000
      8      13.9234      0.00000

 k-point    19 :      -0.3750    0.1250    0.0417
  band No.  band energies     occupation 
      1      -3.9046      2.00000
      2      -0.7038      2.00000
      3       3.6520      2.00000
      4       4.5231      2.00000
      5       8.2229      0.00000
      6       9.2073      0.00000
      7       9.8916      0.00000
      8      13.6521      0.00000

 k-point    20 :      -0.2917    0.1250    0.0417
  band No.  band energies     occupation 
      1      -4.5131      2.00000
      2       0.3450      2.00000
      3       3.7141      2.00000
      4       4.7834      2.00000
      5       8.3879      0.00000
      6       9.2922      0.00000
      7       9.9688      0.00000
[...]
      4       2.2327      2.00000
      5       9.6530      0.00000
      6      10.2402      0.00000
      7      10.9134      0.00000
      8      11.5440      0.00000

 k-point   148 :      -0.2083    0.4583    0.2083
  band No.  band energies     occupation 
      1      -2.4869      2.00000
      2      -1.1941      2.00000
      3       1.7399      2.00000
      4       2.5395      2.00000
      5       9.6709      0.00000
      6      10.0064      0.00000
      7      10.6397      0.00000
      8      12.2938      0.00000

 k-point   149 :      -0.4583   -0.4583    0.2083
  band No.  band energies     occupation 
      1      -2.7685      2.00000
      2      -1.0448      2.00000
      3       1.8858      2.00000
      4       3.3454      2.00000
      5       7.0400      0.00000
      6       9.3146      0.00000
      7      13.2583      0.00000
      8      13.3280      0.00000

 k-point   150 :      -0.3750   -0.4583    0.2083
  band No.  band energies     occupation 
      1      -2.2744      2.00000
      2      -1.4972      2.00000
      3       1.7948      2.00000
      4       2.9481      2.00000
      5       7.5196      0.00000
      6       9.2860      0.00000
      7      12.8976      0.00000
      8      13.7063      0.00000

 k-point   151 :      -0.2917   -0.4583    0.2083
  band No.  band energies     occupation 
      1      -2.1260      2.00000
      2      -1.5670      2.00000
      3       1.9260      2.00000
      4       2.3403      2.00000
      5       8.7853      0.00000
      6       9.4383      0.00000
      7      11.8208      0.00000
      8      12.5608      0.00000

 k-point   152 :      -0.3750   -0.3750    0.2083
  band No.  band energies     occupation 
      1      -2.3310      2.00000
      2      -1.4771      2.00000
      3       1.7460      2.00000
      4       3.2936      2.00000
      5       6.9697      0.00000
      6       9.2375      0.00000
      7      13.8216      0.00000
      8      14.1448      0.00000

 k-point   153 :      -0.2917   -0.3750    0.2083
  band No.  band energies     occupation 
      1      -2.7217      2.00000
      2      -1.0545      2.00000
      3       1.9114      2.00000
      4       3.0278      2.00000
      5       7.5823      0.00000
      6       9.3666      0.00000
      7      12.2040      0.00000
      8      14.2053      0.00000

 k-point   154 :      -0.2917   -0.2917    0.2083
  band No.  band energies     occupation 
      1      -3.2526      2.00000
      2      -0.5699      2.00000
      3       2.1623      2.00000
      4       3.4485      2.00000
      5       7.1798      0.00000
      6       9.4744      0.00000
      7      12.5263      0.00000
      8      12.6342      0.00000

 k-point   155 :       0.2917    0.2917    0.2917
  band No.  band energies     occupation 
      1      -5.0590      2.00000
      2       1.1881      2.00000
      3       4.9683      2.00000
      4       4.9683      2.00000
      5       7.7789      0.00000
      6       9.4606      0.00000
      7       9.4606      0.00000
      8      13.4123      0.00000

 k-point   156 :       0.3750    0.2917    0.2917
  band No.  band energies     occupation 
      1      -4.7805      2.00000
      2       0.7547      2.00000
      3       4.0679      2.00000
      4       5.0161      2.00000
      5       8.2099      0.00000
      6       9.4599      0.00000
      7       9.6273      0.00000
      8      12.9313      0.00000

 k-point   157 :       0.4583    0.2917    0.2917
  band No.  band energies     occupation 
      1      -4.3425      2.00000
      2       0.3840      2.00000
      3       2.8428      2.00000
      4       4.7374      2.00000
      5       8.5226      0.00000
      6      10.0694      0.00000
      7      10.0976      0.00000
      8      12.5862      0.00000

 k-point   158 :      -0.4583    0.2917    0.2917
  band No.  band energies     occupation 
      1      -3.7735      2.00000
      2      -0.0519      2.00000
      3       1.8951      2.00000
      4       4.3189      2.00000
      5       8.1424      0.00000
      6      11.0369      0.00000
      7      11.3239      0.00000
      8      12.4560      0.00000

 k-point   159 :      -0.3750    0.2917    0.2917
  band No.  band energies     occupation 
      1      -3.1589      2.00000
      2      -0.6795      2.00000
      3       1.5417      2.00000
      4       3.9181      2.00000
      5       7.6914      0.00000
      6      11.8697      0.00000
      7      12.0613      0.00000
      8      12.8892      0.00000

 k-point   160 :      -0.2917    0.2917    0.2917
  band No.  band energies     occupation 
      1      -2.8454      2.00000
      2      -1.0459      2.00000
      3       1.6934      2.00000
      4       3.6174      2.00000
      5       7.3604      0.00000
      6      10.9942      0.00000
      7      12.3017      0.00000
      8      12.3869      0.00000

 k-point   161 :       0.3750    0.3750    0.2917
  band No.  band energies     occupation 
      1      -4.5708      2.00000
      2       0.3217      2.00000
      3       4.4197      2.00000
      4       4.4757      2.00000
      5       8.0951      0.00000
      6       9.2096      0.00000
      7       9.9441      0.00000
      8      12.4337      0.00000

 k-point   162 :       0.4583    0.3750    0.2917
  band No.  band energies     occupation 
      1      -4.2020      2.00000
      2      -0.0207      2.00000
      3       3.3366      2.00000
      4       4.4068      2.00000
      5       8.5339      0.00000
      6       9.2171      0.00000
      7      10.5252      0.00000
      8      12.0735      0.00000

 k-point   163 :      -0.4583    0.3750    0.2917
  band No.  band energies     occupation 
      1      -3.6948      2.00000
      2      -0.3131      2.00000
      3       2.2638      2.00000
      4       4.0215      2.00000
      5       8.7043      0.00000
      6       9.6046      0.00000
      7      11.6483      0.00000
      8      11.9932      0.00000

 k-point   164 :      -0.3750    0.3750    0.2917
  band No.  band energies     occupation 
      1      -3.0963      2.00000
      2      -0.7064      2.00000
      3       1.5878      2.00000
      4       3.5813      2.00000
      5       8.2292      0.00000
      6      10.8717      0.00000
      7      11.9221      0.00000
      8      12.8592      0.00000

 k-point   165 :      -0.2917    0.3750    0.2917
  band No.  band energies     occupation 
      1      -2.5753      2.00000
      2      -1.1896      2.00000
      3       1.5154      2.00000
      4       3.2293      2.00000
      5       7.8353      0.00000
      6      10.9289      0.00000
      7      11.9313      0.00000
      8      12.7654      0.00000

 k-point   166 :       0.4583    0.4583    0.2917
  band No.  band energies     occupation 
      1      -3.9102      2.00000
      2      -0.3607      2.00000
      3       3.2310      2.00000
      4       4.0292      2.00000
      5       7.9203      0.00000
      6      10.0888      0.00000
      7      10.7134      0.00000
      8      11.6482      0.00000

 k-point   167 :      -0.4583    0.4583    0.2917
  band No.  band energies     occupation 
      1      -3.4863      2.00000
      2      -0.6200      2.00000
      3       2.4854      2.00000
      4       3.6863      2.00000
      5       8.2061      0.00000
      6       9.9897      0.00000
      7      11.4437      0.00000
      8      11.9076      0.00000

 k-point   168 :      -0.3750    0.4583    0.2917
  band No.  band energies     occupation 
      1      -2.9606      2.00000
      2      -0.8842      2.00000
      3       1.8548      2.00000
      4       3.1180      2.00000
      5       9.2334      0.00000
      6       9.5466      0.00000
      7      11.4116      0.00000
      8      13.1624      0.00000

 k-point   169 :      -0.2917    0.4583    0.2917
  band No.  band energies     occupation 
      1      -2.3883      2.00000
      2      -1.3003      2.00000
      3       1.6528      2.00000
      4       2.6172      2.00000
      5       9.0791      0.00000
      6      10.6066      0.00000
      7      11.2646      0.00000
      8      11.6643      0.00000

 k-point   170 :      -0.4583   -0.4583    0.2917
  band No.  band energies     occupation 
      1      -3.1713      2.00000
      2      -0.8615      2.00000
      3       2.1007      2.00000
      4       3.7113      2.00000
      5       7.4973      0.00000
      6      11.0928      0.00000
      7      11.6324      0.00000
      8      11.7296      0.00000

 k-point   171 :      -0.3750   -0.4583    0.2917
  band No.  band energies     occupation 
      1      -2.7879      2.00000
      2      -1.0591      2.00000
      3       1.7114      2.00000
      4       3.3021      2.00000
      5       7.9006      0.00000
      6      10.9003      0.00000
      7      11.3921      0.00000
      8      13.2905      0.00000

 k-point   172 :      -0.3750   -0.3750    0.2917
  band No.  band energies     occupation 
      1      -2.6382      2.00000
      2      -1.1623      2.00000
      3       1.4673      2.00000
      4       3.5701      2.00000
      5       7.2887      0.00000
      6      10.9316      0.00000
      7      12.8065      0.00000
      8      13.1681      0.00000

 k-point   173 :       0.3750    0.3750    0.3750
  band No.  band energies     occupation 
      1      -4.4388      2.00000
      2      -0.1107      2.00000
      3       4.7694      2.00000
      4       4.7694      2.00000
      5       7.5419      0.00000
      6       9.3926      0.00000
      7       9.3926      0.00000
      8      13.7591      0.00000

 k-point   174 :       0.4583    0.3750    0.3750
  band No.  band energies     occupation 
      1      -4.1529      2.00000
      2      -0.4300      2.00000
      3       3.9715      2.00000
      4       4.7312      2.00000
      5       8.0107      0.00000
      6       9.4159      0.00000
      7       9.5028      0.00000
      8      13.7661      0.00000

 k-point   175 :      -0.4583    0.3750    0.3750
  band No.  band energies     occupation 
      1      -3.7318      2.00000
      2      -0.6311      2.00000
      3       2.8057      2.00000
      4       4.3965      2.00000
      5       8.2094      0.00000
      6      10.0043      0.00000
      7      10.2566      0.00000
      8      13.8750      0.00000

 k-point   176 :      -0.3750    0.3750    0.3750
  band No.  band energies     occupation 
      1      -3.2072      2.00000
      2      -0.8065      2.00000
      3       1.8490      2.00000
      4       3.9577      2.00000
      5       7.7498      0.00000
      6      11.4012      0.00000
      7      11.4310      0.00000
      8      12.9080      0.00000

 k-point   177 :       0.4583    0.4583    0.3750
  band No.  band energies     occupation 
      1      -3.9630      2.00000
      2      -0.7340      2.00000
      3       4.1607      2.00000
      4       4.4469      2.00000
      5       7.9589      0.00000
      6       9.1872      0.00000
      7       9.7349      0.00000
      8      13.5024      0.00000

 k-point   178 :      -0.4583    0.4583    0.3750
  band No.  band energies     occupation 
      1      -3.6539      2.00000
      2      -0.8883      2.00000
      3       3.2578      2.00000
      4       4.2274      2.00000
      5       8.4816      0.00000
      6       9.0652      0.00000
      7      10.4518      0.00000
      8      13.4251      0.00000

 k-point   179 :      -0.3750    0.4583    0.3750
  band No.  band energies     occupation 
      1      -3.2539      2.00000
      2      -0.9337      2.00000
      3       2.2965      2.00000
      4       3.7677      2.00000
      5       8.3912      0.00000
      6       9.7528      0.00000
      7      11.8039      0.00000
      8      13.0399      0.00000

 k-point   180 :      -0.4583   -0.4583    0.3750
  band No.  band energies     occupation 
      1      -3.4867      2.00000
      2      -0.9861      2.00000
      3       2.9447      2.00000
      4       4.1491      2.00000
      5       8.0003      0.00000
      6       9.9906      0.00000
      7      10.4506      0.00000
      8      13.1509      0.00000

 k-point   181 :       0.4583    0.4583    0.4583
  band No.  band energies     occupation 
      1      -3.8945      2.00000
      2      -0.9990      2.00000
      3       4.6667      2.00000
      4       4.6667      2.00000
      5       7.4269      0.00000
      6       9.2991      0.00000
      7       9.2991      0.00000
      8      13.6287      0.00000

 k-point   182 :      -0.4583    0.4583    0.4583
  band No.  band energies     occupation 
      1      -3.7291      2.00000
      2      -1.0798      2.00000
      3       4.0064      2.00000
      4       4.5363      2.00000
      5       7.9303      0.00000
      6       9.2438      0.00000
      7       9.5740      0.00000
      8      13.9240      0.00000


--------------------------------------------------------------------------------------------------------


 soft charge-density along one line, spin component           1
         0         1         2         3         4         5         6         7         8         9
 total charge-density along one line
 
 pseudopotential strength for first ion, spin component:           1
 18.419  -0.001  -0.000  -0.000  -0.000   0.000   0.000   0.000
 -0.001   0.006   0.000   0.000   0.000  -0.000  -0.000  -0.000
 -0.000   0.000   4.180  -0.000  -0.000  -0.005   0.000   0.000
 -0.000   0.000  -0.000   4.180  -0.000   0.000  -0.005   0.000
 -0.000   0.000  -0.000  -0.000   4.180   0.000   0.000  -0.005
  0.000  -0.000  -0.005   0.000   0.000   0.005  -0.000  -0.000
  0.000  -0.000   0.000  -0.005   0.000  -0.000   0.005  -0.000
  0.000  -0.000   0.000   0.000  -0.005  -0.000  -0.000   0.005
 total augmentation occupancy for first ion, spin component:           1
  1.492  -0.987  -0.000  -0.000   0.000   0.000   0.000   0.000
 -0.987   1.049   0.000   0.000  -0.000   0.000   0.000   0.000
 -0.000   0.000   1.011  -0.000   0.000  -0.925   0.000  -0.000
 -0.000   0.000  -0.000   1.011   0.000   0.000  -0.925  -0.000
  0.000  -0.000   0.000   0.000   1.011  -0.000  -0.000  -0.925
  0.000   0.000  -0.925   0.000  -0.000   0.910  -0.000   0.000
  0.000  -0.000   0.000  -0.925  -0.000  -0.000   0.910   0.000
  0.000   0.000  -0.000  -0.000  -0.925   0.000   0.000   0.910


------------------------ aborting loop because EDIFF is reached ----------------------------------------


    CHARGE:  cpu time    0.0200: real time    0.0208
    FORLOC:  cpu time    0.0000: real time    0.0003
    FORNL :  cpu time    0.0200: real time    0.0188
    STRESS:  cpu time    0.2480: real time    0.2458
    FORCOR:  cpu time    0.0080: real time    0.0082
    FORHAR:  cpu time    0.0000: real time    0.0025
    MIXING:  cpu time    0.0040: real time    0.0009
    OFIELD:  cpu time    0.0000: real time    0.0006

  FORCE on cell =-STRESS in cart. coord.  units (eV):
  Direction    XX          YY          ZZ          XY          YZ          ZX
  --------------------------------------------------------------------------------------
  Alpha Z     3.36414     3.36414     3.36414
  Ewald     -76.18788   -76.18788   -76.18788    -0.00000    -0.00000     0.00000
  Hartree     4.96065     4.96065     4.96065     0.00000     0.00000     0.00000
  E(xc)     -25.38999   -25.38999   -25.38998    -0.00017    -0.00017    -0.00017
  Local     -29.41992   -29.41992   -29.41991     0.00023     0.00023     0.00023
  n-local    78.27961    80.66718    75.81049     1.05528    -1.07289     0.01780
  augment   -11.52162   -11.52162   -11.52162    -0.00017    -0.00017    -0.00017
  Kinetic    58.05626    55.74832    55.47230     0.86649    -0.88635     0.01775
  Fock        0.00000     0.00000     0.00000     0.00000     0.00000     0.00000
  -------------------------------------------------------------------------------------
  Total       0.48346     0.48346     0.48346     0.00000    -0.00000    -0.00000
  in kB      19.35207    19.35207    19.35207     0.00000    -0.00000    -0.00000
  external pressure =       19.35 kB  Pullay stress =        0.00 kB


 VOLUME and BASIS-vectors are now :
 -----------------------------------------------------------------------------
  energy-cutoff  :      150.00
  volume of cell :       40.03
      direct lattice vectors                 reciprocal lattice vectors
     0.000000000  2.715000000  2.715000000    -0.184162063  0.184162063  0.184162063
     2.715000000  0.000000000  2.715000000     0.184162063 -0.184162063  0.184162063
     2.715000000  2.715000000  0.000000000     0.184162063  0.184162063 -0.184162063

  length of vectors
     3.839589822  3.839589822  3.839589822     0.318978049  0.318978049  0.318978049


 FORCES acting on ions
    electron-ion (+dipol)            ewald-force                    non-local-force                 convergence-correction
 -----------------------------------------------------------------------------------------------
   0.658E-05 0.658E-05 0.631E-05   -.476E-15 -.149E-14 0.391E-14   0.269E-17 0.616E-17 0.435E-17   0.683E-07 0.683E-07 0.683E-07
   -.658E-05 -.658E-05 -.631E-05   0.623E-15 0.106E-14 -.375E-14   -.139E-17 -.833E-17 -.898E-17   -.683E-07 -.683E-07 -.683E-07
 -----------------------------------------------------------------------------------------------
   -.117E-12 -.556E-13 -.326E-13   0.147E-15 -.426E-15 0.164E-15   0.130E-17 -.217E-17 -.463E-17   -.186E-14 -.206E-14 -.122E-15
 
 
 POSITION                                       TOTAL-FORCE (eV/Angst)
 -----------------------------------------------------------------------------------
      2.71500      2.71500      2.71500         0.000000      0.000000      0.000000
      4.07250      4.07250      4.07250        -0.000000     -0.000000     -0.000000
 -----------------------------------------------------------------------------------
    total drift:                               -0.000000     -0.000000     -0.000000


--------------------------------------------------------------------------------------------------------



  FREE ENERGIE OF THE ION-ELECTRON SYSTEM (eV)
  ---------------------------------------------------
  free  energy   TOTEN  =       -10.74482662 eV

  energy  without entropy=      -10.74477773  energy(sigma->0) =      -10.74480218
 


--------------------------------------------------------------------------------------------------------


    POTLOK:  cpu time    0.0240: real time    0.0397


--------------------------------------------------------------------------------------------------------




--------------------------------------------------------------------------------------------------------


  
 reached required accuracy - stopping structural energy minimisation
 writing wavefunctions
     LOOP+:  cpu time    2.5680: real time    3.8452
    4ORBIT:  cpu time    0.0000: real time    0.0000

 total amount of memory used by VASP MPI-rank0    32844. kBytes
=======================================================================

   base      :      30000. kBytes
   nonl-proj :       2055. kBytes
   fftplans  :         66. kBytes
   grid      :        158. kBytes
   one-center:          6. kBytes
   wavefun   :        559. kBytes
 
  
  
 General timing and accounting informations for this job:
 ========================================================
  
                  Total CPU time used (sec):        8.688
                            User time (sec):        7.380
                          System time (sec):        1.308
                         Elapsed time (sec):       12.695
  
                   Maximum memory used (kb):        8788.
                   Average memory used (kb):           0.
  
                          Minor page faults:        37919
                          Major page faults:           28
                 Voluntary context switches:        35951
