 vasp.5.4.4.18Apr17-6-g9f103f2a35 (build Dec 09 2018 21:25:21) complex          
  
 executed on IFC18.0.1.163_CrayMP date 2019.03.18  04:48:00
 running on    8 total cores
 distrk:  each k-point on    8 cores,    1 groups
 distr:  one band on NCORES_PER_BAND=   1 cores,    8 groups


--------------------------------------------------------------------------------------------------------


 INCAR:
 POTCAR:   PAW_PBE Si 05Jan2001                   

 ----------------------------------------------------------------------------- 
|                                                                             |
|           W    W    AA    RRRRR   N    N  II  N    N   GGGG   !!!           |
|           W    W   A  A   R    R  NN   N  II  NN   N  G    G  !!!           |
|           W    W  A    A  R    R  N N  N  II  N N  N  G       !!!           |
|           W WW W  AAAAAA  RRRRR   N  N N  II  N  N N  G  GGG   !            |
|           WW  WW  A    A  R   R   N   NN  II  N   NN  G    G                |
|           W    W  A    A  R    R  N    N  II  N    N   GGGG   !!!           |
|                                                                             |
|      For optimal performance we recommend to set                            |
|        NCORE= 4 - approx SQRT( number of cores)                             |
|      NCORE specifies how many cores store one orbital (NPAR=cpu/NCORE).     |
|      This setting can  greatly improve the performance of VASP for DFT.     |
|      The default,   NCORE=1            might be grossly inefficient         |
|      on modern multi-core architectures or massively parallel machines.     |
|      Do your own testing !!!!                                               |
|      Unfortunately you need to use the default for GW and RPA calculations. |
|      (for HF NCORE is supported but not extensively tested yet)             |
|                                                                             |
 ----------------------------------------------------------------------------- 

 POTCAR:   PAW_PBE Si 05Jan2001                   
   VRHFIN =Si: s2p2                                                             
   LEXCH  = PE                                                                  
   EATOM  =   103.0669 eV,    7.5752 Ry                                         
                                                                                
   TITEL  = PAW_PBE Si 05Jan2001                                                
   LULTRA =        F    use ultrasoft PP ?                                      
   IUNSCR =        1    unscreen: 0-lin 1-nonlin 2-no                           
   RPACOR =    1.500    partial core radius                                     
   POMASS =   28.085; ZVAL   =    4.000    mass and valenz                      
   RCORE  =    1.900    outmost cutoff radius                                   
   RWIGS  =    2.480; RWIGS  =    1.312    wigner-seitz radius (au A)           
   ENMAX  =  245.345; ENMIN  =  184.009 eV                                      
   ICORE  =        2    local potential                                         
   LCOR   =        T    correct aug charges                                     
   LPAW   =        T    paw PP                                                  
   EAUG   =  322.069                                                            
   DEXC   =    -.007                                                            
   RMAX   =    2.944    core radius for proj-oper                               
   RAUG   =    1.300    factor for augmentation sphere                          
   RDEP   =    1.993    radius for radial grids                                 
   QCUT   =   -4.246; QGAM   =    8.493    optimization parameters              
                                                                                
   Description                                                                  
     l     E      TYP  RCUT    TYP  RCUT                                        
     0   .000     23  1.900                                                     
     0   .000     23  1.900                                                     
     1   .000     23  1.900                                                     
     1   .000     23  1.900                                                     
     2   .000      7  1.900                                                     
  local pseudopotential read in
  partial core-charges read in
  atomic valenz-charges read in
  non local Contribution for L=           0  read in
    real space projection operators read in
  non local Contribution for L=           0  read in
    real space projection operators read in
  non local Contribution for L=           1  read in
    real space projection operators read in
  non local Contribution for L=           1  read in
    real space projection operators read in
    PAW grid and wavefunctions read in
 
   number of l-projection  operators is LMAX  =           4
   number of lm-projection operators is LMMAX =           8
 
 PAW_PBE Si 05Jan2001                   :
 energy of atom  1       EATOM= -103.0669
 kinetic energy error for atom=    0.0210 (will be added to EATOM!!)
 
 
 POSCAR: Si2                                     
  positions in direct lattice
  No initial velocities read in
 exchange correlation table for  LEXCH =        8
   RHO(1)=    0.500       N(1)  =     2000
   RHO(2)=  100.500       N(2)  =     4000
 


--------------------------------------------------------------------------------------------------------


 ion  position               nearest neighbor table
   1  0.500  0.500  0.500-   2 2.35   2 2.35   2 2.35   2 2.35
   2  0.750  0.750  0.750-   1 2.35   1 2.35   1 2.35   1 2.35
 
  LATTYP: Found a face centered cubic cell.
 ALAT       =     5.4300000000
  
  Lattice vectors:
  
 A1 = (   0.0000000000,   2.7150000000,   2.7150000000)
 A2 = (   2.7150000000,   0.0000000000,   2.7150000000)
 A3 = (   2.7150000000,   2.7150000000,   0.0000000000)


Analysis of symmetry for initial positions (statically):
=====================================================================
 Subroutine PRICEL returns:
 Original cell was already a primitive cell.
 

 Routine SETGRP: Setting up the symmetry group for a 
 face centered cubic supercell.


 Subroutine GETGRP returns: Found 48 space group operations
 (whereof 24 operations were pure point group operations)
 out of a pool of 48 trial point group operations.


The static configuration has the point symmetry T_d .
 The point group associated with its full space group is O_h .


Analysis of symmetry for dynamics (positions and initial velocities):
=====================================================================
 Subroutine PRICEL returns:
 Original cell was already a primitive cell.
 

 Routine SETGRP: Setting up the symmetry group for a 
 face centered cubic supercell.


 Subroutine GETGRP returns: Found 48 space group operations
 (whereof 24 operations were pure point group operations)
 out of a pool of 48 trial point group operations.


The dynamic configuration has the point symmetry T_d .
 The point group associated with its full space group is O_h .


 Subroutine INISYM returns: Found 48 space group operations
 (whereof 24 operations are pure point group operations),
 and found     1 'primitive' translations

 
 
 KPOINTS: Automatic kpoint scheme                 

Automatic generation of k-mesh.
Space group operators:
 irot       det(A)        alpha          n_x          n_y          n_z        tau_x        tau_y        tau_z
    1     1.000000     0.000001     1.000000     0.000000     0.000000     0.000000     0.000000     0.000000
    2     1.000000   120.000000    -0.577350    -0.577350    -0.577350     0.000000     0.000000     0.000000
    3     1.000000   120.000000     0.577350     0.577350     0.577350     0.000000     0.000000     0.000000
    4    -1.000000    90.000000    -0.000000    -0.000000    -1.000000     0.000000     0.000000     0.000000
    5    -1.000000   180.000000    -0.000000     0.707107     0.707107     0.000000     0.000000     0.000000
    6    -1.000000    90.000000    -0.000000     1.000000    -0.000000     0.000000     0.000000     0.000000
    7     1.000000   180.000000     0.000000     0.000000    -1.000000     0.000000     0.000000     0.000000
    8     1.000000   120.000000    -0.577350     0.577350     0.577350     0.000000     0.000000     0.000000
    9     1.000000   120.000000    -0.577350     0.577350    -0.577350     0.000000     0.000000     0.000000
   10    -1.000000    90.000000     0.000000     0.000000     1.000000     0.000000     0.000000     0.000000
   11    -1.000000    90.000000    -1.000000     0.000000    -0.000000     0.000000     0.000000     0.000000
   12    -1.000000   180.000000     0.707107     0.000000     0.707107     0.000000     0.000000     0.000000
   13     1.000000   120.000000     0.577350    -0.577350     0.577350     0.000000     0.000000     0.000000
   14     1.000000   120.000000    -0.577350    -0.577350     0.577350     0.000000     0.000000     0.000000
   15     1.000000   180.000000     1.000000     0.000000     0.000000     0.000000     0.000000     0.000000
   16    -1.000000    90.000000     0.000000    -1.000000     0.000000     0.000000     0.000000     0.000000
   17    -1.000000   180.000000     0.707107     0.707107    -0.000000     0.000000     0.000000     0.000000
   18    -1.000000    90.000000     1.000000     0.000000     0.000000     0.000000     0.000000     0.000000
   19     1.000000   120.000000     0.577350    -0.577350    -0.577350     0.000000     0.000000     0.000000
   20     1.000000   180.000000     0.000000    -1.000000     0.000000     0.000000     0.000000     0.000000
   21     1.000000   120.000000     0.577350     0.577350    -0.577350     0.000000     0.000000     0.000000
   22    -1.000000   180.000000    -0.000000    -0.707107     0.707107     0.000000     0.000000     0.000000
   23    -1.000000   180.000000     0.707107    -0.707107    -0.000000     0.000000     0.000000     0.000000
   24    -1.000000   180.000000    -0.707107     0.000000     0.707107     0.000000     0.000000     0.000000
   25    -1.000000     0.000001     1.000000     0.000000     0.000000     0.250000     0.250000     0.250000
   26    -1.000000   120.000000    -0.577350    -0.577350    -0.577350     0.250000     0.250000     0.250000
   27    -1.000000   120.000000     0.577350     0.577350     0.577350     0.250000     0.250000     0.250000
   28     1.000000    90.000000    -0.000000    -0.000000    -1.000000     0.250000     0.250000     0.250000
   29     1.000000   180.000000    -0.000000     0.707107     0.707107     0.250000     0.250000     0.250000
   30     1.000000    90.000000    -0.000000     1.000000    -0.000000     0.250000     0.250000     0.250000
   31    -1.000000   180.000000     0.000000     0.000000    -1.000000     0.250000     0.250000     0.250000
   32    -1.000000   120.000000    -0.577350     0.577350     0.577350     0.250000     0.250000     0.250000
   33    -1.000000   120.000000    -0.577350     0.577350    -0.577350     0.250000     0.250000     0.250000
   34     1.000000    90.000000     0.000000     0.000000     1.000000     0.250000     0.250000     0.250000
   35     1.000000    90.000000    -1.000000     0.000000    -0.000000     0.250000     0.250000     0.250000
   36     1.000000   180.000000     0.707107     0.000000     0.707107     0.250000     0.250000     0.250000
   37    -1.000000   120.000000     0.577350    -0.577350     0.577350     0.250000     0.250000     0.250000
   38    -1.000000   120.000000    -0.577350    -0.577350     0.577350     0.250000     0.250000     0.250000
   39    -1.000000   180.000000     1.000000     0.000000     0.000000     0.250000     0.250000     0.250000
   40     1.000000    90.000000     0.000000    -1.000000     0.000000     0.250000     0.250000     0.250000
   41     1.000000   180.000000     0.707107     0.707107    -0.000000     0.250000     0.250000     0.250000
   42     1.000000    90.000000     1.000000     0.000000     0.000000     0.250000     0.250000     0.250000
   43    -1.000000   120.000000     0.577350    -0.577350    -0.577350     0.250000     0.250000     0.250000
   44    -1.000000   180.000000     0.000000    -1.000000     0.000000     0.250000     0.250000     0.250000
   45    -1.000000   120.000000     0.577350     0.577350    -0.577350     0.250000     0.250000     0.250000
   46     1.000000   180.000000    -0.000000    -0.707107     0.707107     0.250000     0.250000     0.250000
   47     1.000000   180.000000     0.707107    -0.707107    -0.000000     0.250000     0.250000     0.250000
   48     1.000000   180.000000    -0.707107     0.000000     0.707107     0.250000     0.250000     0.250000
 
 Subroutine IBZKPT returns following result:
 ===========================================
 
 Found    182 irreducible k-points:
 
 Following reciprocal coordinates:
            Coordinates               Weight
  0.041667  0.041667  0.041667     96.000000
  0.125000  0.041667  0.041667    288.000000
  0.208333  0.041667  0.041667    288.000000
  0.291667  0.041667  0.041667    288.000000
  0.375000  0.041667  0.041667    288.000000
  0.458333  0.041667  0.041667    288.000000
 -0.458333  0.041667  0.041667    288.000000
 -0.375000  0.041667  0.041667    288.000000
 -0.291667  0.041667  0.041667    288.000000
 -0.208333  0.041667  0.041667    288.000000
 -0.125000  0.041667  0.041667    288.000000
 -0.041667  0.041667  0.041667    288.000000
  0.125000  0.125000  0.041667    288.000000
  0.208333  0.125000  0.041667    576.000000
  0.291667  0.125000  0.041667    576.000000
  0.375000  0.125000  0.041667    576.000000
  0.458333  0.125000  0.041667    576.000000
 -0.458333  0.125000  0.041667    576.000000
 -0.375000  0.125000  0.041667    576.000000
 -0.291667  0.125000  0.041667    576.000000
 -0.208333  0.125000  0.041667    576.000000
 -0.125000  0.125000  0.041667    576.000000
 -0.041667  0.125000  0.041667    576.000000
  0.208333  0.208333  0.041667    288.000000
  0.291667  0.208333  0.041667    576.000000
  0.375000  0.208333  0.041667    576.000000
  0.458333  0.208333  0.041667    576.000000
 -0.458333  0.208333  0.041667    576.000000
 -0.375000  0.208333  0.041667    576.000000
 -0.291667  0.208333  0.041667    576.000000
 -0.208333  0.208333  0.041667    576.000000
 -0.125000  0.208333  0.041667    576.000000
 -0.041667  0.208333  0.041667    576.000000
  0.291667  0.291667  0.041667    288.000000
  0.375000  0.291667  0.041667    576.000000
  0.458333  0.291667  0.041667    576.000000
 -0.458333  0.291667  0.041667    576.000000
 -0.375000  0.291667  0.041667    576.000000
 -0.291667  0.291667  0.041667    576.000000
 -0.208333  0.291667  0.041667    576.000000
 -0.125000  0.291667  0.041667    576.000000
 -0.041667  0.291667  0.041667    576.000000
  0.375000  0.375000  0.041667    288.000000
  0.458333  0.375000  0.041667    576.000000
 -0.458333  0.375000  0.041667    576.000000
 -0.375000  0.375000  0.041667    576.000000
 -0.291667  0.375000  0.041667    576.000000
 -0.208333  0.375000  0.041667    576.000000
 -0.125000  0.375000  0.041667    576.000000
 -0.041667  0.375000  0.041667    576.000000
  0.458333  0.458333  0.041667    288.000000
 -0.458333  0.458333  0.041667    576.000000
 -0.375000  0.458333  0.041667    576.000000
 -0.291667  0.458333  0.041667    576.000000
 -0.208333  0.458333  0.041667    576.000000
 -0.125000  0.458333  0.041667    576.000000
 -0.041667  0.458333  0.041667    576.000000
 -0.458333 -0.458333  0.041667    288.000000
 -0.375000 -0.458333  0.041667    576.000000
 -0.291667 -0.458333  0.041667    576.000000
 -0.208333 -0.458333  0.041667    576.000000
 -0.125000 -0.458333  0.041667    576.000000
 -0.375000 -0.375000  0.041667    288.000000
 -0.291667 -0.375000  0.041667    576.000000
 -0.208333 -0.375000  0.041667    576.000000
 -0.125000 -0.375000  0.041667    576.000000
 -0.291667 -0.291667  0.041667    288.000000
 -0.208333 -0.291667  0.041667    576.000000
 -0.125000 -0.291667  0.041667    576.000000
 -0.208333 -0.208333  0.041667    288.000000
 -0.125000 -0.208333  0.041667    576.000000
 -0.125000 -0.125000  0.041667    288.000000
  0.125000  0.125000  0.125000     96.000000
  0.208333  0.125000  0.125000    288.000000
  0.291667  0.125000  0.125000    288.000000
  0.375000  0.125000  0.125000    288.000000
  0.458333  0.125000  0.125000    288.000000
 -0.458333  0.125000  0.125000    288.000000
 -0.375000  0.125000  0.125000    288.000000
 -0.291667  0.125000  0.125000    288.000000
 -0.208333  0.125000  0.125000    288.000000
 -0.125000  0.125000  0.125000    288.000000
  0.208333  0.208333  0.125000    288.000000
  0.291667  0.208333  0.125000    576.000000
  0.375000  0.208333  0.125000    576.000000
  0.458333  0.208333  0.125000    576.000000
 -0.458333  0.208333  0.125000    576.000000
 -0.375000  0.208333  0.125000    576.000000
 -0.291667  0.208333  0.125000    576.000000
 -0.208333  0.208333  0.125000    576.000000
 -0.125000  0.208333  0.125000    576.000000
  0.291667  0.291667  0.125000    288.000000
  0.375000  0.291667  0.125000    576.000000
  0.458333  0.291667  0.125000    576.000000
 -0.458333  0.291667  0.125000    576.000000
 -0.375000  0.291667  0.125000    576.000000
 -0.291667  0.291667  0.125000    576.000000
 -0.208333  0.291667  0.125000    576.000000
 -0.125000  0.291667  0.125000    576.000000
  0.375000  0.375000  0.125000    288.000000
  0.458333  0.375000  0.125000    576.000000
 -0.458333  0.375000  0.125000    576.000000
 -0.375000  0.375000  0.125000    576.000000
 -0.291667  0.375000  0.125000    576.000000
 -0.208333  0.375000  0.125000    576.000000
 -0.125000  0.375000  0.125000    576.000000
  0.458333  0.458333  0.125000    288.000000
 -0.458333  0.458333  0.125000    576.000000
 -0.375000  0.458333  0.125000    576.000000
 -0.291667  0.458333  0.125000    576.000000
 -0.208333  0.458333  0.125000    576.000000
 -0.125000  0.458333  0.125000    576.000000
 -0.458333 -0.458333  0.125000    288.000000
 -0.375000 -0.458333  0.125000    576.000000
 -0.291667 -0.458333  0.125000    576.000000
 -0.208333 -0.458333  0.125000    576.000000
 -0.375000 -0.375000  0.125000    288.000000
 -0.291667 -0.375000  0.125000    576.000000
 -0.208333 -0.375000  0.125000    576.000000
 -0.291667 -0.291667  0.125000    288.000000
 -0.208333 -0.291667  0.125000    576.000000
 -0.208333 -0.208333  0.125000    288.000000
  0.208333  0.208333  0.208333     96.000000
  0.291667  0.208333  0.208333    288.000000
  0.375000  0.208333  0.208333    288.000000
  0.458333  0.208333  0.208333    288.000000
 -0.458333  0.208333  0.208333    288.000000
 -0.375000  0.208333  0.208333    288.000000
 -0.291667  0.208333  0.208333    288.000000
 -0.208333  0.208333  0.208333    288.000000
  0.291667  0.291667  0.208333    288.000000
  0.375000  0.291667  0.208333    576.000000
  0.458333  0.291667  0.208333    576.000000
 -0.458333  0.291667  0.208333    576.000000
 -0.375000  0.291667  0.208333    576.000000
 -0.291667  0.291667  0.208333    576.000000
 -0.208333  0.291667  0.208333    576.000000
  0.375000  0.375000  0.208333    288.000000
  0.458333  0.375000  0.208333    576.000000
 -0.458333  0.375000  0.208333    576.000000
 -0.375000  0.375000  0.208333    576.000000
 -0.291667  0.375000  0.208333    576.000000
 -0.208333  0.375000  0.208333    576.000000
  0.458333  0.458333  0.208333    288.000000
 -0.458333  0.458333  0.208333    576.000000
 -0.375000  0.458333  0.208333    576.000000
 -0.291667  0.458333  0.208333    576.000000
 -0.208333  0.458333  0.208333    576.000000
 -0.458333 -0.458333  0.208333    288.000000
 -0.375000 -0.458333  0.208333    576.000000
 -0.291667 -0.458333  0.208333    576.000000
 -0.375000 -0.375000  0.208333    288.000000
 -0.291667 -0.375000  0.208333    576.000000
 -0.291667 -0.291667  0.208333    288.000000
  0.291667  0.291667  0.291667     96.000000
  0.375000  0.291667  0.291667    288.000000
  0.458333  0.291667  0.291667    288.000000
 -0.458333  0.291667  0.291667    288.000000
 -0.375000  0.291667  0.291667    288.000000
 -0.291667  0.291667  0.291667    288.000000
  0.375000  0.375000  0.291667    288.000000
  0.458333  0.375000  0.291667    576.000000
 -0.458333  0.375000  0.291667    576.000000
 -0.375000  0.375000  0.291667    576.000000
 -0.291667  0.375000  0.291667    576.000000
  0.458333  0.458333  0.291667    288.000000
 -0.458333  0.458333  0.291667    576.000000
 -0.375000  0.458333  0.291667    576.000000
 -0.291667  0.458333  0.291667    576.000000
 -0.458333 -0.458333  0.291667    288.000000
 -0.375000 -0.458333  0.291667    576.000000
 -0.375000 -0.375000  0.291667    288.000000
  0.375000  0.375000  0.375000     96.000000
  0.458333  0.375000  0.375000    288.000000
 -0.458333  0.375000  0.375000    288.000000
 -0.375000  0.375000  0.375000    288.000000
  0.458333  0.458333  0.375000    288.000000
 -0.458333  0.458333  0.375000    576.000000
 -0.375000  0.458333  0.375000    576.000000
 -0.458333 -0.458333  0.375000    288.000000
  0.458333  0.458333  0.458333     96.000000
 -0.458333  0.458333  0.458333    288.000000
 
 Following cartesian coordinates:
            Coordinates               Weight
  0.007673  0.007673  0.007673     96.000000
 -0.007673  0.023020  0.023020    288.000000
 -0.023020  0.038367  0.038367    288.000000
 -0.038367  0.053714  0.053714    288.000000
 -0.053714  0.069061  0.069061    288.000000
 -0.069061  0.084408  0.084408    288.000000
  0.099754 -0.084408 -0.084408    288.000000
  0.084408 -0.069061 -0.069061    288.000000
  0.069061 -0.053714 -0.053714    288.000000
  0.053714 -0.038367 -0.038367    288.000000
  0.038367 -0.023020 -0.023020    288.000000
  0.023020 -0.007673 -0.007673    288.000000
  0.007673  0.007673  0.038367    288.000000
 -0.007673  0.023020  0.053714    576.000000
 -0.023020  0.038367  0.069061    576.000000
 -0.038367  0.053714  0.084408    576.000000
 -0.053714  0.069061  0.099754    576.000000
  0.115101 -0.099754 -0.069061    576.000000
  0.099754 -0.084408 -0.053714    576.000000
  0.084408 -0.069061 -0.038367    576.000000
  0.069061 -0.053714 -0.023020    576.000000
  0.053714 -0.038367 -0.007673    576.000000
  0.038367 -0.023020  0.007673    576.000000
  0.007673  0.007673  0.069061    288.000000
 -0.007673  0.023020  0.084408    576.000000
 -0.023020  0.038367  0.099754    576.000000
 -0.038367  0.053714  0.115101    576.000000
  0.130448 -0.115101 -0.053714    576.000000
  0.115101 -0.099754 -0.038367    576.000000
  0.099754 -0.084408 -0.023020    576.000000
  0.084408 -0.069061 -0.007673    576.000000
  0.069061 -0.053714  0.007673    576.000000
  0.053714 -0.038367  0.023020    576.000000
  0.007673  0.007673  0.099754    288.000000
 -0.007673  0.023020  0.115101    576.000000
 -0.023020  0.038367  0.130448    576.000000
  0.145795 -0.130448 -0.038367    576.000000
  0.130448 -0.115101 -0.023020    576.000000
  0.115101 -0.099754 -0.007673    576.000000
  0.099754 -0.084408  0.007673    576.000000
  0.084408 -0.069061  0.023020    576.000000
  0.069061 -0.053714  0.038367    576.000000
  0.007673  0.007673  0.130448    288.000000
 -0.007673  0.023020  0.145795    576.000000
  0.161142 -0.145795 -0.023020    576.000000
  0.145795 -0.130448 -0.007673    576.000000
  0.130448 -0.115101  0.007673    576.000000
  0.115101 -0.099754  0.023020    576.000000
  0.099754 -0.084408  0.038367    576.000000
  0.084408 -0.069061  0.053714    576.000000
  0.007673  0.007673  0.161142    288.000000
  0.176489 -0.161142 -0.007673    576.000000
  0.161142 -0.145795  0.007673    576.000000
  0.145795 -0.130448  0.023020    576.000000
  0.130448 -0.115101  0.038367    576.000000
  0.115101 -0.099754  0.053714    576.000000
  0.099754 -0.084408  0.069061    576.000000
  0.007673  0.007673 -0.176489    288.000000
 -0.007673  0.023020 -0.161142    576.000000
 -0.023020  0.038367 -0.145795    576.000000
 -0.038367  0.053714 -0.130448    576.000000
 -0.053714  0.069061 -0.115101    576.000000
  0.007673  0.007673 -0.145795    288.000000
 -0.007673  0.023020 -0.130448    576.000000
 -0.023020  0.038367 -0.115101    576.000000
 -0.038367  0.053714 -0.099754    576.000000
  0.007673  0.007673 -0.115101    288.000000
 -0.007673  0.023020 -0.099754    576.000000
 -0.023020  0.038367 -0.084408    576.000000
  0.007673  0.007673 -0.084408    288.000000
 -0.007673  0.023020 -0.069061    576.000000
  0.007673  0.007673 -0.053714    288.000000
  0.023020  0.023020  0.023020     96.000000
  0.007673  0.038367  0.038367    288.000000
 -0.007673  0.053714  0.053714    288.000000
 -0.023020  0.069061  0.069061    288.000000
 -0.038367  0.084408  0.084408    288.000000
  0.130448 -0.084408 -0.084408    288.000000
  0.115101 -0.069061 -0.069061    288.000000
  0.099754 -0.053714 -0.053714    288.000000
  0.084408 -0.038367 -0.038367    288.000000
  0.069061 -0.023020 -0.023020    288.000000
  0.023020  0.023020  0.053714    288.000000
  0.007673  0.038367  0.069061    576.000000
 -0.007673  0.053714  0.084408    576.000000
 -0.023020  0.069061  0.099754    576.000000
  0.145795 -0.099754 -0.069061    576.000000
  0.130448 -0.084408 -0.053714    576.000000
  0.115101 -0.069061 -0.038367    576.000000
  0.099754 -0.053714 -0.023020    576.000000
  0.084408 -0.038367 -0.007673    576.000000
  0.023020  0.023020  0.084408    288.000000
  0.007673  0.038367  0.099754    576.000000
 -0.007673  0.053714  0.115101    576.000000
  0.161142 -0.115101 -0.053714    576.000000
  0.145795 -0.099754 -0.038367    576.000000
  0.130448 -0.084408 -0.023020    576.000000
  0.115101 -0.069061 -0.007673    576.000000
  0.099754 -0.053714  0.007673    576.000000
  0.023020  0.023020  0.115101    288.000000
  0.007673  0.038367  0.130448    576.000000
  0.176489 -0.130448 -0.038367    576.000000
  0.161142 -0.115101 -0.023020    576.000000
  0.145795 -0.099754 -0.007673    576.000000
  0.130448 -0.084408  0.007673    576.000000
  0.115101 -0.069061  0.023020    576.000000
  0.023020  0.023020  0.145795    288.000000
  0.191835 -0.145795 -0.023020    576.000000
  0.176489 -0.130448 -0.007673    576.000000
  0.161142 -0.115101  0.007673    576.000000
  0.145795 -0.099754  0.023020    576.000000
  0.130448 -0.084408  0.038367    576.000000
  0.023020  0.023020 -0.191835    288.000000
  0.007673  0.038367 -0.176489    576.000000
 -0.007673  0.053714 -0.161142    576.000000
 -0.023020  0.069061 -0.145795    576.000000
  0.023020  0.023020 -0.161142    288.000000
  0.007673  0.038367 -0.145795    576.000000
 -0.007673  0.053714 -0.130448    576.000000
  0.023020  0.023020 -0.130448    288.000000
  0.007673  0.038367 -0.115101    576.000000
  0.023020  0.023020 -0.099754    288.000000
  0.038367  0.038367  0.038367     96.000000
  0.023020  0.053714  0.053714    288.000000
  0.007673  0.069061  0.069061    288.000000
 -0.007673  0.084408  0.084408    288.000000
  0.161142 -0.084408 -0.084408    288.000000
  0.145795 -0.069061 -0.069061    288.000000
  0.130448 -0.053714 -0.053714    288.000000
  0.115101 -0.038367 -0.038367    288.000000
  0.038367  0.038367  0.069061    288.000000
  0.023020  0.053714  0.084408    576.000000
  0.007673  0.069061  0.099754    576.000000
  0.176489 -0.099754 -0.069061    576.000000
  0.161142 -0.084408 -0.053714    576.000000
  0.145795 -0.069061 -0.038367    576.000000
  0.130448 -0.053714 -0.023020    576.000000
  0.038367  0.038367  0.099754    288.000000
  0.023020  0.053714  0.115101    576.000000
  0.191835 -0.115101 -0.053714    576.000000
  0.176489 -0.099754 -0.038367    576.000000
  0.161142 -0.084408 -0.023020    576.000000
  0.145795 -0.069061 -0.007673    576.000000
  0.038367  0.038367  0.130448    288.000000
  0.207182 -0.130448 -0.038367    576.000000
  0.191835 -0.115101 -0.023020    576.000000
  0.176489 -0.099754 -0.007673    576.000000
  0.161142 -0.084408  0.007673    576.000000
  0.038367  0.038367 -0.207182    288.000000
  0.023020  0.053714 -0.191835    576.000000
  0.007673  0.069061 -0.176489    576.000000
  0.038367  0.038367 -0.176489    288.000000
  0.023020  0.053714 -0.161142    576.000000
  0.038367  0.038367 -0.145795    288.000000
  0.053714  0.053714  0.053714     96.000000
  0.038367  0.069061  0.069061    288.000000
  0.023020  0.084408  0.084408    288.000000
  0.191835 -0.084408 -0.084408    288.000000
  0.176489 -0.069061 -0.069061    288.000000
  0.161142 -0.053714 -0.053714    288.000000
  0.053714  0.053714  0.084408    288.000000
  0.038367  0.069061  0.099754    576.000000
  0.207182 -0.099754 -0.069061    576.000000
  0.191835 -0.084408 -0.053714    576.000000
  0.176489 -0.069061 -0.038367    576.000000
  0.053714  0.053714  0.115101    288.000000
  0.222529 -0.115101 -0.053714    576.000000
  0.207182 -0.099754 -0.038367    576.000000
  0.191835 -0.084408 -0.023020    576.000000
  0.053714  0.053714 -0.222529    288.000000
  0.038367  0.069061 -0.207182    576.000000
  0.053714  0.053714 -0.191835    288.000000
  0.069061  0.069061  0.069061     96.000000
  0.053714  0.084408  0.084408    288.000000
  0.222529 -0.084408 -0.084408    288.000000
  0.207182 -0.069061 -0.069061    288.000000
  0.069061  0.069061  0.099754    288.000000
  0.237876 -0.099754 -0.069061    576.000000
  0.222529 -0.084408 -0.053714    576.000000
  0.069061  0.069061 -0.237876    288.000000
  0.084408  0.084408  0.084408     96.000000
  0.253223 -0.084408 -0.084408    288.000000
 


--------------------------------------------------------------------------------------------------------




 Dimension of arrays:
   k-points           NKPTS =    182   k-points in BZ     NKDIM =    182   number of bands    NBANDS=      8
   number of dos      NEDOS =    301   number of ions     NIONS =      2
   non local maximal  LDIM  =      4   non local SUM 2l+1 LMDIM =      8
   total plane-waves  NPLWV =   1728
   max r-space proj   IRMAX =      1   max aug-charges    IRDMAX=   1643
   dimension x,y,z NGX =    12 NGY =   12 NGZ =   12
   dimension x,y,z NGXF=    24 NGYF=   24 NGZF=   24
   support grid    NGXF=    24 NGYF=   24 NGZF=   24
   ions per type =               2
   NGX,Y,Z   is equivalent  to a cutoff of   5.20,  5.20,  5.20 a.u.
   NGXF,Y,Z  is equivalent  to a cutoff of  10.39, 10.39, 10.39 a.u.

 SYSTEM =  unknown system                          
 POSCAR =  Si2                                     

 Startparameter for this run:
   NWRITE =      2    write-flag & timer
   PREC   = normal    normal or accurate (medium, high low for compatibility)
   ISTART =      0    job   : 0-new  1-cont  2-samecut
   ICHARG =      2    charge: 1-file 2-atom 10-const
   ISPIN  =      1    spin polarized calculation?
   LNONCOLLINEAR =      F non collinear calculations
   LSORBIT =      F    spin-orbit coupling
   INIWAV =      1    electr: 0-lowe 1-rand  2-diag
   LASPH  =      F    aspherical Exc in radial PAW
   METAGGA=      F    non-selfconsistent MetaGGA calc.

 Electronic Relaxation 1
   ENCUT  =  150.0 eV  11.02 Ry    3.32 a.u.   3.83  3.83  3.83*2*pi/ulx,y,z
   ENINI  =  150.0     initial cutoff
   ENAUG  =  322.1 eV  augmentation charge cutoff
   NELM   =     60;   NELMIN=  2; NELMDL= -5     # of ELM steps 
   EDIFF  = 0.4E-03   stopping-criterion for ELM
   LREAL  =      F    real-space projection
   NLSPLINE    = F    spline interpolate recip. space projectors
   LCOMPAT=      F    compatible to vasp.4.4
   GGA_COMPAT  = T    GGA compatible to vasp.4.4-vasp.4.6
   LMAXPAW     = -100 max onsite density
   LMAXMIX     =    2 max onsite mixed and CHGCAR
   VOSKOWN=      0    Vosko Wilk Nusair interpolation
   ROPT   =    0.00000
 Ionic relaxation
   EDIFFG = -.1E-01   stopping-criterion for IOM
   NSW    =     15    number of steps for IOM
   NBLOCK =      1;   KBLOCK =     15    inner block; outer block 
   IBRION =      2    ionic relax: 0-MD 1-quasi-New 2-CG
   NFREE  =      1    steps in history (QN), initial steepest desc. (CG)
   ISIF   =      2    stress and relaxation
   IWAVPR =     11    prediction:  0-non 1-charg 2-wave 3-comb
   ISYM   =      2    0-nonsym 1-usesym 2-fastsym
   LCORR  =      T    Harris-Foulkes like correction to forces

   POTIM  = 0.5000    time-step for ionic-motion
   TEIN   =    0.0    initial temperature
   TEBEG  =    0.0;   TEEND  =   0.0 temperature during run
   SMASS  =  -3.00    Nose mass-parameter (am)
   estimated Nose-frequenzy (Omega)   =  0.10E-29 period in steps =****** mass=  -0.337E-27a.u.
   SCALEE = 1.0000    scale energy and forces
   NPACO  =    256;   APACO  = 16.0  distance and # of slots for P.C.
   PSTRESS=    0.0 pullay stress

  Mass of Ions in am
   POMASS =  28.09
  Ionic Valenz
   ZVAL   =   4.00
  Atomic Wigner-Seitz radii
   RWIGS  =  -1.00
  virtual crystal weights 
   VCA    =   1.00
   NELECT =       8.0000    total number of electrons
   NUPDOWN=      -1.0000    fix difference up-down

 DOS related values:
   EMIN   =  10.00;   EMAX   =-10.00  energy-range for DOS
   EFERMI =   0.00
   ISMEAR =     0;   SIGMA  =   0.20  broadening in eV -4-tet -1-fermi 0-gaus

 Electronic relaxation 2 (details)
   IALGO  =     38    algorithm
   LDIAG  =      T    sub-space diagonalisation (order eigenvalues)
   LSUBROT=      F    optimize rotation matrix (better conditioning)
   TURBO    =      0    0=normal 1=particle mesh
   IRESTART =      0    0=no restart 2=restart with 2 vectors
   NREBOOT  =      0    no. of reboots
   NMIN     =      0    reboot dimension
   EREF     =   0.00    reference energy to select bands
   IMIX   =      4    mixing-type and parameters
     AMIX     =   0.40;   BMIX     =  1.00
     AMIX_MAG =   1.60;   BMIX_MAG =  1.00
     AMIN     =   0.10
     WC   =   100.;   INIMIX=   1;  MIXPRE=   1;  MAXMIX= -45

 Intra band minimization:
   WEIMIN = 0.0010     energy-eigenvalue tresh-hold
   EBREAK =  0.13E-04  absolut break condition
   DEPER  =   0.30     relativ break condition  

   TIME   =   0.40     timestep for ELM

  volume/ion in A,a.u.               =      20.01       135.05
  Fermi-wavevector in a.u.,A,eV,Ry     =   0.957176  1.808800 12.465458  0.916185
  Thomas-Fermi vector in A             =   2.086170
 
 Write flags
   LWAVE        =      T    write WAVECAR
   LDOWNSAMPLE  =      F    k-point downsampling of WAVECAR
   LCHARG       =      T    write CHGCAR
   LVTOT        =      F    write LOCPOT, total local potential
   LVHAR        =      F    write LOCPOT, Hartree potential only
   LELF         =      F    write electronic localiz. function (ELF)
   LORBIT       =      0    0 simple, 1 ext, 2 COOP (PROOUT), +10 PAW based schemes


 Dipole corrections
   LMONO  =      F    monopole corrections only (constant potential shift)
   LDIPOL =      F    correct potential (dipole corrections)
   IDIPOL =      0    1-x, 2-y, 3-z, 4-all directions 
   EPSILON=  1.0000000 bulk dielectric constant

 Exchange correlation treatment:
   GGA     =    --    GGA type
   LEXCH   =     8    internal setting for exchange type
   VOSKOWN=      0    Vosko Wilk Nusair interpolation
   LHFCALC =     F    Hartree Fock is set to
   LHFONE  =     F    Hartree Fock one center treatment
   AEXX    =    0.0000 exact exchange contribution

 Linear response parameters
   LEPSILON=     F    determine dielectric tensor
   LRPA    =     F    only Hartree local field effects (RPA)
   LNABLA  =     F    use nabla operator in PAW spheres
   LVEL    =     F    velocity operator in full k-point grid
   LINTERFAST=   F  fast interpolation
   KINTER  =     0    interpolate to denser k-point grid
   CSHIFT  =0.1000    complex shift for real part using Kramers Kronig
   OMEGAMAX=  -1.0    maximum frequency
   DEG_THRESHOLD= 0.2000000E-02 threshold for treating states as degnerate
   RTIME   =   -0.100 relaxation time in fs
  (WPLASMAI=    0.000 imaginary part of plasma frequency in eV, 0.658/RTIME)
   DFIELD  = 0.0000000 0.0000000 0.0000000 field for delta impulse in time
 
 Orbital magnetization related:
   ORBITALMAG=     F  switch on orbital magnetization
   LCHIMAG   =     F  perturbation theory with respect to B field
   DQ        =  0.001000  dq finite difference perturbation B field
   LLRAUG    =     F  two centre corrections for induced B field



--------------------------------------------------------------------------------------------------------


 conjugate gradient relaxation of ions
 charge density and potential will be updated during run
 non-spin polarized calculation
 Variant of blocked Davidson
 Davidson routine will perform the subspace rotation
 perform sub-space diagonalisation
    after iterative eigenvector-optimisation
 modified Broyden-mixing scheme, WC =      100.0
 initial mixing is a Kerker type mixing with AMIX =  0.4000 and BMIX =      1.0000
 Hartree-type preconditioning will be used
 using additional bands            4
 reciprocal scheme for non local part
 use partial core corrections
 calculate Harris-corrections to forces 
   (improved forces if not selfconsistent)
 use gradient corrections 
 use of overlap-Matrix (Vanderbilt PP)
 Gauss-broadening in eV      SIGMA  =   0.20


--------------------------------------------------------------------------------------------------------


  energy-cutoff  :      150.00
  volume of cell :       40.03
      direct lattice vectors                 reciprocal lattice vectors
     0.000000000  2.715000000  2.715000000    -0.184162063  0.184162063  0.184162063
     2.715000000  0.000000000  2.715000000     0.184162063 -0.184162063  0.184162063
     2.715000000  2.715000000  0.000000000     0.184162063  0.184162063 -0.184162063

  length of vectors
     3.839589822  3.839589822  3.839589822     0.318978049  0.318978049  0.318978049


 
 k-points in units of 2pi/SCALE and weight: Automatic kpoint scheme                 
   0.00767342  0.00767342  0.00767342       0.001
  -0.00767342  0.02302026  0.02302026       0.003
  -0.02302026  0.03836710  0.03836710       0.003
  -0.03836710  0.05371393  0.05371393       0.003
  -0.05371393  0.06906077  0.06906077       0.003
  -0.06906077  0.08440761  0.08440761       0.003
   0.09975445 -0.08440761 -0.08440761       0.003
   0.08440761 -0.06906077 -0.06906077       0.003
   0.06906077 -0.05371393 -0.05371393       0.003
   0.05371393 -0.03836710 -0.03836710       0.003
   0.03836710 -0.02302026 -0.02302026       0.003
   0.02302026 -0.00767342 -0.00767342       0.003
   0.00767342  0.00767342  0.03836710       0.003
  -0.00767342  0.02302026  0.05371393       0.007
  -0.02302026  0.03836710  0.06906077       0.007
  -0.03836710  0.05371393  0.08440761       0.007
  -0.05371393  0.06906077  0.09975445       0.007
   0.11510129 -0.09975445 -0.06906077       0.007
   0.09975445 -0.08440761 -0.05371393       0.007
   0.08440761 -0.06906077 -0.03836710       0.007
   0.06906077 -0.05371393 -0.02302026       0.007
   0.05371393 -0.03836710 -0.00767342       0.007
   0.03836710 -0.02302026  0.00767342       0.007
   0.00767342  0.00767342  0.06906077       0.003
  -0.00767342  0.02302026  0.08440761       0.007
  -0.02302026  0.03836710  0.09975445       0.007
  -0.03836710  0.05371393  0.11510129       0.007
   0.13044813 -0.11510129 -0.05371393       0.007
   0.11510129 -0.09975445 -0.03836710       0.007
   0.09975445 -0.08440761 -0.02302026       0.007
   0.08440761 -0.06906077 -0.00767342       0.007
   0.06906077 -0.05371393  0.00767342       0.007
   0.05371393 -0.03836710  0.02302026       0.007
   0.00767342  0.00767342  0.09975445       0.003
  -0.00767342  0.02302026  0.11510129       0.007
  -0.02302026  0.03836710  0.13044813       0.007
   0.14579497 -0.13044813 -0.03836710       0.007
   0.13044813 -0.11510129 -0.02302026       0.007
   0.11510129 -0.09975445 -0.00767342       0.007
   0.09975445 -0.08440761  0.00767342       0.007
   0.08440761 -0.06906077  0.02302026       0.007
   0.06906077 -0.05371393  0.03836710       0.007
   0.00767342  0.00767342  0.13044813       0.003
  -0.00767342  0.02302026  0.14579497       0.007
   0.16114180 -0.14579497 -0.02302026       0.007
   0.14579497 -0.13044813 -0.00767342       0.007
   0.13044813 -0.11510129  0.00767342       0.007
   0.11510129 -0.09975445  0.02302026       0.007
   0.09975445 -0.08440761  0.03836710       0.007
   0.08440761 -0.06906077  0.05371393       0.007
   0.00767342  0.00767342  0.16114180       0.003
   0.17648864 -0.16114180 -0.00767342       0.007
   0.16114180 -0.14579497  0.00767342       0.007
   0.14579497 -0.13044813  0.02302026       0.007
   0.13044813 -0.11510129  0.03836710       0.007
   0.11510129 -0.09975445  0.05371393       0.007
   0.09975445 -0.08440761  0.06906077       0.007
   0.00767342  0.00767342 -0.17648864       0.003
  -0.00767342  0.02302026 -0.16114180       0.007
  -0.02302026  0.03836710 -0.14579497       0.007
  -0.03836710  0.05371393 -0.13044813       0.007
  -0.05371393  0.06906077 -0.11510129       0.007
   0.00767342  0.00767342 -0.14579497       0.003
  -0.00767342  0.02302026 -0.13044813       0.007
  -0.02302026  0.03836710 -0.11510129       0.007
  -0.03836710  0.05371393 -0.09975445       0.007
   0.00767342  0.00767342 -0.11510129       0.003
  -0.00767342  0.02302026 -0.09975445       0.007
  -0.02302026  0.03836710 -0.08440761       0.007
   0.00767342  0.00767342 -0.08440761       0.003
  -0.00767342  0.02302026 -0.06906077       0.007
   0.00767342  0.00767342 -0.05371393       0.003
   0.02302026  0.02302026  0.02302026       0.001
   0.00767342  0.03836710  0.03836710       0.003
  -0.00767342  0.05371393  0.05371393       0.003
  -0.02302026  0.06906077  0.06906077       0.003
  -0.03836710  0.08440761  0.08440761       0.003
   0.13044813 -0.08440761 -0.08440761       0.003
   0.11510129 -0.06906077 -0.06906077       0.003
   0.09975445 -0.05371393 -0.05371393       0.003
   0.08440761 -0.03836710 -0.03836710       0.003
   0.06906077 -0.02302026 -0.02302026       0.003
   0.02302026  0.02302026  0.05371393       0.003
   0.00767342  0.03836710  0.06906077       0.007
  -0.00767342  0.05371393  0.08440761       0.007
  -0.02302026  0.06906077  0.09975445       0.007
   0.14579497 -0.09975445 -0.06906077       0.007
   0.13044813 -0.08440761 -0.05371393       0.007
   0.11510129 -0.06906077 -0.03836710       0.007
   0.09975445 -0.05371393 -0.02302026       0.007
   0.08440761 -0.03836710 -0.00767342       0.007
   0.02302026  0.02302026  0.08440761       0.003
   0.00767342  0.03836710  0.09975445       0.007
  -0.00767342  0.05371393  0.11510129       0.007
   0.16114180 -0.11510129 -0.05371393       0.007
   0.14579497 -0.09975445 -0.03836710       0.007
   0.13044813 -0.08440761 -0.02302026       0.007
   0.11510129 -0.06906077 -0.00767342       0.007
   0.09975445 -0.05371393  0.00767342       0.007
   0.02302026  0.02302026  0.11510129       0.003
   0.00767342  0.03836710  0.13044813       0.007
   0.17648864 -0.13044813 -0.03836710       0.007
   0.16114180 -0.11510129 -0.02302026       0.007
   0.14579497 -0.09975445 -0.00767342       0.007
   0.13044813 -0.08440761  0.00767342       0.007
   0.11510129 -0.06906077  0.02302026       0.007
   0.02302026  0.02302026  0.14579497       0.003
   0.19183548 -0.14579497 -0.02302026       0.007
   0.17648864 -0.13044813 -0.00767342       0.007
   0.16114180 -0.11510129  0.00767342       0.007
   0.14579497 -0.09975445  0.02302026       0.007
   0.13044813 -0.08440761  0.03836710       0.007
   0.02302026  0.02302026 -0.19183548       0.003
   0.00767342  0.03836710 -0.17648864       0.007
  -0.00767342  0.05371393 -0.16114180       0.007
  -0.02302026  0.06906077 -0.14579497       0.007
   0.02302026  0.02302026 -0.16114180       0.003
   0.00767342  0.03836710 -0.14579497       0.007
  -0.00767342  0.05371393 -0.13044813       0.007
   0.02302026  0.02302026 -0.13044813       0.003
   0.00767342  0.03836710 -0.11510129       0.007
   0.02302026  0.02302026 -0.09975445       0.003
   0.03836710  0.03836710  0.03836710       0.001
   0.02302026  0.05371393  0.05371393       0.003
   0.00767342  0.06906077  0.06906077       0.003
  -0.00767342  0.08440761  0.08440761       0.003
   0.16114180 -0.08440761 -0.08440761       0.003
   0.14579497 -0.06906077 -0.06906077       0.003
   0.13044813 -0.05371393 -0.05371393       0.003
   0.11510129 -0.03836710 -0.03836710       0.003
   0.03836710  0.03836710  0.06906077       0.003
   0.02302026  0.05371393  0.08440761       0.007
   0.00767342  0.06906077  0.09975445       0.007
   0.17648864 -0.09975445 -0.06906077       0.007
   0.16114180 -0.08440761 -0.05371393       0.007
   0.14579497 -0.06906077 -0.03836710       0.007
   0.13044813 -0.05371393 -0.02302026       0.007
   0.03836710  0.03836710  0.09975445       0.003
   0.02302026  0.05371393  0.11510129       0.007
   0.19183548 -0.11510129 -0.05371393       0.007
   0.17648864 -0.09975445 -0.03836710       0.007
   0.16114180 -0.08440761 -0.02302026       0.007
   0.14579497 -0.06906077 -0.00767342       0.007
   0.03836710  0.03836710  0.13044813       0.003
   0.20718232 -0.13044813 -0.03836710       0.007
   0.19183548 -0.11510129 -0.02302026       0.007
   0.17648864 -0.09975445 -0.00767342       0.007
   0.16114180 -0.08440761  0.00767342       0.007
   0.03836710  0.03836710 -0.20718232       0.003
   0.02302026  0.05371393 -0.19183548       0.007
   0.00767342  0.06906077 -0.17648864       0.007
   0.03836710  0.03836710 -0.17648864       0.003
   0.02302026  0.05371393 -0.16114180       0.007
   0.03836710  0.03836710 -0.14579497       0.003
   0.05371393  0.05371393  0.05371393       0.001
   0.03836710  0.06906077  0.06906077       0.003
   0.02302026  0.08440761  0.08440761       0.003
   0.19183548 -0.08440761 -0.08440761       0.003
   0.17648864 -0.06906077 -0.06906077       0.003
   0.16114180 -0.05371393 -0.05371393       0.003
   0.05371393  0.05371393  0.08440761       0.003
   0.03836710  0.06906077  0.09975445       0.007
   0.20718232 -0.09975445 -0.06906077       0.007
   0.19183548 -0.08440761 -0.05371393       0.007
   0.17648864 -0.06906077 -0.03836710       0.007
   0.05371393  0.05371393  0.11510129       0.003
   0.22252916 -0.11510129 -0.05371393       0.007
   0.20718232 -0.09975445 -0.03836710       0.007
   0.19183548 -0.08440761 -0.02302026       0.007
   0.05371393  0.05371393 -0.22252916       0.003
   0.03836710  0.06906077 -0.20718232       0.007
   0.05371393  0.05371393 -0.19183548       0.003
   0.06906077  0.06906077  0.06906077       0.001
   0.05371393  0.08440761  0.08440761       0.003
   0.22252916 -0.08440761 -0.08440761       0.003
   0.20718232 -0.06906077 -0.06906077       0.003
   0.06906077  0.06906077  0.09975445       0.003
   0.23787600 -0.09975445 -0.06906077       0.007
   0.22252916 -0.08440761 -0.05371393       0.007
   0.06906077  0.06906077 -0.23787600       0.003
   0.08440761  0.08440761  0.08440761       0.001
   0.25322284 -0.08440761 -0.08440761       0.003
 
 k-points in reciprocal lattice and weights: Automatic kpoint scheme                 
   0.04166667  0.04166667  0.04166667       0.001
   0.12500000  0.04166667  0.04166667       0.003
   0.20833333  0.04166667  0.04166667       0.003
   0.29166667  0.04166667  0.04166667       0.003
   0.37500000  0.04166667  0.04166667       0.003
   0.45833333  0.04166667  0.04166667       0.003
  -0.45833333  0.04166667  0.04166667       0.003
  -0.37500000  0.04166667  0.04166667       0.003
  -0.29166667  0.04166667  0.04166667       0.003
  -0.20833333  0.04166667  0.04166667       0.003
  -0.12500000  0.04166667  0.04166667       0.003
  -0.04166667  0.04166667  0.04166667       0.003
   0.12500000  0.12500000  0.04166667       0.003
   0.20833333  0.12500000  0.04166667       0.007
   0.29166667  0.12500000  0.04166667       0.007
   0.37500000  0.12500000  0.04166667       0.007
   0.45833333  0.12500000  0.04166667       0.007
  -0.45833333  0.12500000  0.04166667       0.007
  -0.37500000  0.12500000  0.04166667       0.007
  -0.29166667  0.12500000  0.04166667       0.007
  -0.20833333  0.12500000  0.04166667       0.007
  -0.12500000  0.12500000  0.04166667       0.007
  -0.04166667  0.12500000  0.04166667       0.007
   0.20833333  0.20833333  0.04166667       0.003
   0.29166667  0.20833333  0.04166667       0.007
   0.37500000  0.20833333  0.04166667       0.007
   0.45833333  0.20833333  0.04166667       0.007
  -0.45833333  0.20833333  0.04166667       0.007
  -0.37500000  0.20833333  0.04166667       0.007
  -0.29166667  0.20833333  0.04166667       0.007
  -0.20833333  0.20833333  0.04166667       0.007
  -0.12500000  0.20833333  0.04166667       0.007
  -0.04166667  0.20833333  0.04166667       0.007
   0.29166667  0.29166667  0.04166667       0.003
   0.37500000  0.29166667  0.04166667       0.007
   0.45833333  0.29166667  0.04166667       0.007
  -0.45833333  0.29166667  0.04166667       0.007
  -0.37500000  0.29166667  0.04166667       0.007
  -0.29166667  0.29166667  0.04166667       0.007
  -0.20833333  0.29166667  0.04166667       0.007
  -0.12500000  0.29166667  0.04166667       0.007
  -0.04166667  0.29166667  0.04166667       0.007
   0.37500000  0.37500000  0.04166667       0.003
   0.45833333  0.37500000  0.04166667       0.007
  -0.45833333  0.37500000  0.04166667       0.007
  -0.37500000  0.37500000  0.04166667       0.007
  -0.29166667  0.37500000  0.04166667       0.007
  -0.20833333  0.37500000  0.04166667       0.007
  -0.12500000  0.37500000  0.04166667       0.007
  -0.04166667  0.37500000  0.04166667       0.007
   0.45833333  0.45833333  0.04166667       0.003
  -0.45833333  0.45833333  0.04166667       0.007
  -0.37500000  0.45833333  0.04166667       0.007
  -0.29166667  0.45833333  0.04166667       0.007
  -0.20833333  0.45833333  0.04166667       0.007
  -0.12500000  0.45833333  0.04166667       0.007
  -0.04166667  0.45833333  0.04166667       0.007
  -0.45833333 -0.45833333  0.04166667       0.003
  -0.37500000 -0.45833333  0.04166667       0.007
  -0.29166667 -0.45833333  0.04166667       0.007
  -0.20833333 -0.45833333  0.04166667       0.007
  -0.12500000 -0.45833333  0.04166667       0.007
  -0.37500000 -0.37500000  0.04166667       0.003
  -0.29166667 -0.37500000  0.04166667       0.007
  -0.20833333 -0.37500000  0.04166667       0.007
  -0.12500000 -0.37500000  0.04166667       0.007
  -0.29166667 -0.29166667  0.04166667       0.003
  -0.20833333 -0.29166667  0.04166667       0.007
  -0.12500000 -0.29166667  0.04166667       0.007
  -0.20833333 -0.20833333  0.04166667       0.003
  -0.12500000 -0.20833333  0.04166667       0.007
  -0.12500000 -0.12500000  0.04166667       0.003
   0.12500000  0.12500000  0.12500000       0.001
   0.20833333  0.12500000  0.12500000       0.003
   0.29166667  0.12500000  0.12500000       0.003
   0.37500000  0.12500000  0.12500000       0.003
   0.45833333  0.12500000  0.12500000       0.003
  -0.45833333  0.12500000  0.12500000       0.003
  -0.37500000  0.12500000  0.12500000       0.003
  -0.29166667  0.12500000  0.12500000       0.003
  -0.20833333  0.12500000  0.12500000       0.003
  -0.12500000  0.12500000  0.12500000       0.003
   0.20833333  0.20833333  0.12500000       0.003
   0.29166667  0.20833333  0.12500000       0.007
   0.37500000  0.20833333  0.12500000       0.007
   0.45833333  0.20833333  0.12500000       0.007
  -0.45833333  0.20833333  0.12500000       0.007
  -0.37500000  0.20833333  0.12500000       0.007
  -0.29166667  0.20833333  0.12500000       0.007
  -0.20833333  0.20833333  0.12500000       0.007
  -0.12500000  0.20833333  0.12500000       0.007
   0.29166667  0.29166667  0.12500000       0.003
   0.37500000  0.29166667  0.12500000       0.007
   0.45833333  0.29166667  0.12500000       0.007
  -0.45833333  0.29166667  0.12500000       0.007
  -0.37500000  0.29166667  0.12500000       0.007
  -0.29166667  0.29166667  0.12500000       0.007
  -0.20833333  0.29166667  0.12500000       0.007
  -0.12500000  0.29166667  0.12500000       0.007
   0.37500000  0.37500000  0.12500000       0.003
   0.45833333  0.37500000  0.12500000       0.007
  -0.45833333  0.37500000  0.12500000       0.007
  -0.37500000  0.37500000  0.12500000       0.007
  -0.29166667  0.37500000  0.12500000       0.007
  -0.20833333  0.37500000  0.12500000       0.007
  -0.12500000  0.37500000  0.12500000       0.007
   0.45833333  0.45833333  0.12500000       0.003
  -0.45833333  0.45833333  0.12500000       0.007
  -0.37500000  0.45833333  0.12500000       0.007
  -0.29166667  0.45833333  0.12500000       0.007
  -0.20833333  0.45833333  0.12500000       0.007
  -0.12500000  0.45833333  0.12500000       0.007
  -0.45833333 -0.45833333  0.12500000       0.003
  -0.37500000 -0.45833333  0.12500000       0.007
  -0.29166667 -0.45833333  0.12500000       0.007
  -0.20833333 -0.45833333  0.12500000       0.007
  -0.37500000 -0.37500000  0.12500000       0.003
  -0.29166667 -0.37500000  0.12500000       0.007
  -0.20833333 -0.37500000  0.12500000       0.007
  -0.29166667 -0.29166667  0.12500000       0.003
  -0.20833333 -0.29166667  0.12500000       0.007
  -0.20833333 -0.20833333  0.12500000       0.003
   0.20833333  0.20833333  0.20833333       0.001
   0.29166667  0.20833333  0.20833333       0.003
   0.37500000  0.20833333  0.20833333       0.003
   0.45833333  0.20833333  0.20833333       0.003
  -0.45833333  0.20833333  0.20833333       0.003
  -0.37500000  0.20833333  0.20833333       0.003
  -0.29166667  0.20833333  0.20833333       0.003
  -0.20833333  0.20833333  0.20833333       0.003
   0.29166667  0.29166667  0.20833333       0.003
   0.37500000  0.29166667  0.20833333       0.007
   0.45833333  0.29166667  0.20833333       0.007
  -0.45833333  0.29166667  0.20833333       0.007
  -0.37500000  0.29166667  0.20833333       0.007
  -0.29166667  0.29166667  0.20833333       0.007
  -0.20833333  0.29166667  0.20833333       0.007
   0.37500000  0.37500000  0.20833333       0.003
   0.45833333  0.37500000  0.20833333       0.007
  -0.45833333  0.37500000  0.20833333       0.007
  -0.37500000  0.37500000  0.20833333       0.007
  -0.29166667  0.37500000  0.20833333       0.007
  -0.20833333  0.37500000  0.20833333       0.007
   0.45833333  0.45833333  0.20833333       0.003
  -0.45833333  0.45833333  0.20833333       0.007
  -0.37500000  0.45833333  0.20833333       0.007
  -0.29166667  0.45833333  0.20833333       0.007
  -0.20833333  0.45833333  0.20833333       0.007
  -0.45833333 -0.45833333  0.20833333       0.003
  -0.37500000 -0.45833333  0.20833333       0.007
  -0.29166667 -0.45833333  0.20833333       0.007
  -0.37500000 -0.37500000  0.20833333       0.003
  -0.29166667 -0.37500000  0.20833333       0.007
  -0.29166667 -0.29166667  0.20833333       0.003
   0.29166667  0.29166667  0.29166667       0.001
   0.37500000  0.29166667  0.29166667       0.003
   0.45833333  0.29166667  0.29166667       0.003
  -0.45833333  0.29166667  0.29166667       0.003
  -0.37500000  0.29166667  0.29166667       0.003
  -0.29166667  0.29166667  0.29166667       0.003
   0.37500000  0.37500000  0.29166667       0.003
   0.45833333  0.37500000  0.29166667       0.007
  -0.45833333  0.37500000  0.29166667       0.007
  -0.37500000  0.37500000  0.29166667       0.007
  -0.29166667  0.37500000  0.29166667       0.007
   0.45833333  0.45833333  0.29166667       0.003
  -0.45833333  0.45833333  0.29166667       0.007
  -0.37500000  0.45833333  0.29166667       0.007
  -0.29166667  0.45833333  0.29166667       0.007
  -0.45833333 -0.45833333  0.29166667       0.003
  -0.37500000 -0.45833333  0.29166667       0.007
  -0.37500000 -0.37500000  0.29166667       0.003
   0.37500000  0.37500000  0.37500000       0.001
   0.45833333  0.37500000  0.37500000       0.003
  -0.45833333  0.37500000  0.37500000       0.003
  -0.37500000  0.37500000  0.37500000       0.003
   0.45833333  0.45833333  0.37500000       0.003
  -0.45833333  0.45833333  0.37500000       0.007
  -0.37500000  0.45833333  0.37500000       0.007
  -0.45833333 -0.45833333  0.37500000       0.003
   0.45833333  0.45833333  0.45833333       0.001
  -0.45833333  0.45833333  0.45833333       0.003
 
 position of ions in fractional coordinates (direct lattice) 
   0.50000000  0.50000000  0.50000000
   0.75000000  0.75000000  0.75000000
 
 position of ions in cartesian coordinates  (Angst):
   2.71500000  2.71500000  2.71500000
   4.07250000  4.07250000  4.07250000
 


--------------------------------------------------------------------------------------------------------


 k-point  1 :   0.0417 0.0417 0.0417  plane waves:     169
 k-point  2 :   0.1250 0.0417 0.0417  plane waves:     169
 k-point  3 :   0.2083 0.0417 0.0417  plane waves:     167
 k-point  4 :   0.2917 0.0417 0.0417  plane waves:     163
 k-point  5 :   0.3750 0.0417 0.0417  plane waves:     161
 k-point  6 :   0.4583 0.0417 0.0417  plane waves:     164
 k-point  7 :  -0.4583 0.0417 0.0417  plane waves:     166
 k-point  8 :  -0.3750 0.0417 0.0417  plane waves:     163
 k-point  9 :  -0.2917 0.0417 0.0417  plane waves:     160
 k-point 10 :  -0.2083 0.0417 0.0417  plane waves:     164
 k-point 11 :  -0.1250 0.0417 0.0417  plane waves:     167
 k-point 12 :  -0.0417 0.0417 0.0417  plane waves:     169
 k-point 13 :   0.1250 0.1250 0.0417  plane waves:     169
 k-point 14 :   0.2083 0.1250 0.0417  plane waves:     165
 k-point 15 :   0.2917 0.1250 0.0417  plane waves:     162
 k-point 16 :   0.3750 0.1250 0.0417  plane waves:     162
 k-point 17 :   0.4583 0.1250 0.0417  plane waves:     167
 k-point 18 :  -0.4583 0.1250 0.0417  plane waves:     166
 k-point 19 :  -0.3750 0.1250 0.0417  plane waves:     166
 k-point 20 :  -0.2917 0.1250 0.0417  plane waves:     164
 k-point 21 :  -0.2083 0.1250 0.0417  plane waves:     162
 k-point 22 :  -0.1250 0.1250 0.0417  plane waves:     162
 k-point 23 :  -0.0417 0.1250 0.0417  plane waves:     169
 k-point 24 :   0.2083 0.2083 0.0417  plane waves:     166
 k-point 25 :   0.2917 0.2083 0.0417  plane waves:     164
 k-point 26 :   0.3750 0.2083 0.0417  plane waves:     164
 k-point 27 :   0.4583 0.2083 0.0417  plane waves:     167
 k-point 28 :  -0.4583 0.2083 0.0417  plane waves:     169
 k-point 29 :  -0.3750 0.2083 0.0417  plane waves:     168
 k-point 30 :  -0.2917 0.2083 0.0417  plane waves:     166
 k-point 31 :  -0.2083 0.2083 0.0417  plane waves:     165
 k-point 32 :  -0.1250 0.2083 0.0417  plane waves:     162
 k-point 33 :  -0.0417 0.2083 0.0417  plane waves:     165
 k-point 34 :   0.2917 0.2917 0.0417  plane waves:     165
 k-point 35 :   0.3750 0.2917 0.0417  plane waves:     167
 k-point 36 :   0.4583 0.2917 0.0417  plane waves:     166
 k-point 37 :  -0.4583 0.2917 0.0417  plane waves:     168
 k-point 38 :  -0.3750 0.2917 0.0417  plane waves:     173
 k-point 39 :  -0.2917 0.2917 0.0417  plane waves:     169
 k-point 40 :  -0.2083 0.2917 0.0417  plane waves:     166
 k-point 41 :  -0.1250 0.2917 0.0417  plane waves:     165
 k-point 42 :  -0.0417 0.2917 0.0417  plane waves:     162
 k-point 43 :   0.3750 0.3750 0.0417  plane waves:     168
 k-point 44 :   0.4583 0.3750 0.0417  plane waves:     168
 k-point 45 :  -0.4583 0.3750 0.0417  plane waves:     169
 k-point 46 :  -0.3750 0.3750 0.0417  plane waves:     172
 k-point 47 :  -0.2917 0.3750 0.0417  plane waves:     172
 k-point 48 :  -0.2083 0.3750 0.0417  plane waves:     170
 k-point 49 :  -0.1250 0.3750 0.0417  plane waves:     165
 k-point 50 :  -0.0417 0.3750 0.0417  plane waves:     165
 k-point 51 :   0.4583 0.4583 0.0417  plane waves:     168
 k-point 52 :  -0.4583 0.4583 0.0417  plane waves:     170
 k-point 53 :  -0.3750 0.4583 0.0417  plane waves:     172
 k-point 54 :  -0.2917 0.4583 0.0417  plane waves:     173
 k-point 55 :  -0.2083 0.4583 0.0417  plane waves:     169
 k-point 56 :  -0.1250 0.4583 0.0417  plane waves:     167
 k-point 57 :  -0.0417 0.4583 0.0417  plane waves:     167
 k-point 58 :  -0.4583-0.4583 0.0417  plane waves:     170
 k-point 59 :  -0.3750-0.4583 0.0417  plane waves:     170
 k-point 60 :  -0.2917-0.4583 0.0417  plane waves:     170
 k-point 61 :  -0.2083-0.4583 0.0417  plane waves:     168
 k-point 62 :  -0.1250-0.4583 0.0417  plane waves:     167
 k-point 63 :  -0.3750-0.3750 0.0417  plane waves:     166
 k-point 64 :  -0.2917-0.3750 0.0417  plane waves:     167
 k-point 65 :  -0.2083-0.3750 0.0417  plane waves:     167
 k-point 66 :  -0.1250-0.3750 0.0417  plane waves:     164
 k-point 67 :  -0.2917-0.2917 0.0417  plane waves:     171
 k-point 68 :  -0.2083-0.2917 0.0417  plane waves:     166
 k-point 69 :  -0.1250-0.2917 0.0417  plane waves:     162
 k-point 70 :  -0.2083-0.2083 0.0417  plane waves:     165
 k-point 71 :  -0.1250-0.2083 0.0417  plane waves:     165
 k-point 72 :  -0.1250-0.1250 0.0417  plane waves:     165
 k-point 73 :   0.1250 0.1250 0.1250  plane waves:     169
 k-point 74 :   0.2083 0.1250 0.1250  plane waves:     165
 k-point 75 :   0.2917 0.1250 0.1250  plane waves:     160
 k-point 76 :   0.3750 0.1250 0.1250  plane waves:     163
 k-point 77 :   0.4583 0.1250 0.1250  plane waves:     165
 k-point 78 :  -0.4583 0.1250 0.1250  plane waves:     164
 k-point 79 :  -0.3750 0.1250 0.1250  plane waves:     166
 k-point 80 :  -0.2917 0.1250 0.1250  plane waves:     164
 k-point 81 :  -0.2083 0.1250 0.1250  plane waves:     162
 k-point 82 :  -0.1250 0.1250 0.1250  plane waves:     162
 k-point 83 :   0.2083 0.2083 0.1250  plane waves:     166
 k-point 84 :   0.2917 0.2083 0.1250  plane waves:     163
 k-point 85 :   0.3750 0.2083 0.1250  plane waves:     166
 k-point 86 :   0.4583 0.2083 0.1250  plane waves:     165
 k-point 87 :  -0.4583 0.2083 0.1250  plane waves:     168
 k-point 88 :  -0.3750 0.2083 0.1250  plane waves:     166
 k-point 89 :  -0.2917 0.2083 0.1250  plane waves:     167
 k-point 90 :  -0.2083 0.2083 0.1250  plane waves:     166
 k-point 91 :  -0.1250 0.2083 0.1250  plane waves:     165
 k-point 92 :   0.2917 0.2917 0.1250  plane waves:     162
 k-point 93 :   0.3750 0.2917 0.1250  plane waves:     165
 k-point 94 :   0.4583 0.2917 0.1250  plane waves:     168
 k-point 95 :  -0.4583 0.2917 0.1250  plane waves:     166
 k-point 96 :  -0.3750 0.2917 0.1250  plane waves:     168
 k-point 97 :  -0.2917 0.2917 0.1250  plane waves:     169
 k-point 98 :  -0.2083 0.2917 0.1250  plane waves:     167
 k-point 99 :  -0.1250 0.2917 0.1250  plane waves:     166
 k-point ** :   0.3750 0.3750 0.1250  plane waves:     163
 k-point ** :   0.4583 0.3750 0.1250  plane waves:     170
 k-point ** :  -0.4583 0.3750 0.1250  plane waves:     167
 k-point ** :  -0.3750 0.3750 0.1250  plane waves:     167
 k-point ** :  -0.2917 0.3750 0.1250  plane waves:     171
 k-point ** :  -0.2083 0.3750 0.1250  plane waves:     167
 k-point ** :  -0.1250 0.3750 0.1250  plane waves:     167
 k-point ** :   0.4583 0.4583 0.1250  plane waves:     168
 k-point ** :  -0.4583 0.4583 0.1250  plane waves:     168
 k-point ** :  -0.3750 0.4583 0.1250  plane waves:     169
 k-point ** :  -0.2917 0.4583 0.1250  plane waves:     169
 k-point ** :  -0.2083 0.4583 0.1250  plane waves:     168
 k-point ** :  -0.1250 0.4583 0.1250  plane waves:     168
 k-point ** :  -0.4583-0.4583 0.1250  plane waves:     174
 k-point ** :  -0.3750-0.4583 0.1250  plane waves:     170
 k-point ** :  -0.2917-0.4583 0.1250  plane waves:     169
 k-point ** :  -0.2083-0.4583 0.1250  plane waves:     166
 k-point ** :  -0.3750-0.3750 0.1250  plane waves:     170
 k-point ** :  -0.2917-0.3750 0.1250  plane waves:     171
 k-point ** :  -0.2083-0.3750 0.1250  plane waves:     169
 k-point ** :  -0.2917-0.2917 0.1250  plane waves:     167
 k-point ** :  -0.2083-0.2917 0.1250  plane waves:     166
 k-point ** :  -0.2083-0.2083 0.1250  plane waves:     163
 k-point ** :   0.2083 0.2083 0.2083  plane waves:     168
 k-point ** :   0.2917 0.2083 0.2083  plane waves:     163
 k-point ** :   0.3750 0.2083 0.2083  plane waves:     166
 k-point ** :   0.4583 0.2083 0.2083  plane waves:     165
 k-point ** :  -0.4583 0.2083 0.2083  plane waves:     168
 k-point ** :  -0.3750 0.2083 0.2083  plane waves:     168
 k-point ** :  -0.2917 0.2083 0.2083  plane waves:     168
 k-point ** :  -0.2083 0.2083 0.2083  plane waves:     167
 k-point ** :   0.2917 0.2917 0.2083  plane waves:     161
 k-point ** :   0.3750 0.2917 0.2083  plane waves:     165
 k-point ** :   0.4583 0.2917 0.2083  plane waves:     165
 k-point ** :  -0.4583 0.2917 0.2083  plane waves:     168
 k-point ** :  -0.3750 0.2917 0.2083  plane waves:     170
 k-point ** :  -0.2917 0.2917 0.2083  plane waves:     168
 k-point ** :  -0.2083 0.2917 0.2083  plane waves:     169
 k-point ** :   0.3750 0.3750 0.2083  plane waves:     164
 k-point ** :   0.4583 0.3750 0.2083  plane waves:     167
 k-point ** :  -0.4583 0.3750 0.2083  plane waves:     168
 k-point ** :  -0.3750 0.3750 0.2083  plane waves:     165
 k-point ** :  -0.2917 0.3750 0.2083  plane waves:     167
 k-point ** :  -0.2083 0.3750 0.2083  plane waves:     164
 k-point ** :   0.4583 0.4583 0.2083  plane waves:     169
 k-point ** :  -0.4583 0.4583 0.2083  plane waves:     170
 k-point ** :  -0.3750 0.4583 0.2083  plane waves:     165
 k-point ** :  -0.2917 0.4583 0.2083  plane waves:     169
 k-point ** :  -0.2083 0.4583 0.2083  plane waves:     166
 k-point ** :  -0.4583-0.4583 0.2083  plane waves:     172
 k-point ** :  -0.3750-0.4583 0.2083  plane waves:     171
 k-point ** :  -0.2917-0.4583 0.2083  plane waves:     167
 k-point ** :  -0.3750-0.3750 0.2083  plane waves:     170
 k-point ** :  -0.2917-0.3750 0.2083  plane waves:     170
 k-point ** :  -0.2917-0.2917 0.2083  plane waves:     170
 k-point ** :   0.2917 0.2917 0.2917  plane waves:     162
 k-point ** :   0.3750 0.2917 0.2917  plane waves:     159
 k-point ** :   0.4583 0.2917 0.2917  plane waves:     164
 k-point ** :  -0.4583 0.2917 0.2917  plane waves:     169
 k-point ** :  -0.3750 0.2917 0.2917  plane waves:     170
 k-point ** :  -0.2917 0.2917 0.2917  plane waves:     170
 k-point ** :   0.3750 0.3750 0.2917  plane waves:     162
 k-point ** :   0.4583 0.3750 0.2917  plane waves:     164
 k-point ** :  -0.4583 0.3750 0.2917  plane waves:     168
 k-point ** :  -0.3750 0.3750 0.2917  plane waves:     170
 k-point ** :  -0.2917 0.3750 0.2917  plane waves:     172
 k-point ** :   0.4583 0.4583 0.2917  plane waves:     164
 k-point ** :  -0.4583 0.4583 0.2917  plane waves:     168
 k-point ** :  -0.3750 0.4583 0.2917  plane waves:     168
 k-point ** :  -0.2917 0.4583 0.2917  plane waves:     169
 k-point ** :  -0.4583-0.4583 0.2917  plane waves:     172
 k-point ** :  -0.3750-0.4583 0.2917  plane waves:     170
 k-point ** :  -0.3750-0.3750 0.2917  plane waves:     170
 k-point ** :   0.3750 0.3750 0.3750  plane waves:     162
 k-point ** :   0.4583 0.3750 0.3750  plane waves:     167
 k-point ** :  -0.4583 0.3750 0.3750  plane waves:     166
 k-point ** :  -0.3750 0.3750 0.3750  plane waves:     172
 k-point ** :   0.4583 0.4583 0.3750  plane waves:     167
 k-point ** :  -0.4583 0.4583 0.3750  plane waves:     167
 k-point ** :  -0.3750 0.4583 0.3750  plane waves:     169
 k-point ** :  -0.4583-0.4583 0.3750  plane waves:     168
 k-point ** :   0.4583 0.4583 0.4583  plane waves:     168
 k-point ** :  -0.4583 0.4583 0.4583  plane waves:     165

 maximum and minimum number of plane-waves per node :       174      159

 maximum number of plane-waves:       174
 maximum index in each direction: 
   IXMAX=    4   IYMAX=    4   IZMAX=    3
   IXMIN=   -4   IYMIN=   -4   IZMIN=   -4


 serial   3D FFT for wavefunctions
 parallel 3D FFT for charge:
    minimum data exchange during FFTs selected (reduces bandwidth)


 total amount of memory used by VASP MPI-rank0    32844. kBytes
=======================================================================

   base      :      30000. kBytes
   nonl-proj :       2055. kBytes
   fftplans  :         66. kBytes
   grid      :        158. kBytes
   one-center:          6. kBytes
   wavefun   :        559. kBytes
 
     INWAV:  cpu time    0.0000: real time    0.0007
 Broyden mixing: mesh for mixing (old mesh)
   NGX =  7   NGY =  7   NGZ =  7
  (NGX  = 24   NGY  = 24   NGZ  = 24)
  gives a total of    343 points

 initial charge density was supplied:
 charge density of overlapping atoms calculated
 number of electron       8.0000000 magnetization 
 keeping initial charge density in first step


--------------------------------------------------------------------------------------------------------


 Maximum index for augmentation-charges          204 (set IRDMAX)


--------------------------------------------------------------------------------------------------------


 First call to EWALD:  gamma=   0.518
 Maximum number of real-space cells 3x 3x 3
 Maximum number of reciprocal cells 3x 3x 3

    FEWALD:  cpu time    0.0040: real time    0.0087


--------------------------------------- Iteration      1(   1)  ---------------------------------------


    POTLOK:  cpu time    0.0200: real time    0.0434
    SETDIJ:  cpu time    0.0080: real time    0.0084
     EDDAV:  cpu time    1.4120: real time    1.4177
       DOS:  cpu time    0.0080: real time    0.0073
    --------------------------------------------
      LOOP:  cpu time    1.4480: real time    1.4780

 eigenvalue-minimisations  :  3184
 total energy-change (2. order) :-0.4217338E+01  (-0.1755951E+03)
 number of electron       8.0000000 magnetization 
 augmentation part        8.0000000 magnetization 

 Free energy of the ion-electron system (eV)
  ---------------------------------------------------
  alpha Z        PSCENC =         3.36414203
  Ewald energy   TEWEN  =      -228.56352493
  -Hartree energ DENC   =       -11.00108243
  -exchange      EXHF   =         0.00000000
  -V(xc)+E(xc)   XCENC  =       -18.60155909
  PAW double counting   =        65.95520812      -30.76852678
  entropy T*S    EENTRO =        -0.01047026
  eigenvalues    EBANDS =         9.31663928
  atomic energy  EATOM  =       206.09183643
  Solvation  Ediel_sol  =         0.00000000
  ---------------------------------------------------
  free energy    TOTEN  =        -4.21733764 eV

  energy without entropy =       -4.20686738  energy(sigma->0) =       -4.21210251


--------------------------------------------------------------------------------------------------------




--------------------------------------- Iteration      1(   2)  ---------------------------------------


     EDDAV:  cpu time    2.1240: real time    2.1339
       DOS:  cpu time    0.0080: real time    0.0074
    --------------------------------------------
      LOOP:  cpu time    2.1320: real time    2.1413

 eigenvalue-minimisations  :  4560
 total energy-change (2. order) :-0.6660420E+01  (-0.6331580E+01)
 number of electron       8.0000000 magnetization 
 augmentation part        8.0000000 magnetization 

 Free energy of the ion-electron system (eV)
  ---------------------------------------------------
  alpha Z        PSCENC =         3.36414203
  Ewald energy   TEWEN  =      -228.56352493
  -Hartree energ DENC   =       -11.00108243
  -exchange      EXHF   =         0.00000000
  -V(xc)+E(xc)   XCENC  =       -18.60155909
  PAW double counting   =        65.95520812      -30.76852678
  entropy T*S    EENTRO =        -0.00000214
  eigenvalues    EBANDS =         2.64575113
  atomic energy  EATOM  =       206.09183643
  Solvation  Ediel_sol  =         0.00000000
  ---------------------------------------------------
  free energy    TOTEN  =       -10.87775767 eV

  energy without entropy =      -10.87775553  energy(sigma->0) =      -10.87775660


--------------------------------------------------------------------------------------------------------




--------------------------------------- Iteration      1(   3)  ---------------------------------------


     EDDAV:  cpu time    1.6240: real time    1.6334
       DOS:  cpu time    0.0080: real time    0.0070
    --------------------------------------------
      LOOP:  cpu time    1.6320: real time    1.6404

 eigenvalue-minimisations  :  3552
 total energy-change (2. order) :-0.4755726E-01  (-0.4755725E-01)
 number of electron       8.0000000 magnetization 
 augmentation part        8.0000000 magnetization 

 Free energy of the ion-electron system (eV)
  ---------------------------------------------------
  alpha Z        PSCENC =         3.36414203
  Ewald energy   TEWEN  =      -228.56352493
  -Hartree energ DENC   =       -11.00108243
  -exchange      EXHF   =         0.00000000
  -V(xc)+E(xc)   XCENC  =       -18.60155909
  PAW double counting   =        65.95520812      -30.76852678
  entropy T*S    EENTRO =        -0.00000163
  eigenvalues    EBANDS =         2.59819336
  atomic energy  EATOM  =       206.09183643
  Solvation  Ediel_sol  =         0.00000000
  ---------------------------------------------------
  free energy    TOTEN  =       -10.92531493 eV

  energy without entropy =      -10.92531330  energy(sigma->0) =      -10.92531411


--------------------------------------------------------------------------------------------------------




--------------------------------------- Iteration      1(   4)  ---------------------------------------


     EDDAV:  cpu time    2.1880: real time    2.2070
       DOS:  cpu time    0.0080: real time    0.0071
    --------------------------------------------
      LOOP:  cpu time    2.1960: real time    2.2140

 eigenvalue-minimisations  :  4640
 total energy-change (2. order) :-0.7820455E-04  (-0.7820380E-04)
 number of electron       8.0000000 magnetization 
 augmentation part        8.0000000 magnetization 

 Free energy of the ion-electron system (eV)
  ---------------------------------------------------
  alpha Z        PSCENC =         3.36414203
  Ewald energy   TEWEN  =      -228.56352493
  -Hartree energ DENC   =       -11.00108243
  -exchange      EXHF   =         0.00000000
  -V(xc)+E(xc)   XCENC  =       -18.60155909
  PAW double counting   =        65.95520812      -30.76852678
  entropy T*S    EENTRO =        -0.00000163
  eigenvalues    EBANDS =         2.59811516
  atomic energy  EATOM  =       206.09183643
  Solvation  Ediel_sol  =         0.00000000
  ---------------------------------------------------
  free energy    TOTEN  =       -10.92539313 eV

  energy without entropy =      -10.92539150  energy(sigma->0) =      -10.92539232


--------------------------------------------------------------------------------------------------------




--------------------------------------- Iteration      1(   5)  ---------------------------------------


     EDDAV:  cpu time    1.5280: real time    1.5394
       DOS:  cpu time    0.0080: real time    0.0073
    CHARGE:  cpu time    0.0240: real time    0.0248
    MIXING:  cpu time    0.0000: real time    0.0017
    --------------------------------------------
      LOOP:  cpu time    1.5600: real time    1.5730

 eigenvalue-minimisations  :  3328
 total energy-change (2. order) :-0.2343265E-07  (-0.2412202E-07)
 number of electron       8.0000043 magnetization 
 augmentation part       -0.4652000 magnetization 

 Broyden mixing:
  rms(total) = 0.29579E+00    rms(broyden)= 0.29536E+00
  rms(prec ) = 0.85985E+00
  weight for this iteration     100.00

 Free energy of the ion-electron system (eV)
  ---------------------------------------------------
  alpha Z        PSCENC =         3.36414203
  Ewald energy   TEWEN  =      -228.56352493
  -Hartree energ DENC   =       -11.00108243
  -exchange      EXHF   =         0.00000000
  -V(xc)+E(xc)   XCENC  =       -18.60155909
  PAW double counting   =        65.95520812      -30.76852678
  entropy T*S    EENTRO =        -0.00000163
  eigenvalues    EBANDS =         2.59811513
  atomic energy  EATOM  =       206.09183643
  Solvation  Ediel_sol  =         0.00000000
  ---------------------------------------------------
  free energy    TOTEN  =       -10.92539316 eV

  energy without entropy =      -10.92539153  energy(sigma->0) =      -10.92539234


--------------------------------------------------------------------------------------------------------




--------------------------------------- Iteration      1(   6)  ---------------------------------------


    POTLOK:  cpu time    0.0160: real time    0.0214
    SETDIJ:  cpu time    0.0080: real time    0.0080
     EDDAV:  cpu time    1.4560: real time    1.4581
       DOS:  cpu time    0.0080: real time    0.0074
    CHARGE:  cpu time    0.0240: real time    0.0239
    MIXING:  cpu time    0.0000: real time    0.0017
    --------------------------------------------
      LOOP:  cpu time    1.5160: real time    1.5205

 eigenvalue-minimisations  :  3304
 total energy-change (2. order) : 0.1239247E+00  (-0.7680577E-02)
 number of electron       8.0000042 magnetization 
 augmentation part       -0.4594673 magnetization 

 Broyden mixing:
  rms(total) = 0.17510E+00    rms(broyden)= 0.17507E+00
  rms(prec ) = 0.50680E+00
  weight for this iteration     100.00

 eigenvalues of (default mixing * dielectric matrix)
  average eigenvalue GAMMA=   2.4359
  2.4359

 Free energy of the ion-electron system (eV)
  ---------------------------------------------------
  alpha Z        PSCENC =         3.36414203
  Ewald energy   TEWEN  =      -228.56352493
  -Hartree energ DENC   =       -12.48029696
  -exchange      EXHF   =         0.00000000
  -V(xc)+E(xc)   XCENC  =       -18.34983159
  PAW double counting   =        70.80714082      -35.73546582
  entropy T*S    EENTRO =        -0.00000928
  eigenvalues    EBANDS =         4.06454086
  atomic energy  EATOM  =       206.09183643
  Solvation  Ediel_sol  =         0.00000000
  ---------------------------------------------------
  free energy    TOTEN  =       -10.80146844 eV

  energy without entropy =      -10.80145916  energy(sigma->0) =      -10.80146380


--------------------------------------------------------------------------------------------------------




--------------------------------------- Iteration      1(   7)  ---------------------------------------


    POTLOK:  cpu time    0.0160: real time    0.0232
    SETDIJ:  cpu time    0.0080: real time    0.0080
     EDDAV:  cpu time    1.7120: real time    1.7131
       DOS:  cpu time    0.0080: real time    0.0075
    CHARGE:  cpu time    0.0240: real time    0.0241
    MIXING:  cpu time    0.0000: real time    0.0012
    --------------------------------------------
      LOOP:  cpu time    1.7640: real time    1.7772

 eigenvalue-minimisations  :  3800
 total energy-change (2. order) : 0.5797214E-01  (-0.1437452E-01)
 number of electron       8.0000042 magnetization 
 augmentation part       -0.4526919 magnetization 

 Broyden mixing:
  rms(total) = 0.14589E-01    rms(broyden)= 0.14483E-01
  rms(prec ) = 0.38316E-01
  weight for this iteration     100.00

 eigenvalues of (default mixing * dielectric matrix)
  average eigenvalue GAMMA=   2.4618
  2.4618  2.4618

 Free energy of the ion-electron system (eV)
  ---------------------------------------------------
  alpha Z        PSCENC =         3.36414203
  Ewald energy   TEWEN  =      -228.56352493
  -Hartree energ DENC   =       -14.86702017
  -exchange      EXHF   =         0.00000000
  -V(xc)+E(xc)   XCENC  =       -17.94060860
  PAW double counting   =        77.48095791      -42.55901613
  entropy T*S    EENTRO =        -0.00006229
  eigenvalues    EBANDS =         6.24979945
  atomic energy  EATOM  =       206.09183643
  Solvation  Ediel_sol  =         0.00000000
  ---------------------------------------------------
  free energy    TOTEN  =       -10.74349630 eV

  energy without entropy =      -10.74343401  energy(sigma->0) =      -10.74346516


--------------------------------------------------------------------------------------------------------




--------------------------------------- Iteration      1(   8)  ---------------------------------------


    POTLOK:  cpu time    0.0160: real time    0.0268
[...]
      4       2.2315      2.00000
      5       9.6509      0.00000
      6      10.2378      0.00000
      7      10.9125      0.00000
      8      11.5428      0.00000

 k-point   148 :      -0.2083    0.4583    0.2083
  band No.  band energies     occupation 
      1      -2.4879      2.00000
      2      -1.1951      2.00000
      3       1.7386      2.00000
      4       2.5384      2.00000
      5       9.6687      0.00000
      6      10.0045      0.00000
      7      10.6386      0.00000
      8      12.2924      0.00000

 k-point   149 :      -0.4583   -0.4583    0.2083
  band No.  band energies     occupation 
      1      -2.7695      2.00000
      2      -1.0458      2.00000
      3       1.8846      2.00000
      4       3.3446      2.00000
      5       7.0378      0.00000
      6       9.3126      0.00000
      7      13.2577      0.00000
      8      13.3263      0.00000

 k-point   150 :      -0.3750   -0.4583    0.2083
  band No.  band energies     occupation 
      1      -2.2754      2.00000
      2      -1.4982      2.00000
      3       1.7935      2.00000
      4       2.9472      2.00000
      5       7.5175      0.00000
      6       9.2840      0.00000
      7      12.8964      0.00000
      8      13.7050      0.00000

 k-point   151 :      -0.2917   -0.4583    0.2083
  band No.  band energies     occupation 
      1      -2.1270      2.00000
      2      -1.5680      2.00000
      3       1.9248      2.00000
      4       2.3392      2.00000
      5       8.7833      0.00000
      6       9.4363      0.00000
      7      11.8195      0.00000
      8      12.5595      0.00000

 k-point   152 :      -0.3750   -0.3750    0.2083
  band No.  band energies     occupation 
      1      -2.3320      2.00000
      2      -1.4781      2.00000
      3       1.7448      2.00000
      4       3.2928      2.00000
      5       6.9674      0.00000
      6       9.2355      0.00000
      7      13.8211      0.00000
      8      14.1430      0.00000

 k-point   153 :      -0.2917   -0.3750    0.2083
  band No.  band energies     occupation 
      1      -2.7227      2.00000
      2      -1.0555      2.00000
      3       1.9101      2.00000
      4       3.0269      2.00000
      5       7.5802      0.00000
      6       9.3646      0.00000
      7      12.2028      0.00000
      8      14.2044      0.00000

 k-point   154 :      -0.2917   -0.2917    0.2083
  band No.  band energies     occupation 
      1      -3.2536      2.00000
      2      -0.5710      2.00000
      3       2.1611      2.00000
      4       3.4477      2.00000
      5       7.1776      0.00000
      6       9.4724      0.00000
      7      12.5248      0.00000
      8      12.6336      0.00000

 k-point   155 :       0.2917    0.2917    0.2917
  band No.  band energies     occupation 
      1      -5.0601      2.00000
      2       1.1870      2.00000
      3       4.9674      2.00000
      4       4.9674      2.00000
      5       7.7771      0.00000
      6       9.4601      0.00000
      7       9.4601      0.00000
      8      13.4091      0.00000

 k-point   156 :       0.3750    0.2917    0.2917
  band No.  band energies     occupation 
      1      -4.7816      2.00000
      2       0.7535      2.00000
      3       4.0669      2.00000
      4       5.0152      2.00000
      5       8.2082      0.00000
      6       9.4596      0.00000
      7       9.6263      0.00000
      8      12.9287      0.00000

 k-point   157 :       0.4583    0.2917    0.2917
  band No.  band energies     occupation 
      1      -4.3436      2.00000
      2       0.3828      2.00000
      3       2.8417      2.00000
      4       4.7364      2.00000
      5       8.5214      0.00000
      6      10.0690      0.00000
      7      10.0954      0.00000
      8      12.5838      0.00000

 k-point   158 :      -0.4583    0.2917    0.2917
  band No.  band energies     occupation 
      1      -3.7745      2.00000
      2      -0.0530      2.00000
      3       1.8938      2.00000
      4       4.3180      2.00000
      5       8.1408      0.00000
      6      11.0365      0.00000
      7      11.3213      0.00000
      8      12.4539      0.00000

 k-point   159 :      -0.3750    0.2917    0.2917
  band No.  band energies     occupation 
      1      -3.1599      2.00000
      2      -0.6806      2.00000
      3       1.5403      2.00000
      4       3.9173      2.00000
      5       7.6895      0.00000
      6      11.8693      0.00000
      7      12.0583      0.00000
      8      12.8876      0.00000

 k-point   160 :      -0.2917    0.2917    0.2917
  band No.  band energies     occupation 
      1      -2.8464      2.00000
      2      -1.0470      2.00000
      3       1.6921      2.00000
      4       3.6166      2.00000
      5       7.3583      0.00000
      6      10.9920      0.00000
      7      12.3012      0.00000
      8      12.3853      0.00000

 k-point   161 :       0.3750    0.3750    0.2917
  band No.  band energies     occupation 
      1      -4.5719      2.00000
      2       0.3205      2.00000
      3       4.4187      2.00000
      4       4.4748      2.00000
      5       8.0933      0.00000
      6       9.2089      0.00000
      7       9.9436      0.00000
      8      12.4318      0.00000

 k-point   162 :       0.4583    0.3750    0.2917
  band No.  band energies     occupation 
      1      -4.2030      2.00000
      2      -0.0218      2.00000
      3       3.3354      2.00000
      4       4.4059      2.00000
      5       8.5323      0.00000
      6       9.2159      0.00000
      7      10.5245      0.00000
      8      12.0717      0.00000

 k-point   163 :      -0.4583    0.3750    0.2917
  band No.  band energies     occupation 
      1      -3.6958      2.00000
      2      -0.3142      2.00000
      3       2.2625      2.00000
      4       4.0206      2.00000
      5       8.7028      0.00000
      6       9.6030      0.00000
      7      11.6474      0.00000
      8      11.9913      0.00000

 k-point   164 :      -0.3750    0.3750    0.2917
  band No.  band energies     occupation 
      1      -3.0973      2.00000
      2      -0.7074      2.00000
      3       1.5865      2.00000
      4       3.5803      2.00000
      5       8.2274      0.00000
      6      10.8701      0.00000
      7      11.9205      0.00000
      8      12.8571      0.00000

 k-point   165 :      -0.2917    0.3750    0.2917
  band No.  band energies     occupation 
      1      -2.5763      2.00000
      2      -1.1906      2.00000
      3       1.5140      2.00000
      4       3.2283      2.00000
      5       7.8333      0.00000
      6      10.9266      0.00000
      7      11.9303      0.00000
      8      12.7641      0.00000

 k-point   166 :       0.4583    0.4583    0.2917
  band No.  band energies     occupation 
      1      -3.9112      2.00000
      2      -0.3619      2.00000
      3       3.2298      2.00000
      4       4.0283      2.00000
      5       7.9186      0.00000
      6      10.0873      0.00000
      7      10.7128      0.00000
      8      11.6464      0.00000

 k-point   167 :      -0.4583    0.4583    0.2917
  band No.  band energies     occupation 
      1      -3.4873      2.00000
      2      -0.6212      2.00000
      3       2.4842      2.00000
      4       3.6854      2.00000
      5       8.2044      0.00000
      6       9.9881      0.00000
      7      11.4421      0.00000
      8      11.9067      0.00000

 k-point   168 :      -0.3750    0.4583    0.2917
  band No.  band energies     occupation 
      1      -2.9616      2.00000
      2      -0.8853      2.00000
      3       1.8535      2.00000
      4       3.1169      2.00000
      5       9.2314      0.00000
      6       9.5451      0.00000
      7      11.4100      0.00000
      8      13.1610      0.00000

 k-point   169 :      -0.2917    0.4583    0.2917
  band No.  band energies     occupation 
      1      -2.3893      2.00000
      2      -1.3013      2.00000
      3       1.6515      2.00000
      4       2.6161      2.00000
      5       9.0772      0.00000
      6      10.6043      0.00000
      7      11.2633      0.00000
      8      11.6633      0.00000

 k-point   170 :      -0.4583   -0.4583    0.2917
  band No.  band energies     occupation 
      1      -3.1723      2.00000
      2      -0.8626      2.00000
      3       2.0994      2.00000
      4       3.7104      2.00000
      5       7.4954      0.00000
      6      11.0902      0.00000
      7      11.6313      0.00000
      8      11.7291      0.00000

 k-point   171 :      -0.3750   -0.4583    0.2917
  band No.  band energies     occupation 
      1      -2.7889      2.00000
      2      -1.0602      2.00000
      3       1.7101      2.00000
      4       3.3011      2.00000
      5       7.8986      0.00000
      6      10.8979      0.00000
      7      11.3913      0.00000
      8      13.2896      0.00000

 k-point   172 :      -0.3750   -0.3750    0.2917
  band No.  band energies     occupation 
      1      -2.6391      2.00000
      2      -1.1634      2.00000
      3       1.4660      2.00000
      4       3.5693      2.00000
      5       7.2866      0.00000
      6      10.9294      0.00000
      7      12.8061      0.00000
      8      13.1663      0.00000

 k-point   173 :       0.3750    0.3750    0.3750
  band No.  band energies     occupation 
      1      -4.4399      2.00000
      2      -0.1119      2.00000
      3       4.7685      2.00000
      4       4.7685      2.00000
      5       7.5399      0.00000
      6       9.3922      0.00000
      7       9.3922      0.00000
      8      13.7539      0.00000

 k-point   174 :       0.4583    0.3750    0.3750
  band No.  band energies     occupation 
      1      -4.1539      2.00000
      2      -0.4313      2.00000
      3       3.9705      2.00000
      4       4.7302      2.00000
      5       8.0090      0.00000
      6       9.4148      0.00000
      7       9.5024      0.00000
      8      13.7622      0.00000

 k-point   175 :      -0.4583    0.3750    0.3750
  band No.  band energies     occupation 
      1      -3.7328      2.00000
      2      -0.6323      2.00000
      3       2.8045      2.00000
      4       4.3957      2.00000
      5       8.2079      0.00000
      6      10.0023      0.00000
      7      10.2562      0.00000
      8      13.8722      0.00000

 k-point   176 :      -0.3750    0.3750    0.3750
  band No.  band energies     occupation 
      1      -3.2082      2.00000
      2      -0.8076      2.00000
      3       1.8477      2.00000
      4       3.9568      2.00000
      5       7.7479      0.00000
      6      11.3988      0.00000
      7      11.4306      0.00000
      8      12.9063      0.00000

 k-point   177 :       0.4583    0.4583    0.3750
  band No.  band energies     occupation 
      1      -3.9640      2.00000
      2      -0.7352      2.00000
      3       4.1597      2.00000
      4       4.4460      2.00000
      5       7.9571      0.00000
      6       9.1863      0.00000
      7       9.7345      0.00000
      8      13.4993      0.00000

 k-point   178 :      -0.4583    0.4583    0.3750
  band No.  band energies     occupation 
      1      -3.6549      2.00000
      2      -0.8896      2.00000
      3       3.2567      2.00000
      4       4.2265      2.00000
      5       8.4800      0.00000
      6       9.0638      0.00000
      7      10.4511      0.00000
      8      13.4230      0.00000

 k-point   179 :      -0.3750    0.4583    0.3750
  band No.  band energies     occupation 
      1      -3.2549      2.00000
      2      -0.9349      2.00000
      3       2.2953      2.00000
      4       3.7667      2.00000
      5       8.3895      0.00000
      6       9.7512      0.00000
      7      11.8029      0.00000
      8      13.0380      0.00000

 k-point   180 :      -0.4583   -0.4583    0.3750
  band No.  band energies     occupation 
      1      -3.4877      2.00000
      2      -0.9873      2.00000
      3       2.9435      2.00000
      4       4.1483      2.00000
      5       7.9987      0.00000
      6       9.9888      0.00000
      7      10.4501      0.00000
      8      13.1491      0.00000

 k-point   181 :       0.4583    0.4583    0.4583
  band No.  band energies     occupation 
      1      -3.8955      2.00000
      2      -1.0003      2.00000
      3       4.6658      2.00000
      4       4.6658      2.00000
      5       7.4249      0.00000
      6       9.2987      0.00000
      7       9.2987      0.00000
      8      13.6231      0.00000

 k-point   182 :      -0.4583    0.4583    0.4583
  band No.  band energies     occupation 
      1      -3.7301      2.00000
      2      -1.0811      2.00000
      3       4.0054      2.00000
      4       4.5354      2.00000
      5       7.9285      0.00000
      6       9.2429      0.00000
      7       9.5735      0.00000
      8      13.9193      0.00000


--------------------------------------------------------------------------------------------------------


 soft charge-density along one line, spin component           1
         0         1         2         3         4         5         6         7         8         9
 total charge-density along one line
 
 pseudopotential strength for first ion, spin component:           1
 18.420  -0.001  -0.000  -0.000  -0.000   0.000   0.000   0.000
 -0.001   0.006   0.000   0.000   0.000  -0.000  -0.000  -0.000
 -0.000   0.000   4.180  -0.000  -0.000  -0.005   0.000   0.000
 -0.000   0.000  -0.000   4.180  -0.000   0.000  -0.005   0.000
 -0.000   0.000  -0.000  -0.000   4.180   0.000   0.000  -0.005
  0.000  -0.000  -0.005   0.000   0.000   0.005  -0.000  -0.000
  0.000  -0.000   0.000  -0.005   0.000  -0.000   0.005  -0.000
  0.000  -0.000   0.000   0.000  -0.005  -0.000  -0.000   0.005
 total augmentation occupancy for first ion, spin component:           1
  1.492  -0.989  -0.000  -0.000   0.000   0.000   0.000   0.000
 -0.989   1.053   0.000   0.000  -0.000   0.000   0.000   0.000
 -0.000   0.000   1.011  -0.000   0.000  -0.925   0.000  -0.000
 -0.000   0.000  -0.000   1.011   0.000   0.000  -0.925  -0.000
  0.000   0.000   0.000   0.000   1.011  -0.000  -0.000  -0.925
  0.000   0.000  -0.925   0.000  -0.000   0.910  -0.000   0.000
  0.000   0.000   0.000  -0.925  -0.000  -0.000   0.910   0.000
  0.000   0.000  -0.000  -0.000  -0.925   0.000   0.000   0.910


------------------------ aborting loop because EDIFF is reached ----------------------------------------


    CHARGE:  cpu time    0.0240: real time    0.0235
    FORLOC:  cpu time    0.0000: real time    0.0004
    FORNL :  cpu time    0.0200: real time    0.0197
    STRESS:  cpu time    0.2480: real time    0.2484
    FORCOR:  cpu time    0.0120: real time    0.0091
    FORHAR:  cpu time    0.0000: real time    0.0031
    MIXING:  cpu time    0.0000: real time    0.0008
    OFIELD:  cpu time    0.0040: real time    0.0009

  FORCE on cell =-STRESS in cart. coord.  units (eV):
  Direction    XX          YY          ZZ          XY          YZ          ZX
  --------------------------------------------------------------------------------------
  Alpha Z     3.36414     3.36414     3.36414
  Ewald     -76.18788   -76.18788   -76.18788    -0.00000    -0.00000     0.00000
  Hartree     4.96066     4.96066     4.96066     0.00000     0.00000     0.00000
  E(xc)     -25.38789   -25.38789   -25.38789    -0.00014    -0.00014    -0.00014
  Local     -29.42160   -29.42160   -29.42160     0.00023     0.00023     0.00023
  n-local    78.28579    80.67295    75.81716     1.05543    -1.07317     0.01774
  augment   -11.52323   -11.52323   -11.52323    -0.00015    -0.00015    -0.00015
  Kinetic    58.05784    55.74726    55.47428     0.86612    -0.88598     0.01775
  Fock        0.00000     0.00000     0.00000     0.00000     0.00000     0.00000
  -------------------------------------------------------------------------------------
  Total       0.48930     0.48930     0.48930     0.00000     0.00000    -0.00000
  in kB      19.58589    19.58589    19.58589     0.00000     0.00000    -0.00000
  external pressure =       19.59 kB  Pullay stress =        0.00 kB


 VOLUME and BASIS-vectors are now :
 -----------------------------------------------------------------------------
  energy-cutoff  :      150.00
  volume of cell :       40.03
      direct lattice vectors                 reciprocal lattice vectors
     0.000000000  2.715000000  2.715000000    -0.184162063  0.184162063  0.184162063
     2.715000000  0.000000000  2.715000000     0.184162063 -0.184162063  0.184162063
     2.715000000  2.715000000  0.000000000     0.184162063  0.184162063 -0.184162063

  length of vectors
     3.839589822  3.839589822  3.839589822     0.318978049  0.318978049  0.318978049


 FORCES acting on ions
    electron-ion (+dipol)            ewald-force                    non-local-force                 convergence-correction
 -----------------------------------------------------------------------------------------------
   0.659E-05 0.659E-05 0.632E-05   -.476E-15 -.149E-14 0.391E-14   -.212E-16 -.247E-16 -.709E-17   -.191E-05 -.191E-05 -.191E-05
   -.659E-05 -.659E-05 -.632E-05   0.623E-15 0.106E-14 -.375E-14   0.197E-16 0.231E-16 0.445E-17   0.191E-05 0.191E-05 0.191E-05
 -----------------------------------------------------------------------------------------------
   -.117E-12 -.411E-13 -.304E-13   0.147E-15 -.426E-15 0.164E-15   -.158E-17 -.158E-17 -.264E-17   0.732E-15 0.981E-15 -.298E-14
 
 
 POSITION                                       TOTAL-FORCE (eV/Angst)
 -----------------------------------------------------------------------------------
      2.71500      2.71500      2.71500         0.000000      0.000000      0.000000
      4.07250      4.07250      4.07250        -0.000000     -0.000000     -0.000000
 -----------------------------------------------------------------------------------
    total drift:                               -0.000000     -0.000000     -0.000000


--------------------------------------------------------------------------------------------------------



  FREE ENERGIE OF THE ION-ELECTRON SYSTEM (eV)
  ---------------------------------------------------
  free  energy   TOTEN  =       -10.74480786 eV

  energy  without entropy=      -10.74475843  energy(sigma->0) =      -10.74478315
 


--------------------------------------------------------------------------------------------------------


    POTLOK:  cpu time    0.0240: real time    0.0406


--------------------------------------------------------------------------------------------------------




--------------------------------------------------------------------------------------------------------


  
 reached required accuracy - stopping structural energy minimisation
 writing wavefunctions
     LOOP+:  cpu time   16.0200: real time   16.8945
    4ORBIT:  cpu time    0.0000: real time    0.0000

 total amount of memory used by VASP MPI-rank0    32844. kBytes
=======================================================================

   base      :      30000. kBytes
   nonl-proj :       2055. kBytes
   fftplans  :         66. kBytes
   grid      :        158. kBytes
   one-center:          6. kBytes
   wavefun   :        559. kBytes
 
  
  
 General timing and accounting informations for this job:
 ========================================================
  
                  Total CPU time used (sec):       24.952
                            User time (sec):       22.980
                          System time (sec):        1.972
                         Elapsed time (sec):       29.419
  
                   Maximum memory used (kb):        9788.
                   Average memory used (kb):           0.
  
                          Minor page faults:        38125
                          Major page faults:           27
                 Voluntary context switches:        31667
