 running on    8 total cores
 distrk:  each k-point on    8 cores,    1 groups
 distr:  one band on    1 cores,    8 groups
 using from now: INCAR     
 vasp.5.4.4.18Apr17-6-g9f103f2a35 (build Dec 09 2018 21:25:21) complex          
  
 POSCAR found type information on POSCAR  Si
 POSCAR found :  1 types and       2 ions
 scaLAPACK will be used

 ----------------------------------------------------------------------------- 
|                                                                             |
|           W    W    AA    RRRRR   N    N  II  N    N   GGGG   !!!           |
|           W    W   A  A   R    R  NN   N  II  NN   N  G    G  !!!           |
|           W    W  A    A  R    R  N N  N  II  N N  N  G       !!!           |
|           W WW W  AAAAAA  RRRRR   N  N N  II  N  N N  G  GGG   !            |
|           WW  WW  A    A  R   R   N   NN  II  N   NN  G    G                |
|           W    W  A    A  R    R  N    N  II  N    N   GGGG   !!!           |
|                                                                             |
|      For optimal performance we recommend to set                            |
|        NCORE= 4 - approx SQRT( number of cores)                             |
|      NCORE specifies how many cores store one orbital (NPAR=cpu/NCORE).     |
|      This setting can  greatly improve the performance of VASP for DFT.     |
|      The default,   NCORE=1            might be grossly inefficient         |
|      on modern multi-core architectures or massively parallel machines.     |
|      Do your own testing !!!!                                               |
|      Unfortunately you need to use the default for GW and RPA calculations. |
|      (for HF NCORE is supported but not extensively tested yet)             |
|                                                                             |
 ----------------------------------------------------------------------------- 

 LDA part: xc-table for Pade appr. of Perdew
 POSCAR, INCAR and KPOINTS ok, starting setup
 FFT: planning ...
 WAVECAR not read
 entering main loop
       N       E                     dE             d eps       ncg     rms          rms(c)
DAV:   1    -0.421733764184E+01   -0.42173E+01   -0.17560E+03  3184   0.299E+02
DAV:   2    -0.108777576702E+02   -0.66604E+01   -0.63316E+01  4560   0.455E+01
DAV:   3    -0.109253149298E+02   -0.47557E-01   -0.47557E-01  3552   0.463E+00
DAV:   4    -0.109253931344E+02   -0.78205E-04   -0.78204E-04  4640   0.181E-01
DAV:   5    -0.109253931578E+02   -0.23433E-07   -0.24122E-07  3328   0.244E-03    0.296E+00
DAV:   6    -0.108014684426E+02    0.12392E+00   -0.76806E-02  3304   0.141E+00    0.175E+00
DAV:   7    -0.107434963045E+02    0.57972E-01   -0.14375E-01  3800   0.202E+00    0.146E-01
DAV:   8    -0.107447146371E+02   -0.12183E-02   -0.33297E-03  3208   0.397E-01    0.249E-02
DAV:   9    -0.107448078644E+02   -0.93227E-04   -0.87249E-05  2288   0.726E-02
   1 F= -.10744808E+02 E0= -.10744783E+02  d E =-.107448E+02
 curvature:   0.00 expect dE= 0.000E+00 dE for cont linesearch  0.000E+00
 trial: gam= 0.00000 g(F)=  0.431E-43 g(S)=  0.000E+00 ort = 0.000E+00 (trialstep = 0.100E+01)
 search vector abs. value=  0.100E-09
 reached required accuracy - stopping structural energy minimisation
 writing wavefunctions
