<?xml version="1.0" encoding="ISO-8859-1"?>
<modeling>
 <generator>
  <i name="program" type="string">vasp </i>
  <i name="version" type="string">5.4.4.18Apr17-6-g9f103f2a35  </i>
  <i name="subversion" type="string">(build Dec 09 2018 21:25:21) complex            parallel </i>
  <i name="platform" type="string">IFC18.0.1.163_CrayMPICH7.7.0_MKL18.0.1.163 </i>
  <i name="date" type="string">2019 03 19 </i>
  <i name="time" type="string">13:24:26 </i>
 </generator>
 <incar>
  <i type="string" name="PREC">normal</i>
  <i type="int" name="IBRION">     2</i>
  <i name="EDIFF">      0.00040000</i>
  <i name="EDIFFG">     -0.01000000</i>
  <i type="int" name="NSW">    15</i>
  <i type="int" name="ISIF">     2</i>
  <i name="ENCUT">    150.00000000</i>
  <i type="int" name="NBANDS">     8</i>
  <i type="logical" name="LREAL"> F  </i>
  <i type="int" name="ISMEAR">     0</i>
  <i name="SIGMA">      0.20000000</i>
  <v type="int" name="KPOINT_BSE">    -1     0     0     0</v>
 </incar>
 <structure name="primitive_cell" >
  <crystal>
   <varray name="basis" >
    <v>       0.00000000       2.71500000       2.71500000 </v>
    <v>       2.71500000       0.00000000       2.71500000 </v>
    <v>       2.71500000       2.71500000       0.00000000 </v>
   </varray>
   <i name="volume">     40.02575175 </i>
   <varray name="rec_basis" >
    <v>      -0.18416206       0.18416206       0.18416206 </v>
    <v>       0.18416206      -0.18416206       0.18416206 </v>
    <v>       0.18416206       0.18416206      -0.18416206 </v>
   </varray>
  </crystal>
  <varray name="positions" >
   <v>      -0.50000000      -0.50000000      -0.50000000 </v>
   <v>      -0.25000000      -0.25000000      -0.25000000 </v>
  </varray>
 </structure>
 <varray name="primitive_index" >
  <v type="int" >        1 </v>
  <v type="int" >        2 </v>
 </varray>
 <kpoints>
  <generation param="Monkhorst-Pack">
   <v type="int" name="divisions">      12       12       12 </v>
   <v name="usershift">      0.00000000       0.00000000       0.00000000 </v>
   <v name="genvec1">      0.08333333      -0.00000000       0.00000000 </v>
   <v name="genvec2">     -0.00000000       0.08333333      -0.00000000 </v>
   <v name="genvec3">      0.00000000       0.00000000       0.08333333 </v>
   <v name="shift">      0.50000000       0.50000000       0.50000000 </v>
  </generation>
  <varray name="kpointlist" >
   <v>       0.04166667       0.04166667       0.04166667 </v>
   <v>       0.12500000       0.04166667       0.04166667 </v>
   <v>       0.20833333       0.04166667       0.04166667 </v>
   <v>       0.29166667       0.04166667       0.04166667 </v>
   <v>       0.37500000       0.04166667       0.04166667 </v>
   <v>       0.45833333       0.04166667       0.04166667 </v>
   <v>      -0.45833333       0.04166667       0.04166667 </v>
   <v>      -0.37500000       0.04166667       0.04166667 </v>
   <v>      -0.29166667       0.04166667       0.04166667 </v>
   <v>      -0.20833333       0.04166667       0.04166667 </v>
   <v>      -0.12500000       0.04166667       0.04166667 </v>
   <v>      -0.04166667       0.04166667       0.04166667 </v>
   <v>       0.12500000       0.12500000       0.04166667 </v>
   <v>       0.20833333       0.12500000       0.04166667 </v>
   <v>       0.29166667       0.12500000       0.04166667 </v>
   <v>       0.37500000       0.12500000       0.04166667 </v>
   <v>       0.45833333       0.12500000       0.04166667 </v>
   <v>      -0.45833333       0.12500000       0.04166667 </v>
   <v>      -0.37500000       0.12500000       0.04166667 </v>
   <v>      -0.29166667       0.12500000       0.04166667 </v>
   <v>      -0.20833333       0.12500000       0.04166667 </v>
   <v>      -0.12500000       0.12500000       0.04166667 </v>
   <v>      -0.04166667       0.12500000       0.04166667 </v>
   <v>       0.20833333       0.20833333       0.04166667 </v>
   <v>       0.29166667       0.20833333       0.04166667 </v>
   <v>       0.37500000       0.20833333       0.04166667 </v>
   <v>       0.45833333       0.20833333       0.04166667 </v>
   <v>      -0.45833333       0.20833333       0.04166667 </v>
   <v>      -0.37500000       0.20833333       0.04166667 </v>
   <v>      -0.29166667       0.20833333       0.04166667 </v>
   <v>      -0.20833333       0.20833333       0.04166667 </v>
   <v>      -0.12500000       0.20833333       0.04166667 </v>
   <v>      -0.04166667       0.20833333       0.04166667 </v>
   <v>       0.29166667       0.29166667       0.04166667 </v>
   <v>       0.37500000       0.29166667       0.04166667 </v>
   <v>       0.45833333       0.29166667       0.04166667 </v>
   <v>      -0.45833333       0.29166667       0.04166667 </v>
   <v>      -0.37500000       0.29166667       0.04166667 </v>
   <v>      -0.29166667       0.29166667       0.04166667 </v>
   <v>      -0.20833333       0.29166667       0.04166667 </v>
   <v>      -0.12500000       0.29166667       0.04166667 </v>
   <v>      -0.04166667       0.29166667       0.04166667 </v>
   <v>       0.37500000       0.37500000       0.04166667 </v>
   <v>       0.45833333       0.37500000       0.04166667 </v>
   <v>      -0.45833333       0.37500000       0.04166667 </v>
   <v>      -0.37500000       0.37500000       0.04166667 </v>
   <v>      -0.29166667       0.37500000       0.04166667 </v>
   <v>      -0.20833333       0.37500000       0.04166667 </v>
   <v>      -0.12500000       0.37500000       0.04166667 </v>
   <v>      -0.04166667       0.37500000       0.04166667 </v>
   <v>       0.45833333       0.45833333       0.04166667 </v>
   <v>      -0.45833333       0.45833333       0.04166667 </v>
   <v>      -0.37500000       0.45833333       0.04166667 </v>
   <v>      -0.29166667       0.45833333       0.04166667 </v>
   <v>      -0.20833333       0.45833333       0.04166667 </v>
   <v>      -0.12500000       0.45833333       0.04166667 </v>
   <v>      -0.04166667       0.45833333       0.04166667 </v>
   <v>      -0.45833333      -0.45833333       0.04166667 </v>
   <v>      -0.37500000      -0.45833333       0.04166667 </v>
   <v>      -0.29166667      -0.45833333       0.04166667 </v>
   <v>      -0.20833333      -0.45833333       0.04166667 </v>
   <v>      -0.12500000      -0.45833333       0.04166667 </v>
   <v>      -0.37500000      -0.37500000       0.04166667 </v>
   <v>      -0.29166667      -0.37500000       0.04166667 </v>
   <v>      -0.20833333      -0.37500000       0.04166667 </v>
   <v>      -0.12500000      -0.37500000       0.04166667 </v>
   <v>      -0.29166667      -0.29166667       0.04166667 </v>
   <v>      -0.20833333      -0.29166667       0.04166667 </v>
   <v>      -0.12500000      -0.29166667       0.04166667 </v>
   <v>      -0.20833333      -0.20833333       0.04166667 </v>
   <v>      -0.12500000      -0.20833333       0.04166667 </v>
   <v>      -0.12500000      -0.12500000       0.04166667 </v>
   <v>       0.12500000       0.12500000       0.12500000 </v>
   <v>       0.20833333       0.12500000       0.12500000 </v>
   <v>       0.29166667       0.12500000       0.12500000 </v>
   <v>       0.37500000       0.12500000       0.12500000 </v>
   <v>       0.45833333       0.12500000       0.12500000 </v>
   <v>      -0.45833333       0.12500000       0.12500000 </v>
   <v>      -0.37500000       0.12500000       0.12500000 </v>
   <v>      -0.29166667       0.12500000       0.12500000 </v>
   <v>      -0.20833333       0.12500000       0.12500000 </v>
   <v>      -0.12500000       0.12500000       0.12500000 </v>
   <v>       0.20833333       0.20833333       0.12500000 </v>
   <v>       0.29166667       0.20833333       0.12500000 </v>
   <v>       0.37500000       0.20833333       0.12500000 </v>
   <v>       0.45833333       0.20833333       0.12500000 </v>
   <v>      -0.45833333       0.20833333       0.12500000 </v>
   <v>      -0.37500000       0.20833333       0.12500000 </v>
   <v>      -0.29166667       0.20833333       0.12500000 </v>
   <v>      -0.20833333       0.20833333       0.12500000 </v>
   <v>      -0.12500000       0.20833333       0.12500000 </v>
   <v>       0.29166667       0.29166667       0.12500000 </v>
   <v>       0.37500000       0.29166667       0.12500000 </v>
   <v>       0.45833333       0.29166667       0.12500000 </v>
   <v>      -0.45833333       0.29166667       0.12500000 </v>
   <v>      -0.37500000       0.29166667       0.12500000 </v>
   <v>      -0.29166667       0.29166667       0.12500000 </v>
   <v>      -0.20833333       0.29166667       0.12500000 </v>
   <v>      -0.12500000       0.29166667       0.12500000 </v>
   <v>       0.37500000       0.37500000       0.12500000 </v>
   <v>       0.45833333       0.37500000       0.12500000 </v>
   <v>      -0.45833333       0.37500000       0.12500000 </v>
   <v>      -0.37500000       0.37500000       0.12500000 </v>
   <v>      -0.29166667       0.37500000       0.12500000 </v>
   <v>      -0.20833333       0.37500000       0.12500000 </v>
   <v>      -0.12500000       0.37500000       0.12500000 </v>
   <v>       0.45833333       0.45833333       0.12500000 </v>
   <v>      -0.45833333       0.45833333       0.12500000 </v>
   <v>      -0.37500000       0.45833333       0.12500000 </v>
   <v>      -0.29166667       0.45833333       0.12500000 </v>
   <v>      -0.20833333       0.45833333       0.12500000 </v>
   <v>      -0.12500000       0.45833333       0.12500000 </v>
   <v>      -0.45833333      -0.45833333       0.12500000 </v>
   <v>      -0.37500000      -0.45833333       0.12500000 </v>
   <v>      -0.29166667      -0.45833333       0.12500000 </v>
   <v>      -0.20833333      -0.45833333       0.12500000 </v>
   <v>      -0.37500000      -0.37500000       0.12500000 </v>
   <v>      -0.29166667      -0.37500000       0.12500000 </v>
   <v>      -0.20833333      -0.37500000       0.12500000 </v>
   <v>      -0.29166667      -0.29166667       0.12500000 </v>
   <v>      -0.20833333      -0.29166667       0.12500000 </v>
   <v>      -0.20833333      -0.20833333       0.12500000 </v>
   <v>       0.20833333       0.20833333       0.20833333 </v>
   <v>       0.29166667       0.20833333       0.20833333 </v>
   <v>       0.37500000       0.20833333       0.20833333 </v>
   <v>       0.45833333       0.20833333       0.20833333 </v>
   <v>      -0.45833333       0.20833333       0.20833333 </v>
   <v>      -0.37500000       0.20833333       0.20833333 </v>
   <v>      -0.29166667       0.20833333       0.20833333 </v>
   <v>      -0.20833333       0.20833333       0.20833333 </v>
   <v>       0.29166667       0.29166667       0.20833333 </v>
   <v>       0.37500000       0.29166667       0.20833333 </v>
   <v>       0.45833333       0.29166667       0.20833333 </v>
   <v>      -0.45833333       0.29166667       0.20833333 </v>
   <v>      -0.37500000       0.29166667       0.20833333 </v>
   <v>      -0.29166667       0.29166667       0.20833333 </v>
   <v>      -0.20833333       0.29166667       0.20833333 </v>
   <v>       0.37500000       0.37500000       0.20833333 </v>
   <v>       0.45833333       0.37500000       0.20833333 </v>
   <v>      -0.45833333       0.37500000       0.20833333 </v>
   <v>      -0.37500000       0.37500000       0.20833333 </v>
   <v>      -0.29166667       0.37500000       0.20833333 </v>
   <v>      -0.20833333       0.37500000       0.20833333 </v>
   <v>       0.45833333       0.45833333       0.20833333 </v>
   <v>      -0.45833333       0.45833333       0.20833333 </v>
   <v>      -0.37500000       0.45833333       0.20833333 </v>
   <v>      -0.29166667       0.45833333       0.20833333 </v>
   <v>      -0.20833333       0.45833333       0.20833333 </v>
   <v>      -0.45833333      -0.45833333       0.20833333 </v>
   <v>      -0.37500000      -0.45833333       0.20833333 </v>
   <v>      -0.29166667      -0.45833333       0.20833333 </v>
   <v>      -0.37500000      -0.37500000       0.20833333 </v>
   <v>      -0.29166667      -0.37500000       0.20833333 </v>
   <v>      -0.29166667      -0.29166667       0.20833333 </v>
   <v>       0.29166667       0.29166667       0.29166667 </v>
   <v>       0.37500000       0.29166667       0.29166667 </v>
   <v>       0.45833333       0.29166667       0.29166667 </v>
   <v>      -0.45833333       0.29166667       0.29166667 </v>
   <v>      -0.37500000       0.29166667       0.29166667 </v>
   <v>      -0.29166667       0.29166667       0.29166667 </v>
   <v>       0.37500000       0.37500000       0.29166667 </v>
   <v>       0.45833333       0.37500000       0.29166667 </v>
   <v>      -0.45833333       0.37500000       0.29166667 </v>
   <v>      -0.37500000       0.37500000       0.29166667 </v>
   <v>      -0.29166667       0.37500000       0.29166667 </v>
   <v>       0.45833333       0.45833333       0.29166667 </v>
   <v>      -0.45833333       0.45833333       0.29166667 </v>
   <v>      -0.37500000       0.45833333       0.29166667 </v>
   <v>      -0.29166667       0.45833333       0.29166667 </v>
   <v>      -0.45833333      -0.45833333       0.29166667 </v>
   <v>      -0.37500000      -0.45833333       0.29166667 </v>
   <v>      -0.37500000      -0.37500000       0.29166667 </v>
   <v>       0.37500000       0.37500000       0.37500000 </v>
   <v>       0.45833333       0.37500000       0.37500000 </v>
   <v>      -0.45833333       0.37500000       0.37500000 </v>
   <v>      -0.37500000       0.37500000       0.37500000 </v>
   <v>       0.45833333       0.45833333       0.37500000 </v>
   <v>      -0.45833333       0.45833333       0.37500000 </v>
   <v>      -0.37500000       0.45833333       0.37500000 </v>
   <v>      -0.45833333      -0.45833333       0.37500000 </v>
   <v>       0.45833333       0.45833333       0.45833333 </v>
   <v>      -0.45833333       0.45833333       0.45833333 </v>
  </varray>
  <varray name="weights" >
   <v>       0.00115741 </v>
   <v>       0.00347222 </v>
   <v>       0.00347222 </v>
   <v>       0.00347222 </v>
   <v>       0.00347222 </v>
   <v>       0.00347222 </v>
   <v>       0.00347222 </v>
   <v>       0.00347222 </v>
   <v>       0.00347222 </v>
   <v>       0.00347222 </v>
   <v>       0.00347222 </v>
   <v>       0.00347222 </v>
   <v>       0.00347222 </v>
   <v>       0.00694444 </v>
   <v>       0.00694444 </v>
   <v>       0.00694444 </v>
   <v>       0.00694444 </v>
   <v>       0.00694444 </v>
   <v>       0.00694444 </v>
   <v>       0.00694444 </v>
   <v>       0.00694444 </v>
   <v>       0.00694444 </v>
   <v>       0.00694444 </v>
   <v>       0.00347222 </v>
   <v>       0.00694444 </v>
   <v>       0.00694444 </v>
   <v>       0.00694444 </v>
   <v>       0.00694444 </v>
   <v>       0.00694444 </v>
   <v>       0.00694444 </v>
   <v>       0.00694444 </v>
   <v>       0.00694444 </v>
   <v>       0.00694444 </v>
   <v>       0.00347222 </v>
   <v>       0.00694444 </v>
   <v>       0.00694444 </v>
   <v>       0.00694444 </v>
   <v>       0.00694444 </v>
   <v>       0.00694444 </v>
   <v>       0.00694444 </v>
   <v>       0.00694444 </v>
   <v>       0.00694444 </v>
   <v>       0.00347222 </v>
   <v>       0.00694444 </v>
   <v>       0.00694444 </v>
   <v>       0.00694444 </v>
   <v>       0.00694444 </v>
   <v>       0.00694444 </v>
   <v>       0.00694444 </v>
   <v>       0.00694444 </v>
   <v>       0.00347222 </v>
   <v>       0.00694444 </v>
   <v>       0.00694444 </v>
   <v>       0.00694444 </v>
   <v>       0.00694444 </v>
   <v>       0.00694444 </v>
   <v>       0.00694444 </v>
   <v>       0.00347222 </v>
   <v>       0.00694444 </v>
   <v>       0.00694444 </v>
   <v>       0.00694444 </v>
   <v>       0.00694444 </v>
   <v>       0.00347222 </v>
   <v>       0.00694444 </v>
   <v>       0.00694444 </v>
   <v>       0.00694444 </v>
   <v>       0.00347222 </v>
   <v>       0.00694444 </v>
   <v>       0.00694444 </v>
   <v>       0.00347222 </v>
   <v>       0.00694444 </v>
   <v>       0.00347222 </v>
   <v>       0.00115741 </v>
   <v>       0.00347222 </v>
   <v>       0.00347222 </v>
   <v>       0.00347222 </v>
   <v>       0.00347222 </v>
   <v>       0.00347222 </v>
   <v>       0.00347222 </v>
   <v>       0.00347222 </v>
   <v>       0.00347222 </v>
   <v>       0.00347222 </v>
   <v>       0.00347222 </v>
   <v>       0.00694444 </v>
   <v>       0.00694444 </v>
   <v>       0.00694444 </v>
   <v>       0.00694444 </v>
   <v>       0.00694444 </v>
   <v>       0.00694444 </v>
   <v>       0.00694444 </v>
   <v>       0.00694444 </v>
   <v>       0.00347222 </v>
   <v>       0.00694444 </v>
   <v>       0.00694444 </v>
   <v>       0.00694444 </v>
   <v>       0.00694444 </v>
   <v>       0.00694444 </v>
   <v>       0.00694444 </v>
   <v>       0.00694444 </v>
   <v>       0.00347222 </v>
   <v>       0.00694444 </v>
   <v>       0.00694444 </v>
   <v>       0.00694444 </v>
   <v>       0.00694444 </v>
   <v>       0.00694444 </v>
   <v>       0.00694444 </v>
   <v>       0.00347222 </v>
   <v>       0.00694444 </v>
   <v>       0.00694444 </v>
   <v>       0.00694444 </v>
   <v>       0.00694444 </v>
   <v>       0.00694444 </v>
   <v>       0.00347222 </v>
   <v>       0.00694444 </v>
   <v>       0.00694444 </v>
   <v>       0.00694444 </v>
   <v>       0.00347222 </v>
   <v>       0.00694444 </v>
   <v>       0.00694444 </v>
   <v>       0.00347222 </v>
   <v>       0.00694444 </v>
   <v>       0.00347222 </v>
   <v>       0.00115741 </v>
   <v>       0.00347222 </v>
   <v>       0.00347222 </v>
   <v>       0.00347222 </v>
   <v>       0.00347222 </v>
   <v>       0.00347222 </v>
   <v>       0.00347222 </v>
   <v>       0.00347222 </v>
   <v>       0.00347222 </v>
   <v>       0.00694444 </v>
   <v>       0.00694444 </v>
   <v>       0.00694444 </v>
   <v>       0.00694444 </v>
   <v>       0.00694444 </v>
   <v>       0.00694444 </v>
   <v>       0.00347222 </v>
   <v>       0.00694444 </v>
   <v>       0.00694444 </v>
   <v>       0.00694444 </v>
   <v>       0.00694444 </v>
   <v>       0.00694444 </v>
   <v>       0.00347222 </v>
   <v>       0.00694444 </v>
   <v>       0.00694444 </v>
   <v>       0.00694444 </v>
   <v>       0.00694444 </v>
   <v>       0.00347222 </v>
   <v>       0.00694444 </v>
   <v>       0.00694444 </v>
   <v>       0.00347222 </v>
   <v>       0.00694444 </v>
   <v>       0.00347222 </v>
   <v>       0.00115741 </v>
   <v>       0.00347222 </v>
   <v>       0.00347222 </v>
   <v>       0.00347222 </v>
   <v>       0.00347222 </v>
   <v>       0.00347222 </v>
   <v>       0.00347222 </v>
   <v>       0.00694444 </v>
   <v>       0.00694444 </v>
   <v>       0.00694444 </v>
   <v>       0.00694444 </v>
   <v>       0.00347222 </v>
   <v>       0.00694444 </v>
   <v>       0.00694444 </v>
   <v>       0.00694444 </v>
   <v>       0.00347222 </v>
   <v>       0.00694444 </v>
   <v>       0.00347222 </v>
   <v>       0.00115741 </v>
   <v>       0.00347222 </v>
   <v>       0.00347222 </v>
   <v>       0.00347222 </v>
   <v>       0.00347222 </v>
   <v>       0.00694444 </v>
   <v>       0.00694444 </v>
   <v>       0.00347222 </v>
   <v>       0.00115741 </v>
   <v>       0.00347222 </v>
  </varray>
 </kpoints>
 <parameters>
  <separator name="general" >
   <i type="string" name="SYSTEM">unknown system</i>
   <i type="logical" name="LCOMPAT"> F  </i>
  </separator>
  <separator name="electronic" >
   <i type="string" name="PREC">normal</i>
   <i name="ENMAX">    150.00000000</i>
   <i name="ENAUG">    322.06900000</i>
   <i name="EDIFF">      0.00040000</i>
   <i type="int" name="IALGO">    38</i>
   <i type="int" name="IWAVPR">    11</i>
   <i type="int" name="NBANDS">     8</i>
   <i name="NELECT">      8.00000000</i>
   <i type="int" name="TURBO">     0</i>
   <i type="int" name="IRESTART">     0</i>
   <i type="int" name="NREBOOT">     0</i>
   <i type="int" name="NMIN">     0</i>
   <i name="EREF">      0.00000000</i>
   <separator name="electronic smearing" >
    <i type="int" name="ISMEAR">     0</i>
    <i name="SIGMA">      0.20000000</i>
    <i name="KSPACING">      0.50000000</i>
    <i type="logical" name="KGAMMA"> T  </i>
   </separator>
   <separator name="electronic projectors" >
    <i type="logical" name="LREAL"> F  </i>
    <v name="ROPT">      0.00000000</v>
    <i type="int" name="LMAXPAW">  -100</i>
    <i type="int" name="LMAXMIX">     2</i>
    <i type="logical" name="NLSPLINE"> F  </i>
   </separator>
   <separator name="electronic startup" >
    <i type="int" name="ISTART">     1</i>
    <i type="int" name="ICHARG">     0</i>
    <i type="int" name="INIWAV">     1</i>
   </separator>
   <separator name="electronic spin" >
    <i type="int" name="ISPIN">     1</i>
    <i type="logical" name="LNONCOLLINEAR"> F  </i>
    <v name="MAGMOM">      1.00000000      1.00000000</v>
    <i name="NUPDOWN">     -1.00000000</i>
    <i type="logical" name="LSORBIT"> F  </i>
    <v name="SAXIS">      0.00000000      0.00000000      1.00000000</v>
    <i type="logical" name="LSPIRAL"> F  </i>
    <v name="QSPIRAL">      0.00000000      0.00000000      0.00000000</v>
    <i type="logical" name="LZEROZ"> F  </i>
   </separator>
   <separator name="electronic exchange-correlation" >
    <i type="logical" name="LASPH"> F  </i>
    <i type="logical" name="LMETAGGA"> F  </i>
   </separator>
   <separator name="electronic convergence" >
    <i type="int" name="NELM">    60</i>
    <i type="int" name="NELMDL">     0</i>
    <i type="int" name="NELMIN">     2</i>
    <i name="ENINI">    150.00000000</i>
    <separator name="electronic convergence detail" >
     <i type="logical" name="LDIAG"> T  </i>
     <i type="logical" name="LSUBROT"> F  </i>
     <i name="WEIMIN">      0.00100000</i>
     <i name="EBREAK">      0.00001250</i>
     <i name="DEPER">      0.30000000</i>
     <i type="int" name="NRMM">     4</i>
     <i name="TIME">      0.40000000</i>
    </separator>
   </separator>
   <separator name="electronic mixer" >
    <i name="AMIX">      0.40000000</i>
    <i name="BMIX">      1.00000000</i>
    <i name="AMIN">      0.10000000</i>
    <i name="AMIX_MAG">      1.60000000</i>
    <i name="BMIX_MAG">      1.00000000</i>
    <separator name="electronic mixer details" >
     <i type="int" name="IMIX">     4</i>
     <i type="logical" name="MIXFIRST"> F  </i>
     <i type="int" name="MAXMIX">   -45</i>
     <i name="WC">    100.00000000</i>
     <i type="int" name="INIMIX">     1</i>
     <i type="int" name="MIXPRE">     1</i>
     <i type="int" name="MREMOVE">     5</i>
    </separator>
   </separator>
   <separator name="electronic dipolcorrection" >
    <i type="logical" name="LDIPOL"> F  </i>
    <i type="logical" name="LMONO"> F  </i>
    <i type="int" name="IDIPOL">     0</i>
    <i name="EPSILON">      1.00000000</i>
    <v name="DIPOL">   -100.00000000   -100.00000000   -100.00000000</v>
    <i name="EFIELD">      0.00000000</i>
   </separator>
  </separator>
  <separator name="grids" >
   <i type="int" name="NGX">    12</i>
   <i type="int" name="NGY">    12</i>
   <i type="int" name="NGZ">    12</i>
   <i type="int" name="NGXF">    24</i>
   <i type="int" name="NGYF">    24</i>
   <i type="int" name="NGZF">    24</i>
   <i type="logical" name="ADDGRID"> F  </i>
  </separator>
  <separator name="ionic" >
   <i type="int" name="NSW">    15</i>
   <i type="int" name="IBRION">     2</i>
   <i type="int" name="MDALGO">     0</i>
   <i type="int" name="ISIF">     2</i>
   <i name="PSTRESS">      0.00000000</i>
   <i name="EDIFFG">     -0.01000000</i>
   <i type="int" name="NFREE">     1</i>
   <i name="POTIM">      0.50000000</i>
   <i name="SMASS">     -3.00000000</i>
   <i name="SCALEE">      1.00000000</i>
  </separator>
  <separator name="ionic md" >
   <i name="TEBEG">      0.00010000</i>
   <i name="TEEND">      0.00010000</i>
   <i type="int" name="NBLOCK">     1</i>
   <i type="int" name="KBLOCK">    15</i>
   <i type="int" name="NPACO">   256</i>
   <i name="APACO">     16.00000000</i>
  </separator>
  <separator name="symmetry" >
   <i type="int" name="ISYM">     2</i>
   <i name="SYMPREC">      0.00001000</i>
  </separator>
  <separator name="dos" >
   <i type="int" name="LORBIT">     0</i>
   <v name="RWIGS">     -1.00000000</v>
   <i type="int" name="NEDOS">   301</i>
   <i name="EMIN">     10.00000000</i>
   <i name="EMAX">    -10.00000000</i>
   <i name="EFERMI">      0.00000000</i>
  </separator>
  <separator name="writing" >
   <i type="int" name="NWRITE">     2</i>
   <i type="logical" name="LWAVE"> T  </i>
   <i type="logical" name="LDOWNSAMPLE"> F  </i>
   <i type="logical" name="LCHARG"> T  </i>
   <i type="logical" name="LPARD"> F  </i>
   <i type="logical" name="LVTOT"> F  </i>
   <i type="logical" name="LVHAR"> F  </i>
   <i type="logical" name="LELF"> F  </i>
   <i type="logical" name="LOPTICS"> F  </i>
   <v name="STM">      0.00000000      0.00000000      0.00000000      0.00000000      0.00000000      0.00000000      0.00000000</v>
  </separator>
  <separator name="performance" >
   <i type="int" name="NPAR">     8</i>
   <i type="int" name="NSIM">     4</i>
   <i type="int" name="NBLK">    -1</i>
   <i type="logical" name="LPLANE"> T  </i>
   <i type="logical" name="LSCALAPACK"> T  </i>
   <i type="logical" name="LSCAAWARE"> F  </i>
   <i type="logical" name="LSCALU"> F  </i>
   <i type="logical" name="LASYNC"> F  </i>
   <i type="logical" name="LORBITALREAL"> F  </i>
  </separator>
  <separator name="miscellaneous" >
   <i type="int" name="IDIOT">     3</i>
   <i type="int" name="ISPECIAL">     0</i>
   <i type="logical" name="LMUSIC"> F  </i>
   <v name="POMASS">     28.08500000</v>
   <v name="DARWINR">      0.00000000</v>
   <v name="DARWINV">      1.00000000</v>
   <i type="logical" name="LCORR"> T  </i>
  </separator>
  <i type="logical" name="GGA_COMPAT"> T  </i>
  <i type="logical" name="LBERRY"> F  </i>
  <i type="int" name="ICORELEVEL">     0</i>
  <i type="logical" name="LDAU"> F  </i>
  <i type="int" name="I_CONSTRAINED_M">     0</i>
  <separator name="electronic exchange-correlation" >
   <i type="string" name="GGA">--</i>
   <i type="int" name="VOSKOWN">     0</i>
   <i type="logical" name="LHFCALC"> F  </i>
   <i type="string" name="PRECFOCK"></i>
   <i type="logical" name="LSYMGRAD"> F  </i>
   <i type="logical" name="LHFONE"> F  </i>
   <i type="logical" name="LRHFCALC"> F  </i>
   <i type="logical" name="LTHOMAS"> F  </i>
   <i type="logical" name="LMODELHF"> F  </i>
   <i name="ENCUT4O">     -1.00000000</i>
   <i type="int" name="EXXOEP">     0</i>
   <i type="int" name="FOURORBIT">     0</i>
   <i name="AEXX">      0.00000000</i>
   <i name="HFALPHA">      0.00000000</i>
   <i name="MCALPHA">      0.00000000</i>
   <i name="ALDAX">      1.00000000</i>
   <i name="AGGAX">      1.00000000</i>
   <i name="ALDAC">      1.00000000</i>
   <i name="AGGAC">      1.00000000</i>
   <i type="int" name="NKREDX">     1</i>
   <i type="int" name="NKREDY">     1</i>
   <i type="int" name="NKREDZ">     1</i>
   <i type="logical" name="SHIFTRED"> F  </i>
   <i type="logical" name="ODDONLY"> F  </i>
   <i type="logical" name="EVENONLY"> F  </i>
   <i type="int" name="LMAXFOCK">     0</i>
   <i type="int" name="NMAXFOCKAE">     0</i>
   <i type="logical" name="LFOCKAEDFT"> F  </i>
   <i name="HFSCREEN">      0.00000000</i>
   <i name="HFSCREENC">      0.00000000</i>
   <i type="int" name="NBANDSGWLOW">     0</i>
  </separator>
  <separator name="vdW DFT" >
   <i type="logical" name="LUSE_VDW"> F  </i>
   <i name="Zab_VDW">     -0.84910000</i>
   <i name="PARAM1">      0.12340000</i>
   <i name="PARAM2">      1.00000000</i>
   <i name="PARAM3">      0.00000000</i>
  </separator>
  <separator name="model GW" >
   <i type="int" name="MODEL_GW">     0</i>
   <i name="MODEL_EPS0">     12.00772552</i>
   <i name="MODEL_ALPHA">      1.00000000</i>
  </separator>
  <separator name="linear response parameters" >
   <i type="logical" name="LEPSILON"> F  </i>
   <i type="logical" name="LRPA"> F  </i>
   <i type="logical" name="LNABLA"> F  </i>
   <i type="logical" name="LVEL"> F  </i>
   <i type="int" name="KINTER">     0</i>
   <i name="CSHIFT">      0.10000000</i>
   <i name="OMEGAMAX">     -1.00000000</i>
   <i name="DEG_THRESHOLD">      0.00200000</i>
   <i name="RTIME">     -0.10000000</i>
   <i name="WPLASMAI">      0.00000000</i>
   <v name="DFIELD">      0.00000000      0.00000000      0.00000000</v>
   <v name="WPLASMA">      0.00000000      0.00000000      0.00000000      0.00000000      0.00000000      0.00000000      0.00000000      0.00000000      0.00000000</v>
  </separator>
  <separator name="orbital magnetization" >
   <i type="logical" name="NUCIND"> F  </i>
   <v name="MAGPOS">      0.00000000      0.00000000      0.00000000</v>
   <i type="logical" name="LNICSALL"> T  </i>
   <i type="logical" name="ORBITALMAG"> F  </i>
   <i type="logical" name="LMAGBLOCH"> F  </i>
   <i type="logical" name="LCHIMAG"> F  </i>
   <i type="logical" name="LGAUGE"> T  </i>
   <i type="int" name="MAGATOM">     0</i>
   <v name="MAGDIPOL">      0.00000000      0.00000000      0.00000000</v>
   <v name="AVECCONST">      0.00000000      0.00000000      0.00000000</v>
  </separator>
  <separator name="response functions" >
   <i type="logical" name="LADDER"> F  </i>
   <i type="logical" name="LRPAFORCE"> F  </i>
   <i type="logical" name="LFXC"> F  </i>
   <i type="logical" name="LHARTREE"> T  </i>
   <i type="int" name="IBSE">     0</i>
   <v type="int" name="KPOINT">    -1     0     0     0</v>
   <i type="logical" name="LTCTE"> F  </i>
   <i type="logical" name="LTETE"> F  </i>
   <i type="logical" name="LTRIPLET"> F  </i>
   <i type="logical" name="LFXCEPS"> F  </i>
   <i type="logical" name="LFXHEG"> F  </i>
   <i type="int" name="NATURALO">     2</i>
   <i type="logical" name="L2ORDER"> F  </i>
   <i type="logical" name="LMP2LT"> F  </i>
   <i type="logical" name="LUSEW"> F  </i>
   <i name="ENCUTGW">     -2.00000000</i>
   <i name="ENCUTGWSOFT">     -2.00000000</i>
   <i name="ENCUTLF">     -1.00000000</i>
   <i type="int" name="LMAXMP2">    -1</i>
   <i name="SCISSOR">      0.00000000</i>
   <i type="int" name="NOMEGA">     0</i>
   <i type="int" name="NOMEGAR">     0</i>
   <i type="int" name="NBANDSGW">    -1</i>
   <i type="int" name="NBANDSO">    -1</i>
   <i type="int" name="NBANDSV">    -1</i>
   <i type="int" name="NELM">     1</i>
   <i type="int" name="NELMHF">     1</i>
   <i type="int" name="DIM">     3</i>
   <i type="int" name="ANTIRES">     0</i>
   <i name="OMEGAMAX">    -30.00000000</i>
   <i name="OMEGAMIN">    -30.00000000</i>
   <i name="OMEGATL">   -200.00000000</i>
   <i type="int" name="OMEGAGRID">   140</i>
   <i name="CSHIFT">     -0.10000000</i>
   <i type="logical" name="SELFENERGY"> F  </i>
   <i type="logical" name="LSPECTRAL"> F  </i>
   <i type="logical" name="LSPECTRALGW"> F  </i>
   <i type="logical" name="LSINGLES"> F  </i>
   <i type="logical" name="LFERMIGW"> F  </i>
   <i type="logical" name="ODDONLYGW"> F  </i>
   <i type="logical" name="EVENONLYGW"> F  </i>
   <i type="int" name="NKREDLFX">     1</i>
   <i type="int" name="NKREDLFY">     1</i>
   <i type="int" name="NKREDLFZ">     1</i>
   <i type="int" name="MAXMEM">  2800</i>
   <i type="int" name="TELESCOPE">     0</i>
   <i type="int" name="TAUPAR">     1</i>
   <i type="int" name="OMEGAPAR">    -1</i>
   <i name="LAMBDA">      1.00000000</i>
  </separator>
  <separator name="External order field" >
   <i name="OFIELD_KAPPA">      0.00000000</i>
   <v name="OFIELD_K">      0.00000000      0.00000000      0.00000000</v>
   <i name="OFIELD_Q6_NEAR">      0.00000000</i>
   <i name="OFIELD_Q6_FAR">      0.00000000</i>
   <i name="OFIELD_A">      0.00000000</i>
  </separator>
 </parameters>
 <atominfo>
  <atoms>       2 </atoms>
  <types>       1 </types>
  <array name="atoms" >
   <dimension dim="1">ion</dimension>
   <field type="string">element</field>
   <field type="int">atomtype</field>
   <set>
    <rc><c>Si</c><c>   1</c></rc>
    <rc><c>Si</c><c>   1</c></rc>
   </set>
  </array>
  <array name="atomtypes" >
   <dimension dim="1">type</dimension>
   <field type="int">atomspertype</field>
   <field type="string">element</field>
   <field>mass</field>
   <field>valence</field>
   <field type="string">pseudopotential</field>
   <set>
    <rc><c>   2</c><c>Si</c><c>     28.08500000</c><c>      4.00000000</c><c> PAW_PBE Si 05Jan2001                   </c></rc>
   </set>
  </array>
 </atominfo>
 <structure name="initialpos" >
  <crystal>
   <varray name="basis" >
    <v>       0.00000000       2.71500000       2.71500000 </v>
    <v>       2.71500000       0.00000000       2.71500000 </v>
    <v>       2.71500000       2.71500000       0.00000000 </v>
   </varray>
   <i name="volume">     40.02575175 </i>
   <varray name="rec_basis" >
    <v>      -0.18416206       0.18416206       0.18416206 </v>
    <v>       0.18416206      -0.18416206       0.18416206 </v>
    <v>       0.18416206       0.18416206      -0.18416206 </v>
   </varray>
  </crystal>
  <varray name="positions" >
   <v>       0.50000000       0.50000000       0.50000000 </v>
   <v>       0.75000000       0.75000000       0.75000000 </v>
  </varray>
 </structure>
 <calculation>
  <scstep>
   <time name="dav">    0.77    0.78</time>
   <time name="total">    0.84    0.89</time>
   <energy>
    <i name="alphaZ">      3.36414203 </i>
    <i name="ewald">   -228.56352493 </i>
    <i name="hartreedc">    -14.88198194 </i>
    <i name="XCdc">    -17.92438089 </i>
    <i name="pawpsdc">     76.67661310 </i>
    <i name="pawaedc">    -41.72828478 </i>
    <i name="eentropy">     -0.00004894 </i>
    <i name="bandstr">      6.22080347 </i>
    <i name="atom">    206.09183643 </i>
    <i name="e_fr_energy">    -10.74482644 </i>
    <i name="e_wo_entrp">    -10.74477750 </i>
    <i name="e_0_energy">    -10.74480197 </i>
   </energy>
  </scstep>
  <scstep>
   <time name="dav">    0.75    0.74</time>
   <time name="total">    0.78    0.80</time>
   <energy>
    <i name="alphaZ">      3.36414203 </i>
    <i name="ewald">   -228.56352493 </i>
    <i name="hartreedc">    -14.88189859 </i>
    <i name="XCdc">    -17.92436129 </i>
    <i name="pawpsdc">     76.67538558 </i>
    <i name="pawaedc">    -41.72700745 </i>
    <i name="eentropy">     -0.00004889 </i>
    <i name="bandstr">      6.22065049 </i>
    <i name="atom">    206.09183643 </i>
    <i name="e_fr_energy">    -10.74482662 </i>
    <i name="e_wo_entrp">    -10.74477773 </i>
    <i name="e_0_energy">    -10.74480218 </i>
   </energy>
  </scstep>
  <structure>
   <crystal>
    <varray name="basis" >
     <v>       0.00000000       2.71500000       2.71500000 </v>
     <v>       2.71500000       0.00000000       2.71500000 </v>
     <v>       2.71500000       2.71500000       0.00000000 </v>
    </varray>
    <i name="volume">     40.02575175 </i>
    <varray name="rec_basis" >
     <v>      -0.18416206       0.18416206       0.18416206 </v>
     <v>       0.18416206      -0.18416206       0.18416206 </v>
     <v>       0.18416206       0.18416206      -0.18416206 </v>
    </varray>
   </crystal>
   <varray name="positions" >
    <v>       0.50000000       0.50000000       0.50000000 </v>
    <v>       0.75000000       0.75000000       0.75000000 </v>
   </varray>
  </structure>
  <varray name="forces" >
   <v>       0.00000000       0.00000000       0.00000000 </v>
   <v>      -0.00000000      -0.00000000      -0.00000000 </v>
  </varray>
  <varray name="stress" >
   <v>      19.35206539       0.00000000      -0.00000000 </v>
   <v>       0.00000000      19.35206539       0.00000000 </v>
   <v>      -0.00000000      -0.00000000      19.35206539 </v>
  </varray>
  <energy>
   <i name="e_fr_energy">    -10.74482662 </i>
   <i name="e_wo_entrp">    -10.74480218 </i>
   <i name="e_0_energy">     -0.00004889 </i>
  </energy>
  <time name="totalsc">    2.57    3.85</time>
  <eigenvalues>
   <array>
    <dimension dim="1">band</dimension>
    <dimension dim="2">kpoint</dimension>
    <dimension dim="3">spin</dimension>
    <field>eigene</field>
    <field>occ</field>
    <set>
     <set comment="spin 1">
      <set comment="kpoint 1">
       <r>   -6.1123    1.0000 </r>
       <r>    5.6166    1.0000 </r>
       <r>    5.8369    0.9924 </r>
       <r>    5.8369    0.9924 </r>
       <r>    8.5059    0.0000 </r>
       <r>    8.5126    0.0000 </r>
       <r>    8.5126    0.0000 </r>
       <r>    9.3671    0.0000 </r>
      </set>
      <set comment="kpoint 2">
       <r>   -5.9909    1.0000 </r>
       <r>    4.7199    1.0000 </r>
       <r>    5.4083    1.0000 </r>
       <r>    5.7831    0.9975 </r>
       <r>    8.5870    0.0000 </r>
       <r>    8.6313    0.0000 </r>
       <r>    8.8351    0.0000 </r>
       <r>   10.1985    0.0000 </r>
      </set>
      <set comment="kpoint 3">
       <r>   -5.6913    1.0000 </r>
       <r>    3.2018    1.0000 </r>
       <r>    5.0316    1.0000 </r>
       <r>    5.5085    1.0000 </r>
       <r>    8.3298    0.0000 </r>
       <r>    9.0276    0.0000 </r>
       <r>    9.3376    0.0000 </r>
       <r>   11.5374    0.0000 </r>
      </set>
      <set comment="kpoint 4">
       <r>   -5.2262    1.0000 </r>
       <r>    1.6742    1.0000 </r>
       <r>    4.7319    1.0000 </r>
       <r>    5.1842    1.0000 </r>
       <r>    8.0270    0.0000 </r>
       <r>    9.3257    0.0000 </r>
       <r>    9.5917    0.0000 </r>
       <r>   12.6845    0.0000 </r>
      </set>
      <set comment="kpoint 5">
       <r>   -4.6309    1.0000 </r>
       <r>    0.3003    1.0000 </r>
       <r>    4.5365    1.0000 </r>
       <r>    4.9072    1.0000 </r>
       <r>    7.7793    0.0000 </r>
       <r>    9.3777    0.0000 </r>
       <r>    9.5141    0.0000 </r>
       <r>   13.5658    0.0000 </r>
      </set>
      <set comment="kpoint 6">
       <r>   -4.0236    1.0000 </r>
       <r>   -0.7625    1.0000 </r>
       <r>    4.4538    1.0000 </r>
       <r>    4.7092    1.0000 </r>
       <r>    7.6199    0.0000 </r>
       <r>    9.3432    0.0000 </r>
       <r>    9.3475    0.0000 </r>
       <r>   13.7320    0.0000 </r>
      </set>
      <set comment="kpoint 7">
       <r>   -3.7898    1.0000 </r>
       <r>   -1.1110    1.0000 </r>
       <r>    4.4825    1.0000 </r>
       <r>    4.6072    1.0000 </r>
       <r>    7.5835    0.0000 </r>
       <r>    9.2438    0.0000 </r>
       <r>    9.3778    0.0000 </r>
       <r>   13.6971    0.0000 </r>
      </set>
      <set comment="kpoint 8">
       <r>   -4.2118    1.0000 </r>
       <r>   -0.4603    1.0000 </r>
       <r>    4.6120    1.0000 </r>
       <r>    4.6170    1.0000 </r>
       <r>    7.6605    0.0000 </r>
       <r>    9.2478    0.0000 </r>
       <r>    9.5118    0.0000 </r>
       <r>   13.6569    0.0000 </r>
      </set>
      <set comment="kpoint 9">
       <r>   -4.8394    1.0000 </r>
       <r>    0.7337    1.0000 </r>
       <r>    4.7248    1.0000 </r>
       <r>    4.8464    1.0000 </r>
       <r>    7.8600    0.0000 </r>
       <r>    9.2886    0.0000 </r>
       <r>    9.6659    0.0000 </r>
       <r>   12.9484    0.0000 </r>
      </set>
      <set comment="kpoint 10">
       <r>   -5.3981    1.0000 </r>
       <r>    2.1722    1.0000 </r>
       <r>    4.9480    1.0000 </r>
       <r>    5.1491    1.0000 </r>
       <r>    8.1270    0.0000 </r>
       <r>    9.1735    0.0000 </r>
       <r>    9.6555    0.0000 </r>
       <r>   12.1309    0.0000 </r>
      </set>
      <set comment="kpoint 11">
       <r>   -5.8104    1.0000 </r>
       <r>    3.7262    1.0000 </r>
       <r>    5.2633    1.0000 </r>
       <r>    5.4824    1.0000 </r>
       <r>    8.4014    0.0000 </r>
       <r>    8.8268    0.0000 </r>
       <r>    9.3102    0.0000 </r>
       <r>   11.0560    0.0000 </r>
      </set>
      <set comment="kpoint 12">
       <r>   -6.0515    1.0000 </r>
       <r>    5.1917    1.0000 </r>
       <r>    5.6073    1.0000 </r>
       <r>    5.7133    0.9995 </r>
       <r>    8.3733    0.0000 </r>
       <r>    8.7173    0.0000 </r>
       <r>    8.8159    0.0000 </r>
       <r>    9.7588    0.0000 </r>
      </set>
      <set comment="kpoint 13">
       <r>   -5.9301    1.0000 </r>
       <r>    4.6385    1.0000 </r>
       <r>    5.2552    1.0000 </r>
       <r>    5.3625    1.0000 </r>
       <r>    8.1315    0.0000 </r>
       <r>    9.1557    0.0000 </r>
       <r>    9.3142    0.0000 </r>
       <r>   10.2593    0.0000 </r>
      </set>
      <set comment="kpoint 14">
       <r>   -5.6894    1.0000 </r>
       <r>    3.5916    1.0000 </r>
       <r>    4.6554    1.0000 </r>
       <r>    5.2163    1.0000 </r>
       <r>    8.1506    0.0000 </r>
       <r>    9.3450    0.0000 </r>
       <r>    9.8314    0.0000 </r>
       <r>   10.8672    0.0000 </r>
      </set>
      <set comment="kpoint 15">
       <r>   -5.2778    1.0000 </r>
       <r>    2.1576    1.0000 </r>
       <r>    4.2712    1.0000 </r>
       <r>    4.9184    1.0000 </r>
       <r>    8.3615    0.0000 </r>
       <r>    9.3003    0.0000 </r>
       <r>   10.2214    0.0000 </r>
       <r>   11.0917    0.0000 </r>
      </set>
      <set comment="kpoint 16">
       <r>   -4.7199    1.0000 </r>
       <r>    0.7651    1.0000 </r>
       <r>    4.0098    1.0000 </r>
       <r>    4.6084    1.0000 </r>
       <r>    8.3148    0.0000 </r>
       <r>    9.3015    0.0000 </r>
       <r>   10.2251    0.0000 </r>
       <r>   11.6976    0.0000 </r>
      </set>
      <set comment="kpoint 17">
       <r>   -4.0920    1.0000 </r>
       <r>   -0.4077    1.0000 </r>
       <r>    3.8269    1.0000 </r>
       <r>    4.4107    1.0000 </r>
       <r>    8.1956    0.0000 </r>
       <r>    9.2113    0.0000 </r>
       <r>   10.0544    0.0000 </r>
       <r>   12.8286    0.0000 </r>
      </set>
      <set comment="kpoint 18">
       <r>   -3.6683    1.0000 </r>
       <r>   -1.0520    1.0000 </r>
       <r>    3.7016    1.0000 </r>
       <r>    4.3849    1.0000 </r>
       <r>    8.1591    0.0000 </r>
       <r>    9.1595    0.0000 </r>
       <r>    9.9156    0.0000 </r>
       <r>   13.9234    0.0000 </r>
      </set>
      <set comment="kpoint 19">
       <r>   -3.9046    1.0000 </r>
       <r>   -0.7038    1.0000 </r>
       <r>    3.6520    1.0000 </r>
       <r>    4.5231    1.0000 </r>
       <r>    8.2229    0.0000 </r>
       <r>    9.2073    0.0000 </r>
       <r>    9.8916    0.0000 </r>
       <r>   13.6521    0.0000 </r>
      </set>
      <set comment="kpoint 20">
       <r>   -4.5131    1.0000 </r>
       <r>    0.3450    1.0000 </r>
       <r>    3.7141    1.0000 </r>
       <r>    4.7834    1.0000 </r>
       <r>    8.3879    0.0000 </r>
       <r>    9.2922    0.0000 </r>
       <r>    9.9688    0.0000 </r>
       <r>   12.4968    0.0000 </r>
      </set>
      <set comment="kpoint 21">
       <r>   -5.1074    1.0000 </r>
       <r>    1.6782    1.0000 </r>
       <r>    3.9133    1.0000 </r>
       <r>    5.1167    1.0000 </r>
       <r>    8.6019    0.0000 </r>
       <r>    9.2338    0.0000 </r>
       <r>    9.9892    0.0000 </r>
       <r>   11.6463    0.0000 </r>
      </set>
      <set comment="kpoint 22">
       <r>   -5.5714    1.0000 </r>
       <r>    3.0866    1.0000 </r>
       <r>    4.2984    1.0000 </r>
       <r>    5.4416    1.0000 </r>
       <r>    8.6506    0.0000 </r>
       <r>    9.0469    0.0000 </r>
       <r>    9.6555    0.0000 </r>
       <r>   11.2877    0.0000 </r>
      </set>
      <set comment="kpoint 23">
       <r>   -5.8701    1.0000 </r>
       <r>    4.1706    1.0000 </r>
       <r>    5.0510    1.0000 </r>
       <r>    5.5987    1.0000 </r>
       <r>    8.4239    0.0000 </r>
       <r>    8.8927    0.0000 </r>
       <r>    9.2345    0.0000 </r>
       <r>   10.7094    0.0000 </r>
      </set>
      <set comment="kpoint 24">
       <r>   -5.5077    1.0000 </r>
       <r>    3.3372    1.0000 </r>
       <r>    4.4842    1.0000 </r>
       <r>    4.5007    1.0000 </r>
       <r>    7.5337    0.0000 </r>
       <r>    9.9724    0.0000 </r>
       <r>   10.5614    0.0000 </r>
       <r>   10.5876    0.0000 </r>
      </set>
      <set comment="kpoint 25">
       <r>   -5.1521    1.0000 </r>
       <r>    2.3678    1.0000 </r>
       <r>    3.8935    1.0000 </r>
       <r>    4.3157    1.0000 </r>
       <r>    7.5719    0.0000 </r>
       <r>    9.6113    0.0000 </r>
       <r>   10.7726    0.0000 </r>
       <r>   11.2077    0.0000 </r>
      </set>
      <set comment="kpoint 26">
       <r>   -4.6396    1.0000 </r>
       <r>    1.1509    1.0000 </r>
       <r>    3.4381    1.0000 </r>
       <r>    4.0463    1.0000 </r>
       <r>    7.8403    0.0000 </r>
       <r>    9.8266    0.0000 </r>
       <r>   10.5733    0.0000 </r>
       <r>   11.4178    0.0000 </r>
      </set>
      <set comment="kpoint 27">
       <r>   -4.0195    1.0000 </r>
       <r>   -0.0139    1.0000 </r>
       <r>    3.0423    1.0000 </r>
       <r>    3.9046    1.0000 </r>
       <r>    7.9117    0.0000 </r>
       <r>   10.2912    0.0000 </r>
       <r>   10.8285    0.0000 </r>
       <r>   11.2882    0.0000 </r>
      </set>
      <set comment="kpoint 28">
       <r>   -3.4713    1.0000 </r>
       <r>   -0.8470    1.0000 </r>
       <r>    2.7282    1.0000 </r>
       <r>    3.9419    1.0000 </r>
       <r>    7.9894    0.0000 </r>
       <r>   10.0612    0.0000 </r>
       <r>   11.0921    0.0000 </r>
       <r>   12.2818    0.0000 </r>
      </set>
      <set comment="kpoint 29">
       <r>   -3.4819    1.0000 </r>
       <r>   -0.8282    1.0000 </r>
       <r>    2.5442    1.0000 </r>
       <r>    4.1344    1.0000 </r>
       <r>    8.1875    0.0000 </r>
       <r>    9.9159    0.0000 </r>
       <r>   10.9560    0.0000 </r>
       <r>   13.6575    0.0000 </r>
      </set>
      <set comment="kpoint 30">
       <r>   -4.0363    1.0000 </r>
       <r>    0.0179    1.0000 </r>
       <r>    2.5341    1.0000 </r>
       <r>    4.4510    1.0000 </r>
       <r>    8.5071    0.0000 </r>
       <r>    9.8357    0.0000 </r>
       <r>   10.8686    0.0000 </r>
       <r>   12.2760    0.0000 </r>
      </set>
      <set comment="kpoint 31">
       <r>   -4.6536    1.0000 </r>
       <r>    1.1245    1.0000 </r>
       <r>    2.7823    1.0000 </r>
       <r>    4.8362    1.0000 </r>
       <r>    8.8714    0.0000 </r>
       <r>    9.6043    0.0000 </r>
       <r>   10.6894    0.0000 </r>
       <r>   11.3310    0.0000 </r>
      </set>
      <set comment="kpoint 32">
       <r>   -5.1619    1.0000 </r>
       <r>    2.0577    1.0000 </r>
       <r>    3.5143    1.0000 </r>
       <r>    5.1854    1.0000 </r>
       <r>    8.9567    0.0000 </r>
       <r>    9.1680    0.0000 </r>
       <r>   10.1286    0.0000 </r>
       <r>   11.2598    0.0000 </r>
      </set>
      <set comment="kpoint 33">
       <r>   -5.5135    1.0000 </r>
       <r>    2.6738    1.0000 </r>
       <r>    4.6650    1.0000 </r>
       <r>    5.3121    1.0000 </r>
       <r>    8.4273    0.0000 </r>
       <r>    9.0265    0.0000 </r>
       <r>    9.7115    0.0000 </r>
       <r>   11.6005    0.0000 </r>
      </set>
      <set comment="kpoint 34">
       <r>   -4.8523    1.0000 </r>
       <r>    1.9060    1.0000 </r>
       <r>    3.7657    1.0000 </r>
       <r>    3.8183    1.0000 </r>
       <r>    6.9948    0.0000 </r>
       <r>    8.8160    0.0000 </r>
       <r>   11.9425    0.0000 </r>
       <r>   12.0163    0.0000 </r>
      </set>
      <set comment="kpoint 35">
       <r>   -4.3897    1.0000 </r>
       <r>    1.0546    1.0000 </r>
       <r>    3.2673    1.0000 </r>
       <r>    3.5860    1.0000 </r>
       <r>    7.1155    0.0000 </r>
       <r>    8.4783    0.0000 </r>
       <r>   12.0909    0.0000 </r>
       <r>   12.7062    0.0000 </r>
      </set>
      <set comment="kpoint 36">
       <r>   -3.7960    1.0000 </r>
       <r>    0.1098    1.0000 </r>
       <r>    2.6310    1.0000 </r>
       <r>    3.4553    1.0000 </r>
       <r>    7.3570    0.0000 </r>
       <r>    9.0206    0.0000 </r>
       <r>   11.8638    0.0000 </r>
       <r>   12.7931    0.0000 </r>
      </set>
      <set comment="kpoint 37">
       <r>   -3.1831    1.0000 </r>
       <r>   -0.7208    1.0000 </r>
       <r>    2.0794    1.0000 </r>
       <r>    3.4949    1.0000 </r>
       <r>    7.4731    0.0000 </r>
       <r>   10.2957    0.0000 </r>
       <r>   11.5899    0.0000 </r>
       <r>   12.6211    0.0000 </r>
      </set>
      <set comment="kpoint 38">
       <r>   -2.9767    1.0000 </r>
       <r>   -0.9661    1.0000 </r>
       <r>    1.7369    1.0000 </r>
       <r>    3.6919    1.0000 </r>
       <r>    7.6926    0.0000 </r>
       <r>   11.2457    0.0000 </r>
       <r>   11.9847    0.0000 </r>
       <r>   12.4423    0.0000 </r>
      </set>
      <set comment="kpoint 39">
       <r>   -3.4460    1.0000 </r>
       <r>   -0.3887    1.0000 </r>
       <r>    1.7007    1.0000 </r>
       <r>    4.0193    1.0000 </r>
       <r>    8.0595    0.0000 </r>
       <r>   11.0061    0.0000 </r>
       <r>   12.0722    0.0000 </r>
       <r>   12.3231    0.0000 </r>
      </set>
      <set comment="kpoint 40">
       <r>   -4.0679    1.0000 </r>
       <r>    0.3059    1.0000 </r>
       <r>    2.1597    1.0000 </r>
       <r>    4.4335    1.0000 </r>
       <r>    8.5048    0.0000 </r>
       <r>   10.2449    0.0000 </r>
       <r>   11.3462    0.0000 </r>
       <r>   11.7047    0.0000 </r>
      </set>
      <set comment="kpoint 41">
       <r>   -4.6061    1.0000 </r>
       <r>    0.7836    1.0000 </r>
       <r>    3.1794    1.0000 </r>
       <r>    4.8201    1.0000 </r>
       <r>    8.7235    0.0000 </r>
       <r>    9.4157    0.0000 </r>
       <r>   10.3310    0.0000 </r>
       <r>   11.8292    0.0000 </r>
      </set>
      <set comment="kpoint 42">
       <r>   -4.9993    1.0000 </r>
       <r>    1.2030    1.0000 </r>
       <r>    4.3945    1.0000 </r>
       <r>    4.9865    1.0000 </r>
       <r>    8.1859    0.0000 </r>
       <r>    9.2435    0.0000 </r>
       <r>    9.8332    0.0000 </r>
       <r>   12.2398    0.0000 </r>
      </set>
      <set comment="kpoint 43">
       <r>   -3.9764    1.0000 </r>
       <r>    0.4440    1.0000 </r>
       <r>    3.2443    1.0000 </r>
       <r>    3.3349    1.0000 </r>
       <r>    6.6531    0.0004 </r>
       <r>    7.7302    0.0000 </r>
       <r>   13.4906    0.0000 </r>
       <r>   13.5132    0.0000 </r>
      </set>
      <set comment="kpoint 44">
       <r>   -3.4195    1.0000 </r>
       <r>   -0.3084    1.0000 </r>
       <r>    2.8411    1.0000 </r>
       <r>    3.1328    1.0000 </r>
       <r>    6.8653    0.0000 </r>
       <r>    7.6353    0.0000 </r>
       <r>   13.5274    0.0000 </r>
       <r>   14.2768    0.0000 </r>
      </set>
      <set comment="kpoint 45">
       <r>   -2.7859    1.0000 </r>
       <r>   -1.0175    1.0000 </r>
       <r>    2.1236    1.0000 </r>
       <r>    3.1489    1.0000 </r>
       <r>    7.0572    0.0000 </r>
       <r>    8.5673    0.0000 </r>
       <r>   13.2574    0.0000 </r>
       <r>   14.2818    0.0000 </r>
      </set>
      <set comment="kpoint 46">
       <r>   -2.4366    1.0000 </r>
       <r>   -1.3490    1.0000 </r>
       <r>    1.5732    1.0000 </r>
       <r>    3.3250    1.0000 </r>
       <r>    7.2645    0.0000 </r>
       <r>   10.0753    0.0000 </r>
       <r>   12.9167    0.0000 </r>
       <r>   13.7555    0.0000 </r>
      </set>
      <set comment="kpoint 47">
       <r>   -2.8635    1.0000 </r>
       <r>   -0.9470    1.0000 </r>
       <r>    1.4755    1.0000 </r>
       <r>    3.6407    1.0000 </r>
       <r>    7.6246    0.0000 </r>
       <r>   11.6503    0.0000 </r>
       <r>   12.1216    0.0000 </r>
       <r>   12.8798    0.0000 </r>
      </set>
      <set comment="kpoint 48">
       <r>   -3.4541    1.0000 </r>
       <r>   -0.5856    1.0000 </r>
       <r>    2.0306    1.0000 </r>
       <r>    4.0581    1.0000 </r>
       <r>    8.1049    0.0000 </r>
       <r>   10.4834    0.0000 </r>
       <r>   11.5687    0.0000 </r>
       <r>   12.9027    0.0000 </r>
      </set>
      <set comment="kpoint 49">
       <r>   -3.9781    1.0000 </r>
       <r>   -0.3567    1.0000 </r>
       <r>    3.0749    1.0000 </r>
       <r>    4.4842    1.0000 </r>
       <r>    8.4533    0.0000 </r>
       <r>    9.4183    0.0000 </r>
       <r>   10.3437    0.0000 </r>
       <r>   12.9952    0.0000 </r>
      </set>
      <set comment="kpoint 50">
       <r>   -4.3793    1.0000 </r>
       <r>   -0.0834    1.0000 </r>
       <r>    4.2345    1.0000 </r>
       <r>    4.7172    1.0000 </r>
       <r>    7.9685    0.0000 </r>
       <r>    9.2410    0.0000 </r>
       <r>    9.6989    0.0000 </r>
       <r>   13.2060    0.0000 </r>
      </set>
      <set comment="kpoint 51">
       <r>   -2.8992    1.0000 </r>
       <r>   -0.9765    1.0000 </r>
       <r>    2.9522    1.0000 </r>
       <r>    3.0610    1.0000 </r>
       <r>    6.5593    0.0037 </r>
       <r>    7.0144    0.0000 </r>
       <r>   15.0518    0.0000 </r>
       <r>   15.0629    0.0000 </r>
      </set>
      <set comment="kpoint 52">
       <r>   -2.2711    1.0000 </r>
       <r>   -1.6380    1.0000 </r>
       <r>    2.6524    1.0000 </r>
       <r>    2.9432    1.0000 </r>
       <r>    6.8178    0.0000 </r>
       <r>    7.2059    0.0000 </r>
       <r>   15.0022    0.0000 </r>
       <r>   15.5393    0.0000 </r>
      </set>
      <set comment="kpoint 53">
       <r>   -2.2622    1.0000 </r>
       <r>   -1.5680    1.0000 </r>
       <r>    2.0207    1.0000 </r>
       <r>    3.0886    1.0000 </r>
       <r>    6.9935    0.0000 </r>
       <r>    8.4766    0.0000 </r>
       <r>   13.9649    0.0000 </r>
       <r>   14.6851    0.0000 </r>
      </set>
      <set comment="kpoint 54">
       <r>   -2.7630    1.0000 </r>
       <r>   -1.0675    1.0000 </r>
       <r>    1.7480    1.0000 </r>
       <r>    3.3812    1.0000 </r>
       <r>    7.3332    0.0000 </r>
       <r>   10.1464    0.0000 </r>
       <r>   12.2597    0.0000 </r>
       <r>   13.3332    0.0000 </r>
      </set>
      <set comment="kpoint 55">
       <r>   -3.1898    1.0000 </r>
       <r>   -0.9456    1.0000 </r>
       <r>    2.1830    1.0000 </r>
       <r>    3.7922    1.0000 </r>
       <r>    7.8189    0.0000 </r>
       <r>   10.6512    0.0000 </r>
       <r>   11.7199    0.0000 </r>
       <r>   12.1266    0.0000 </r>
      </set>
      <set comment="kpoint 56">
       <r>   -3.5488    1.0000 </r>
       <r>   -1.0017    1.0000 </r>
       <r>    3.1278    1.0000 </r>
       <r>    4.2439    1.0000 </r>
       <r>    8.2534    0.0000 </r>
       <r>    9.4245    0.0000 </r>
       <r>   10.3889    0.0000 </r>
       <r>   13.9611    0.0000 </r>
      </set>
      <set comment="kpoint 57">
       <r>   -3.8341    1.0000 </r>
       <r>   -0.9676    1.0000 </r>
       <r>    4.1702    1.0000 </r>
       <r>    4.5614    1.0000 </r>
       <r>    7.8593    0.0000 </r>
       <r>    9.1926    0.0000 </r>
       <r>    9.5633    0.0000 </r>
       <r>   13.8146    0.0000 </r>
      </set>
      <set comment="kpoint 58">
       <r>   -2.2943    1.0000 </r>
       <r>   -1.6516    1.0000 </r>
       <r>    2.8938    1.0000 </r>
       <r>    3.0058    1.0000 </r>
       <r>    6.6052    0.0013 </r>
       <r>    6.8014    0.0000 </r>
       <r>   15.7344    0.0000 </r>
       <r>   15.7757    0.0000 </r>
      </set>
      <set comment="kpoint 59">
       <r>   -2.8650    1.0000 </r>
       <r>   -0.9830    1.0000 </r>
       <r>    2.7153    1.0000 </r>
       <r>    3.0061    1.0000 </r>
       <r>    6.8224    0.0000 </r>
       <r>    7.3616    0.0000 </r>
       <r>   14.2650    0.0000 </r>
       <r>   15.0494    0.0000 </r>
      </set>
      <set comment="kpoint 60">
       <r>   -3.3080    1.0000 </r>
       <r>   -0.4463    1.0000 </r>
       <r>    2.3285    1.0000 </r>
       <r>    3.2700    1.0000 </r>
       <r>    7.1794    0.0000 </r>
       <r>    8.7443    0.0000 </r>
       <r>   12.5480    0.0000 </r>
       <r>   13.5350    0.0000 </r>
      </set>
      <set comment="kpoint 61">
       <r>   -3.6120    1.0000 </r>
       <r>   -0.3704    1.0000 </r>
       <r>    2.5285    1.0000 </r>
       <r>    3.6670    1.0000 </r>
       <r>    7.6703    0.0000 </r>
       <r>   10.5042    0.0000 </r>
       <r>   10.9507    0.0000 </r>
       <r>   11.9235    0.0000 </r>
      </set>
      <set comment="kpoint 62">
       <r>   -3.7823    1.0000 </r>
       <r>   -0.6651    1.0000 </r>
       <r>    3.3011    1.0000 </r>
       <r>    4.1455    1.0000 </r>
       <r>    8.1608    0.0000 </r>
       <r>    9.5342    0.0000 </r>
       <r>   10.5247    0.0000 </r>
       <r>   12.5202    0.0000 </r>
      </set>
      <set comment="kpoint 63">
       <r>   -3.4612    1.0000 </r>
       <r>   -0.2751    1.0000 </r>
       <r>    3.0694    1.0000 </r>
       <r>    3.1712    1.0000 </r>
       <r>    6.5731    0.0027 </r>
       <r>    7.3269    0.0000 </r>
       <r>   14.2846    0.0000 </r>
       <r>   14.2857    0.0000 </r>
      </set>
      <set comment="kpoint 64">
       <r>   -3.9291    1.0000 </r>
       <r>    0.3745    1.0000 </r>
       <r>    3.0265    1.0000 </r>
       <r>    3.3252    1.0000 </r>
       <r>    6.9635    0.0000 </r>
       <r>    8.0085    0.0000 </r>
       <r>   12.8023    0.0000 </r>
       <r>   13.4888    0.0000 </r>
      </set>
      <set comment="kpoint 65">
       <r>   -4.2418    1.0000 </r>
       <r>    0.6405    1.0000 </r>
       <r>    3.0125    1.0000 </r>
       <r>    3.7104    1.0000 </r>
       <r>    7.5801    0.0000 </r>
       <r>    9.3845    0.0000 </r>
       <r>   11.1975    0.0000 </r>
       <r>   12.0834    0.0000 </r>
      </set>
      <set comment="kpoint 66">
       <r>   -4.3916    1.0000 </r>
       <r>    0.3616    1.0000 </r>
       <r>    3.5567    1.0000 </r>
       <r>    4.2201    1.0000 </r>
       <r>    8.1639    0.0000 </r>
       <r>    9.7206    0.0000 </r>
       <r>   10.7010    0.0000 </r>
       <r>   11.2290    0.0000 </r>
      </set>
      <set comment="kpoint 67">
       <r>   -4.4410    1.0000 </r>
       <r>    1.1734    1.0000 </r>
       <r>    3.4761    1.0000 </r>
       <r>    3.5507    1.0000 </r>
       <r>    6.7930    0.0000 </r>
       <r>    8.2248    0.0000 </r>
       <r>   12.7031    0.0000 </r>
       <r>   12.7494    0.0000 </r>
      </set>
      <set comment="kpoint 68">
       <r>   -4.7982    1.0000 </r>
       <r>    1.7220    1.0000 </r>
       <r>    3.5577    1.0000 </r>
       <r>    3.9183    1.0000 </r>
       <r>    7.3188    0.0000 </r>
       <r>    9.0340    0.0000 </r>
       <r>   11.4030    0.0000 </r>
       <r>   11.9454    0.0000 </r>
      </set>
      <set comment="kpoint 69">
       <r>   -4.9859    1.0000 </r>
       <r>    1.6525    1.0000 </r>
       <r>    3.8624    1.0000 </r>
       <r>    4.4650    1.0000 </r>
       <r>    8.1138    0.0000 </r>
       <r>    9.8120    0.0000 </r>
       <r>   10.5012    0.0000 </r>
       <r>   10.8109    0.0000 </r>
      </set>
      <set comment="kpoint 70">
       <r>   -5.2085    1.0000 </r>
       <r>    2.6305    1.0000 </r>
       <r>    4.1077    1.0000 </r>
       <r>    4.1304    1.0000 </r>
       <r>    7.2458    0.0000 </r>
       <r>    9.4332    0.0000 </r>
       <r>   11.2066    0.0000 </r>
       <r>   11.2896    0.0000 </r>
      </set>
      <set comment="kpoint 71">
       <r>   -5.4497    1.0000 </r>
       <r>    2.9902    1.0000 </r>
       <r>    4.2623    1.0000 </r>
       <r>    4.7619    1.0000 </r>
       <r>    7.8550    0.0000 </r>
       <r>    9.8146    0.0000 </r>
       <r>   10.4957    0.0000 </r>
       <r>   10.5478    0.0000 </r>
      </set>
      <set comment="kpoint 72">
       <r>   -5.7486    1.0000 </r>
       <r>    4.0128    1.0000 </r>
       <r>    4.8674    1.0000 </r>
       <r>    4.9315    1.0000 </r>
       <r>    7.8393    0.0000 </r>
       <r>    9.7218    0.0000 </r>
       <r>    9.9229    0.0000 </r>
       <r>   10.4989    0.0000 </r>
      </set>
      <set comment="kpoint 73">
       <r>   -5.9306    1.0000 </r>
       <r>    4.2615    1.0000 </r>
       <r>    5.5824    1.0000 </r>
       <r>    5.5824    1.0000 </r>
       <r>    8.3847    0.0000 </r>
       <r>    8.8857    0.0000 </r>
       <r>    8.8857    0.0000 </r>
       <r>   10.5689    0.0000 </r>
      </set>
      <set comment="kpoint 74">
       <r>   -5.7503    1.0000 </r>
       <r>    3.6356    1.0000 </r>
       <r>    4.6949    1.0000 </r>
       <r>    5.6579    0.9999 </r>
       <r>    8.7424    0.0000 </r>
       <r>    8.8692    0.0000 </r>
       <r>    9.1702    0.0000 </r>
       <r>   11.2011    0.0000 </r>
      </set>
      <set comment="kpoint 75">
       <r>   -5.3952    1.0000 </r>
       <r>    2.5697    1.0000 </r>
       <r>    3.9028    1.0000 </r>
       <r>    5.4408    1.0000 </r>
       <r>    8.8771    0.0000 </r>
       <r>    9.2340    0.0000 </r>
       <r>    9.5451    0.0000 </r>
       <r>   11.6091    0.0000 </r>
      </set>
      <set comment="kpoint 76">
       <r>   -4.8827    1.0000 </r>
       <r>    1.2171    1.0000 </r>
       <r>    3.5419    1.0000 </r>
       <r>    5.0875    1.0000 </r>
       <r>    8.6177    0.0000 </r>
       <r>    9.5970    0.0000 </r>
       <r>    9.7882    0.0000 </r>
       <r>   12.2193    0.0000 </r>
      </set>
      <set comment="kpoint 77">
       <r>   -4.2633    1.0000 </r>
       <r>   -0.0323    1.0000 </r>
       <r>    3.3977    1.0000 </r>
       <r>    4.7384    1.0000 </r>
       <r>    8.3583    0.0000 </r>
       <r>    9.6400    0.0000 </r>
       <r>    9.7604    0.0000 </r>
       <r>   13.2986    0.0000 </r>
      </set>
      <set comment="kpoint 78">
       <r>   -3.7152    1.0000 </r>
       <r>   -0.9092    1.0000 </r>
       <r>    3.4141    1.0000 </r>
       <r>    4.4622    1.0000 </r>
       <r>    8.1723    0.0000 </r>
       <r>    9.4822    0.0000 </r>
       <r>    9.8743    0.0000 </r>
       <r>   14.1436    0.0000 </r>
      </set>
      <set comment="kpoint 79">
       <r>   -3.7123    1.0000 </r>
       <r>   -0.9150    1.0000 </r>
       <r>    3.5690    1.0000 </r>
       <r>    4.2909    1.0000 </r>
       <r>    8.0906    0.0000 </r>
       <r>    9.4341    0.0000 </r>
       <r>   10.0533    0.0000 </r>
       <r>   13.3231    0.0000 </r>
      </set>
      <set comment="kpoint 80">
       <r>   -4.2583    1.0000 </r>
       <r>   -0.0434    1.0000 </r>
       <r>    3.8482    1.0000 </r>
       <r>    4.2391    1.0000 </r>
       <r>    8.1172    0.0000 </r>
       <r>    9.4995    0.0000 </r>
       <r>   10.2931    0.0000 </r>
       <r>   11.9967    0.0000 </r>
      </set>
      <set comment="kpoint 81">
       <r>   -4.8786    1.0000 </r>
       <r>    1.2126    1.0000 </r>
       <r>    4.2145    1.0000 </r>
       <r>    4.3243    1.0000 </r>
       <r>    8.1735    0.0000 </r>
       <r>    9.5908    0.0000 </r>
       <r>   10.4877    0.0000 </r>
       <r>   11.0070    0.0000 </r>
      </set>
      <set comment="kpoint 82">
       <r>   -5.3923    1.0000 </r>
       <r>    2.6263    1.0000 </r>
       <r>    4.5388    1.0000 </r>
       <r>    4.6181    1.0000 </r>
       <r>    8.0476    0.0000 </r>
       <r>    9.6043    0.0000 </r>
       <r>   10.3962    0.0000 </r>
       <r>   10.7167    0.0000 </r>
      </set>
      <set comment="kpoint 83">
       <r>   -5.6306    1.0000 </r>
       <r>    3.1766    1.0000 </r>
       <r>    4.8992    1.0000 </r>
       <r>    5.1130    1.0000 </r>
       <r>    8.3071    0.0000 </r>
       <r>    9.0797    0.0000 </r>
       <r>    9.8306    0.0000 </r>
       <r>   11.1538    0.0000 </r>
      </set>
      <set comment="kpoint 84">
       <r>   -5.3342    1.0000 </r>
       <r>    2.5351    1.0000 </r>
       <r>    3.9070    1.0000 </r>
       <r>    5.0373    1.0000 </r>
       <r>    8.3914    0.0000 </r>
       <r>    9.4376    0.0000 </r>
       <r>   10.3342    0.0000 </r>
       <r>   10.8056    0.0000 </r>
      </set>
      <set comment="kpoint 85">
       <r>   -4.8732    1.0000 </r>
       <r>    1.5548    1.0000 </r>
       <r>    3.1569    1.0000 </r>
       <r>    4.7571    1.0000 </r>
       <r>    8.8014    0.0000 </r>
       <r>    9.3919    0.0000 </r>
       <r>   10.6380    0.0000 </r>
       <r>   10.9172    0.0000 </r>
      </set>
      <set comment="kpoint 86">
       <r>   -4.2811    1.0000 </r>
       <r>    0.3781    1.0000 </r>
       <r>    2.8395    1.0000 </r>
       <r>    4.3974    1.0000 </r>
       <r>    8.9080    0.0000 </r>
       <r>    9.2317    0.0000 </r>
       <r>   11.0131    0.0000 </r>
       <r>   11.4273    0.0000 </r>
      </set>
      <set comment="kpoint 87">
       <r>   -3.6702    1.0000 </r>
       <r>   -0.6214    1.0000 </r>
       <r>    2.7465    1.0000 </r>
       <r>    4.1047    1.0000 </r>
       <r>    8.7096    0.0000 </r>
       <r>    9.1703    0.0000 </r>
       <r>   11.0754    0.0000 </r>
       <r>   12.6600    0.0000 </r>
      </set>
      <set comment="kpoint 88">
       <r>   -3.4278    1.0000 </r>
       <r>   -0.9670    1.0000 </r>
       <r>    2.7903    1.0000 </r>
       <r>    3.9641    1.0000 </r>
       <r>    8.5115    0.0000 </r>
       <r>    9.2782    0.0000 </r>
       <r>   11.1054    0.0000 </r>
       <r>   13.2255    0.0000 </r>
      </set>
      <set comment="kpoint 89">
       <r>   -3.8553    1.0000 </r>
       <r>   -0.3418    1.0000 </r>
       <r>    2.9257    1.0000 </r>
       <r>    4.0125    1.0000 </r>
       <r>    8.4117    0.0000 </r>
       <r>    9.5142    0.0000 </r>
       <r>   11.1760    0.0000 </r>
       <r>   11.7232    0.0000 </r>
      </set>
      <set comment="kpoint 90">
       <r>   -4.4841    1.0000 </r>
       <r>    0.7625    1.0000 </r>
       <r>    3.1530    1.0000 </r>
       <r>    4.2436    1.0000 </r>
       <r>    8.3550    0.0000 </r>
       <r>    9.8063    0.0000 </r>
       <r>   10.5272    0.0000 </r>
       <r>   11.2815    0.0000 </r>
      </set>
      <set comment="kpoint 91">
       <r>   -5.0400    1.0000 </r>
       <r>    1.9810    1.0000 </r>
       <r>    3.5433    1.0000 </r>
       <r>    4.5606    1.0000 </r>
       <r>    8.1216    0.0000 </r>
       <r>    9.8099    0.0000 </r>
       <r>   10.3167    0.0000 </r>
       <r>   11.0770    0.0000 </r>
      </set>
      <set comment="kpoint 92">
       <r>   -5.0964    1.0000 </r>
       <r>    2.0697    1.0000 </r>
       <r>    4.0967    1.0000 </r>
       <r>    4.2009    1.0000 </r>
       <r>    7.7620    0.0000 </r>
       <r>    9.8059    0.0000 </r>
       <r>   10.5716    0.0000 </r>
       <r>   10.9888    0.0000 </r>
      </set>
      <set comment="kpoint 93">
       <r>   -4.6906    1.0000 </r>
       <r>    1.4179    1.0000 </r>
       <r>    3.2200    1.0000 </r>
       <r>    4.0851    1.0000 </r>
       <r>    7.8769    0.0000 </r>
       <r>    9.4599    0.0000 </r>
       <r>   10.6430    0.0000 </r>
       <r>   11.8484    0.0000 </r>
      </set>
      <set comment="kpoint 94">
       <r>   -4.1388    1.0000 </r>
       <r>    0.5560    1.0000 </r>
       <r>    2.5831    1.0000 </r>
       <r>    3.7542    1.0000 </r>
       <r>    8.3752    0.0000 </r>
       <r>    9.5953    0.0000 </r>
       <r>   10.3290    0.0000 </r>
       <r>   12.5515    0.0000 </r>
      </set>
      <set comment="kpoint 95">
       <r>   -3.5097    1.0000 </r>
       <r>   -0.3702    1.0000 </r>
       <r>    2.2371    1.0000 </r>
       <r>    3.4764    1.0000 </r>
       <r>    8.5890    0.0000 </r>
       <r>    9.9201    0.0000 </r>
       <r>   10.6890    0.0000 </r>
       <r>   12.7114    0.0000 </r>
      </set>
      <set comment="kpoint 96">
       <r>   -3.0749    1.0000 </r>
       <r>   -0.9434    1.0000 </r>
       <r>    2.0629    1.0000 </r>
       <r>    3.4000    1.0000 </r>
       <r>    8.7634    0.0000 </r>
       <r>    9.6200    0.0000 </r>
       <r>   12.2005    0.0000 </r>
       <r>   12.6721    0.0000 </r>
      </set>
      <set comment="kpoint 97">
       <r>   -3.3301    1.0000 </r>
       <r>   -0.6124    1.0000 </r>
       <r>    2.0358    1.0000 </r>
       <r>    3.5500    1.0000 </r>
       <r>    9.0527    0.0000 </r>
       <r>    9.4117    0.0000 </r>
       <r>   11.6022    0.0000 </r>
       <r>   12.6404    0.0000 </r>
      </set>
      <set comment="kpoint 98">
       <r>   -3.9447    1.0000 </r>
       <r>    0.2422    1.0000 </r>
       <r>    2.2389    1.0000 </r>
       <r>    3.8738    1.0000 </r>
       <r>    9.1890    0.0000 </r>
       <r>    9.4518    0.0000 </r>
       <r>   10.3855    0.0000 </r>
       <r>   12.4410    0.0000 </r>
      </set>
      <set comment="kpoint 99">
       <r>   -4.5311    1.0000 </r>
       <r>    1.0575    1.0000 </r>
       <r>    2.8440    1.0000 </r>
       <r>    4.2567    1.0000 </r>
       <r>    8.5791    0.0000 </r>
       <r>    9.8124    0.0000 </r>
       <r>   10.1007    0.0000 </r>
       <r>   11.7154    0.0000 </r>
      </set>
      <set comment="kpoint 100">
       <r>   -4.3398    1.0000 </r>
       <r>    0.9026    1.0000 </r>
       <r>    3.1769    1.0000 </r>
       <r>    3.6378    1.0000 </r>
       <r>    7.2535    0.0000 </r>
       <r>    8.8138    0.0000 </r>
       <r>   11.9397    0.0000 </r>
       <r>   12.2341    0.0000 </r>
      </set>
      <set comment="kpoint 101">
       <r>   -3.8361    1.0000 </r>
       <r>    0.2369    1.0000 </r>
       <r>    2.7162    1.0000 </r>
       <r>    3.2968    1.0000 </r>
       <r>    7.5058    0.0000 </r>
       <r>    8.5203    0.0000 </r>
       <r>   11.8669    0.0000 </r>
       <r>   13.4506    0.0000 </r>
      </set>
      <set comment="kpoint 102">
       <r>   -3.2201    1.0000 </r>
       <r>   -0.4907    1.0000 </r>
       <r>    2.2351    1.0000 </r>
       <r>    2.9354    1.0000 </r>
       <r>    8.0911    0.0000 </r>
       <r>    8.8981    0.0000 </r>
       <r>   11.5126    0.0000 </r>
       <r>   14.2550    0.0000 </r>
      </set>
      <set comment="kpoint 103">
       <r>   -2.6601    1.0000 </r>
       <r>   -1.0966    1.0000 </r>
       <r>    1.7814    1.0000 </r>
       <r>    2.8848    1.0000 </r>
       <r>    8.3025    0.0000 </r>
       <r>   10.2182    0.0000 </r>
       <r>   11.2058    0.0000 </r>
       <r>   13.3878    0.0000 </r>
      </set>
      <set comment="kpoint 104">
       <r>   -2.7373    1.0000 </r>
       <r>   -1.0086    1.0000 </r>
       <r>    1.5688    1.0000 </r>
       <r>    3.0890    1.0000 </r>
       <r>    8.5900    0.0000 </r>
       <r>   10.7477    0.0000 </r>
       <r>   11.6623    0.0000 </r>
       <r>   12.1358    0.0000 </r>
      </set>
      <set comment="kpoint 105">
       <r>   -3.3210    1.0000 </r>
       <r>   -0.4508    1.0000 </r>
       <r>    1.7889    1.0000 </r>
       <r>    3.4696    1.0000 </r>
       <r>    9.0082    0.0000 </r>
       <r>    9.9298    0.0000 </r>
       <r>   10.9520    0.0000 </r>
       <r>   13.2532    0.0000 </r>
      </set>
      <set comment="kpoint 106">
       <r>   -3.9133    1.0000 </r>
       <r>   -0.0034    1.0000 </r>
       <r>    2.5248    1.0000 </r>
       <r>    3.9200    1.0000 </r>
       <r>    8.7921    0.0000 </r>
       <r>    9.4747    0.0000 </r>
       <r>   10.9480    0.0000 </r>
       <r>   11.9006    0.0000 </r>
      </set>
      <set comment="kpoint 107">
       <r>   -3.3813    1.0000 </r>
       <r>   -0.3539    1.0000 </r>
       <r>    2.5748    1.0000 </r>
       <r>    3.2653    1.0000 </r>
       <r>    6.9008    0.0000 </r>
       <r>    8.0827    0.0000 </r>
       <r>   13.5012    0.0000 </r>
       <r>   13.5569    0.0000 </r>
      </set>
      <set comment="kpoint 108">
       <r>   -2.7989    1.0000 </r>
       <r>   -1.0009    1.0000 </r>
       <r>    2.4282    1.0000 </r>
       <r>    2.8449    1.0000 </r>
       <r>    7.3280    0.0000 </r>
       <r>    7.9490    0.0000 </r>
       <r>   13.2398    0.0000 </r>
       <r>   14.9969    0.0000 </r>
      </set>
      <set comment="kpoint 109">
       <r>   -2.1756    1.0000 </r>
       <r>   -1.5885    1.0000 </r>
       <r>    2.1135    1.0000 </r>
       <r>    2.5301    1.0000 </r>
       <r>    7.9751    0.0000 </r>
       <r>    8.5842    0.0000 </r>
       <r>   12.8863    0.0000 </r>
       <r>   13.6455    0.0000 </r>
      </set>
      <set comment="kpoint 110">
       <r>   -2.3153    1.0000 </r>
       <r>   -1.4053    1.0000 </r>
       <r>    1.6689    1.0000 </r>
       <r>    2.7684    1.0000 </r>
       <r>    8.2408    0.0000 </r>
       <r>   10.1571    0.0000 </r>
       <r>   11.8540    0.0000 </r>
       <r>   12.6304    0.0000 </r>
      </set>
      <set comment="kpoint 111">
       <r>   -2.8555    1.0000 </r>
       <r>   -0.9982    1.0000 </r>
       <r>    1.7569    1.0000 </r>
       <r>    3.1911    1.0000 </r>
       <r>    8.6492    0.0000 </r>
       <r>   10.1812    0.0000 </r>
       <r>   12.0355    0.0000 </r>
       <r>   12.5154    0.0000 </r>
      </set>
      <set comment="kpoint 112">
       <r>   -3.3593    1.0000 </r>
       <r>   -0.8186    1.0000 </r>
       <r>    2.4076    1.0000 </r>
       <r>    3.7162    1.0000 </r>
       <r>    8.9116    0.0000 </r>
       <r>    9.1481    0.0000 </r>
       <r>   11.8601    0.0000 </r>
       <r>   12.4069    0.0000 </r>
      </set>
      <set comment="kpoint 113">
       <r>   -2.2656    1.0000 </r>
       <r>   -1.6154    1.0000 </r>
       <r>    2.3217    1.0000 </r>
       <r>    3.1024    1.0000 </r>
       <r>    6.7447    0.0000 </r>
       <r>    7.7666    0.0000 </r>
       <r>   14.8627    0.0000 </r>
       <r>   15.0871    0.0000 </r>
      </set>
      <set comment="kpoint 114">
       <r>   -2.2285    1.0000 </r>
       <r>   -1.6147    1.0000 </r>
       <r>    2.3697    1.0000 </r>
       <r>    2.7550    1.0000 </r>
       <r>    7.2992    0.0000 </r>
       <r>    7.8252    0.0000 </r>
       <r>   13.9738    0.0000 </r>
       <r>   14.7203    0.0000 </r>
      </set>
      <set comment="kpoint 115">
       <r>   -2.7070    1.0000 </r>
       <r>   -1.0391    1.0000 </r>
       <r>    2.1488    1.0000 </r>
       <r>    2.6712    1.0000 </r>
       <r>    8.0119    0.0000 </r>
       <r>    8.6884    0.0000 </r>
       <r>   12.1745    0.0000 </r>
       <r>   14.4027    0.0000 </r>
      </set>
      <set comment="kpoint 116">
       <r>   -3.0837    1.0000 </r>
       <r>   -0.7343    1.0000 </r>
       <r>    1.9821    1.0000 </r>
       <r>    3.1219    1.0000 </r>
       <r>    8.4196    0.0000 </r>
       <r>   10.2623    0.0000 </r>
       <r>   10.6848    0.0000 </r>
       <r>   13.5302    0.0000 </r>
      </set>
      <set comment="kpoint 117">
       <r>   -2.8371    1.0000 </r>
       <r>   -0.9938    1.0000 </r>
       <r>    2.4058    1.0000 </r>
       <r>    3.1571    1.0000 </r>
       <r>    6.7985    0.0000 </r>
       <r>    7.8732    0.0000 </r>
       <r>   14.2423    0.0000 </r>
       <r>   14.3007    0.0000 </r>
      </set>
      <set comment="kpoint 118">
       <r>   -3.3380    1.0000 </r>
       <r>   -0.3791    1.0000 </r>
       <r>    2.5439    1.0000 </r>
       <r>    3.0254    1.0000 </r>
       <r>    7.3931    0.0000 </r>
       <r>    8.1825    0.0000 </r>
       <r>   12.5342    0.0000 </r>
       <r>   14.2631    0.0000 </r>
      </set>
      <set comment="kpoint 119">
       <r>   -3.7000    1.0000 </r>
       <r>    0.0417    1.0000 </r>
       <r>    2.3783    1.0000 </r>
       <r>    3.3036    1.0000 </r>
       <r>    8.2099    0.0000 </r>
       <r>    9.1985    0.0000 </r>
       <r>   10.8936    0.0000 </r>
       <r>   13.4033    0.0000 </r>
      </set>
      <set comment="kpoint 120">
       <r>   -3.8842    1.0000 </r>
       <r>    0.2827    1.0000 </r>
       <r>    2.8307    1.0000 </r>
       <r>    3.4260    1.0000 </r>
       <r>    7.0534    0.0000 </r>
       <r>    8.3985    0.0000 </r>
       <r>   12.7077    0.0000 </r>
       <r>   12.8811    0.0000 </r>
      </set>
      <set comment="kpoint 121">
       <r>   -4.2882    1.0000 </r>
       <r>    0.8376    1.0000 </r>
       <r>    2.9422    1.0000 </r>
       <r>    3.6539    1.0000 </r>
       <r>    7.6699    0.0000 </r>
       <r>    8.9490    0.0000 </r>
       <r>   11.2336    0.0000 </r>
       <r>   12.6446    0.0000 </r>
      </set>
      <set comment="kpoint 122">
       <r>   -4.7450    1.0000 </r>
       <r>    1.4982    1.0000 </r>
       <r>    3.6043    1.0000 </r>
       <r>    3.8964    1.0000 </r>
       <r>    7.4911    0.0000 </r>
       <r>    9.3222    0.0000 </r>
       <r>   11.1937    0.0000 </r>
       <r>   11.6016    0.0000 </r>
      </set>
      <set comment="kpoint 123">
       <r>   -5.5736    1.0000 </r>
       <r>    2.6849    1.0000 </r>
       <r>    5.2522    1.0000 </r>
       <r>    5.2522    1.0000 </r>
       <r>    8.0771    0.0000 </r>
       <r>    9.3034    0.0000 </r>
       <r>    9.3034    0.0000 </r>
       <r>   12.0701    0.0000 </r>
      </set>
      <set comment="kpoint 124">
       <r>   -5.3386    1.0000 </r>
       <r>    2.1671    1.0000 </r>
       <r>    4.2995    1.0000 </r>
       <r>    5.3484    1.0000 </r>
       <r>    8.4681    0.0000 </r>
       <r>    9.2557    0.0000 </r>
       <r>    9.6241    0.0000 </r>
       <r>   12.0219    0.0000 </r>
      </set>
      <set comment="kpoint 125">
       <r>   -4.9345    1.0000 </r>
       <r>    1.5839    1.0000 </r>
       <r>    3.1308    1.0000 </r>
       <r>    5.1224    1.0000 </r>
       <r>    8.8392    0.0000 </r>
       <r>    9.7141    0.0000 </r>
       <r>   10.0109    0.0000 </r>
       <r>   11.6859    0.0000 </r>
      </set>
      <set comment="kpoint 126">
       <r>   -4.3838    1.0000 </r>
       <r>    0.7067    1.0000 </r>
       <r>    2.4446    1.0000 </r>
       <r>    4.7356    1.0000 </r>
       <r>    8.5628    0.0000 </r>
       <r>   10.3167    0.0000 </r>
       <r>   10.6165    0.0000 </r>
       <r>   11.9517    0.0000 </r>
      </set>
      <set comment="kpoint 127">
       <r>   -3.7568    1.0000 </r>
       <r>   -0.3060    1.0000 </r>
       <r>    2.2591    1.0000 </r>
       <r>    4.3466    1.0000 </r>
       <r>    8.1713    0.0000 </r>
       <r>   10.6660    0.0000 </r>
       <r>   10.6827    0.0000 </r>
       <r>   13.1579    0.0000 </r>
      </set>
      <set comment="kpoint 128">
       <r>   -3.3140    1.0000 </r>
       <r>   -0.9398    1.0000 </r>
       <r>    2.3502    1.0000 </r>
       <r>    4.0380    1.0000 </r>
       <r>    7.8618    0.0000 </r>
       <r>   10.6786    0.0000 </r>
       <r>   10.9210    0.0000 </r>
       <r>   13.0095    0.0000 </r>
      </set>
      <set comment="kpoint 129">
       <r>   -3.5401    1.0000 </r>
       <r>   -0.6326    1.0000 </r>
       <r>    2.6320    1.0000 </r>
       <r>    3.8494    1.0000 </r>
       <r>    7.6925    0.0000 </r>
       <r>   10.7736    0.0000 </r>
       <r>   11.1954    0.0000 </r>
       <r>   11.4006    0.0000 </r>
      </set>
      <set comment="kpoint 130">
       <r>   -4.1509    1.0000 </r>
       <r>    0.3297    1.0000 </r>
       <r>    3.0676    1.0000 </r>
       <r>    3.8010    1.0000 </r>
       <r>    7.6302    0.0000 </r>
       <r>   10.0428    0.0000 </r>
       <r>   10.9782    0.0000 </r>
       <r>   11.4780    0.0000 </r>
      </set>
      <set comment="kpoint 131">
       <r>   -5.1658    1.0000 </r>
       <r>    1.6801    1.0000 </r>
       <r>    4.6307    1.0000 </r>
       <r>    4.7539    1.0000 </r>
       <r>    8.2849    0.0000 </r>
       <r>    9.1803    0.0000 </r>
       <r>   10.0527    0.0000 </r>
       <r>   11.5853    0.0000 </r>
      </set>
      <set comment="kpoint 132">
       <r>   -4.8217    1.0000 </r>
       <r>    1.2111    1.0000 </r>
       <r>    3.5286    1.0000 </r>
       <r>    4.7085    1.0000 </r>
[...]
       <r>   -1.0591    1.0000 </r>
       <r>    1.7114    1.0000 </r>
       <r>    3.3021    1.0000 </r>
       <r>    7.9006    0.0000 </r>
       <r>   10.9003    0.0000 </r>
       <r>   11.3921    0.0000 </r>
       <r>   13.2905    0.0000 </r>
      </set>
      <set comment="kpoint 172">
       <r>   -2.6382    1.0000 </r>
       <r>   -1.1623    1.0000 </r>
       <r>    1.4673    1.0000 </r>
       <r>    3.5701    1.0000 </r>
       <r>    7.2887    0.0000 </r>
       <r>   10.9316    0.0000 </r>
       <r>   12.8065    0.0000 </r>
       <r>   13.1681    0.0000 </r>
      </set>
      <set comment="kpoint 173">
       <r>   -4.4388    1.0000 </r>
       <r>   -0.1107    1.0000 </r>
       <r>    4.7694    1.0000 </r>
       <r>    4.7694    1.0000 </r>
       <r>    7.5419    0.0000 </r>
       <r>    9.3926    0.0000 </r>
       <r>    9.3926    0.0000 </r>
       <r>   13.7591    0.0000 </r>
      </set>
      <set comment="kpoint 174">
       <r>   -4.1529    1.0000 </r>
       <r>   -0.4300    1.0000 </r>
       <r>    3.9715    1.0000 </r>
       <r>    4.7312    1.0000 </r>
       <r>    8.0107    0.0000 </r>
       <r>    9.4159    0.0000 </r>
       <r>    9.5028    0.0000 </r>
       <r>   13.7661    0.0000 </r>
      </set>
      <set comment="kpoint 175">
       <r>   -3.7318    1.0000 </r>
       <r>   -0.6311    1.0000 </r>
       <r>    2.8057    1.0000 </r>
       <r>    4.3965    1.0000 </r>
       <r>    8.2094    0.0000 </r>
       <r>   10.0043    0.0000 </r>
       <r>   10.2566    0.0000 </r>
       <r>   13.8750    0.0000 </r>
      </set>
      <set comment="kpoint 176">
       <r>   -3.2072    1.0000 </r>
       <r>   -0.8065    1.0000 </r>
       <r>    1.8490    1.0000 </r>
       <r>    3.9577    1.0000 </r>
       <r>    7.7498    0.0000 </r>
       <r>   11.4012    0.0000 </r>
       <r>   11.4310    0.0000 </r>
       <r>   12.9080    0.0000 </r>
      </set>
      <set comment="kpoint 177">
       <r>   -3.9630    1.0000 </r>
       <r>   -0.7340    1.0000 </r>
       <r>    4.1607    1.0000 </r>
       <r>    4.4469    1.0000 </r>
       <r>    7.9589    0.0000 </r>
       <r>    9.1872    0.0000 </r>
       <r>    9.7349    0.0000 </r>
       <r>   13.5024    0.0000 </r>
      </set>
      <set comment="kpoint 178">
       <r>   -3.6539    1.0000 </r>
       <r>   -0.8883    1.0000 </r>
       <r>    3.2578    1.0000 </r>
       <r>    4.2274    1.0000 </r>
       <r>    8.4816    0.0000 </r>
       <r>    9.0652    0.0000 </r>
       <r>   10.4518    0.0000 </r>
       <r>   13.4251    0.0000 </r>
      </set>
      <set comment="kpoint 179">
       <r>   -3.2539    1.0000 </r>
       <r>   -0.9337    1.0000 </r>
       <r>    2.2965    1.0000 </r>
       <r>    3.7677    1.0000 </r>
       <r>    8.3912    0.0000 </r>
       <r>    9.7528    0.0000 </r>
       <r>   11.8039    0.0000 </r>
       <r>   13.0399    0.0000 </r>
      </set>
      <set comment="kpoint 180">
       <r>   -3.4867    1.0000 </r>
       <r>   -0.9861    1.0000 </r>
       <r>    2.9447    1.0000 </r>
       <r>    4.1491    1.0000 </r>
       <r>    8.0003    0.0000 </r>
       <r>    9.9906    0.0000 </r>
       <r>   10.4506    0.0000 </r>
       <r>   13.1509    0.0000 </r>
      </set>
      <set comment="kpoint 181">
       <r>   -3.8945    1.0000 </r>
       <r>   -0.9990    1.0000 </r>
       <r>    4.6667    1.0000 </r>
       <r>    4.6667    1.0000 </r>
       <r>    7.4269    0.0000 </r>
       <r>    9.2991    0.0000 </r>
       <r>    9.2991    0.0000 </r>
       <r>   13.6287    0.0000 </r>
      </set>
      <set comment="kpoint 182">
       <r>   -3.7291    1.0000 </r>
       <r>   -1.0798    1.0000 </r>
       <r>    4.0064    1.0000 </r>
       <r>    4.5363    1.0000 </r>
       <r>    7.9303    0.0000 </r>
       <r>    9.2438    0.0000 </r>
       <r>    9.5740    0.0000 </r>
       <r>   13.9240    0.0000 </r>
      </set>
     </set>
    </set>
   </array>
  </eigenvalues>
  <separator name="orbital magnetization" >
   <v name="MAGDIPOLOUT">      0.00000000      0.00000000      0.00000000</v>
  </separator>
  <dos>
   <i name="efermi">      6.18028675 </i>
   <total>
    <array>
     <dimension dim="1">gridpoints</dimension>
     <dimension dim="2">spin</dimension>
     <field>energy</field>
     <field>total</field>
     <field>integrated</field>
     <set>
      <set comment="spin 1">
       <r>    -8.1123     0.0000     0.0000 </r>
       <r>    -8.0260     0.0000     0.0000 </r>
       <r>    -7.9397     0.0000     0.0000 </r>
       <r>    -7.8534     0.0000     0.0000 </r>
       <r>    -7.7671     0.0000     0.0000 </r>
       <r>    -7.6808     0.0000     0.0000 </r>
       <r>    -7.5945     0.0000     0.0000 </r>
       <r>    -7.5082     0.0000     0.0000 </r>
       <r>    -7.4219     0.0000     0.0000 </r>
       <r>    -7.3356     0.0000     0.0000 </r>
       <r>    -7.2493     0.0000     0.0000 </r>
       <r>    -7.1630     0.0000     0.0000 </r>
       <r>    -7.0767     0.0000     0.0000 </r>
       <r>    -6.9905     0.0000     0.0000 </r>
       <r>    -6.9042     0.0000     0.0000 </r>
       <r>    -6.8179     0.0000     0.0000 </r>
       <r>    -6.7316     0.0000     0.0000 </r>
       <r>    -6.6453     0.0000     0.0000 </r>
       <r>    -6.5590     0.0000     0.0000 </r>
       <r>    -6.4727     0.0003     0.0000 </r>
       <r>    -6.3864     0.0014     0.0001 </r>
       <r>    -6.3001     0.0058     0.0006 </r>
       <r>    -6.2138     0.0175     0.0022 </r>
       <r>    -6.1275     0.0406     0.0057 </r>
       <r>    -6.0412     0.0751     0.0121 </r>
       <r>    -5.9549     0.1150     0.0221 </r>
       <r>    -5.8686     0.1536     0.0353 </r>
       <r>    -5.7823     0.1872     0.0515 </r>
       <r>    -5.6961     0.2159     0.0701 </r>
       <r>    -5.6098     0.2411     0.0909 </r>
       <r>    -5.5235     0.2647     0.1138 </r>
       <r>    -5.4372     0.2867     0.1385 </r>
       <r>    -5.3509     0.3063     0.1649 </r>
       <r>    -5.2646     0.3256     0.1930 </r>
       <r>    -5.1783     0.3471     0.2230 </r>
       <r>    -5.0920     0.3669     0.2546 </r>
       <r>    -5.0057     0.3822     0.2876 </r>
       <r>    -4.9194     0.3991     0.3221 </r>
       <r>    -4.8331     0.4218     0.3585 </r>
       <r>    -4.7468     0.4445     0.3968 </r>
       <r>    -4.6605     0.4610     0.4366 </r>
       <r>    -4.5742     0.4741     0.4775 </r>
       <r>    -4.4879     0.4931     0.5201 </r>
       <r>    -4.4017     0.5231     0.5652 </r>
       <r>    -4.3154     0.5547     0.6131 </r>
       <r>    -4.2291     0.5751     0.6627 </r>
       <r>    -4.1428     0.5911     0.7137 </r>
       <r>    -4.0565     0.6227     0.7674 </r>
       <r>    -3.9702     0.6762     0.8258 </r>
       <r>    -3.8839     0.7385     0.8895 </r>
       <r>    -3.7976     0.7916     0.9578 </r>
       <r>    -3.7113     0.8189     1.0285 </r>
       <r>    -3.6250     0.8161     1.0989 </r>
       <r>    -3.5387     0.8018     1.1681 </r>
       <r>    -3.4524     0.7940     1.2366 </r>
       <r>    -3.3661     0.7851     1.3044 </r>
       <r>    -3.2798     0.7638     1.3703 </r>
       <r>    -3.1936     0.7283     1.4331 </r>
       <r>    -3.1073     0.6757     1.4915 </r>
       <r>    -3.0210     0.6178     1.5448 </r>
       <r>    -2.9347     0.5900     1.5957 </r>
       <r>    -2.8484     0.6039     1.6478 </r>
       <r>    -2.7621     0.6156     1.7009 </r>
       <r>    -2.6758     0.5754     1.7506 </r>
       <r>    -2.5895     0.4876     1.7926 </r>
       <r>    -2.5032     0.4033     1.8274 </r>
       <r>    -2.4169     0.3685     1.8592 </r>
       <r>    -2.3306     0.3815     1.8922 </r>
       <r>    -2.2443     0.3925     1.9260 </r>
       <r>    -2.1580     0.3517     1.9564 </r>
       <r>    -2.0717     0.2578     1.9786 </r>
       <r>    -1.9854     0.1531     1.9918 </r>
       <r>    -1.8992     0.0847     1.9991 </r>
       <r>    -1.8129     0.0809     2.0061 </r>
       <r>    -1.7266     0.1475     2.0189 </r>
       <r>    -1.6403     0.2546     2.0408 </r>
       <r>    -1.5540     0.3390     2.0701 </r>
       <r>    -1.4677     0.3568     2.1009 </r>
       <r>    -1.3814     0.3363     2.1299 </r>
       <r>    -1.2951     0.3577     2.1608 </r>
       <r>    -1.2088     0.4933     2.2033 </r>
       <r>    -1.1225     0.7528     2.2683 </r>
       <r>    -1.0362     1.0462     2.3586 </r>
       <r>    -0.9499     1.2256     2.4643 </r>
       <r>    -0.8636     1.2158     2.5693 </r>
       <r>    -0.7773     1.0801     2.6625 </r>
       <r>    -0.6910     0.9299     2.7427 </r>
       <r>    -0.6048     0.8203     2.8135 </r>
       <r>    -0.5185     0.7562     2.8787 </r>
       <r>    -0.4322     0.7266     2.9414 </r>
       <r>    -0.3459     0.6937     3.0013 </r>
       <r>    -0.2596     0.6233     3.0551 </r>
       <r>    -0.1733     0.5443     3.1021 </r>
       <r>    -0.0870     0.5034     3.1455 </r>
       <r>    -0.0007     0.4839     3.1873 </r>
       <r>     0.0856     0.4486     3.2260 </r>
       <r>     0.1719     0.4181     3.2621 </r>
       <r>     0.2582     0.4290     3.2991 </r>
       <r>     0.3445     0.4502     3.3379 </r>
       <r>     0.4308     0.4212     3.3743 </r>
       <r>     0.5171     0.3512     3.4046 </r>
       <r>     0.6034     0.3074     3.4311 </r>
       <r>     0.6896     0.3163     3.4584 </r>
       <r>     0.7759     0.3325     3.4871 </r>
       <r>     0.8622     0.3113     3.5140 </r>
       <r>     0.9485     0.2710     3.5373 </r>
       <r>     1.0348     0.2606     3.5598 </r>
       <r>     1.1211     0.2848     3.5844 </r>
       <r>     1.2074     0.3013     3.6104 </r>
       <r>     1.2937     0.2933     3.6357 </r>
       <r>     1.3800     0.3090     3.6624 </r>
       <r>     1.4663     0.4094     3.6977 </r>
       <r>     1.5526     0.5997     3.7495 </r>
       <r>     1.6389     0.8231     3.8205 </r>
       <r>     1.7252     0.9977     3.9066 </r>
       <r>     1.8115     1.0721     3.9991 </r>
       <r>     1.8978     1.0713     4.0915 </r>
       <r>     1.9840     1.0628     4.1833 </r>
       <r>     2.0703     1.0723     4.2758 </r>
       <r>     2.1566     1.0698     4.3681 </r>
       <r>     2.2429     1.0356     4.4575 </r>
       <r>     2.3292     1.0006     4.5438 </r>
       <r>     2.4155     1.0100     4.6310 </r>
       <r>     2.5018     1.0665     4.7230 </r>
       <r>     2.5881     1.1266     4.8202 </r>
       <r>     2.6744     1.1580     4.9202 </r>
       <r>     2.7607     1.1769     5.0217 </r>
       <r>     2.8470     1.2157     5.1266 </r>
       <r>     2.9333     1.2874     5.2377 </r>
       <r>     3.0196     1.3809     5.3569 </r>
       <r>     3.1059     1.4633     5.4832 </r>
       <r>     3.1922     1.4958     5.6122 </r>
       <r>     3.2784     1.4689     5.7390 </r>
       <r>     3.3647     1.4167     5.8612 </r>
       <r>     3.4510     1.3867     5.9809 </r>
       <r>     3.5373     1.3923     6.1010 </r>
       <r>     3.6236     1.3972     6.2216 </r>
       <r>     3.7099     1.3646     6.3394 </r>
       <r>     3.7962     1.3105     6.4525 </r>
       <r>     3.8825     1.2784     6.5628 </r>
       <r>     3.9688     1.2726     6.6726 </r>
       <r>     4.0551     1.2613     6.7814 </r>
       <r>     4.1414     1.2345     6.8880 </r>
       <r>     4.2277     1.2093     6.9923 </r>
       <r>     4.3140     1.1920     7.0952 </r>
       <r>     4.4003     1.1691     7.1961 </r>
       <r>     4.4866     1.1273     7.2933 </r>
       <r>     4.5728     1.0696     7.3856 </r>
       <r>     4.6591     1.0080     7.4726 </r>
       <r>     4.7454     0.9323     7.5531 </r>
       <r>     4.8317     0.8217     7.6240 </r>
       <r>     4.9180     0.6929     7.6838 </r>
       <r>     5.0043     0.5895     7.7346 </r>
       <r>     5.0906     0.5263     7.7800 </r>
       <r>     5.1769     0.4800     7.8215 </r>
       <r>     5.2632     0.4269     7.8583 </r>
       <r>     5.3495     0.3665     7.8899 </r>
       <r>     5.4358     0.3116     7.9168 </r>
       <r>     5.5221     0.2673     7.9399 </r>
       <r>     5.6084     0.2270     7.9595 </r>
       <r>     5.6947     0.1822     7.9752 </r>
       <r>     5.7810     0.1321     7.9866 </r>
       <r>     5.8672     0.0834     7.9938 </r>
       <r>     5.9535     0.0444     7.9976 </r>
       <r>     6.0398     0.0191     7.9993 </r>
       <r>     6.1261     0.0065     7.9999 </r>
       <r>     6.2124     0.0027     8.0001 </r>
       <r>     6.2987     0.0056     8.0006 </r>
       <r>     6.3850     0.0180     8.0021 </r>
       <r>     6.4713     0.0452     8.0060 </r>
       <r>     6.5576     0.0889     8.0137 </r>
       <r>     6.6439     0.1470     8.0264 </r>
       <r>     6.7302     0.2175     8.0451 </r>
       <r>     6.8165     0.2926     8.0704 </r>
       <r>     6.9028     0.3556     8.1011 </r>
       <r>     6.9891     0.3965     8.1353 </r>
       <r>     7.0754     0.4268     8.1721 </r>
       <r>     7.1616     0.4722     8.2129 </r>
       <r>     7.2479     0.5446     8.2599 </r>
       <r>     7.3342     0.6208     8.3134 </r>
       <r>     7.4205     0.6731     8.3715 </r>
       <r>     7.5068     0.7136     8.4331 </r>
       <r>     7.5931     0.7708     8.4996 </r>
       <r>     7.6794     0.8482     8.5728 </r>
       <r>     7.7657     0.9406     8.6540 </r>
       <r>     7.8520     1.0503     8.7446 </r>
       <r>     7.9383     1.1732     8.8458 </r>
       <r>     8.0246     1.3023     8.9582 </r>
       <r>     8.1109     1.4235     9.0811 </r>
       <r>     8.1972     1.4955     9.2101 </r>
       <r>     8.2835     1.4920     9.3389 </r>
       <r>     8.3698     1.4502     9.4640 </r>
       <r>     8.4560     1.4140     9.5860 </r>
       <r>     8.5423     1.3723     9.7044 </r>
       <r>     8.6286     1.3010     9.8167 </r>
       <r>     8.7149     1.2161     9.9217 </r>
       <r>     8.8012     1.1529    10.0211 </r>
       <r>     8.8875     1.1292    10.1186 </r>
       <r>     8.9738     1.1610    10.2188 </r>
       <r>     9.0601     1.2806    10.3293 </r>
       <r>     9.1464     1.4932    10.4581 </r>
       <r>     9.2327     1.7276    10.6072 </r>
       <r>     9.3190     1.8789    10.7693 </r>
       <r>     9.4053     1.9008    10.9334 </r>
       <r>     9.4916     1.8246    11.0908 </r>
       <r>     9.5779     1.7105    11.2384 </r>
       <r>     9.6642     1.6071    11.3771 </r>
       <r>     9.7504     1.5304    11.5092 </r>
       <r>     9.8367     1.4620    11.6353 </r>
       <r>     9.9230     1.3867    11.7550 </r>
       <r>    10.0093     1.3205    11.8689 </r>
       <r>    10.0956     1.2823    11.9796 </r>
       <r>    10.1819     1.2637    12.0886 </r>
       <r>    10.2682     1.2443    12.1960 </r>
       <r>    10.3545     1.2201    12.3013 </r>
       <r>    10.4408     1.2137    12.4060 </r>
       <r>    10.5271     1.2404    12.5131 </r>
       <r>    10.6134     1.2698    12.6226 </r>
       <r>    10.6997     1.2647    12.7318 </r>
       <r>    10.7860     1.2384    12.8386 </r>
       <r>    10.8723     1.2259    12.9444 </r>
       <r>    10.9586     1.2254    13.0502 </r>
       <r>    11.0448     1.2176    13.1552 </r>
       <r>    11.1311     1.2132    13.2599 </r>
       <r>    11.2174     1.2188    13.3651 </r>
       <r>    11.3037     1.1971    13.4684 </r>
       <r>    11.3900     1.1270    13.5657 </r>
       <r>    11.4763     1.0573    13.6569 </r>
       <r>    11.5626     1.0439    13.7470 </r>
       <r>    11.6489     1.0709    13.8394 </r>
       <r>    11.7352     1.0895    13.9334 </r>
       <r>    11.8215     1.0936    14.0278 </r>
       <r>    11.9078     1.0996    14.1227 </r>
       <r>    11.9941     1.0906    14.2168 </r>
       <r>    12.0804     1.0430    14.3068 </r>
       <r>    12.1667     0.9678    14.3903 </r>
       <r>    12.2530     0.8961    14.4676 </r>
       <r>    12.3392     0.8512    14.5411 </r>
       <r>    12.4255     0.8487    14.6143 </r>
       <r>    12.5118     0.8918    14.6913 </r>
       <r>    12.5981     0.9538    14.7736 </r>
       <r>    12.6844     0.9862    14.8587 </r>
       <r>    12.7707     0.9577    14.9413 </r>
       <r>    12.8570     0.8714    15.0165 </r>
       <r>    12.9433     0.7487    15.0811 </r>
       <r>    13.0296     0.6301    15.1355 </r>
       <r>    13.1159     0.5738    15.1850 </r>
       <r>    13.2022     0.6040    15.2371 </r>
       <r>    13.2885     0.6769    15.2955 </r>
       <r>    13.3748     0.7304    15.3586 </r>
       <r>    13.4611     0.7399    15.4224 </r>
       <r>    13.5474     0.7090    15.4836 </r>
       <r>    13.6336     0.6446    15.5392 </r>
       <r>    13.7199     0.5597    15.5875 </r>
       <r>    13.8062     0.4751    15.6285 </r>
       <r>    13.8925     0.4073    15.6637 </r>
       <r>    13.9788     0.3618    15.6949 </r>
       <r>    14.0651     0.3457    15.7247 </r>
       <r>    14.1514     0.3682    15.7565 </r>
       <r>    14.2377     0.4038    15.7913 </r>
       <r>    14.3240     0.3904    15.8250 </r>
       <r>    14.4103     0.3029    15.8512 </r>
       <r>    14.4966     0.1911    15.8677 </r>
       <r>    14.5829     0.1190    15.8779 </r>
       <r>    14.6692     0.1006    15.8866 </r>
       <r>    14.7555     0.1097    15.8961 </r>
       <r>    14.8417     0.1277    15.9071 </r>
       <r>    14.9280     0.1560    15.9205 </r>
       <r>    15.0143     0.1833    15.9364 </r>
       <r>    15.1006     0.1787    15.9518 </r>
       <r>    15.1869     0.1322    15.9632 </r>
       <r>    15.2732     0.0739    15.9696 </r>
       <r>    15.3595     0.0387    15.9729 </r>
       <r>    15.4458     0.0338    15.9758 </r>
       <r>    15.5321     0.0448    15.9797 </r>
       <r>    15.6184     0.0553    15.9845 </r>
       <r>    15.7047     0.0579    15.9895 </r>
       <r>    15.7910     0.0516    15.9939 </r>
       <r>    15.8773     0.0376    15.9972 </r>
       <r>    15.9636     0.0211    15.9990 </r>
       <r>    16.0499     0.0087    15.9997 </r>
       <r>    16.1361     0.0026    15.9999 </r>
       <r>    16.2224     0.0005    16.0000 </r>
       <r>    16.3087     0.0001    16.0000 </r>
       <r>    16.3950     0.0000    16.0000 </r>
       <r>    16.4813     0.0000    16.0000 </r>
       <r>    16.5676     0.0000    16.0000 </r>
       <r>    16.6539     0.0000    16.0000 </r>
       <r>    16.7402     0.0000    16.0000 </r>
       <r>    16.8265     0.0000    16.0000 </r>
       <r>    16.9128     0.0000    16.0000 </r>
       <r>    16.9991     0.0000    16.0000 </r>
       <r>    17.0854     0.0000    16.0000 </r>
       <r>    17.1717     0.0000    16.0000 </r>
       <r>    17.2580     0.0000    16.0000 </r>
       <r>    17.3443     0.0000    16.0000 </r>
       <r>    17.4305     0.0000    16.0000 </r>
       <r>    17.5168     0.0000    16.0000 </r>
       <r>    17.6031     0.0000    16.0000 </r>
       <r>    17.6894     0.0000    16.0000 </r>
       <r>    17.7757     0.0000    16.0000 </r>
      </set>
     </set>
    </array>
   </total>
  </dos>
 </calculation>
 <structure name="finalpos" >
  <crystal>
   <varray name="basis" >
    <v>       0.00000000       2.71500000       2.71500000 </v>
    <v>       2.71500000       0.00000000       2.71500000 </v>
    <v>       2.71500000       2.71500000       0.00000000 </v>
   </varray>
   <i name="volume">     40.02575175 </i>
   <varray name="rec_basis" >
    <v>      -0.18416206       0.18416206       0.18416206 </v>
    <v>       0.18416206      -0.18416206       0.18416206 </v>
    <v>       0.18416206       0.18416206      -0.18416206 </v>
   </varray>
  </crystal>
  <varray name="positions" >
   <v>       0.50000000       0.50000000       0.50000000 </v>
   <v>       0.75000000       0.75000000       0.75000000 </v>
  </varray>
 </structure>
</modeling>
