unknown system                          
           1
    -2.450000    2.450000    1.274000
     2.450000   -2.450000    1.274000
     2.450000    2.450000   -1.274000
   Si
   2
Direct configuration=     1
   0.25000000  0.75000000  0.50000000
   0.00000000  0.00000000  0.00000000
unknown system                          
           1
    -2.408084    2.408084    1.325510
     2.408084   -2.408084    1.325510
     2.408084    2.408084   -1.325510
   Si
   2
Direct configuration=     2
   0.25000000  0.75000000  0.50000000
  -0.00000000  0.00000000 -0.00000000
unknown system                          
           1
    -2.411483    2.411483    1.321333
     2.411483   -2.411483    1.321333
     2.411483    2.411483   -1.321333
   Si
   2
Direct configuration=     3
   0.25000000  0.75000000  0.50000000
  -0.00000000  0.00000000 -0.00000000
unknown system                          
           1
    -2.412678    2.412678    1.319865
     2.412678   -2.412678    1.319865
     2.412678    2.412678   -1.319865
   Si
   2
Direct configuration=     4
   0.25000000  0.75000000  0.50000000
  -0.00000000  0.00000000 -0.00000000
unknown system                          
           1
    -2.412098    2.412098    1.320577
     2.412098   -2.412098    1.320577
     2.412098    2.412098   -1.320577
   Si
   2
Direct configuration=     5
   0.25000000  0.75000000  0.50000000
  -0.00000000  0.00000000 -0.00000000
unknown system                          
           1
    -2.411782    2.411782    1.320965
     2.411782   -2.411782    1.320965
     2.411782    2.411782   -1.320965
   Si
   2
Direct configuration=     6
   0.25000000  0.75000000  0.50000000
  -0.00000000  0.00000000 -0.00000000
unknown system                          
           1
    -2.411656    2.411656    1.321120
     2.411656   -2.411656    1.321120
     2.411656    2.411656   -1.321120
   Si
   2
Direct configuration=     7
   0.25000000  0.75000000  0.50000000
  -0.00000000  0.00000000 -0.00000000
unknown system                          
           1
    -2.411570    2.411570    1.321227
     2.411570   -2.411570    1.321227
     2.411570    2.411570   -1.321227
   Si
   2
Direct configuration=     8
   0.25000000  0.75000000  0.50000000
  -0.00000000  0.00000000 -0.00000000
unknown system                          
           1
    -2.411526    2.411526    1.321280
     2.411526   -2.411526    1.321280
     2.411526    2.411526   -1.321280
   Si
   2
Direct configuration=     9
   0.25000000  0.75000000  0.50000000
  -0.00000000  0.00000000 -0.00000000
unknown system                          
           1
    -2.411504    2.411504    1.321307
     2.411504   -2.411504    1.321307
     2.411504    2.411504   -1.321307
   Si
   2
Direct configuration=    10
   0.25000000  0.75000000  0.50000000
  -0.00000000  0.00000000 -0.00000000
unknown system                          
           1
    -2.411494    2.411494    1.321320
     2.411494   -2.411494    1.321320
     2.411494    2.411494   -1.321320
   Si
   2
Direct configuration=    11
   0.25000000  0.75000000  0.50000000
  -0.00000000  0.00000000 -0.00000000
unknown system                          
           1
    -2.411488    2.411488    1.321327
     2.411488   -2.411488    1.321327
     2.411488    2.411488   -1.321327
   Si
   2
Direct configuration=    12
   0.25000000  0.75000000  0.50000000
  -0.00000000  0.00000000 -0.00000000
unknown system                          
           1
    -2.411485    2.411485    1.321330
     2.411485   -2.411485    1.321330
     2.411485    2.411485   -1.321330
   Si
   2
Direct configuration=    13
   0.25000000  0.75000000  0.50000000
  -0.00000000  0.00000000 -0.00000000
unknown system                          
           1
    -2.411484    2.411484    1.321332
     2.411484   -2.411484    1.321332
     2.411484    2.411484   -1.321332
   Si
   2
Direct configuration=    14
   0.25000000  0.75000000  0.50000000
  -0.00000000  0.00000000 -0.00000000
unknown system                          
           1
    -2.411483    2.411483    1.321332
     2.411483   -2.411483    1.321332
     2.411483    2.411483   -1.321332
   Si
   2
Direct configuration=    15
   0.25000000  0.75000000  0.50000000
  -0.00000000  0.00000000 -0.00000000
