   2   2   0   0
  0.1529437E+02  0.3691622E-09  0.3691622E-09  0.3691622E-09  0.5000000E-15
  1.000000000000000E-004
  CAR 
 unknown system                          
     22.48736558     -6.45011042  301      9.15440293      1.00000000
     -6.450  0.0000E+00  0.0000E+00
     -6.354  0.0000E+00  0.0000E+00
     -6.257  0.0000E+00  0.0000E+00
     -6.161  0.0000E+00  0.0000E+00
     -6.064  0.0000E+00  0.0000E+00
     -5.968  0.0000E+00  0.0000E+00
     -5.871  0.0000E+00  0.0000E+00
     -5.775  0.0000E+00  0.0000E+00
     -5.678  0.0000E+00  0.0000E+00
     -5.582  0.1563E-16  0.1508E-17
     -5.486  0.3123E-14  0.3028E-15
     -5.389  0.3999E-12  0.3887E-13
     -5.293  0.3240E-10  0.3164E-11
     -5.196  0.1663E-08  0.1636E-09
     -5.100  0.5416E-07  0.5387E-08
     -5.003  0.1120E-05  0.1134E-06
     -4.907  0.1472E-04  0.1533E-05
     -4.810  0.1231E-03  0.1341E-04
     -4.714  0.6568E-03  0.7677E-04
     -4.617  0.2235E-02  0.2924E-03
     -4.521  0.4860E-02  0.7612E-03
     -4.424  0.6764E-02  0.1414E-02
     -4.328  0.6104E-02  0.2002E-02
     -4.232  0.3945E-02  0.2383E-02
     -4.135  0.3072E-02  0.2679E-02
     -4.039  0.4949E-02  0.3157E-02
     -3.942  0.9791E-02  0.4101E-02
     -3.846  0.1720E-01  0.5760E-02
     -3.749  0.2414E-01  0.8089E-02
     -3.653  0.2557E-01  0.1056E-01
     -3.556  0.2101E-01  0.1258E-01
     -3.460  0.1657E-01  0.1418E-01
     -3.363  0.1643E-01  0.1576E-01
     -3.267  0.1743E-01  0.1745E-01
     -3.171  0.1560E-01  0.1895E-01
     -3.074  0.1135E-01  0.2005E-01
     -2.978  0.7164E-02  0.2074E-01
     -2.881  0.5938E-02  0.2131E-01
     -2.785  0.9540E-02  0.2223E-01
     -2.688  0.1666E-01  0.2384E-01
     -2.592  0.2469E-01  0.2622E-01
     -2.495  0.3316E-01  0.2942E-01
     -2.399  0.3972E-01  0.3325E-01
     -2.302  0.3795E-01  0.3691E-01
     -2.206  0.2791E-01  0.3960E-01
     -2.109  0.1981E-01  0.4151E-01
     -2.013  0.2015E-01  0.4345E-01
     -1.917  0.2387E-01  0.4576E-01
     -1.820  0.2311E-01  0.4799E-01
     -1.724  0.1696E-01  0.4962E-01
     -1.627  0.1204E-01  0.5078E-01
     -1.531  0.1612E-01  0.5234E-01
     -1.434  0.2943E-01  0.5518E-01
     -1.338  0.4083E-01  0.5912E-01
     -1.241  0.3958E-01  0.6293E-01
     -1.145  0.3002E-01  0.6583E-01
     -1.048  0.2294E-01  0.6804E-01
     -0.952  0.2239E-01  0.7020E-01
     -0.856  0.3007E-01  0.7310E-01
     -0.759  0.4435E-01  0.7738E-01
     -0.663  0.5370E-01  0.8256E-01
     -0.566  0.4834E-01  0.8722E-01
     -0.470  0.3241E-01  0.9035E-01
     -0.373  0.1714E-01  0.9200E-01
     -0.277  0.1118E-01  0.9308E-01
     -0.180  0.1834E-01  0.9485E-01
     -0.084  0.3585E-01  0.9831E-01
      0.013  0.5267E-01  0.1034E+00
      0.109  0.5682E-01  0.1089E+00
      0.206  0.4604E-01  0.1133E+00
      0.302  0.2948E-01  0.1162E+00
      0.398  0.2072E-01  0.1182E+00
      0.495  0.2530E-01  0.1206E+00
      0.591  0.3369E-01  0.1238E+00
      0.688  0.3258E-01  0.1270E+00
      0.784  0.2251E-01  0.1292E+00
      0.881  0.1478E-01  0.1306E+00
      0.977  0.1639E-01  0.1322E+00
      1.074  0.2593E-01  0.1347E+00
      1.170  0.3619E-01  0.1382E+00
      1.267  0.4169E-01  0.1422E+00
      1.363  0.4539E-01  0.1466E+00
      1.459  0.4891E-01  0.1513E+00
      1.556  0.4824E-01  0.1559E+00
      1.652  0.4786E-01  0.1605E+00
      1.749  0.5615E-01  0.1660E+00
      1.845  0.6717E-01  0.1724E+00
      1.942  0.6828E-01  0.1790E+00
      2.038  0.5875E-01  0.1847E+00
      2.135  0.4780E-01  0.1893E+00
      2.231  0.4174E-01  0.1933E+00
      2.328  0.4128E-01  0.1973E+00
      2.424  0.4188E-01  0.2013E+00
      2.521  0.3664E-01  0.2049E+00
      2.617  0.2763E-01  0.2075E+00
      2.713  0.2334E-01  0.2098E+00
      2.810  0.2461E-01  0.2122E+00
      2.906  0.2589E-01  0.2147E+00
      3.003  0.2355E-01  0.2169E+00
      3.099  0.1765E-01  0.2186E+00
      3.196  0.1309E-01  0.2199E+00
      3.292  0.1687E-01  0.2215E+00
      3.389  0.2970E-01  0.2244E+00
      3.485  0.4295E-01  0.2285E+00
      3.582  0.4807E-01  0.2332E+00
      3.678  0.4470E-01  0.2375E+00
      3.774  0.3844E-01  0.2412E+00
      3.871  0.3708E-01  0.2448E+00
      3.967  0.4393E-01  0.2490E+00
      4.064  0.5502E-01  0.2543E+00
      4.160  0.6817E-01  0.2609E+00
      4.257  0.8219E-01  0.2688E+00
      4.353  0.8682E-01  0.2772E+00
      4.450  0.7280E-01  0.2842E+00
      4.546  0.4869E-01  0.2889E+00
      4.643  0.3172E-01  0.2920E+00
      4.739  0.2902E-01  0.2948E+00
      4.836  0.3432E-01  0.2981E+00
      4.932  0.3751E-01  0.3017E+00
      5.028  0.3511E-01  0.3051E+00
      5.125  0.3218E-01  0.3082E+00
      5.221  0.3144E-01  0.3112E+00
      5.318  0.2917E-01  0.3140E+00
      5.414  0.2688E-01  0.3166E+00
      5.511  0.3178E-01  0.3197E+00
      5.607  0.4460E-01  0.3240E+00
      5.704  0.6176E-01  0.3300E+00
      5.800  0.8161E-01  0.3378E+00
      5.897  0.9775E-01  0.3473E+00
      5.993  0.1006E+00  0.3570E+00
      6.089  0.8726E-01  0.3654E+00
      6.186  0.6445E-01  0.3716E+00
      6.282  0.4716E-01  0.3761E+00
      6.379  0.4785E-01  0.3808E+00
      6.475  0.6120E-01  0.3867E+00
      6.572  0.6921E-01  0.3933E+00
      6.668  0.6305E-01  0.3994E+00
      6.765  0.5156E-01  0.4044E+00
      6.861  0.4874E-01  0.4091E+00
      6.958  0.6017E-01  0.4149E+00
      7.054  0.7613E-01  0.4222E+00
      7.151  0.7868E-01  0.4298E+00
      7.247  0.6361E-01  0.4360E+00
      7.343  0.4642E-01  0.4404E+00
      7.440  0.4210E-01  0.4445E+00
      7.536  0.4869E-01  0.4492E+00
      7.633  0.5470E-01  0.4545E+00
      7.729  0.5434E-01  0.4597E+00
      7.826  0.5111E-01  0.4646E+00
      7.922  0.5226E-01  0.4697E+00
      8.019  0.5963E-01  0.4754E+00
      8.115  0.7027E-01  0.4822E+00
      8.212  0.8150E-01  0.4901E+00
      8.308  0.8474E-01  0.4983E+00
      8.404  0.7376E-01  0.5054E+00
      8.501  0.5837E-01  0.5110E+00
      8.597  0.4870E-01  0.5157E+00
      8.694  0.4144E-01  0.5197E+00
      8.790  0.3169E-01  0.5227E+00
      8.887  0.2376E-01  0.5250E+00
      8.983  0.2455E-01  0.5274E+00
      9.080  0.3233E-01  0.5305E+00
      9.176  0.3757E-01  0.5342E+00
      9.273  0.3448E-01  0.5375E+00
      9.369  0.2898E-01  0.5403E+00
      9.466  0.3037E-01  0.5432E+00
      9.562  0.3980E-01  0.5470E+00
      9.658  0.5439E-01  0.5523E+00
      9.755  0.7193E-01  0.5592E+00
      9.851  0.8540E-01  0.5675E+00
      9.948  0.8506E-01  0.5757E+00
     10.044  0.6984E-01  0.5824E+00
     10.141  0.4972E-01  0.5872E+00
     10.237  0.3483E-01  0.5906E+00
     10.334  0.2654E-01  0.5931E+00
     10.430  0.2297E-01  0.5953E+00
     10.527  0.2569E-01  0.5978E+00
     10.623  0.3443E-01  0.6011E+00
     10.719  0.4376E-01  0.6054E+00
     10.816  0.4792E-01  0.6100E+00
     10.912  0.4599E-01  0.6144E+00
     11.009  0.4410E-01  0.6187E+00
     11.105  0.5129E-01  0.6236E+00
     11.202  0.7202E-01  0.6306E+00
     11.298  0.9930E-01  0.6401E+00
     11.395  0.1141E+00  0.6512E+00
     11.491  0.1041E+00  0.6612E+00
     11.588  0.8319E-01  0.6692E+00
     11.684  0.7516E-01  0.6765E+00
     11.780  0.7928E-01  0.6841E+00
     11.877  0.7404E-01  0.6913E+00
     11.973  0.5350E-01  0.6964E+00
     12.070  0.3814E-01  0.7001E+00
     12.166  0.4490E-01  0.7044E+00
     12.263  0.6395E-01  0.7106E+00
     12.359  0.7070E-01  0.7174E+00
     12.456  0.5643E-01  0.7229E+00
     12.552  0.3716E-01  0.7264E+00
     12.649  0.2902E-01  0.7292E+00
     12.745  0.3222E-01  0.7323E+00
     12.842  0.3922E-01  0.7361E+00
     12.938  0.4302E-01  0.7403E+00
     13.034  0.4226E-01  0.7444E+00
     13.131  0.4256E-01  0.7485E+00
     13.227  0.4959E-01  0.7532E+00
     13.324  0.6671E-01  0.7597E+00
     13.420  0.9579E-01  0.7689E+00
     13.517  0.1268E+00  0.7811E+00
     13.613  0.1378E+00  0.7944E+00
     13.710  0.1217E+00  0.8062E+00
     13.806  0.9577E-01  0.8154E+00
     13.903  0.7816E-01  0.8229E+00
     13.999  0.6954E-01  0.8297E+00
     14.095  0.6253E-01  0.8357E+00
     14.192  0.6126E-01  0.8416E+00
     14.288  0.7425E-01  0.8488E+00
     14.385  0.9150E-01  0.8576E+00
     14.481  0.9231E-01  0.8665E+00
     14.578  0.7271E-01  0.8735E+00
     14.674  0.4789E-01  0.8781E+00
     14.771  0.3070E-01  0.8811E+00
     14.867  0.2144E-01  0.8831E+00
     14.964  0.1926E-01  0.8850E+00
     15.060  0.2872E-01  0.8878E+00
     15.157  0.5381E-01  0.8930E+00
     15.253  0.8966E-01  0.9016E+00
     15.349  0.1182E+00  0.9130E+00
     15.446  0.1201E+00  0.9246E+00
     15.542  0.9682E-01  0.9339E+00
     15.639  0.6864E-01  0.9406E+00
     15.735  0.5012E-01  0.9454E+00
     15.832  0.4106E-01  0.9494E+00
     15.928  0.3680E-01  0.9529E+00
     16.025  0.3507E-01  0.9563E+00
     16.121  0.3437E-01  0.9596E+00
     16.218  0.3250E-01  0.9627E+00
     16.314  0.2923E-01  0.9656E+00
     16.410  0.2737E-01  0.9682E+00
     16.507  0.2814E-01  0.9709E+00
     16.603  0.3140E-01  0.9739E+00
     16.700  0.3701E-01  0.9775E+00
     16.796  0.4132E-01  0.9815E+00
     16.893  0.4163E-01  0.9855E+00
     16.989  0.3923E-01  0.9893E+00
     17.086  0.3490E-01  0.9927E+00
     17.182  0.3087E-01  0.9956E+00
     17.279  0.2934E-01  0.9985E+00
     17.375  0.2965E-01  0.1001E+01
     17.472  0.3227E-01  0.1004E+01
     17.568  0.3559E-01  0.1008E+01
     17.664  0.3486E-01  0.1011E+01
     17.761  0.2980E-01  0.1014E+01
     17.857  0.2418E-01  0.1016E+01
     17.954  0.2204E-01  0.1019E+01
     18.050  0.2889E-01  0.1021E+01
     18.147  0.4536E-01  0.1026E+01
     18.243  0.5968E-01  0.1031E+01
     18.340  0.5948E-01  0.1037E+01
     18.436  0.4721E-01  0.1042E+01
     18.533  0.3277E-01  0.1045E+01
     18.629  0.2116E-01  0.1047E+01
     18.725  0.1496E-01  0.1048E+01
     18.822  0.1663E-01  0.1050E+01
     18.918  0.2311E-01  0.1052E+01
     19.015  0.2643E-01  0.1055E+01
     19.111  0.2273E-01  0.1057E+01
     19.208  0.1595E-01  0.1059E+01
     19.304  0.1131E-01  0.1060E+01
     19.401  0.9185E-02  0.1061E+01
     19.497  0.6912E-02  0.1061E+01
     19.594  0.3835E-02  0.1062E+01
     19.690  0.1425E-02  0.1062E+01
     19.787  0.3455E-03  0.1062E+01
     19.883  0.8084E-04  0.1062E+01
     19.979  0.2133E-03  0.1062E+01
     20.076  0.1005E-02  0.1062E+01
     20.172  0.3180E-02  0.1062E+01
     20.269  0.6794E-02  0.1063E+01
     20.365  0.1023E-01  0.1064E+01
     20.462  0.1135E-01  0.1065E+01
     20.558  0.9440E-02  0.1066E+01
     20.655  0.5721E-02  0.1066E+01
     20.751  0.2412E-02  0.1067E+01
     20.848  0.6798E-03  0.1067E+01
     20.944  0.1251E-03  0.1067E+01
     21.040  0.1482E-04  0.1067E+01
     21.137  0.1123E-05  0.1067E+01
     21.233  0.5423E-07  0.1067E+01
     21.330  0.1664E-08  0.1067E+01
     21.426  0.3241E-10  0.1067E+01
     21.523  0.3999E-12  0.1067E+01
     21.619  0.3120E-14  0.1067E+01
     21.716  0.1705E-16  0.1067E+01
     21.812  0.0000E+00  0.1067E+01
     21.909  0.0000E+00  0.1067E+01
     22.005  0.0000E+00  0.1067E+01
     22.102  0.0000E+00  0.1067E+01
     22.198  0.0000E+00  0.1067E+01
     22.294  0.0000E+00  0.1067E+01
     22.391  0.0000E+00  0.1067E+01
     22.487  0.0000E+00  0.1067E+01
