unknown system                          
   1.00000000000000     
     0.000000    2.715000    2.715000
     2.715000    0.000000    2.715000
     2.715000    2.715000    0.000000
   Si
     2
Direct
  0.500000  0.500000  0.500000
  0.750000  0.750000  0.750000
 
   24   24   24
 0.87056650311E+00 0.90794364511E+00 0.10251240436E+01 0.12365548043E+01 0.15635320286E+01
 0.20288213995E+01 0.26477063338E+01 0.34153672144E+01 0.42923573919E+01 0.51941243497E+01
 0.59946641177E+01 0.65521808153E+01 0.67526433805E+01 0.65521586419E+01 0.59946411466E+01
 0.51941215146E+01 0.42923772537E+01 0.34153961987E+01 0.26477282148E+01 0.20288277010E+01
 0.15635253484E+01 0.12365452197E+01 0.10251197182E+01 0.90794397662E+00 0.90794364511E+00
 0.96879935606E+00 0.10982932989E+01 0.13104287239E+01 0.16219356859E+01 0.20464529512E+01
 0.25864324481E+01 0.32234262874E+01 0.39092326443E+01 0.45634748983E+01 0.50844154160E+01
 0.53748878777E+01 0.53748760355E+01 0.50844130113E+01 0.45635311883E+01 0.39093351743E+01
 0.32235047437E+01 0.25864349711E+01 0.20463941694E+01 0.16218695433E+01 0.13103950340E+01
 0.10982954366E+01 0.96881648753E+00 0.90795256570E+00 0.10251240436E+01 0.10982932989E+01
 0.12301379057E+01 0.14327310652E+01 0.17174180173E+01 0.20894630487E+01 0.25417151064E+01
 0.30481868591E+01 0.35600444268E+01 0.40084589018E+01 0.43180262484E+01 0.44288681318E+01
 0.43180462994E+01 0.40084937451E+01 0.35600756925E+01 0.30481925090E+01 0.25416920583E+01
 0.20894296119E+01 0.17173920679E+01 0.14327164973E+01 0.12301322391E+01 0.10982947689E+01
 0.10251280378E+01 0.10018037055E+01 0.12365548043E+01 0.13104287239E+01 0.14327310652E+01
 0.16130318377E+01 0.18577925000E+01 0.21661187167E+01 0.25253832766E+01 0.29075684198E+01
 0.32686416735E+01 0.35542399753E+01 0.37129109757E+01 0.37129280065E+01 0.35542660328E+01
 0.32686277404E+01 0.29074960199E+01 0.25252924236E+01 0.21660738514E+01 0.18578187699E+01
 0.16130934991E+01 0.14327740435E+01 0.13104323090E+01 0.12365376563E+01 0.12022232510E+01
 0.12022329451E+01 0.15635320286E+01 0.16219356859E+01 0.17174180173E+01 0.18577925000E+01
 0.20464387384E+01 0.22792159799E+01 0.25417215997E+01 0.28077621775E+01 0.30410644185E+01
 0.32021836486E+01 0.32598679280E+01 0.32021566123E+01 0.30410277644E+01 0.28077333327E+01
 0.25417084821E+01 0.22792211898E+01 0.20464601455E+01 0.18578192572E+01 0.17174376783E+01
 0.16219469024E+01 0.15635413609E+01 0.15332300931E+01 0.15240015922E+01 0.15332223744E+01
 0.20288213995E+01 0.20464529512E+01 0.20894630487E+01 0.21661187167E+01 0.22792159799E+01
 0.24238931234E+01 0.25864271336E+01 0.27447896874E+01 0.28721191979E+01 0.29433925656E+01
 0.29433694364E+01 0.28720772662E+01 0.27447809280E+01 0.25864750554E+01 0.24239744405E+01
 0.22792814789E+01 0.21661273638E+01 0.20894140957E+01 0.20463939616E+01 0.20288063215E+01
 0.20257750145E+01 0.20272460338E+01 0.20272254219E+01 0.20257460307E+01 0.26477063338E+01
 0.25864324481E+01 0.25417151064E+01 0.25253832766E+01 0.25417215997E+01 0.25864271336E+01
 0.26476887298E+01 0.27091701603E+01 0.27543071893E+01 0.27708518485E+01 0.27543116909E+01
 0.27091984167E+01 0.26477341646E+01 0.25864549212E+01 0.25417169130E+01 0.25253649712E+01
 0.25416973616E+01 0.25864092560E+01 0.26476787448E+01 0.27091645860E+01 0.27543051337E+01
 0.27708523304E+01 0.27543076320E+01 0.27091812510E+01 0.34153672144E+01 0.32234262874E+01
 0.30481868591E+01 0.29075684198E+01 0.28077621775E+01 0.27447896874E+01 0.27091701603E+01
 0.26910795183E+01 0.26836323225E+01 0.26836364112E+01 0.26911055308E+01 0.27092139020E+01
 0.27447929813E+01 0.28076869929E+01 0.29074694538E+01 0.30481494801E+01 0.32234592596E+01
 0.34154096475E+01 0.35971900706E+01 0.37394319559E+01 0.38175128607E+01 0.38175195990E+01
 0.37394426142E+01 0.35971796036E+01 0.42923573919E+01 0.39092326443E+01 0.35600444268E+01
 0.32686416735E+01 0.30410644185E+01 0.28721191979E+01 0.27543071893E+01 0.26836323225E+01
 0.26598863680E+01 0.26836156487E+01 0.27542983987E+01 0.28721099111E+01 0.30410250314E+01
 0.32685897407E+01 0.35600311980E+01 0.39092611801E+01 0.42923827511E+01 0.46682368710E+01
 0.49864829947E+01 0.51997121435E+01 0.52747205538E+01 0.51996854964E+01 0.49864641868E+01
 0.46682280796E+01 0.51941243497E+01 0.45634748983E+01 0.40084589018E+01 0.35542399753E+01
 0.32021836486E+01 0.29433925656E+01 0.27708518485E+01 0.26836364112E+01 0.26836156487E+01
 0.27708156459E+01 0.29433735730E+01 0.32021754783E+01 0.35542374615E+01 0.40084878287E+01
 0.45635351948E+01 0.51941610155E+01 0.58455923874E+01 0.64403785154E+01 0.68954675047E+01
 0.71422076224E+01 0.71421995086E+01 0.68954695143E+01 0.64404109458E+01 0.58456115022E+01
 0.59946641177E+01 0.50844154160E+01 0.43180262484E+01 0.37129109757E+01 0.32598679280E+01
 0.29433694364E+01 0.27543116909E+01 0.26911055308E+01 0.27542983987E+01 0.29433735730E+01
 0.32598880179E+01 0.37129146462E+01 0.43180150497E+01 0.50844237497E+01 0.59946910832E+01
 0.69887555181E+01 0.79635831974E+01 0.87910242221E+01 0.93473171906E+01 0.95435021248E+01
 0.93473195301E+01 0.87910448604E+01 0.79636070115E+01 0.69887494110E+01 0.65521808153E+01
 0.53748878777E+01 0.44288681318E+01 0.37129280065E+01 0.32021566123E+01 0.28720772662E+01
 0.27091984167E+01 0.27092139020E+01 0.28721099111E+01 0.32021754783E+01 0.37129146462E+01
 0.44288382020E+01 0.53748671015E+01 0.65521637990E+01 0.79110196627E+01 0.93367806552E+01
 0.10659371637E+02 0.11686161290E+02 0.12248743817E+02 0.12248712320E+02 0.11686109389E+02
 0.10659364401E+02 0.93368178967E+01 0.79110548390E+01 0.67526433805E+01 0.53748760355E+01
 0.43180462994E+01 0.35542660328E+01 0.30410277644E+01 0.27447809280E+01 0.26477341646E+01
 0.27447929813E+01 0.30410250314E+01 0.35542374615E+01 0.43180150497E+01 0.53748671015E+01
 0.67526515522E+01 0.84295277689E+01 0.10303682532E+02 0.12184927826E+02 0.13817738963E+02
 0.14935319866E+02 0.15332506476E+02 0.14935325738E+02 0.13817753508E+02 0.12184948371E+02
 0.10303696745E+02 0.84295257794E+01 0.65521586419E+01 0.50844130113E+01 0.40084937451E+01
 0.32686277404E+01 0.28077333327E+01 0.25864750554E+01 0.25864549212E+01 0.28076869929E+01
 0.32685897407E+01 0.40084878287E+01 0.50844237497E+01 0.65521637990E+01 0.84295277689E+01
 0.10653419421E+02 0.13049323831E+02 0.15330827774E+02 0.17125548412E+02 0.18101629736E+02
 0.18101702587E+02 0.17125676029E+02 0.15330865337E+02 0.13049258959E+02 0.10653349258E+02
 0.84295049772E+01 0.59946411466E+01 0.45635311883E+01 0.35600756925E+01 0.29074960199E+01
 0.25417084821E+01 0.24239744405E+01 0.25417169130E+01 0.29074694538E+01 0.35600311980E+01
 0.45635351948E+01 0.59946910832E+01 0.79110196627E+01 0.10303682532E+02 0.13049323831E+02
 0.15879537015E+02 0.18349154974E+02 0.19998968701E+02 0.20573702378E+02 0.19998992282E+02
 0.18349148570E+02 0.15879501124E+02 0.13049310713E+02 0.10303688466E+02 0.79109919138E+01
 0.51941215146E+01 0.39093351743E+01 0.30481925090E+01 0.25252924236E+01 0.22792211898E+01
 0.22792814789E+01 0.25253649712E+01 0.30481494801E+01 0.39092611801E+01 0.51941610155E+01
 0.69887555181E+01 0.93367806552E+01 0.12184927826E+02 0.15330827774E+02 0.18349154974E+02
 0.20670270106E+02 0.21912250968E+02 0.21912199325E+02 0.20670159539E+02 0.18349097086E+02
 0.15330897070E+02 0.12185042744E+02 0.93367872857E+01 0.69886572838E+01 0.42923772537E+01
 0.32235047437E+01 0.25416920583E+01 0.21660738514E+01 0.20464601455E+01 0.21661273638E+01
 0.25416973616E+01 0.32234592596E+01 0.42923827511E+01 0.58455923874E+01 0.79635831974E+01
 0.10659371637E+02 0.13817738963E+02 0.17125548412E+02 0.19998968701E+02 0.21912250968E+02
 0.22578245362E+02 0.21912325141E+02 0.19999010629E+02 0.17125538938E+02 0.13817755891E+02
 0.10659411394E+02 0.79635632293E+01 0.58455292664E+01 0.34153961987E+01 0.25864349711E+01
 0.20894296119E+01 0.18578187699E+01 0.18578192572E+01 0.20894140957E+01 0.25864092560E+01
 0.34154096475E+01 0.46682368710E+01 0.64403785154E+01 0.87910242221E+01 0.11686161290E+02
 0.14935319866E+02 0.18101629736E+02 0.20573702378E+02 0.21912199325E+02 0.21912325141E+02
 0.20573899461E+02 0.18101640110E+02 0.14935181746E+02 0.11686083445E+02 0.87910455672E+01
 0.64403828863E+01 0.46681961188E+01 0.26477282148E+01 0.20463941694E+01 0.17173920679E+01
 0.16130934991E+01 0.17174376783E+01 0.20463939616E+01 0.26476787448E+01 0.35971900706E+01
 0.49864829947E+01 0.68954675047E+01 0.93473171906E+01 0.12248743817E+02 0.15332506476E+02
 0.18101702587E+02 0.19998992282E+02 0.20670159539E+02 0.19999010629E+02 0.18101640110E+02
 0.15332374055E+02 0.12248668749E+02 0.93473299173E+01 0.68954740253E+01 0.49864573368E+01
 0.35972032603E+01 0.20288277010E+01 0.16218695433E+01 0.14327164973E+01 0.14327740435E+01
 0.16219469024E+01 0.20288063215E+01 0.27091645860E+01 0.37394319559E+01 0.51997121435E+01
 0.71422076224E+01 0.95435021248E+01 0.12248712320E+02 0.14935325738E+02 0.17125676029E+02
 0.18349148570E+02 0.18349097086E+02 0.17125538938E+02 0.14935181746E+02 0.12248668749E+02
 0.95435590328E+01 0.71422493001E+01 0.51996919054E+01 0.37394368888E+01 0.27092305322E+01
 0.15635253484E+01 0.13103950340E+01 0.12301322391E+01 0.13104323090E+01 0.15635413609E+01
 0.20257750145E+01 0.27543051337E+01 0.38175128607E+01 0.52747205538E+01 0.71421995086E+01
 0.93473195301E+01 0.11686109389E+02 0.13817753508E+02 0.15330865337E+02 0.15879501124E+02
 0.15330897070E+02 0.13817755891E+02 0.11686083445E+02 0.93473299173E+01 0.71422493001E+01
 0.52747433880E+01 0.38174947695E+01 0.27542982523E+01 0.20257866312E+01 0.12365452197E+01
 0.10982954366E+01 0.10982947689E+01 0.12365376563E+01 0.15332300931E+01 0.20272460338E+01
 0.27708523304E+01 0.38175195990E+01 0.51996854964E+01 0.68954695143E+01 0.87910448604E+01
 0.10659364401E+02 0.12184948371E+02 0.13049258959E+02 0.13049310713E+02 0.12185042744E+02
 0.10659411394E+02 0.87910455672E+01 0.68954740253E+01 0.51996919054E+01 0.38174947695E+01
 0.27708097269E+01 0.20272273402E+01 0.15332378387E+01 0.10251197182E+01 0.96881648753E+00
 0.10251280378E+01 0.12022232510E+01 0.15240015922E+01 0.20272254219E+01 0.27543076320E+01
 0.37394426142E+01 0.49864641868E+01 0.64404109458E+01 0.79636070115E+01 0.93368178967E+01
 0.10303696745E+02 0.10653349258E+02 0.10303688466E+02 0.93367872857E+01 0.79635632293E+01
 0.64403828863E+01 0.49864573368E+01 0.37394368888E+01 0.27542982523E+01 0.20272273402E+01
 0.15240131737E+01 0.12022251066E+01 0.90794397662E+00 0.90795256570E+00 0.10018037055E+01
 0.12022329451E+01 0.15332223744E+01 0.20257460307E+01 0.27091812510E+01 0.35971796036E+01
 0.46682280796E+01 0.58456115022E+01 0.69887494110E+01 0.79110548390E+01 0.84295257794E+01
 0.84295049772E+01 0.79109919138E+01 0.69886572838E+01 0.58455292664E+01 0.46681961188E+01
 0.35972032603E+01 0.27092305322E+01 0.20257866312E+01 0.15332378387E+01 0.12022251066E+01
 0.10017865186E+01 0.90793854725E+00 0.96879457181E+00 0.10982924968E+01 0.13104287368E+01
 0.16219337815E+01 0.20464531491E+01 0.25864389984E+01 0.32234370587E+01 0.39092441565E+01
 0.45634868331E+01 0.50844242756E+01 0.53748835900E+01 0.53748524030E+01 0.50843766817E+01
 0.45634950256E+01 0.39093083846E+01 0.32234934670E+01 0.25864438656E+01 0.20464198472E+01
 0.16218986056E+01 0.13104157086E+01 0.10983067808E+01 0.96882208937E+00 0.90795253900E+00
 0.96879457181E+00 0.10371059477E+01 0.11613332681E+01 0.13540989220E+01 0.16272186429E+01
 0.19861913319E+01 0.24238933297E+01 0.29144876711E+01 0.34099718128E+01 0.38434386746E+01
 0.41422590072E+01 0.42491453627E+01 0.41422588315E+01 0.38434929390E+01 0.34100874432E+01
 0.29145852444E+01 0.24238973108E+01 0.19861179126E+01 0.16271451352E+01 0.13540742972E+01
 0.11613472716E+01 0.10371269087E+01 0.96880580221E+00 0.94714721505E+00 0.10982924968E+01
 0.11613332681E+01 0.12688090414E+01 0.14313916291E+01 0.16563288494E+01 0.19430798241E+01
 0.22792088793E+01 0.26373985216E+01 0.29755416058E+01 0.32425436150E+01 0.33906547190E+01
 0.33906673503E+01 0.32425837057E+01 0.29755987756E+01 0.26374366131E+01 0.22791971223E+01
 0.19430297243E+01 0.16562805306E+01 0.14313699982E+01 0.12688092185E+01 0.11613407989E+01
 0.10982992643E+01 0.10697336342E+01 0.10697309465E+01 0.13104287368E+01 0.13540989220E+01
 0.14313916291E+01 0.15513280625E+01 0.17179653663E+01 0.19275129784E+01 0.21661189907E+01
 0.24089553801E+01 0.26222018979E+01 0.27695094248E+01 0.28222642531E+01 0.27695292004E+01
 0.26222136713E+01 0.24089273377E+01 0.21660506430E+01 0.19274459241E+01 0.17179461601E+01
 0.15513603648E+01 0.14314364513E+01 0.13541198852E+01 0.13104234872E+01 0.12898467034E+01
 0.12840506604E+01 0.12898577640E+01 0.16219337815E+01 0.16272186429E+01 0.16563288494E+01
 0.17179653663E+01 0.18150340536E+01 0.19430851238E+01 0.20894677683E+01 0.22337503007E+01
 0.23507059729E+01 0.24165139337E+01 0.24165107466E+01 0.23506981258E+01 0.22337357794E+01
 0.20894389108E+01 0.19430470361E+01 0.18150129836E+01 0.17179828296E+01 0.16563745548E+01
 0.16272621475E+01 0.16219567703E+01 0.16285130983E+01 0.16353678569E+01 0.16353673624E+01
 0.16285068559E+01 0.20464531491E+01 0.19861913319E+01 0.19430798241E+01 0.19275129784E+01
 0.19430851238E+01 0.19861915239E+01 0.20464481755E+01 0.21083210944E+01 0.21546560355E+01
 0.21718374967E+01 0.21546577967E+01 0.21083296311E+01 0.20464603400E+01 0.19861999827E+01
 0.19430936812E+01 0.19275298774E+01 0.19430990134E+01 0.19862002374E+01 0.20464554552E+01
 0.21083299088E+01 0.21546631732E+01 0.21718375595E+01 0.21546507801E+01 0.21083209255E+01
 0.25864389984E+01 0.24238933297E+01 0.22792088793E+01 0.21661189907E+01 0.20894677683E+01
 0.20464481755E+01 0.20288108984E+01 0.20257459098E+01 0.20272361431E+01 0.20272570542E+01
 0.20257901232E+01 0.20288353523E+01 0.20464250426E+01 0.20894231074E+01 0.21661110121E+01
 0.22792550758E+01 0.24239439204E+01 0.25864388429E+01 0.27447519810E+01 0.28720729471E+01
 0.29433834478E+01 0.29434041765E+01 0.28721251117E+01 0.27448003645E+01 0.32234370587E+01
 0.29144876711E+01 0.26373985216E+01 0.24089553801E+01 0.22337503007E+01 0.21083210944E+01
 0.20257459098E+01 0.19792596689E+01 0.19643052438E+01 0.19792954403E+01 0.20257665936E+01
 0.21082737056E+01 0.22336472546E+01 0.24088828422E+01 0.26374278947E+01 0.29145865885E+01
 0.32235013243E+01 0.35335569561E+01 0.38031841732E+01 0.39882119854E+01 0.40542634251E+01
 0.39882828226E+01 0.38032742417E+01 0.35335877864E+01 0.39092441565E+01 0.34099718128E+01
 0.29755416058E+01 0.26222018979E+01 0.23507059729E+01 0.21546560355E+01 0.20272361431E+01
 0.19643052438E+01 0.19643009191E+01 0.20272053177E+01 0.21545762147E+01 0.23506044319E+01
 0.26221548736E+01 0.29755963157E+01 0.34100805609E+01 0.39093085232E+01 0.44353298522E+01
 0.49283573921E+01 0.53157389893E+01 0.55299659456E+01 0.55299755290E+01 0.53157770175E+01
 0.49284155612E+01 0.44353504447E+01 0.45634868331E+01 0.38434386746E+01 0.32425436150E+01
 0.27695094248E+01 0.24165139337E+01 0.21718374967E+01 0.20272570542E+01 0.19792954403E+01
 0.20272053177E+01 0.21717275807E+01 0.24163973392E+01 0.27694908505E+01 0.32426668151E+01
 0.38436091945E+01 0.45635601706E+01 0.53641472654E+01 0.61699866950E+01 0.68739198391E+01
 0.73588767158E+01 0.75322988709E+01 0.73588550374E+01 0.68739470680E+01 0.61700786089E+01
 0.53642064301E+01 0.50844242756E+01 0.41422590072E+01 0.33906547190E+01 0.28222642531E+01
 0.24165107466E+01 0.21546577967E+01 0.20257901232E+01 0.20257665936E+01 0.21545762147E+01
 0.24163973392E+01 0.28222286974E+01 0.33907779656E+01 0.41424598162E+01 0.50845249085E+01
 0.61904279342E+01 0.73811210401E+01 0.85192831664E+01 0.94277357758E+01 0.99352378012E+01
 0.99352169180E+01 0.94277241027E+01 0.85193604708E+01 0.73812650818E+01 0.61905006107E+01
 0.53748835900E+01 0.42491453627E+01 0.33906673503E+01 0.27695292004E+01 0.23506981258E+01
 0.21083296311E+01 0.20288353523E+01 0.21082737056E+01 0.23506044319E+01 0.27694908505E+01
 0.33907779656E+01 0.42493424067E+01 0.53749791848E+01 0.67668486331E+01 0.83624078360E+01
 0.10013706029E+02 0.11490186828E+02 0.12524672307E+02 0.12897920292E+02 0.12524642116E+02
 0.11490192449E+02 0.10013816839E+02 0.83625886025E+01 0.67669449273E+01 0.53748524030E+01
 0.41422588315E+01 0.32425837057E+01 0.26222136713E+01 0.22337357794E+01 0.20464603400E+01
 0.20464250426E+01 0.22336472546E+01 0.26221548736E+01 0.32426668151E+01 0.41424598162E+01
 0.53749791848E+01 0.69743018166E+01 0.89156016680E+01 0.11071832980E+02 0.13189608118E+02
 0.14916052240E+02 0.15893566996E+02 0.15893563189E+02 0.14916037021E+02 0.13189618266E+02
 0.11071943947E+02 0.89157823917E+01 0.69743786564E+01 0.50843766817E+01 0.38434929390E+01
 0.29755987756E+01 0.24089273377E+01 0.20894389108E+01 0.19861999827E+01 0.20894231074E+01
 0.24088828422E+01 0.29755963157E+01 0.38436091945E+01 0.50845249085E+01 0.67668486331E+01
 0.89156016680E+01 0.11455624583E+02 0.14157912493E+02 0.16629352109E+02 0.18388826800E+02
 0.19028943620E+02 0.18388834903E+02 0.16629322428E+02 0.14157891853E+02 0.11455701009E+02
 0.89157125979E+01 0.67668330258E+01 0.45634950256E+01 0.34100874432E+01 0.26374366131E+01
 0.21660506430E+01 0.19430470361E+01 0.19430936812E+01 0.21661110121E+01 0.26374278947E+01
 0.34100805609E+01 0.45635601706E+01 0.61904279342E+01 0.83624078360E+01 0.11071832980E+02
 0.14157912493E+02 0.17254593945E+02 0.19820097985E+02 0.21283597031E+02 0.21283602977E+02
 0.19820067012E+02 0.17254502721E+02 0.14157863201E+02 0.11071884766E+02 0.83624532874E+01
 0.61903770266E+01 0.39093083846E+01 0.29145852444E+01 0.22791971223E+01 0.19274459241E+01
 0.18150129836E+01 0.19275298774E+01 0.22792550758E+01 0.29145865885E+01 0.39093085232E+01
 0.53641472654E+01 0.73811210401E+01 0.10013706029E+02 0.13189608118E+02 0.16629352109E+02
 0.19820097985E+02 0.22104886972E+02 0.22934665628E+02 0.22104959286E+02 0.19820073363E+02
 0.16629209645E+02 0.13189524965E+02 0.10013761968E+02 0.73811992637E+01 0.53641632828E+01
 0.32234934670E+01 0.24238973108E+01 0.19430297243E+01 0.17179461601E+01 0.17179828296E+01
 0.19430990134E+01 0.24239439204E+01 0.32235013243E+01 0.44353298522E+01 0.61699866950E+01
 0.85192831664E+01 0.11490186828E+02 0.14916052240E+02 0.18388826800E+02 0.21283597031E+02
 0.22934665628E+02 0.22934808682E+02 0.21283802112E+02 0.18388774781E+02 0.14915808743E+02
 0.11490062322E+02 0.85193755378E+01 0.61701295741E+01 0.44353914370E+01 0.25864438656E+01
 0.19861179126E+01 0.16562805306E+01 0.15513603648E+01 0.16563745548E+01 0.19862002374E+01
 0.25864388429E+01 0.35335569561E+01 0.49283573921E+01 0.68739198391E+01 0.94277357758E+01
 0.12524672307E+02 0.15893566996E+02 0.19028943620E+02 0.21283602977E+02 0.22104959286E+02
 0.21283802112E+02 0.19029015940E+02 0.15893354908E+02 0.12524397320E+02 0.94276587782E+01
 0.68740362777E+01 0.49285112533E+01 0.35336513428E+01 0.20464198472E+01 0.16271451352E+01
 0.14313699982E+01 0.14314364513E+01 0.16272621475E+01 0.20464554552E+01 0.27447519810E+01
 0.38031841732E+01 0.53157389893E+01 0.73588767158E+01 0.99352378012E+01 0.12897920292E+02
 0.15893563189E+02 0.18388834903E+02 0.19820067012E+02 0.19820073363E+02 0.18388774781E+02
 0.15893354908E+02 0.12897668083E+02 0.99351213211E+01 0.73589346621E+01 0.53158781879E+01
 0.38033189168E+01 0.27448265015E+01 0.16218986056E+01 0.13540742972E+01 0.12688092185E+01
 0.13541198852E+01 0.16219567703E+01 0.21083299088E+01 0.28720729471E+01 0.39882119854E+01
 0.55299659456E+01 0.75322988709E+01 0.99352169180E+01 0.12524642116E+02 0.14916037021E+02
 0.16629322428E+02 0.17254502721E+02 0.16629209645E+02 0.14915808743E+02 0.12524397320E+02
 0.99351213211E+01 0.75324016523E+01 0.55301437762E+01 0.39883240913E+01 0.28720895933E+01
 0.21082913810E+01 0.13104157086E+01 0.11613472716E+01 0.11613407989E+01 0.13104234872E+01
 0.16285130983E+01 0.21546631732E+01 0.29433834478E+01 0.40542634251E+01 0.55299755290E+01
 0.73588550374E+01 0.94277241027E+01 0.11490192449E+02 0.13189618266E+02 0.14157891853E+02
 0.14157863201E+02 0.13189524965E+02 0.11490062322E+02 0.94276587782E+01 0.73589346621E+01
 0.55301437762E+01 0.40543754573E+01 0.29433659151E+01 0.21545756396E+01 0.16284521025E+01
 0.10983067808E+01 0.10371269087E+01 0.10982992643E+01 0.12898467034E+01 0.16353678569E+01
 0.21718375595E+01 0.29434041765E+01 0.39882828226E+01 0.53157770175E+01 0.68739470680E+01
 0.85193604708E+01 0.10013816839E+02 0.11071943947E+02 0.11455701009E+02 0.11071884766E+02
 0.10013761968E+02 0.85193755378E+01 0.68740362777E+01 0.53158781879E+01 0.39883240913E+01
 0.29433659151E+01 0.21717616164E+01 0.16353117513E+01 0.12898328088E+01 0.96882208937E+00
 0.96880580221E+00 0.10697336342E+01 0.12840506604E+01 0.16353673624E+01 0.21546507801E+01
 0.28721251117E+01 0.38032742417E+01 0.49284155612E+01 0.61700786089E+01 0.73812650818E+01
 0.83625886025E+01 0.89157823917E+01 0.89157125979E+01 0.83624532874E+01 0.73811992637E+01
 0.61701295741E+01 0.49285112533E+01 0.38033189168E+01 0.28720895933E+01 0.21545756396E+01
 0.16353117513E+01 0.12840445404E+01 0.10697600354E+01 0.90795253900E+00 0.94714721505E+00
 0.10697309465E+01 0.12898577640E+01 0.16285068559E+01 0.21083209255E+01 0.27448003645E+01
 0.35335877864E+01 0.44353504447E+01 0.53642064301E+01 0.61905006107E+01 0.67669449273E+01
 0.69743786564E+01 0.67668330258E+01 0.61903770266E+01 0.53641632828E+01 0.44353914370E+01
 0.35336513428E+01 0.27448265015E+01 0.21082913810E+01 0.16284521025E+01 0.12898328088E+01
 0.10697600354E+01 0.94719063122E+00 0.10251123096E+01 0.10982860231E+01 0.12301384742E+01
 0.14327327965E+01 0.17174171224E+01 0.20894663177E+01 0.25417269174E+01 0.30481999968E+01
 0.35600508830E+01 0.40084577381E+01 0.43180141696E+01 0.44288364093E+01 0.43179967169E+01
 0.40084460558E+01 0.35600501275E+01 0.30481941316E+01 0.25417170869E+01 0.20894731061E+01
 0.17174415735E+01 0.14327522664E+01 0.12301447212E+01 0.10982925788E+01 0.10251220412E+01
 0.10017947232E+01 0.10982860231E+01 0.11613308901E+01 0.12688104244E+01 0.14313932964E+01
 0.16563297923E+01 0.19430828052E+01 0.22792140336E+01 0.26374008370E+01 0.29755366020E+01
 0.32425306302E+01 0.33906339034E+01 0.33906400513E+01 0.32425578946E+01 0.29755874838E+01
 0.26374471586E+01 0.22792254041E+01 0.19430658744E+01 0.16563149486E+01 0.14313936310E+01
 0.12688157949E+01 0.11613325938E+01 0.10982857976E+01 0.10697221347E+01 0.10697221267E+01
 0.12301384742E+01 0.12688104244E+01 0.13399301135E+01 0.14530604303E+01 0.16126396985E+01
 0.18150305318E+01 0.20464334756E+01 0.22822610216E+01 0.24893460859E+01 0.26323258078E+01
 0.26835073717E+01 0.26323407723E+01 0.24893715693E+01 0.22822832664E+01 0.20464384858E+01
 0.18150198364E+01 0.16126261923E+01 0.14530496766E+01 0.13399180602E+01 0.12687975970E+01
 0.12301316610E+01 0.12128435785E+01 0.12081856604E+01 0.12128439054E+01 0.14327327965E+01
 0.14313932964E+01 0.14530604303E+01 0.15071138614E+01 0.15968636891E+01 0.17179672439E+01
 0.18577946763E+01 0.19961691485E+01 0.21084885078E+01 0.21717146711E+01 0.21717165854E+01
 0.21084845325E+01 0.19961433307E+01 0.18577497339E+01 0.17179299168E+01 0.15968581339E+01
 0.15071334444E+01 0.14530768222E+01 0.14313918741E+01 0.14327247466E+01 0.14443241509E+01
 0.14539081720E+01 0.14539068718E+01 0.14443259118E+01 0.17174171224E+01 0.16563297923E+01
 0.16126396985E+01 0.15968636891E+01 0.16126441855E+01 0.16563350226E+01 0.17174236064E+01
 0.17801766459E+01 0.18271927918E+01 0.18446274401E+01 0.18271750302E+01 0.17801482957E+01
 0.17173928690E+01 0.16563102373E+01 0.16126356169E+01 0.15968765858E+01 0.16126661162E+01
 0.16563557556E+01 0.17174370803E+01 0.17801819566E+01 0.18271924911E+01 0.18446268956E+01
 0.18271813246E+01 0.17801656166E+01 0.20894663177E+01 0.19430828052E+01 0.18150305318E+01
 0.17179672439E+01 0.16563350226E+01 0.16272216835E+01 0.16219338238E+01 0.16285090262E+01
 0.16353671867E+01 0.16353545990E+01 0.16284870082E+01 0.16219293890E+01 0.16272414483E+01
 0.16563634310E+01 0.17179885914E+01 0.18150416011E+01 0.19430885377E+01 0.20894734969E+01
 0.22337543890E+01 0.23507046199E+01 0.24165074019E+01 0.24165001940E+01 0.23506891663E+01
 0.22337413357E+01 0.25417269174E+01 0.22792140336E+01 0.20464334756E+01 0.18577946763E+01
 0.17174236064E+01 0.16219338238E+01 0.15635266341E+01 0.15332242350E+01 0.15240067663E+01
 0.15332278311E+01 0.15635356950E+01 0.16219487018E+01 0.17174430286E+01 0.18578173737E+01
 0.20464549715E+01 0.22792234749E+01 0.25417141924E+01 0.28077315961E+01 0.30410224911E+01
 0.32021585815E+01 0.32598731907E+01 0.32021814492E+01 0.30410587850E+01 0.28077639768E+01
 0.30481999968E+01 0.26374008370E+01 0.22822610216E+01 0.19961691485E+01 0.17801766459E+01
 0.16285090262E+01 0.15332242350E+01 0.14874960496E+01 0.14875050325E+01 0.15332411545E+01
 0.16285165289E+01 0.17801701304E+01 0.19961587240E+01 0.22822582655E+01 0.26374075584E+01
 0.30482045307E+01 0.34839950250E+01 0.38955606642E+01 0.42212994055E+01 0.44024020657E+01
 0.44024283384E+01 0.42213569938E+01 0.38956087712E+01 0.34840124171E+01 0.35600508830E+01
 0.29755366020E+01 0.24893460859E+01 0.21084885078E+01 0.18271927918E+01 0.16353671867E+01
 0.15240067663E+01 0.14875050325E+01 0.15240137955E+01 0.16353613124E+01 0.18271748107E+01
 0.21084808961E+01 0.24893513656E+01 0.29755334974E+01 0.35600353988E+01 0.42131789731E+01
 0.48751630249E+01 0.54578943372E+01 0.58619925192E+01 0.60070554546E+01 0.58619911987E+01
 0.54578845253E+01 0.48751536387E+01 0.42131859539E+01 0.40084577381E+01 0.32425306302E+01
 0.26323258078E+01 0.21717146711E+01 0.18446274401E+01 0.16353545990E+01 0.15332278311E+01
 0.15332411545E+01 0.16353613124E+01 0.18445971039E+01 0.21716913183E+01 0.26323561563E+01
 0.32425769745E+01 0.40084584508E+01 0.49109313299E+01 0.58891583500E+01 0.68320292488E+01
 0.75904682996E+01 0.80164600067E+01 0.80164364308E+01 0.75904081231E+01 0.68319722390E+01
 0.58891502411E+01 0.49109592865E+01 0.43180141696E+01 0.33906339034E+01 0.26835073717E+01
 0.21717165854E+01 0.18271750302E+01 0.16284870082E+01 0.15635356950E+01 0.16285165289E+01
 0.18271748107E+01 0.21716913183E+01 0.26835230302E+01 0.33906886644E+01 0.43180361617E+01
 0.54684038906E+01 0.67961840484E+01 0.81828377276E+01 0.94338511443E+01 0.10316470112E+02
 0.10636135702E+02 0.10316479713E+02 0.94338285936E+01 0.81827976746E+01 0.67961817938E+01
 0.54684244252E+01 0.44288364093E+01 0.33906400513E+01 0.26323407723E+01 0.21084845325E+01
 0.17801482957E+01 0.16219293890E+01 0.16219487018E+01 0.17801701304E+01 0.21084808961E+01
 0.26323561563E+01 0.33906886644E+01 0.44288463141E+01 0.57799805481E+01 0.74318362575E+01
 0.92847969076E+01 0.11123247329E+02 0.12634499732E+02 0.13494752779E+02 0.13494801435E+02
 0.12634563287E+02 0.11123228754E+02 0.92847542827E+01 0.74318629752E+01 0.57800335818E+01
 0.43179967169E+01 0.32425578946E+01 0.24893715693E+01 0.19961433307E+01 0.17173928690E+01
 0.16272414483E+01 0.17174430286E+01 0.19961587240E+01 0.24893513656E+01 0.32425769745E+01
 0.43180361617E+01 0.57799805481E+01 0.76611726392E+01 0.99088412618E+01 0.12327385803E+02
 0.14560857290E+02 0.16161703059E+02 0.16746111049E+02 0.16161740277E+02 0.14560839137E+02
 0.12327323115E+02 0.99088447361E+01 0.76612458855E+01 0.57800100952E+01 0.40084460558E+01
 0.29755874838E+01 0.22822832664E+01 0.18577497339E+01 0.16563102373E+01 0.16563634310E+01
 0.18578173737E+01 0.22822582655E+01 0.29755334974E+01 0.40084584508E+01 0.54684038906E+01
 0.74318362575E+01 0.99088412618E+01 0.12765626422E+02 0.15664239952E+02 0.18085684737E+02
 0.19477311100E+02 0.19477303920E+02 0.18085626797E+02 0.15664124930E+02 0.12765554608E+02
 0.99088670102E+01 0.74318690912E+01 0.54683764880E+01 0.35600501275E+01 0.26374471586E+01
 0.20464384858E+01 0.17179299168E+01 0.16126356169E+01 0.17179885914E+01 0.20464549715E+01
 0.26374075584E+01 0.35600353988E+01 0.49109313299E+01 0.67961840484E+01 0.92847969076E+01
 0.12327385803E+02 0.15664239952E+02 0.18790189299E+02 0.21051881514E+02 0.21881335331E+02
 0.21051861634E+02 0.18790081020E+02 0.15664085261E+02 0.12327318285E+02 0.92848322380E+01
 0.67962119939E+01 0.49109183190E+01 0.30481941316E+01 0.22792254041E+01 0.18150198364E+01
 0.15968581339E+01 0.15968765858E+01 0.18150416011E+01 0.22792234749E+01 0.30482045307E+01
 0.42131789731E+01 0.58891583500E+01 0.81828377276E+01 0.11123247329E+02 0.14560857290E+02
 0.18085684737E+02 0.21051881514E+02 0.22763865712E+02 0.22763885062E+02 0.21051870983E+02
 0.18085581747E+02 0.14560756911E+02 0.11123262192E+02 0.81829163117E+01 0.58891841923E+01
 0.42131527230E+01 0.25417170869E+01 0.19430658744E+01 0.16126261923E+01 0.15071334444E+01
 0.16126661162E+01 0.19430885377E+01 0.25417141924E+01 0.34839950250E+01 0.48751630249E+01
 0.68320292488E+01 0.94338511443E+01 0.12634499732E+02 0.16161703059E+02 0.19477311100E+02
 0.21881335331E+02 0.22763885062E+02 0.21881370366E+02 0.19477314362E+02 0.16161672370E+02
 0.12634503983E+02 0.94338996233E+01 0.68320553307E+01 0.48751461853E+01 0.34839829917E+01
 0.20894731061E+01 0.16563149486E+01 0.14530496766E+01 0.14530768222E+01 0.16563557556E+01
 0.20894734969E+01 0.28077315961E+01 0.38955606642E+01 0.54578943372E+01 0.75904682996E+01
 0.10316470112E+02 0.13494752779E+02 0.16746111049E+02 0.19477303920E+02 0.21051861634E+02
 0.21051870983E+02 0.19477314362E+02 0.16746104557E+02 0.13494743674E+02 0.10316470090E+02
 0.75904612588E+01 0.54578778873E+01 0.38955635653E+01 0.28077556780E+01 0.17174415735E+01
 0.14313936310E+01 0.13399180602E+01 0.14313918741E+01 0.17174370803E+01 0.22337543890E+01
 0.30410224911E+01 0.42212994055E+01 0.58619925192E+01 0.80164600067E+01 0.10636135702E+02
 0.13494801435E+02 0.16161740277E+02 0.18085626797E+02 0.18790081020E+02 0.18085581747E+02
 0.16161672370E+02 0.13494743674E+02 0.10636109648E+02 0.80164607555E+01 0.58620000148E+01
 0.42213024128E+01 0.30410242890E+01 0.22337589172E+01 0.14327522664E+01 0.12688157949E+01
 0.12687975970E+01 0.14327247466E+01 0.17801819566E+01 0.23507046199E+01 0.32021585815E+01
 0.44024020657E+01 0.60070554546E+01 0.80164364308E+01 0.10316479713E+02 0.12634563287E+02
 0.14560839137E+02 0.15664124930E+02 0.15664085261E+02 0.14560756911E+02 0.12634503983E+02
 0.10316470090E+02 0.80164607555E+01 0.60070888862E+01 0.44024219352E+01 0.32021497951E+01