unknown system                          
   1.00000000000000     
    -0.000000    2.734229    2.734229
     2.734229   -0.000000    2.734229
     2.734229    2.734229    0.000000
   Si
     2
Direct
  0.500000  0.500000  0.500000
  0.750000  0.750000  0.750000
 
   24   24   24
 0.84568323253E+00 0.88237368889E+00 0.99747115137E+00 0.12053998672E+01 0.15275061622E+01
 0.19867925342E+01 0.25990551751E+01 0.33602356418E+01 0.42317000490E+01 0.51294602968E+01
 0.59276072201E+01 0.64840063007E+01 0.66841631815E+01 0.64839761924E+01 0.59275746914E+01
 0.51294546484E+01 0.42317289764E+01 0.33602847599E+01 0.25991024605E+01 0.19868218369E+01
 0.15275138985E+01 0.12053940976E+01 0.99746324090E+00 0.88236957455E+00 0.88237368889E+00
 0.94196906010E+00 0.10689691090E+01 0.12774344307E+01 0.15841902182E+01 0.20030627633E+01
 0.25368541582E+01 0.31676457684E+01 0.38478528218E+01 0.44976317515E+01 0.50155526122E+01
 0.53045271651E+01 0.53045145460E+01 0.50155496686E+01 0.44976925206E+01 0.38479701529E+01
 0.31677508653E+01 0.25368897895E+01 0.20030330815E+01 0.15841398319E+01 0.12774007435E+01
 0.10689608715E+01 0.94197465642E+00 0.88237776841E+00 0.99747115137E+00 0.10689691090E+01
 0.11981469338E+01 0.13971961500E+01 0.16775667900E+01 0.20446594448E+01 0.24915756365E+01
 0.29927417040E+01 0.34998423190E+01 0.39445373972E+01 0.42517640789E+01 0.43618130060E+01
 0.42517914467E+01 0.39445872378E+01 0.34998963221E+01 0.29927761802E+01 0.24915828714E+01
 0.20446506478E+01 0.16775531362E+01 0.13971788821E+01 0.11981269104E+01 0.10689527480E+01
 0.99746317292E+00 0.97471826230E+00 0.12053998672E+01 0.12774344307E+01 0.13971961500E+01
 0.15743875151E+01 0.18155562569E+01 0.21199163013E+01 0.24750631073E+01 0.28533390538E+01
 0.32111241802E+01 0.34943892806E+01 0.36518661753E+01 0.36518902974E+01 0.34944350948E+01
 0.32111383399E+01 0.28532967675E+01 0.24749976861E+01 0.21198870756E+01 0.18155862609E+01
 0.15744420613E+01 0.13972246680E+01 0.12774213026E+01 0.12053694644E+01 0.11720380766E+01
 0.11720528169E+01 0.15275061622E+01 0.15841902182E+01 0.16775667900E+01 0.18155562569E+01
 0.20016004699E+01 0.22316697530E+01 0.24915821180E+01 0.27554258194E+01 0.29871430783E+01
 0.31473520434E+01 0.32047515409E+01 0.31473407411E+01 0.29871323720E+01 0.27554245491E+01
 0.24915900435E+01 0.22316846300E+01 0.20016199113E+01 0.18155730974E+01 0.16775739759E+01
 0.15841908580E+01 0.15275087986E+01 0.14983562292E+01 0.14895404208E+01 0.14983514857E+01
 0.19867925342E+01 0.20030627633E+01 0.20446594448E+01 0.21199163013E+01 0.22316697530E+01
 0.23751661537E+01 0.25368488855E+01 0.26947923062E+01 0.28220595658E+01 0.28934037648E+01
 0.28933873337E+01 0.28220350482E+01 0.26948047504E+01 0.25369136684E+01 0.23752545137E+01
 0.22317323365E+01 0.21199168829E+01 0.20446035875E+01 0.20030018092E+01 0.19867799925E+01
 0.19848851440E+01 0.19870154525E+01 0.19869931346E+01 0.19848523768E+01 0.25990551751E+01
 0.25368541582E+01 0.24915756365E+01 0.24750631073E+01 0.24915821180E+01 0.25368488855E+01
 0.25990376393E+01 0.26616329135E+01 0.27077054534E+01 0.27246206408E+01 0.27077178670E+01
 0.26616734067E+01 0.25990943997E+01 0.25368830238E+01 0.24915781328E+01 0.24750429166E+01
 0.24915582606E+01 0.25368369502E+01 0.25990386949E+01 0.26616394669E+01 0.27077113545E+01
 0.27246212738E+01 0.27077060396E+01 0.26616440279E+01 0.33602356418E+01 0.31676457684E+01
 0.29927417040E+01 0.28533390538E+01 0.27554258194E+01 0.26947923062E+01 0.26616329135E+01
 0.26456514158E+01 0.26394375076E+01 0.26394428374E+01 0.26456803450E+01 0.26616799285E+01
 0.26947991484E+01 0.27553556958E+01 0.28532478829E+01 0.29927153114E+01 0.31676929379E+01
 0.33602949796E+01 0.35435249678E+01 0.36874392742E+01 0.37666361193E+01 0.37666375882E+01
 0.36874362058E+01 0.35434970341E+01 0.42317000490E+01 0.38478528218E+01 0.34998423190E+01
 0.32111241802E+01 0.29871430783E+01 0.28220595658E+01 0.27077054534E+01 0.26394375076E+01
 0.26165539929E+01 0.26394155689E+01 0.27076900210E+01 0.28220478669E+01 0.29871098601E+01
 0.32110881477E+01 0.34998526325E+01 0.38479084486E+01 0.42317513981E+01 0.46101142790E+01
 0.49318187338E+01 0.51480478273E+01 0.52242416824E+01 0.51480145433E+01 0.49317860355E+01
 0.46100844989E+01 0.51294602968E+01 0.44976317515E+01 0.39445373972E+01 0.34943892806E+01
 0.31473520434E+01 0.28934037648E+01 0.27246206408E+01 0.26394428374E+01 0.26394155689E+01
 0.27245699198E+01 0.28933737088E+01 0.31473467241E+01 0.34944075421E+01 0.39446019671E+01
 0.44977347417E+01 0.51295368729E+01 0.57854214595E+01 0.63869105896E+01 0.68487630885E+01
 0.70997567092E+01 0.70997487982E+01 0.68487619767E+01 0.63869291409E+01 0.57854120333E+01
 0.59276072201E+01 0.50155526122E+01 0.42517640789E+01 0.36518661753E+01 0.32047515409E+01
 0.28933873337E+01 0.27077178670E+01 0.26456803450E+01 0.27076900210E+01 0.28933737088E+01
 0.32047669243E+01 0.36518900281E+01 0.42517984932E+01 0.50156208216E+01 0.59276913060E+01
 0.69287804154E+01 0.79149173206E+01 0.87550471996E+01 0.93213629275E+01 0.95213607454E+01
 0.93213695558E+01 0.87550670833E+01 0.79149235806E+01 0.69287343674E+01 0.64840063007E+01
 0.53045271651E+01 0.43618130060E+01 0.36518902974E+01 0.31473407411E+01 0.28220350482E+01
 0.26616734067E+01 0.26616799285E+01 0.28220478669E+01 0.31473467241E+01 0.36518900281E+01
 0.43618305147E+01 0.53045791727E+01 0.64840651755E+01 0.78524428712E+01 0.92946888710E+01
 0.10637478037E+02 0.11682737045E+02 0.12256368406E+02 0.12256343010E+02 0.11682696755E+02
 0.10637471833E+02 0.92947009257E+01 0.78524219041E+01 0.66841631815E+01 0.53045145460E+01
 0.42517914467E+01 0.34944350948E+01 0.29871323720E+01 0.26948047504E+01 0.25990943997E+01
 0.26947991484E+01 0.29871098601E+01 0.34944075421E+01 0.42517984932E+01 0.53045791727E+01
 0.66842585331E+01 0.83721460773E+01 0.10267193231E+02 0.12176274434E+02 0.13837513148E+02
 0.14976552971E+02 0.15382170812E+02 0.14976579577E+02 0.13837551873E+02 0.12176298204E+02
 0.10267172728E+02 0.83720727861E+01 0.64839761924E+01 0.50155496686E+01 0.39445872378E+01
 0.32111383399E+01 0.27554245491E+01 0.25369136684E+01 0.25368830238E+01 0.27553556958E+01
 0.32110881477E+01 0.39446019671E+01 0.50156208216E+01 0.64840651755E+01 0.83721460773E+01
 0.10619121355E+02 0.13048678294E+02 0.15368178676E+02 0.17200013660E+02 0.18199369548E+02
 0.18199461903E+02 0.17200187636E+02 0.15368259876E+02 0.13048623846E+02 0.10619013871E+02
 0.83720480774E+01 0.59275746914E+01 0.44976925206E+01 0.34998963221E+01 0.28532967675E+01
 0.24915900435E+01 0.23752545137E+01 0.24915781328E+01 0.28532478829E+01 0.34998526325E+01
 0.44977347417E+01 0.59276913060E+01 0.78524428712E+01 0.10267193231E+02 0.13048678294E+02
 0.15923872572E+02 0.18444593469E+02 0.20134169287E+02 0.20723580979E+02 0.20134250060E+02
 0.18444672240E+02 0.15923907912E+02 0.13048689859E+02 0.10267169378E+02 0.78523497819E+01
 0.51294546484E+01 0.38479701529E+01 0.29927761802E+01 0.24749976861E+01 0.22316846300E+01
 0.22317323365E+01 0.24750429166E+01 0.29927153114E+01 0.38479084486E+01 0.51295368729E+01
 0.69287804154E+01 0.92946888710E+01 0.12176274434E+02 0.15368178676E+02 0.18444593469E+02
 0.20819267484E+02 0.22091919583E+02 0.22091911054E+02 0.20819266708E+02 0.18444664625E+02
 0.15368346411E+02 0.12176428153E+02 0.92946765664E+01 0.69286331897E+01 0.42317289764E+01
 0.31677508653E+01 0.24915828714E+01 0.21198870756E+01 0.20016199113E+01 0.21199168829E+01
 0.24915582606E+01 0.31676929379E+01 0.42317513981E+01 0.57854214595E+01 0.79149173206E+01
 0.10637478037E+02 0.13837513148E+02 0.17200013660E+02 0.20134169287E+02 0.22091919583E+02
 0.22773832650E+02 0.22092092745E+02 0.20134369887E+02 0.17200163861E+02 0.13837640542E+02
 0.10637558548E+02 0.79148828430E+01 0.57853251754E+01 0.33602847599E+01 0.25368897895E+01
 0.20446506478E+01 0.18155862609E+01 0.18155730974E+01 0.20446035875E+01 0.25368369502E+01
 0.33602949796E+01 0.46101142790E+01 0.63869105896E+01 0.87550471996E+01 0.11682737045E+02
 0.14976552971E+02 0.18199369548E+02 0.20723580979E+02 0.22091911054E+02 0.22092092745E+02
 0.20723924208E+02 0.18199562617E+02 0.14976573796E+02 0.11682754139E+02 0.87550943116E+01
 0.63868983573E+01 0.46100535719E+01 0.25991024605E+01 0.20030330815E+01 0.16775531362E+01
 0.15744420613E+01 0.16775739759E+01 0.20030018092E+01 0.25990386949E+01 0.35435249678E+01
 0.49318187338E+01 0.68487630885E+01 0.93213629275E+01 0.12256368406E+02 0.15382170812E+02
 0.18199461903E+02 0.20134250060E+02 0.20819266708E+02 0.20134369887E+02 0.18199562617E+02
 0.15382205173E+02 0.12256415018E+02 0.93214316048E+01 0.68487707647E+01 0.49317713700E+01
 0.35435267648E+01 0.19868218369E+01 0.15841398319E+01 0.13971788821E+01 0.13972246680E+01
 0.15841908580E+01 0.19867799925E+01 0.26616394669E+01 0.36874392742E+01 0.51480478273E+01
 0.70997567092E+01 0.95213607454E+01 0.12256343010E+02 0.14976579577E+02 0.17200187636E+02
 0.18444672240E+02 0.18444664625E+02 0.17200163861E+02 0.14976573796E+02 0.12256415018E+02
 0.95214812800E+01 0.70998082911E+01 0.51480055662E+01 0.36874212127E+01 0.26617034273E+01
 0.15275138985E+01 0.12774007435E+01 0.11981269104E+01 0.12774213026E+01 0.15275087986E+01
 0.19848851440E+01 0.27077113545E+01 0.37666361193E+01 0.52242416824E+01 0.70997487982E+01
 0.93213695558E+01 0.11682696755E+02 0.13837551873E+02 0.15368259876E+02 0.15923907912E+02
 0.15368346411E+02 0.13837640542E+02 0.11682754139E+02 0.93214316048E+01 0.70998082911E+01
 0.52242432251E+01 0.37665897324E+01 0.27076910478E+01 0.19849053189E+01 0.12053940976E+01
 0.10689608715E+01 0.10689527480E+01 0.12053694644E+01 0.14983562292E+01 0.19870154525E+01
 0.27246212738E+01 0.37666375882E+01 0.51480145433E+01 0.68487619767E+01 0.87550670833E+01
 0.10637471833E+02 0.12176298204E+02 0.13048623846E+02 0.13048689859E+02 0.12176428153E+02
 0.10637558548E+02 0.87550943116E+01 0.68487707647E+01 0.51480055662E+01 0.37665897324E+01
 0.27245627684E+01 0.19869969697E+01 0.14983782226E+01 0.99746324090E+00 0.94197465642E+00
 0.99746317292E+00 0.11720380766E+01 0.14895404208E+01 0.19869931346E+01 0.27077060396E+01
 0.36874362058E+01 0.49317860355E+01 0.63869291409E+01 0.79149235806E+01 0.92947009257E+01
 0.10267172728E+02 0.10619013871E+02 0.10267169378E+02 0.92946765664E+01 0.79148828430E+01
 0.63868983573E+01 0.49317713700E+01 0.36874212127E+01 0.27076910478E+01 0.19869969697E+01
 0.14895613412E+01 0.11720520801E+01 0.88236957455E+00 0.88237776841E+00 0.97471826230E+00
 0.11720528169E+01 0.14983514857E+01 0.19848523768E+01 0.26616440279E+01 0.35434970341E+01
 0.46100844989E+01 0.57854120333E+01 0.69287343674E+01 0.78524219041E+01 0.83720727861E+01
 0.83720480774E+01 0.78523497819E+01 0.69286331897E+01 0.57853251754E+01 0.46100535719E+01
 0.35435267648E+01 0.26617034273E+01 0.19849053189E+01 0.14983782226E+01 0.11720520801E+01
 0.97470370131E+00 0.88236857838E+00 0.94196431779E+00 0.10689683395E+01 0.12774344422E+01
 0.15841883131E+01 0.20030629656E+01 0.25368606796E+01 0.31676564947E+01 0.38478643601E+01
 0.44976438164E+01 0.50155616218E+01 0.53045229363E+01 0.53044908295E+01 0.50155131132E+01
 0.44976560480E+01 0.38479431151E+01 0.31677395575E+01 0.25368988762E+01 0.20030590198E+01
 0.15841690737E+01 0.12774214850E+01 0.10689722001E+01 0.94198018948E+00 0.88237767050E+00
 0.94196431779E+00 0.10086716892E+01 0.11303243248E+01 0.13196473563E+01 0.15885570534E+01
 0.19426899650E+01 0.23751663657E+01 0.28605376670E+01 0.33512934257E+01 0.37810145694E+01
 0.40774475208E+01 0.41835203978E+01 0.40774602435E+01 0.37810923524E+01 0.33514406069E+01
 0.28606721564E+01 0.23752074412E+01 0.19426452068E+01 0.15884957291E+01 0.13196168183E+01
 0.11303207589E+01 0.10086737528E+01 0.94196394874E+00 0.92085980513E+00 0.10689683395E+01
 0.11303243248E+01 0.12354400733E+01 0.13950966174E+01 0.16166195163E+01 0.18995601212E+01
 0.22316626946E+01 0.25859168899E+01 0.29206158831E+01 0.31850666971E+01 0.33318275850E+01
 0.33318510491E+01 0.31851359438E+01 0.29207121362E+01 0.25859939776E+01 0.22316810164E+01
 0.18995251030E+01 0.16165691468E+01 0.13950584248E+01 0.12354158235E+01 0.11303076870E+01
 0.10689579648E+01 0.10412863196E+01 0.10412897602E+01 0.12774344422E+01 0.13196473563E+01
 0.13950966174E+01 0.15128775171E+01 0.16770868887E+01 0.18839997641E+01 0.21199165715E+01
 0.23602557513E+01 0.25714805831E+01 0.27174825674E+01 0.27697948741E+01 0.27175243677E+01
 0.25715270263E+01 0.23602610552E+01 0.21198680008E+01 0.18839328326E+01 0.16770495279E+01
 0.15128806973E+01 0.13951109786E+01 0.13196441855E+01 0.12774144157E+01 0.12577986392E+01
 0.12523409360E+01 0.12578161288E+01 0.15841883131E+01 0.15885570534E+01 0.16166195163E+01
 0.16770868887E+01 0.17728663606E+01 0.18995653782E+01 0.20446641517E+01 0.21878874038E+01
 0.23041190012E+01 0.23695735525E+01 0.23695795841E+01 0.23041336695E+01 0.21878962089E+01
 0.20446464143E+01 0.18995191377E+01 0.17728196802E+01 0.16770704956E+01 0.16166348343E+01
 0.15885819171E+01 0.15842054417E+01 0.15914851381E+01 0.15987434297E+01 0.15987413885E+01
 0.15914774666E+01 0.20030629656E+01 0.19426899650E+01 0.18995601212E+01 0.18839997641E+01
 0.18995653782E+01 0.19426901544E+01 0.20030580307E+01 0.20651429138E+01 0.21116988887E+01
 0.21289785495E+01 0.21117100453E+01 0.20651639862E+01 0.20030764985E+01 0.19426914652E+01
 0.18995531326E+01 0.18839900536E+01 0.18995584206E+01 0.19426917143E+01 0.20030716479E+01
 0.20651642571E+01 0.21117153754E+01 0.21289786091E+01 0.21116936738E+01 0.20651427462E+01
 0.25368606796E+01 0.23751663657E+01 0.22316626946E+01 0.21199165715E+01 0.20446641517E+01
 0.20030580307E+01 0.19867820666E+01 0.19848521877E+01 0.19870037479E+01 0.19870264627E+01
 0.19849003668E+01 0.19868092028E+01 0.20030331046E+01 0.20446127873E+01 0.21199005369E+01
 0.22317056767E+01 0.23752236329E+01 0.25368772260E+01 0.26947757612E+01 0.28220307879E+01
 0.28934014544E+01 0.28934155114E+01 0.28220655545E+01 0.26948029413E+01 0.31676564947E+01
 0.28605376670E+01 0.25859168899E+01 0.23602557513E+01 0.21878874038E+01 0.20651429138E+01
 0.19848521877E+01 0.19399334596E+01 0.19255402852E+01 0.19399672369E+01 0.19848707989E+01
 0.20650964973E+01 0.21877911872E+01 0.23601968843E+01 0.25859656420E+01 0.28606593072E+01
 0.31677440646E+01 0.34768418060E+01 0.37463205009E+01 0.39316039957E+01 0.39978133428E+01
 0.39316663817E+01 0.37463947736E+01 0.34768516705E+01 0.38478643601E+01 0.33512934257E+01
 0.29206158831E+01 0.25714805831E+01 0.23041190012E+01 0.21116988887E+01 0.19870037479E+01
 0.19255402852E+01 0.19255317078E+01 0.19869645386E+01 0.21116165905E+01 0.23040296515E+01
 0.25714622190E+01 0.29207097756E+01 0.33514416972E+01 0.38479588123E+01 0.43727842723E+01
 0.48661316035E+01 0.52546928856E+01 0.54699116635E+01 0.54699245646E+01 0.52547366839E+01
 0.48661888166E+01 0.43727898341E+01 0.44976438164E+01 0.37810145694E+01 0.31850666971E+01
 0.27174825674E+01 0.23695735525E+01 0.21289785495E+01 0.19870264627E+01 0.19399672369E+01
 0.19869645386E+01 0.21288595597E+01 0.23694640154E+01 0.27174954542E+01 0.31852408453E+01
 0.37812392188E+01 0.44977551927E+01 0.52972980229E+01 0.61046938218E+01 0.68119097611E+01
 0.73000896675E+01 0.74748530040E+01 0.73000915260E+01 0.68119684927E+01 0.61048040158E+01
 0.52973477154E+01 0.50155616218E+01 0.40774475208E+01 0.33318275850E+01 0.27697948741E+01
 0.23695795841E+01 0.21117100453E+01 0.19849003668E+01 0.19848707989E+01 0.21116165905E+01
 0.23694640154E+01 0.27697822442E+01 0.33320017475E+01 0.40777115014E+01 0.50157102523E+01
 0.61209523554E+01 0.73150736589E+01 0.84598754758E+01 0.93756532317E+01 0.98879547260E+01
 0.98879549022E+01 0.93756940115E+01 0.84600098038E+01 0.73152497898E+01 0.61210150012E+01
 0.53045229363E+01 0.41835203978E+01 0.33318510491E+01 0.27175243677E+01 0.23041336695E+01
 0.20651639862E+01 0.19868092028E+01 0.20650964973E+01 0.23040296515E+01 0.27174954542E+01
 0.33320017475E+01 0.41837793951E+01 0.53046745758E+01 0.66961175229E+01 0.82970459553E+01
 0.99590389447E+01 0.11448584927E+02 0.12493856732E+02 0.12871305031E+02 0.12493878912E+02
 0.11448671323E+02 0.99592222787E+01 0.82972591178E+01 0.66961946986E+01 0.53044908295E+01
 0.40774602435E+01 0.31851359438E+01 0.25715270263E+01 0.21878962089E+01 0.20030764985E+01
 0.20030331046E+01 0.21877911872E+01 0.25714622190E+01 0.31852408453E+01 0.40777115014E+01
 0.53046745758E+01 0.69032238350E+01 0.88510600748E+01 0.11021588261E+02 0.13158660119E+02
 0.14903742154E+02 0.15892757807E+02 0.15892787917E+02 0.14903813551E+02 0.13158771918E+02
 0.11021774267E+02 0.88512630221E+01 0.69032707194E+01 0.50155131132E+01 0.37810923524E+01
 0.29207121362E+01 0.23602610552E+01 0.20446464143E+01 0.19426914652E+01 0.20446127873E+01
 0.23601968843E+01 0.29207097756E+01 0.37812392188E+01 0.50157102523E+01 0.66961175229E+01
 0.88510600748E+01 0.11407169041E+02 0.14133662624E+02 0.16631648491E+02 0.18411904699E+02
 0.19059922836E+02 0.18411989389E+02 0.16631739298E+02 0.14133758169E+02 0.11407316855E+02
 0.88511820426E+01 0.66960664551E+01 0.44976560480E+01 0.33514406069E+01 0.25859939776E+01
 0.21198680008E+01 0.18995191377E+01 0.18995531326E+01 0.21199005369E+01 0.25859656420E+01
 0.33514416972E+01 0.44977551927E+01 0.61209523554E+01 0.82970459553E+01 0.11021588261E+02
 0.14133662624E+02 0.17262438725E+02 0.19857732318E+02 0.21340512111E+02 0.21340567297E+02
 0.19857828152E+02 0.17262501043E+02 0.14133739493E+02 0.11021705440E+02 0.82970942271E+01
 0.61208674691E+01 0.38479431151E+01 0.28606721564E+01 0.22316810164E+01 0.18839328326E+01
 0.17728196802E+01 0.18839900536E+01 0.22317056767E+01 0.28606593072E+01 0.38479588123E+01
 0.52972980229E+01 0.73150736589E+01 0.99590389447E+01 0.13158660119E+02 0.16631648491E+02
 0.19857732318E+02 0.22172189163E+02 0.23013744611E+02 0.22172371136E+02 0.19857882705E+02
 0.16631682372E+02 0.13158702083E+02 0.99591476653E+01 0.73151457529E+01 0.52972849356E+01
 0.31677395575E+01 0.23752074412E+01 0.18995251030E+01 0.16770495279E+01 0.16770704956E+01
 0.18995584206E+01 0.23752236329E+01 0.31677440646E+01 0.43727842723E+01 0.61046938218E+01
 0.84598754758E+01 0.11448584927E+02 0.14903742154E+02 0.18411904699E+02 0.21340512111E+02
 0.23013744611E+02 0.23013949998E+02 0.21340879164E+02 0.18412052960E+02 0.14903670930E+02
 0.11448562530E+02 0.84599955027E+01 0.61048186637E+01 0.43728238432E+01 0.25368988762E+01
 0.19426452068E+01 0.16165691468E+01 0.15128806973E+01 0.16166348343E+01 0.19426917143E+01
 0.25368772260E+01 0.34768418060E+01 0.48661316035E+01 0.68119097611E+01 0.93756532317E+01
 0.12493856732E+02 0.15892757807E+02 0.19059922836E+02 0.21340567297E+02 0.22172371136E+02
 0.21340879164E+02 0.19060175615E+02 0.15892728327E+02 0.12493712012E+02 0.93756319680E+01
 0.68120212789E+01 0.48662572152E+01 0.34769222300E+01 0.20030590198E+01 0.15884957291E+01
 0.13950584248E+01 0.13951109786E+01 0.15885819171E+01 0.20030716479E+01 0.26947757612E+01
 0.37463205009E+01 0.52546928856E+01 0.73000896675E+01 0.98879547260E+01 0.12871305031E+02
 0.15892787917E+02 0.18411989389E+02 0.19857828152E+02 0.19857882705E+02 0.18412052960E+02
 0.15892728327E+02 0.12871173611E+02 0.98878996109E+01 0.73001490624E+01 0.52547992095E+01
 0.37464236995E+01 0.26948453398E+01 0.15841690737E+01 0.13196168183E+01 0.12354158235E+01
 0.13196441855E+01 0.15842054417E+01 0.20651642571E+01 0.28220307879E+01 0.39316039957E+01
 0.54699116635E+01 0.74748530040E+01 0.98879549022E+01 0.12493878912E+02 0.14903813551E+02
 0.16631739298E+02 0.17262501043E+02 0.16631682372E+02 0.14903670930E+02 0.12493712012E+02
 0.98878996109E+01 0.74749496717E+01 0.54700511641E+01 0.39316732813E+01 0.28220248081E+01
 0.20651309917E+01 0.12774214850E+01 0.11303207589E+01 0.11303076870E+01 0.12774144157E+01
 0.15914851381E+01 0.21117153754E+01 0.28934014544E+01 0.39978133428E+01 0.54699245646E+01
 0.73000915260E+01 0.93756940115E+01 0.11448671323E+02 0.13158771918E+02 0.14133758169E+02
 0.14133739493E+02 0.13158702083E+02 0.11448562530E+02 0.93756319680E+01 0.73001490624E+01
 0.54700511641E+01 0.39978805635E+01 0.28933536420E+01 0.21116204731E+01 0.15914346119E+01
 0.10689722001E+01 0.10086737528E+01 0.10689579648E+01 0.12577986392E+01 0.15987434297E+01
 0.21289786091E+01 0.28934155114E+01 0.39316663817E+01 0.52547366839E+01 0.68119684927E+01
 0.84600098038E+01 0.99592222787E+01 0.11021774267E+02 0.11407316855E+02 0.11021705440E+02
 0.99591476653E+01 0.84599955027E+01 0.68120212789E+01 0.52547992095E+01 0.39316732813E+01
 0.28933536420E+01 0.21288933104E+01 0.15986902877E+01 0.12577933972E+01 0.94198018948E+00
 0.94196394874E+00 0.10412863196E+01 0.12523409360E+01 0.15987413885E+01 0.21116936738E+01
 0.28220655545E+01 0.37463947736E+01 0.48661888166E+01 0.61048040158E+01 0.73152497898E+01
 0.82972591178E+01 0.88512630221E+01 0.88511820426E+01 0.82970942271E+01 0.73151457529E+01
 0.61048186637E+01 0.48662572152E+01 0.37464236995E+01 0.28220248081E+01 0.21116204731E+01
 0.15986902877E+01 0.12523380430E+01 0.10413136148E+01 0.88237767050E+00 0.92085980513E+00
 0.10412897602E+01 0.12578161288E+01 0.15914774666E+01 0.20651427462E+01 0.26948029413E+01
 0.34768516705E+01 0.43727898341E+01 0.52973477154E+01 0.61210150012E+01 0.66961946986E+01
 0.69032707194E+01 0.66960664551E+01 0.61208674691E+01 0.52972849356E+01 0.43728238432E+01
 0.34769222300E+01 0.26948453398E+01 0.20651309917E+01 0.15914346119E+01 0.12577933972E+01
 0.10413136148E+01 0.92089749789E+00 0.99745944883E+00 0.10689619082E+01 0.11981475244E+01
 0.13971978482E+01 0.16775658748E+01 0.20446627067E+01 0.24915874115E+01 0.29927548279E+01
 0.34998488806E+01 0.39445364141E+01 0.42517520742E+01 0.43617811379E+01 0.42517415464E+01
 0.39445391782E+01 0.34998704760E+01 0.29927777760E+01 0.24916081950E+01 0.20446945911E+01
 0.16776029641E+01 0.13972147267E+01 0.11981393122E+01 0.10689504370E+01 0.99745706134E+00
 0.97470921733E+00 0.10689619082E+01 0.11303219788E+01 0.12354414464E+01 0.13950982543E+01
 0.16166204407E+01 0.18995630922E+01 0.22316678430E+01 0.25859192364E+01 0.29206109566E+01
 0.31850537594E+01 0.33318066900E+01 0.33318235418E+01 0.31851098951E+01 0.29207006978E+01
 0.25860045521E+01 0.22317095215E+01 0.18995615821E+01 0.16166038254E+01 0.13950821237E+01
 0.12354222991E+01 0.11302993362E+01 0.10689443932E+01 0.10412747735E+01 0.10412809477E+01
 0.11981475244E+01 0.12354414464E+01 0.13047950291E+01 0.14158397610E+01 0.15730551403E+01
 0.17728628669E+01 0.20015952340E+01 0.22348914814E+01 0.24398747383E+01 0.25814646124E+01
 0.26321681393E+01 0.25815033378E+01 0.24399376221E+01 0.22349494291E+01 0.20016204877E+01
 0.17728499783E+01 0.15730186145E+01 0.14157936141E+01 0.13047461854E+01 0.12353990965E+01
 0.11981220619E+01 0.11817339413E+01 0.11773915111E+01 0.11817427230E+01 0.13971978482E+01
 0.13950982543E+01 0.14158397610E+01 0.14688115844E+01 0.15573291212E+01 0.16770887342E+01
 0.18155583967E+01 0.19527103992E+01 0.20641060591E+01 0.21268401553E+01 0.21268518186E+01
 0.20641258392E+01 0.19527083627E+01 0.18155214838E+01 0.16770342989E+01 0.15572836108E+01
 0.14687810329E+01 0.14158114408E+01 0.13950675785E+01 0.13971766876E+01 0.14093440929E+01
 0.14192316095E+01 0.14192303483E+01 0.14093489200E+01 0.16775658748E+01 0.16166204407E+01
 0.15730551403E+01 0.15573291212E+01 0.15730595820E+01 0.16166256308E+01 0.16775723505E+01
 0.17402178530E+01 0.17871792252E+01 0.18046025482E+01 0.17871709279E+01 0.17401996089E+01
 0.16775397648E+01 0.16165783144E+01 0.15730089840E+01 0.15572920844E+01 0.15730397475E+01
 0.16166242437E+01 0.16775843222E+01 0.17402333817E+01 0.17871882880E+01 0.18046018534E+01
 0.17871676721E+01 0.17402067986E+01 0.20446627067E+01 0.18995630922E+01 0.17728628669E+01
 0.16770887342E+01 0.16166256308E+01 0.15885600843E+01 0.15841883908E+01 0.15914796716E+01
 0.15987412559E+01 0.15987302238E+01 0.15914590107E+01 0.15841778526E+01 0.15885609391E+01
 0.16166235591E+01 0.16770763185E+01 0.17728485131E+01 0.18995609221E+01 0.20446812561E+01
 0.21879149215E+01 0.23041400633E+01 0.23695760579E+01 0.23695597127E+01 0.23041021919E+01
 0.21878784499E+01 0.24915874115E+01 0.22316678430E+01 0.20015952340E+01 0.18155583967E+01
 0.16775723505E+01 0.15841883908E+01 0.15275007962E+01 0.14983533144E+01 0.14895455722E+01
 0.14983540073E+01 0.15275031641E+01 0.15841926244E+01 0.16775792982E+01 0.18155712453E+01
 0.20016147584E+01 0.22316868723E+01 0.24915957189E+01 0.27554228413E+01 0.29871271221E+01
 0.31473426745E+01 0.32047567784E+01 0.31473498832E+01 0.29871374769E+01 0.27554275880E+01
 0.29927548279E+01 0.25859192364E+01 0.22348914814E+01 0.19527103992E+01 0.17402178530E+01
 0.15914796716E+01 0.14983533144E+01 0.14537825861E+01 0.14537883162E+01 0.14983626743E+01
 0.15914808803E+01 0.17402124354E+01 0.19527117662E+01 0.22349098806E+01 0.25859514891E+01
 0.29927833705E+01 0.34251990201E+01 0.38343313182E+01 0.41586475216E+01 0.43391460604E+01
 0.43391709943E+01 0.41587000213E+01 0.38343683785E+01 0.34251981891E+01 0.34998488806E+01
 0.29206109566E+01 0.24398747383E+01 0.20641060591E+01 0.17871792252E+01 0.15987412559E+01
 0.14895455722E+01 0.14537883162E+01 0.14895452386E+01 0.15987282301E+01 0.17871650009E+01
 0.20641197174E+01 0.24399155796E+01 0.29206449943E+01 0.34998567890E+01 0.41485626624E+01
 0.48075239168E+01 0.53887419737E+01 0.57923857906E+01 0.59374059875E+01 0.57924041726E+01
 0.53887602391E+01 0.48075346161E+01 0.41485691281E+01 0.39445364141E+01 0.31850537594E+01
 0.25814646124E+01 0.21268401553E+01 0.18046025482E+01 0.15987302238E+01 0.14983540073E+01
 0.14983626743E+01 0.15987282301E+01 0.18045717965E+01 0.21268352467E+01 0.25815317012E+01
 0.31851404183E+01 0.39445587935E+01 0.48417498727E+01 0.58167795106E+01 0.67587623653E+01
 0.75178775876E+01 0.79447542383E+01 0.79447547731E+01 0.75178785878E+01 0.67587762210E+01
 0.58168226008E+01 0.48417919458E+01 0.42517520742E+01 0.33318066900E+01 0.26321681393E+01
 0.21268518186E+01 0.17871709279E+01 0.15914590107E+01 0.15275031641E+01 0.15914808803E+01
 0.17871650009E+01 0.21268352467E+01 0.26322114899E+01 0.33318971485E+01 0.42517938569E+01
 0.53962072669E+01 0.67209526009E+01 0.81080723889E+01 0.93621529202E+01 0.10248234628E+02
 0.10569413873E+02 0.10248307837E+02 0.93622321116E+01 0.81081338709E+01 0.67210182810E+01
 0.53962476537E+01 0.43617811379E+01 0.33318235418E+01 0.25815033378E+01 0.20641258392E+01
 0.17401996089E+01 0.15841778526E+01 0.15841926244E+01 0.17402124354E+01 0.20641197174E+01
 0.25815317012E+01 0.33318971485E+01 0.43618086904E+01 0.57063245489E+01 0.73552866168E+01
 0.92103338170E+01 0.11055173999E+02 0.12574245644E+02 0.13439834958E+02 0.13439920779E+02
 0.12574406990E+02 0.11055279018E+02 0.92104001642E+01 0.73553788098E+01 0.57063934032E+01
 0.42517415464E+01 0.31851098951E+01 0.24399376221E+01 0.19527083627E+01 0.16775397648E+01
 0.15885609391E+01 0.16775792982E+01 0.19527117662E+01 0.24399155796E+01 0.31851404183E+01
 0.42517938569E+01 0.57063245489E+01 0.75842738056E+01 0.98350718206E+01 0.12263204064E+02
 0.14509772230E+02 0.16121973128E+02 0.16710898087E+02 0.16122081984E+02 0.14509871216E+02
 0.12263264883E+02 0.98351705240E+01 0.75843967223E+01 0.57063624465E+01 0.39445391782E+01
 0.29207006978E+01 0.22349494291E+01 0.18155214838E+01 0.16165783144E+01 0.16166235591E+01
 0.18155712453E+01 0.22349098806E+01 0.29206449943E+01 0.39445587935E+01 0.53962072669E+01
 0.73552866168E+01 0.98350718206E+01 0.12703094959E+02 0.15619237928E+02 0.18058769996E+02
 0.19461925809E+02 0.19461956209E+02 0.18058810200E+02 0.15619246297E+02 0.12703134076E+02
 0.98351713549E+01 0.73553508476E+01 0.53961812607E+01 0.34998704760E+01 0.25860045521E+01
 0.20016204877E+01 0.16770342989E+01 0.15730089840E+01 0.16770763185E+01 0.20016147584E+01
 0.25859514891E+01 0.34998567890E+01 0.48417498727E+01 0.67209526009E+01 0.92103338170E+01
 0.12263204064E+02 0.15619237928E+02 0.18768288826E+02 0.21048977588E+02 0.21885814481E+02
 0.21049030728E+02 0.18768299329E+02 0.15619207692E+02 0.12263232339E+02 0.92104204300E+01
 0.67209930901E+01 0.48417315118E+01 0.29927777760E+01 0.22317095215E+01 0.17728499783E+01
 0.15572836108E+01 0.15572920844E+01 0.17728485131E+01 0.22316868723E+01 0.29927833705E+01
 0.41485626624E+01 0.58167795106E+01 0.81080723889E+01 0.11055173999E+02 0.14509772230E+02
 0.18058769996E+02 0.21048977588E+02 0.22775998504E+02 0.22776058265E+02 0.21049072688E+02
 0.18058799299E+02 0.14509788301E+02 0.11055261354E+02 0.81081753407E+01 0.58167992160E+01
 0.41485263595E+01 0.24916081950E+01 0.18995615821E+01 0.15730186145E+01 0.14687810329E+01
 0.15730397475E+01 0.18995609221E+01 0.24915957189E+01 0.34251990201E+01 0.48075239168E+01
 0.67587623653E+01 0.93621529202E+01 0.12574245644E+02 0.16121973128E+02 0.19461925809E+02
 0.21885814481E+02 0.22776058265E+02 0.21885925333E+02 0.19462050382E+02 0.16122064899E+02
 0.12574336426E+02 0.93622367545E+01 0.67587821370E+01 0.48074849034E+01 0.34251750260E+01
 0.20446945911E+01 0.16166038254E+01 0.14157936141E+01 0.14158114408E+01 0.16166242437E+01
 0.20446812561E+01 0.27554228413E+01 0.38343313182E+01 0.53887419737E+01 0.75178775876E+01
 0.10248234628E+02 0.13439834958E+02 0.16710898087E+02 0.19461956209E+02 0.21049030728E+02
 0.21049072688E+02 0.19462050382E+02 0.16710991728E+02 0.13439904735E+02 0.10248268980E+02
 0.75178604210E+01 0.53886913450E+01 0.38343037291E+01 0.27554386373E+01 0.16776029641E+01
 0.13950821237E+01 0.13047461854E+01 0.13950675785E+01 0.16775843222E+01 0.21879149215E+01
 0.29871271221E+01 0.41586475216E+01 0.57923857906E+01 0.79447542383E+01 0.10569413873E+02
 0.13439920779E+02 0.16122081984E+02 0.18058810200E+02 0.18768299329E+02 0.18058799299E+02
 0.16122064899E+02 0.13439904735E+02 0.10569399594E+02 0.79447314948E+01 0.57923471864E+01
 0.41586048518E+01 0.29871031975E+01 0.21879187046E+01 0.13972147267E+01 0.12354222991E+01
 0.12353990965E+01 0.13971766876E+01 0.17402333817E+01 0.23041400633E+01 0.31473426745E+01
 0.43391460604E+01 0.59374059875E+01 0.79447547731E+01 0.10248307837E+02 0.12574406990E+02
 0.14509871216E+02 0.15619246297E+02 0.15619207692E+02 0.14509788301E+02 0.12574336426E+02
 0.10248268980E+02 0.79447314948E+01 0.59373818593E+01 0.43391126467E+01 0.31472981651E+01