   2   2   0   0
  0.2001288E+02  0.3839590E-09  0.3839590E-09  0.3839590E-09  0.5000000E-15
  1.000000000000000E-004
  CAR 
 unknown system                          
     17.07480621     -8.20267938  301      5.97216350      1.00000000
     -8.203  0.0000E+00  0.0000E+00
     -8.118  0.0000E+00  0.0000E+00
     -8.034  0.0000E+00  0.0000E+00
     -7.950  0.0000E+00  0.0000E+00
     -7.866  0.0000E+00  0.0000E+00
     -7.781  0.0000E+00  0.0000E+00
     -7.697  0.0000E+00  0.0000E+00
     -7.613  0.0000E+00  0.0000E+00
     -7.529  0.0000E+00  0.0000E+00
     -7.444  0.0000E+00  0.0000E+00
     -7.360  0.2410E-18  0.2031E-19
     -7.276  0.3494E-16  0.2965E-17
     -7.192  0.2898E-14  0.2471E-15
     -7.107  0.1698E-12  0.1455E-13
     -7.023  0.7022E-11  0.6062E-12
     -6.939  0.2054E-09  0.1791E-10
     -6.855  0.4263E-08  0.3771E-09
     -6.770  0.6308E-07  0.5692E-08
     -6.686  0.6719E-06  0.6231E-07
     -6.602  0.5234E-05  0.5033E-06
     -6.518  0.3055E-04  0.3077E-05
     -6.433  0.1379E-03  0.1470E-04
     -6.349  0.4949E-03  0.5639E-04
     -6.265  0.1425E-02  0.1765E-03
     -6.180  0.3257E-02  0.4509E-03
     -6.096  0.5828E-02  0.9420E-03
     -6.012  0.8281E-02  0.1640E-02
     -5.928  0.1007E-01  0.2488E-02
     -5.843  0.1203E-01  0.3502E-02
     -5.759  0.1526E-01  0.4788E-02
     -5.675  0.1894E-01  0.6384E-02
     -5.591  0.2048E-01  0.8110E-02
     -5.506  0.1879E-01  0.9693E-02
     -5.422  0.1671E-01  0.1110E-01
     -5.338  0.1834E-01  0.1265E-01
     -5.254  0.2396E-01  0.1466E-01
     -5.169  0.2935E-01  0.1714E-01
     -5.085  0.3105E-01  0.1975E-01
     -5.001  0.3004E-01  0.2229E-01
     -4.917  0.2885E-01  0.2472E-01
     -4.832  0.2768E-01  0.2705E-01
     -4.748  0.2585E-01  0.2923E-01
     -4.664  0.2547E-01  0.3137E-01
     -4.580  0.3026E-01  0.3392E-01
     -4.495  0.3955E-01  0.3725E-01
     -4.411  0.4673E-01  0.4119E-01
     -4.327  0.4727E-01  0.4517E-01
     -4.243  0.4464E-01  0.4894E-01
     -4.158  0.4348E-01  0.5260E-01
     -4.074  0.4264E-01  0.5619E-01
     -3.990  0.4051E-01  0.5961E-01
     -3.906  0.4111E-01  0.6307E-01
     -3.821  0.4927E-01  0.6722E-01
     -3.737  0.6194E-01  0.7244E-01
     -3.653  0.6919E-01  0.7827E-01
     -3.568  0.6543E-01  0.8378E-01
     -3.484  0.5626E-01  0.8852E-01
     -3.400  0.4950E-01  0.9269E-01
     -3.316  0.4441E-01  0.9644E-01
     -3.231  0.3743E-01  0.9959E-01
     -3.147  0.3251E-01  0.1023E+00
     -3.063  0.3584E-01  0.1053E+00
     -2.979  0.4480E-01  0.1091E+00
     -2.894  0.5022E-01  0.1134E+00
     -2.810  0.4675E-01  0.1173E+00
     -2.726  0.3694E-01  0.1204E+00
     -2.642  0.2714E-01  0.1227E+00
     -2.557  0.2137E-01  0.1245E+00
     -2.473  0.1928E-01  0.1261E+00
     -2.389  0.1919E-01  0.1277E+00
     -2.305  0.1974E-01  0.1294E+00
     -2.220  0.1938E-01  0.1310E+00
     -2.136  0.1730E-01  0.1325E+00
     -2.052  0.1437E-01  0.1337E+00
     -1.968  0.1195E-01  0.1347E+00
     -1.883  0.1110E-01  0.1356E+00
     -1.799  0.1221E-01  0.1367E+00
     -1.715  0.1399E-01  0.1378E+00
     -1.631  0.1495E-01  0.1391E+00
     -1.546  0.1674E-01  0.1405E+00
     -1.462  0.2349E-01  0.1425E+00
     -1.378  0.3732E-01  0.1456E+00
     -1.293  0.5586E-01  0.1503E+00
     -1.209  0.7287E-01  0.1565E+00
     -1.125  0.8079E-01  0.1633E+00
     -1.041  0.7668E-01  0.1698E+00
     -0.956  0.6639E-01  0.1754E+00
     -0.872  0.5863E-01  0.1803E+00
     -0.788  0.5581E-01  0.1850E+00
     -0.704  0.5451E-01  0.1896E+00
     -0.619  0.5224E-01  0.1940E+00
     -0.535  0.4964E-01  0.1982E+00
     -0.451  0.4745E-01  0.2022E+00
     -0.367  0.4478E-01  0.2059E+00
     -0.282  0.4112E-01  0.2094E+00
     -0.198  0.3724E-01  0.2125E+00
     -0.114  0.3241E-01  0.2153E+00
     -0.030  0.2479E-01  0.2174E+00
      0.055  0.1638E-01  0.2187E+00
      0.139  0.1313E-01  0.2199E+00
      0.223  0.1911E-01  0.2215E+00
      0.307  0.3137E-01  0.2241E+00
      0.392  0.4040E-01  0.2275E+00
      0.476  0.3861E-01  0.2308E+00
      0.560  0.2871E-01  0.2332E+00
      0.644  0.1921E-01  0.2348E+00
      0.729  0.1441E-01  0.2360E+00
      0.813  0.1331E-01  0.2371E+00
      0.897  0.1404E-01  0.2383E+00
      0.981  0.1492E-01  0.2396E+00
      1.066  0.1490E-01  0.2408E+00
      1.150  0.1536E-01  0.2421E+00
      1.234  0.1849E-01  0.2437E+00
      1.319  0.2429E-01  0.2457E+00
      1.403  0.3328E-01  0.2485E+00
      1.487  0.4886E-01  0.2526E+00
      1.571  0.6993E-01  0.2585E+00
      1.656  0.8560E-01  0.2658E+00
      1.740  0.8673E-01  0.2731E+00
      1.824  0.7798E-01  0.2796E+00
      1.908  0.6954E-01  0.2855E+00
      1.993  0.6355E-01  0.2908E+00
      2.077  0.5749E-01  0.2957E+00
      2.161  0.5348E-01  0.3002E+00
      2.245  0.5557E-01  0.3049E+00
      2.330  0.6348E-01  0.3102E+00
      2.414  0.7567E-01  0.3166E+00
      2.498  0.9167E-01  0.3243E+00
      2.582  0.1062E+00  0.3333E+00
      2.667  0.1094E+00  0.3425E+00
      2.751  0.9893E-01  0.3508E+00
      2.835  0.8473E-01  0.3580E+00
      2.919  0.7787E-01  0.3645E+00
      3.004  0.8026E-01  0.3713E+00
      3.088  0.8635E-01  0.3786E+00
      3.172  0.9121E-01  0.3862E+00
      3.256  0.9451E-01  0.3942E+00
      3.341  0.9746E-01  0.4024E+00
      3.425  0.9989E-01  0.4108E+00
      3.509  0.1021E+00  0.4194E+00
      3.593  0.1048E+00  0.4283E+00
      3.678  0.1043E+00  0.4371E+00
      3.762  0.9402E-01  0.4450E+00
      3.846  0.7553E-01  0.4513E+00
      3.931  0.6280E-01  0.4566E+00
      4.015  0.6670E-01  0.4623E+00
      4.099  0.8046E-01  0.4690E+00
      4.183  0.8780E-01  0.4764E+00
      4.268  0.8211E-01  0.4834E+00
      4.352  0.7167E-01  0.4894E+00
      4.436  0.6772E-01  0.4951E+00
      4.520  0.7116E-01  0.5011E+00
      4.605  0.7192E-01  0.5072E+00
      4.689  0.6153E-01  0.5123E+00
      4.773  0.4372E-01  0.5160E+00
      4.857  0.2995E-01  0.5185E+00
      4.942  0.2627E-01  0.5208E+00
      5.026  0.2759E-01  0.5231E+00
      5.110  0.2562E-01  0.5252E+00
      5.194  0.1926E-01  0.5269E+00
      5.279  0.1413E-01  0.5281E+00
      5.363  0.1365E-01  0.5292E+00
      5.447  0.1504E-01  0.5305E+00
      5.531  0.1397E-01  0.5317E+00
      5.616  0.9976E-02  0.5325E+00
      5.700  0.5624E-02  0.5330E+00
      5.784  0.2684E-02  0.5332E+00
      5.868  0.1138E-02  0.5333E+00
      5.953  0.4607E-03  0.5333E+00
      6.037  0.3808E-03  0.5334E+00
      6.121  0.9370E-03  0.5334E+00
      6.205  0.2353E-02  0.5336E+00
      6.290  0.4748E-02  0.5340E+00
      6.374  0.7998E-02  0.5347E+00
      6.458  0.1195E-01  0.5357E+00
      6.543  0.1648E-01  0.5371E+00
      6.627  0.2100E-01  0.5389E+00
      6.711  0.2423E-01  0.5409E+00
      6.795  0.2527E-01  0.5430E+00
      6.880  0.2456E-01  0.5451E+00
      6.964  0.2372E-01  0.5471E+00
      7.048  0.2507E-01  0.5492E+00
      7.132  0.3076E-01  0.5518E+00
      7.217  0.4092E-01  0.5553E+00
      7.301  0.5271E-01  0.5597E+00
      7.385  0.6144E-01  0.5649E+00
      7.469  0.6452E-01  0.5703E+00
      7.554  0.6556E-01  0.5758E+00
      7.638  0.7231E-01  0.5819E+00
      7.722  0.8861E-01  0.5894E+00
      7.806  0.1089E+00  0.5986E+00
      7.891  0.1217E+00  0.6088E+00
      7.975  0.1189E+00  0.6188E+00
      8.059  0.1028E+00  0.6275E+00
      8.143  0.8433E-01  0.6346E+00
      8.228  0.7326E-01  0.6408E+00
      8.312  0.7282E-01  0.6469E+00
      8.396  0.8076E-01  0.6537E+00
      8.480  0.9046E-01  0.6614E+00
      8.565  0.9280E-01  0.6692E+00
      8.649  0.8438E-01  0.6763E+00
      8.733  0.7255E-01  0.6824E+00
      8.817  0.6753E-01  0.6881E+00
      8.902  0.7270E-01  0.6942E+00
      8.986  0.8626E-01  0.7015E+00
      9.070  0.1063E+00  0.7104E+00
      9.155  0.1275E+00  0.7212E+00
      9.239  0.1407E+00  0.7330E+00
      9.323  0.1416E+00  0.7450E+00
      9.407  0.1338E+00  0.7562E+00
      9.492  0.1235E+00  0.7666E+00
      9.576  0.1142E+00  0.7763E+00
      9.660  0.1058E+00  0.7852E+00
      9.744  0.9602E-01  0.7933E+00
      9.829  0.8491E-01  0.8004E+00
      9.913  0.7479E-01  0.8067E+00
      9.997  0.6799E-01  0.8125E+00
     10.081  0.6637E-01  0.8181E+00
     10.166  0.6862E-01  0.8238E+00
     10.250  0.6960E-01  0.8297E+00
     10.334  0.6821E-01  0.8355E+00
     10.418  0.7198E-01  0.8415E+00
     10.503  0.8736E-01  0.8489E+00
     10.587  0.1072E+00  0.8579E+00
     10.671  0.1149E+00  0.8676E+00
     10.755  0.1035E+00  0.8763E+00
     10.840  0.8619E-01  0.8836E+00
     10.924  0.8097E-01  0.8904E+00
     11.008  0.9078E-01  0.8981E+00
     11.092  0.1024E+00  0.9067E+00
     11.177  0.1006E+00  0.9152E+00
     11.261  0.8302E-01  0.9222E+00
     11.345  0.6148E-01  0.9273E+00
     11.430  0.4805E-01  0.9314E+00
     11.514  0.4446E-01  0.9351E+00
     11.598  0.4681E-01  0.9391E+00
     11.682  0.5191E-01  0.9434E+00
     11.767  0.5585E-01  0.9482E+00
     11.851  0.5427E-01  0.9527E+00
     11.935  0.4833E-01  0.9568E+00
     12.019  0.4536E-01  0.9606E+00
     12.104  0.5119E-01  0.9649E+00
     12.188  0.6341E-01  0.9703E+00
     12.272  0.7217E-01  0.9764E+00
     12.356  0.6994E-01  0.9823E+00
     12.441  0.6050E-01  0.9873E+00
     12.525  0.5338E-01  0.9918E+00
     12.609  0.5265E-01  0.9963E+00
     12.693  0.5718E-01  0.1001E+01
     12.778  0.6597E-01  0.1007E+01
     12.862  0.7581E-01  0.1013E+01
     12.946  0.7967E-01  0.1020E+01
     13.030  0.7496E-01  0.1026E+01
     13.115  0.6795E-01  0.1032E+01
     13.199  0.6397E-01  0.1037E+01
     13.283  0.5914E-01  0.1042E+01
     13.367  0.4784E-01  0.1046E+01
     13.452  0.3214E-01  0.1049E+01
     13.536  0.1872E-01  0.1050E+01
     13.620  0.1181E-01  0.1051E+01
     13.704  0.1099E-01  0.1052E+01
     13.789  0.1244E-01  0.1053E+01
     13.873  0.1190E-01  0.1054E+01
     13.957  0.8391E-02  0.1055E+01
     14.042  0.4230E-02  0.1056E+01
     14.126  0.1515E-02  0.1056E+01
     14.210  0.4057E-03  0.1056E+01
     14.294  0.2220E-03  0.1056E+01
     14.379  0.7563E-03  0.1056E+01
     14.463  0.2608E-02  0.1056E+01
     14.547  0.6559E-02  0.1057E+01
     14.631  0.1207E-01  0.1058E+01
     14.716  0.1671E-01  0.1059E+01
     14.800  0.1836E-01  0.1061E+01
     14.884  0.1760E-01  0.1062E+01
     14.968  0.1631E-01  0.1063E+01
     15.053  0.1471E-01  0.1065E+01
     15.137  0.1170E-01  0.1066E+01
     15.221  0.7438E-02  0.1066E+01
     15.305  0.3578E-02  0.1067E+01
     15.390  0.1268E-02  0.1067E+01
     15.474  0.3269E-03  0.1067E+01
     15.558  0.6075E-04  0.1067E+01
     15.642  0.8096E-05  0.1067E+01
     15.727  0.7706E-06  0.1067E+01
     15.811  0.5220E-07  0.1067E+01
     15.895  0.2510E-08  0.1067E+01
     15.979  0.8551E-10  0.1067E+01
     16.064  0.2060E-11  0.1067E+01
     16.148  0.3507E-13  0.1067E+01
     16.232  0.4222E-15  0.1067E+01
     16.316  0.2892E-17  0.1067E+01
     16.401  0.0000E+00  0.1067E+01
     16.485  0.0000E+00  0.1067E+01
     16.569  0.0000E+00  0.1067E+01
     16.654  0.0000E+00  0.1067E+01
     16.738  0.0000E+00  0.1067E+01
     16.822  0.0000E+00  0.1067E+01
     16.906  0.0000E+00  0.1067E+01
     16.991  0.0000E+00  0.1067E+01
     17.075  0.0000E+00  0.1067E+01
