    2    2   15    1
  0.2001288E+02  0.3839590E-09  0.3839590E-09  0.3839590E-09  0.5000000E-15
  1.000000000000000E-004
  CAR 
 unknown system                          
      8     35      8
 
  0.0000000E+00  0.0000000E+00  0.0000000E+00  0.1371742E-02
    1       -6.135598   1.000000
    2        5.876166   0.978608
    3        5.876166   0.978608
    4        5.876472   0.978497
    5        8.455132   0.000000
    6        8.455132   0.000000
    7        8.455342   0.000000
    8        9.196557   0.000000
 
  0.1111111E+00  0.2174102E-18  0.2072965E-17  0.1097394E-01
    1       -5.973847   1.000000
    2        4.517266   1.000000
    3        5.634223   0.999907
    4        5.634476   0.999906
    5        8.427595   0.000000
    6        8.810000   0.000000
    7        8.810245   0.000000
    8       10.326599   0.000000
 
  0.2222222E+00 -0.4325414E-18  0.5013291E-17  0.1097394E-01
    1       -5.498536   1.000000
    2        2.425581   1.000000
    3        5.199866   1.000000
    4        5.200091   1.000000
    5        8.022550   0.000000
    6        9.351657   0.000000
    7        9.352023   0.000000
    8       12.313617   0.000000
 
  0.3333333E+00  0.6723763E-17  0.1473614E-18  0.1097394E-01
    1       -4.756368   1.000000
    2        0.504315   1.000000
    3        4.854902   1.000000
    4        4.855136   1.000000
    5        7.653245   0.000000
    6        9.435068   0.000000
    7        9.435481   0.000000
    8       13.738177   0.000000
 
  0.4444444E+00 -0.8650829E-18  0.1002658E-16  0.1097394E-01
    1       -3.962954   1.000000
    2       -0.898149   1.000000
    3        4.676421   1.000000
    4        4.676638   1.000000
    5        7.437143   0.000000
    6        9.309126   0.000000
    7        9.309505   0.000000
    8       13.639860   0.000000
 
  0.1111111E+00  0.1111111E+00  0.5723364E-17  0.8230453E-02
    1       -5.919473   1.000000
    2        4.752452   1.000000
    3        5.189019   1.000000
    4        5.189193   1.000000
    5        7.998424   0.000000
    6        9.411373   0.000000
    7        9.411550   0.000000
    8       10.147350   0.000000
 
  0.2222222E+00  0.1111111E+00  0.7521076E-17  0.3292181E-01
    1       -5.546666   1.000000
    2        3.053933   1.000000
    3        4.706708   1.000000
    4        4.848820   1.000000
    5        8.097295   0.000000
    6        9.433499   0.000000
    7       10.141916   0.000000
    8       10.855972   0.000000
 
  0.3333333E+00  0.1111111E+00  0.1455535E-16  0.3292181E-01
    1       -4.884455   1.000000
    2        1.135492   1.000000
    3        4.338750   1.000000
    4        4.397019   1.000000
    5        8.227948   0.000000
    6        9.411866   0.000000
    7       10.324709   0.000000
    8       11.305363   0.000000
 
  0.4444444E+00  0.1111111E+00  0.5595473E-17  0.3292181E-01
    1       -4.056151   1.000000
    2       -0.463215   1.000000
    3        3.897095   1.000000
    4        4.310805   1.000000
    5        8.098454   0.000000
    6        9.319361   0.000000
    7       10.046219   0.000000
    8       12.748645   0.000000
 
 -0.4444444E+00  0.1111111E+00  0.1329788E-16  0.3292181E-01
    1       -3.675656   1.000000
    2       -1.038311   1.000000
    3        3.634015   1.000000
    4        4.454405   1.000000
    5        8.102280   0.000000
    6        9.345873   0.000000
    7        9.786187   0.000000
    8       14.065894   0.000000
 
 -0.3333333E+00  0.1111111E+00 -0.1536845E-16  0.3292181E-01
    1       -4.335411   1.000000
    2        0.016054   1.000000
    3        3.601112   1.000000
    4        4.787717   1.000000
    5        8.293462   0.000000
    6        9.574137   0.000000
    7        9.652975   0.000000
    8       13.328278   0.000000
 
 -0.2222222E+00  0.1111111E+00  0.4433388E-17  0.3292181E-01
    1       -5.135980   1.000000
    2        1.754691   1.000000
    3        3.837086   1.000000
    4        5.245612   1.000000
    5        8.629241   0.000000
    6        9.422759   0.000000
    7        9.719507   0.000000
    8       12.013218   0.000000
 
 -0.1111111E+00  0.1111111E+00 -0.5393851E-17  0.1646091E-01
    1       -5.706727   1.000000
    2        3.533664   1.000000
    3        4.491831   1.000000
    4        5.646874   0.999867
    5        8.900806   0.000000
    6        8.902586   0.000000
    7        9.131890   0.000000
    8       11.273869   0.000000
 
  0.2222222E+00  0.2222222E+00  0.1144673E-16  0.8230453E-02
    1       -5.277080   1.000000
    2        2.832330   1.000000
    3        4.177786   1.000000
    4        4.177937   1.000000
    5        7.198897   0.000000
    6        9.491245   0.000000
    7       11.207957   0.000000
    8       11.208180   0.000000
 
  0.3333333E+00  0.2222222E+00  0.1123446E-16  0.3292181E-01
    1       -4.706522   1.000000
    2        1.491073   1.000000
    3        3.550265   1.000000
    4        3.830692   1.000000
    5        7.360201   0.000000
    6        9.097218   0.000000
    7       11.460975   0.000000
    8       11.795558   0.000000
 
  0.4444444E+00  0.2222222E+00  0.1417479E-16  0.3292181E-01
    1       -3.905251   1.000000
    2        0.010259   1.000000
    3        2.806819   1.000000
    4        3.731208   1.000000
    5        7.550344   0.000000
    6       10.121567   0.000000
    7       11.195658   0.000000
    8       11.614599   0.000000
 
 -0.4444444E+00  0.2222222E+00  0.1691589E-16  0.3292181E-01
    1       -3.248236   1.000000
    2       -0.937885   1.000000
    3        2.281418   1.000000
    4        3.885403   1.000000
    5        7.699943   0.000000
    6       10.949018   0.000000
    7       11.220023   0.000000
    8       12.126917   0.000000
 
 -0.3333333E+00  0.2222222E+00  0.1787863E-16  0.3292181E-01
    1       -3.661821   1.000000
    2       -0.355865   1.000000
    3        2.099629   1.000000
    4        4.274466   1.000000
    5        8.092884   0.000000
    6       10.871409   0.000000
    7       10.895838   0.000000
    8       13.141475   0.000000
 
 -0.2222222E+00  0.2222222E+00 -0.1078770E-16  0.1646091E-01
    1       -4.486778   1.000000
    2        0.898548   1.000000
    3        2.486825   1.000000
    4        4.803181   1.000000
    5        8.625507   0.000000
    6       10.244575   0.000000
    7       10.606397   0.000000
    8       11.768017   0.000000
 
  0.3333333E+00  0.3333333E+00  0.1717009E-16  0.8230453E-02
    1       -4.228073   1.000000
    2        0.830548   1.000000
    3        3.425227   1.000000
    4        3.425364   1.000000
    5        6.625980   0.000526
    6        7.896893   0.000000
    7       13.222221   0.000000
    8       13.222485   0.000000
 
  0.4444444E+00  0.3333333E+00  0.1668257E-16  0.3292181E-01
    1       -3.487332   1.000000
    2       -0.223353   1.000000
    3        2.698225   1.000000
    4        3.266419   1.000000
    5        6.869769   0.000000
    6        7.945244   0.000000
    7       13.520435   0.000000
    8       13.584836   0.000000
 
 -0.4444444E+00  0.3333333E+00 -0.5348174E-17  0.3292181E-01
    1       -2.690608   1.000000
    2       -1.126151   1.000000
    3        1.790833   1.000000
    4        3.372969   1.000000
    5        7.066651   0.000000
    6        9.559181   0.000000
    7       13.196052   0.000000
    8       13.296901   0.000000
 
 -0.3333333E+00  0.3333333E+00  0.1344753E-16  0.1646091E-01
    1       -2.865250   1.000000
    2       -0.936162   1.000000
    3        1.426445   1.000000
    4        3.730728   1.000000
    5        7.469048   0.000000
    6       11.771777   0.000000
    7       12.415557   0.000000
    8       13.012995   0.000000
 
  0.4444444E+00  0.4444444E+00  0.2289345E-16  0.8230453E-02
    1       -2.809560   1.000000
    2       -1.090190   1.000000
    3        3.036172   1.000000
    4        3.036300   1.000000
    5        6.488558   0.010598
    6        6.881088   0.000000
    7       15.339729   0.000000
    8       15.339906   0.000000
 
 -0.4444444E+00  0.4444444E+00 -0.2157540E-16  0.1646091E-01
    1       -2.035393   1.000000
    2       -1.865945   1.000000
    3        2.420277   1.000000
    4        3.072843   1.000000
    5        6.711731   0.000052
    6        7.545622   0.000000
    7       15.164847   0.000000
    8       15.465144   0.000000
 
  0.3333333E+00  0.2222222E+00  0.1111111E+00  0.3292181E-01
    1       -5.075947   1.000000
    2        2.057667   1.000000
    3        3.481382   1.000000
    4        4.691627   1.000000
    5        8.280104   0.000000
    6        9.729950   0.000000
    7       10.356464   0.000000
    8       10.963673   0.000000
 
  0.4444444E+00  0.2222222E+00  0.1111111E+00  0.6584362E-01
    1       -4.338803   1.000000
    2        0.559108   1.000000
    3        2.871030   1.000000
    4        4.249476   1.000000
    5        8.682176   0.000000
    6        9.528659   0.000000
    7       10.728955   0.000000
    8       11.427056   0.000000
 
 -0.4444444E+00  0.2222222E+00  0.1111111E+00  0.6584362E-01
    1       -3.539875   1.000000
    2       -0.736566   1.000000
    3        2.676546   1.000000
    4        3.921194   1.000000
    5        8.774535   0.000000
    6        9.118960   0.000000
    7       11.359154   0.000000
    8       12.498068   0.000000
 
  0.4444444E+00  0.3333333E+00  0.1111111E+00  0.3292181E-01
    1       -4.053319   1.000000
    2        0.525848   1.000000
    3        2.761607   1.000000
    4        3.454618   1.000000
    5        7.724163   0.000000
    6        8.742332   0.000000
    7       11.384139   0.000000
    8       13.128746   0.000000
 
 -0.4444444E+00  0.3333333E+00  0.1111111E+00  0.6584362E-01
    1       -3.223842   1.000000
    2       -0.563170   1.000000
    3        2.095992   1.000000
    4        3.147535   1.000000
    5        8.134409   0.000000
    6        9.858067   0.000000
    7       10.935566   0.000000
    8       13.538644   0.000000
 
 -0.3333333E+00  0.3333333E+00  0.1111111E+00  0.6584362E-01
    1       -2.857120   1.000000
    2       -0.992152   1.000000
    3        1.707193   1.000000
    4        3.261383   1.000000
    5        8.430383   0.000000
    6       10.452355   0.000000
    7       12.016860   0.000000
    8       12.553532   0.000000
 
 -0.2222222E+00  0.3333333E+00  0.1111111E+00  0.3292181E-01
    1       -3.560198   1.000000
    2       -0.186418   1.000000
    3        1.855852   1.000000
    4        3.701417   1.000000
    5        8.952277   0.000000
    6        9.954830   0.000000
    7       10.816472   0.000000
    8       12.908319   0.000000
 
 -0.4444444E+00  0.4444444E+00  0.1111111E+00  0.3292181E-01
    1       -2.693785   1.000000
    2       -1.106905   1.000000
    3        2.471720   1.000000
    4        2.681752   1.000000
    5        7.551951   0.000000
    6        7.861865   0.000000
    7       13.178640   0.000000
    8       15.042443   0.000000
 
 -0.3333333E+00  0.4444444E+00  0.1111111E+00  0.3292181E-01
    1       -2.168681   1.000000
    2       -1.569202   1.000000
    3        1.746863   1.000000
    4        2.770904   1.000000
    5        7.926505   0.000000
    6        9.587569   0.000000
    7       12.624518   0.000000
    8       12.880386   0.000000
 
 -0.3333333E+00  0.4444444E+00  0.2222222E+00  0.3292181E-01
    1       -2.414794   1.000000
    2       -1.252761   1.000000
    3        1.786689   1.000000
    4        2.431293   1.000000
    5        9.782237   0.000000
    6        9.883790   0.000000
    7       10.554672   0.000000
    8       12.325703   0.000000
