<?xml version="1.0" encoding="ISO-8859-1"?>
<modeling>
 <generator>
  <i name="program" type="string">vasp </i>
  <i name="version" type="string">5.4.4.18Apr17-6-g9f103f2a35  </i>
  <i name="subversion" type="string">(build Dec 09 2018 21:25:21) complex            parallel </i>
  <i name="platform" type="string">IFC18.0.1.163_CrayMPICH7.7.0_MKL18.0.1.163 </i>
  <i name="date" type="string">2019 03 18 </i>
  <i name="time" type="string">04:51:43 </i>
 </generator>
 <incar>
  <i type="string" name="PREC">normal</i>
  <i type="int" name="IBRION">     2</i>
  <i name="EDIFF">      0.00040000</i>
  <i name="EDIFFG">     -0.01000000</i>
  <i type="int" name="NSW">    15</i>
  <i type="int" name="ISIF">     2</i>
  <i name="ENCUT">    150.00000000</i>
  <i type="int" name="NBANDS">     8</i>
  <i type="logical" name="LREAL"> F  </i>
  <i type="int" name="ISMEAR">     0</i>
  <i name="SIGMA">      0.20000000</i>
  <v type="int" name="KPOINT_BSE">    -1     0     0     0</v>
 </incar>
 <structure name="primitive_cell" >
  <crystal>
   <varray name="basis" >
    <v>       0.00000000       2.71500000       2.71500000 </v>
    <v>       2.71500000       0.00000000       2.71500000 </v>
    <v>       2.71500000       2.71500000       0.00000000 </v>
   </varray>
   <i name="volume">     40.02575175 </i>
   <varray name="rec_basis" >
    <v>      -0.18416206       0.18416206       0.18416206 </v>
    <v>       0.18416206      -0.18416206       0.18416206 </v>
    <v>       0.18416206       0.18416206      -0.18416206 </v>
   </varray>
  </crystal>
  <varray name="positions" >
   <v>      -0.50000000      -0.50000000      -0.50000000 </v>
   <v>      -0.25000000      -0.25000000      -0.25000000 </v>
  </varray>
 </structure>
 <varray name="primitive_index" >
  <v type="int" >        1 </v>
  <v type="int" >        2 </v>
 </varray>
 <kpoints>
  <generation param="Monkhorst-Pack">
   <v type="int" name="divisions">       9        9        9 </v>
   <v name="usershift">      0.00000000       0.00000000       0.00000000 </v>
   <v name="genvec1">      0.11111111      -0.00000000       0.00000000 </v>
   <v name="genvec2">     -0.00000000       0.11111111      -0.00000000 </v>
   <v name="genvec3">      0.00000000       0.00000000       0.11111111 </v>
   <v name="shift">      0.00000000       0.00000000       0.00000000 </v>
  </generation>
  <varray name="kpointlist" >
   <v>       0.00000000       0.00000000       0.00000000 </v>
   <v>       0.11111111       0.00000000       0.00000000 </v>
   <v>       0.22222222      -0.00000000       0.00000000 </v>
   <v>       0.33333333       0.00000000       0.00000000 </v>
   <v>       0.44444444      -0.00000000       0.00000000 </v>
   <v>       0.11111111       0.11111111       0.00000000 </v>
   <v>       0.22222222       0.11111111       0.00000000 </v>
   <v>       0.33333333       0.11111111       0.00000000 </v>
   <v>       0.44444444       0.11111111       0.00000000 </v>
   <v>      -0.44444444       0.11111111       0.00000000 </v>
   <v>      -0.33333333       0.11111111      -0.00000000 </v>
   <v>      -0.22222222       0.11111111       0.00000000 </v>
   <v>      -0.11111111       0.11111111      -0.00000000 </v>
   <v>       0.22222222       0.22222222       0.00000000 </v>
   <v>       0.33333333       0.22222222       0.00000000 </v>
   <v>       0.44444444       0.22222222       0.00000000 </v>
   <v>      -0.44444444       0.22222222       0.00000000 </v>
   <v>      -0.33333333       0.22222222       0.00000000 </v>
   <v>      -0.22222222       0.22222222      -0.00000000 </v>
   <v>       0.33333333       0.33333333       0.00000000 </v>
   <v>       0.44444444       0.33333333       0.00000000 </v>
   <v>      -0.44444444       0.33333333      -0.00000000 </v>
   <v>      -0.33333333       0.33333333       0.00000000 </v>
   <v>       0.44444444       0.44444444       0.00000000 </v>
   <v>      -0.44444444       0.44444444      -0.00000000 </v>
   <v>       0.33333333       0.22222222       0.11111111 </v>
   <v>       0.44444444       0.22222222       0.11111111 </v>
   <v>      -0.44444444       0.22222222       0.11111111 </v>
   <v>       0.44444444       0.33333333       0.11111111 </v>
   <v>      -0.44444444       0.33333333       0.11111111 </v>
   <v>      -0.33333333       0.33333333       0.11111111 </v>
   <v>      -0.22222222       0.33333333       0.11111111 </v>
   <v>      -0.44444444       0.44444444       0.11111111 </v>
   <v>      -0.33333333       0.44444444       0.11111111 </v>
   <v>      -0.33333333       0.44444444       0.22222222 </v>
  </varray>
  <varray name="weights" >
   <v>       0.00137174 </v>
   <v>       0.01097394 </v>
   <v>       0.01097394 </v>
   <v>       0.01097394 </v>
   <v>       0.01097394 </v>
   <v>       0.00823045 </v>
   <v>       0.03292181 </v>
   <v>       0.03292181 </v>
   <v>       0.03292181 </v>
   <v>       0.03292181 </v>
   <v>       0.03292181 </v>
   <v>       0.03292181 </v>
   <v>       0.01646091 </v>
   <v>       0.00823045 </v>
   <v>       0.03292181 </v>
   <v>       0.03292181 </v>
   <v>       0.03292181 </v>
   <v>       0.03292181 </v>
   <v>       0.01646091 </v>
   <v>       0.00823045 </v>
   <v>       0.03292181 </v>
   <v>       0.03292181 </v>
   <v>       0.01646091 </v>
   <v>       0.00823045 </v>
   <v>       0.01646091 </v>
   <v>       0.03292181 </v>
   <v>       0.06584362 </v>
   <v>       0.06584362 </v>
   <v>       0.03292181 </v>
   <v>       0.06584362 </v>
   <v>       0.06584362 </v>
   <v>       0.03292181 </v>
   <v>       0.03292181 </v>
   <v>       0.03292181 </v>
   <v>       0.03292181 </v>
  </varray>
 </kpoints>
 <parameters>
  <separator name="general" >
   <i type="string" name="SYSTEM">unknown system</i>
   <i type="logical" name="LCOMPAT"> F  </i>
  </separator>
  <separator name="electronic" >
   <i type="string" name="PREC">normal</i>
   <i name="ENMAX">    150.00000000</i>
   <i name="ENAUG">    322.06900000</i>
   <i name="EDIFF">      0.00040000</i>
   <i type="int" name="IALGO">    38</i>
   <i type="int" name="IWAVPR">    11</i>
   <i type="int" name="NBANDS">     8</i>
   <i name="NELECT">      8.00000000</i>
   <i type="int" name="TURBO">     0</i>
   <i type="int" name="IRESTART">     0</i>
   <i type="int" name="NREBOOT">     0</i>
   <i type="int" name="NMIN">     0</i>
   <i name="EREF">      0.00000000</i>
   <separator name="electronic smearing" >
    <i type="int" name="ISMEAR">     0</i>
    <i name="SIGMA">      0.20000000</i>
    <i name="KSPACING">      0.50000000</i>
    <i type="logical" name="KGAMMA"> T  </i>
   </separator>
   <separator name="electronic projectors" >
    <i type="logical" name="LREAL"> F  </i>
    <v name="ROPT">      0.00000000</v>
    <i type="int" name="LMAXPAW">  -100</i>
    <i type="int" name="LMAXMIX">     2</i>
    <i type="logical" name="NLSPLINE"> F  </i>
   </separator>
   <separator name="electronic startup" >
    <i type="int" name="ISTART">     0</i>
    <i type="int" name="ICHARG">     2</i>
    <i type="int" name="INIWAV">     1</i>
   </separator>
   <separator name="electronic spin" >
    <i type="int" name="ISPIN">     1</i>
    <i type="logical" name="LNONCOLLINEAR"> F  </i>
    <v name="MAGMOM">      1.00000000      1.00000000</v>
    <i name="NUPDOWN">     -1.00000000</i>
    <i type="logical" name="LSORBIT"> F  </i>
    <v name="SAXIS">      0.00000000      0.00000000      1.00000000</v>
    <i type="logical" name="LSPIRAL"> F  </i>
    <v name="QSPIRAL">      0.00000000      0.00000000      0.00000000</v>
    <i type="logical" name="LZEROZ"> F  </i>
   </separator>
   <separator name="electronic exchange-correlation" >
    <i type="logical" name="LASPH"> F  </i>
    <i type="logical" name="LMETAGGA"> F  </i>
   </separator>
   <separator name="electronic convergence" >
    <i type="int" name="NELM">    60</i>
    <i type="int" name="NELMDL">    -5</i>
    <i type="int" name="NELMIN">     2</i>
    <i name="ENINI">    150.00000000</i>
    <separator name="electronic convergence detail" >
     <i type="logical" name="LDIAG"> T  </i>
     <i type="logical" name="LSUBROT"> F  </i>
     <i name="WEIMIN">      0.00100000</i>
     <i name="EBREAK">      0.00001250</i>
     <i name="DEPER">      0.30000000</i>
     <i type="int" name="NRMM">     4</i>
     <i name="TIME">      0.40000000</i>
    </separator>
   </separator>
   <separator name="electronic mixer" >
    <i name="AMIX">      0.40000000</i>
    <i name="BMIX">      1.00000000</i>
    <i name="AMIN">      0.10000000</i>
    <i name="AMIX_MAG">      1.60000000</i>
    <i name="BMIX_MAG">      1.00000000</i>
    <separator name="electronic mixer details" >
     <i type="int" name="IMIX">     4</i>
     <i type="logical" name="MIXFIRST"> F  </i>
     <i type="int" name="MAXMIX">   -45</i>
     <i name="WC">    100.00000000</i>
     <i type="int" name="INIMIX">     1</i>
     <i type="int" name="MIXPRE">     1</i>
     <i type="int" name="MREMOVE">     5</i>
    </separator>
   </separator>
   <separator name="electronic dipolcorrection" >
    <i type="logical" name="LDIPOL"> F  </i>
    <i type="logical" name="LMONO"> F  </i>
    <i type="int" name="IDIPOL">     0</i>
    <i name="EPSILON">      1.00000000</i>
    <v name="DIPOL">   -100.00000000   -100.00000000   -100.00000000</v>
    <i name="EFIELD">      0.00000000</i>
   </separator>
  </separator>
  <separator name="grids" >
   <i type="int" name="NGX">    12</i>
   <i type="int" name="NGY">    12</i>
   <i type="int" name="NGZ">    12</i>
   <i type="int" name="NGXF">    24</i>
   <i type="int" name="NGYF">    24</i>
   <i type="int" name="NGZF">    24</i>
   <i type="logical" name="ADDGRID"> F  </i>
  </separator>
  <separator name="ionic" >
   <i type="int" name="NSW">    15</i>
   <i type="int" name="IBRION">     2</i>
   <i type="int" name="MDALGO">     0</i>
   <i type="int" name="ISIF">     2</i>
   <i name="PSTRESS">      0.00000000</i>
   <i name="EDIFFG">     -0.01000000</i>
   <i type="int" name="NFREE">     1</i>
   <i name="POTIM">      0.50000000</i>
   <i name="SMASS">     -3.00000000</i>
   <i name="SCALEE">      1.00000000</i>
  </separator>
  <separator name="ionic md" >
   <i name="TEBEG">      0.00010000</i>
   <i name="TEEND">      0.00010000</i>
   <i type="int" name="NBLOCK">     1</i>
   <i type="int" name="KBLOCK">    15</i>
   <i type="int" name="NPACO">   256</i>
   <i name="APACO">     16.00000000</i>
  </separator>
  <separator name="symmetry" >
   <i type="int" name="ISYM">     2</i>
   <i name="SYMPREC">      0.00001000</i>
  </separator>
  <separator name="dos" >
   <i type="int" name="LORBIT">     0</i>
   <v name="RWIGS">     -1.00000000</v>
   <i type="int" name="NEDOS">   301</i>
   <i name="EMIN">     10.00000000</i>
   <i name="EMAX">    -10.00000000</i>
   <i name="EFERMI">      0.00000000</i>
  </separator>
  <separator name="writing" >
   <i type="int" name="NWRITE">     2</i>
   <i type="logical" name="LWAVE"> T  </i>
   <i type="logical" name="LDOWNSAMPLE"> F  </i>
   <i type="logical" name="LCHARG"> T  </i>
   <i type="logical" name="LPARD"> F  </i>
   <i type="logical" name="LVTOT"> F  </i>
   <i type="logical" name="LVHAR"> F  </i>
   <i type="logical" name="LELF"> F  </i>
   <i type="logical" name="LOPTICS"> F  </i>
   <v name="STM">      0.00000000      0.00000000      0.00000000      0.00000000      0.00000000      0.00000000      0.00000000</v>
  </separator>
  <separator name="performance" >
   <i type="int" name="NPAR">     8</i>
   <i type="int" name="NSIM">     4</i>
   <i type="int" name="NBLK">    -1</i>
   <i type="logical" name="LPLANE"> T  </i>
   <i type="logical" name="LSCALAPACK"> T  </i>
   <i type="logical" name="LSCAAWARE"> F  </i>
   <i type="logical" name="LSCALU"> F  </i>
   <i type="logical" name="LASYNC"> F  </i>
   <i type="logical" name="LORBITALREAL"> F  </i>
  </separator>
  <separator name="miscellaneous" >
   <i type="int" name="IDIOT">     3</i>
   <i type="int" name="ISPECIAL">     0</i>
   <i type="logical" name="LMUSIC"> F  </i>
   <v name="POMASS">     28.08500000</v>
   <v name="DARWINR">      0.00000000</v>
   <v name="DARWINV">      1.00000000</v>
   <i type="logical" name="LCORR"> T  </i>
  </separator>
  <i type="logical" name="GGA_COMPAT"> T  </i>
  <i type="logical" name="LBERRY"> F  </i>
  <i type="int" name="ICORELEVEL">     0</i>
  <i type="logical" name="LDAU"> F  </i>
  <i type="int" name="I_CONSTRAINED_M">     0</i>
  <separator name="electronic exchange-correlation" >
   <i type="string" name="GGA">--</i>
   <i type="int" name="VOSKOWN">     0</i>
   <i type="logical" name="LHFCALC"> F  </i>
   <i type="string" name="PRECFOCK"></i>
   <i type="logical" name="LSYMGRAD"> F  </i>
   <i type="logical" name="LHFONE"> F  </i>
   <i type="logical" name="LRHFCALC"> F  </i>
   <i type="logical" name="LTHOMAS"> F  </i>
   <i type="logical" name="LMODELHF"> F  </i>
   <i name="ENCUT4O">     -1.00000000</i>
   <i type="int" name="EXXOEP">     0</i>
   <i type="int" name="FOURORBIT">     0</i>
   <i name="AEXX">      0.00000000</i>
   <i name="HFALPHA">      0.00000000</i>
   <i name="MCALPHA">      0.00000000</i>
   <i name="ALDAX">      1.00000000</i>
   <i name="AGGAX">      1.00000000</i>
   <i name="ALDAC">      1.00000000</i>
   <i name="AGGAC">      1.00000000</i>
   <i type="int" name="NKREDX">     1</i>
   <i type="int" name="NKREDY">     1</i>
   <i type="int" name="NKREDZ">     1</i>
   <i type="logical" name="SHIFTRED"> F  </i>
   <i type="logical" name="ODDONLY"> F  </i>
   <i type="logical" name="EVENONLY"> F  </i>
   <i type="int" name="LMAXFOCK">     0</i>
   <i type="int" name="NMAXFOCKAE">     0</i>
   <i type="logical" name="LFOCKAEDFT"> F  </i>
   <i name="HFSCREEN">      0.00000000</i>
   <i name="HFSCREENC">      0.00000000</i>
   <i type="int" name="NBANDSGWLOW">     0</i>
  </separator>
  <separator name="vdW DFT" >
   <i type="logical" name="LUSE_VDW"> F  </i>
   <i name="Zab_VDW">     -0.84910000</i>
   <i name="PARAM1">      0.12340000</i>
   <i name="PARAM2">      1.00000000</i>
   <i name="PARAM3">      0.00000000</i>
  </separator>
  <separator name="model GW" >
   <i type="int" name="MODEL_GW">     0</i>
   <i name="MODEL_EPS0">     12.00772552</i>
   <i name="MODEL_ALPHA">      1.00000000</i>
  </separator>
  <separator name="linear response parameters" >
   <i type="logical" name="LEPSILON"> F  </i>
   <i type="logical" name="LRPA"> F  </i>
   <i type="logical" name="LNABLA"> F  </i>
   <i type="logical" name="LVEL"> F  </i>
   <i type="int" name="KINTER">     0</i>
   <i name="CSHIFT">      0.10000000</i>
   <i name="OMEGAMAX">     -1.00000000</i>
   <i name="DEG_THRESHOLD">      0.00200000</i>
   <i name="RTIME">     -0.10000000</i>
   <i name="WPLASMAI">      0.00000000</i>
   <v name="DFIELD">      0.00000000      0.00000000      0.00000000</v>
   <v name="WPLASMA">      0.00000000      0.00000000      0.00000000      0.00000000      0.00000000      0.00000000      0.00000000      0.00000000      0.00000000</v>
  </separator>
  <separator name="orbital magnetization" >
   <i type="logical" name="NUCIND"> F  </i>
   <v name="MAGPOS">      0.00000000      0.00000000      0.00000000</v>
   <i type="logical" name="LNICSALL"> T  </i>
   <i type="logical" name="ORBITALMAG"> F  </i>
   <i type="logical" name="LMAGBLOCH"> F  </i>
   <i type="logical" name="LCHIMAG"> F  </i>
   <i type="logical" name="LGAUGE"> T  </i>
   <i type="int" name="MAGATOM">     0</i>
   <v name="MAGDIPOL">      0.00000000      0.00000000      0.00000000</v>
   <v name="AVECCONST">      0.00000000      0.00000000      0.00000000</v>
  </separator>
  <separator name="response functions" >
   <i type="logical" name="LADDER"> F  </i>
   <i type="logical" name="LRPAFORCE"> F  </i>
   <i type="logical" name="LFXC"> F  </i>
   <i type="logical" name="LHARTREE"> T  </i>
   <i type="int" name="IBSE">     0</i>
   <v type="int" name="KPOINT">    -1     0     0     0</v>
   <i type="logical" name="LTCTE"> F  </i>
   <i type="logical" name="LTETE"> F  </i>
   <i type="logical" name="LTRIPLET"> F  </i>
   <i type="logical" name="LFXCEPS"> F  </i>
   <i type="logical" name="LFXHEG"> F  </i>
   <i type="int" name="NATURALO">     2</i>
   <i type="logical" name="L2ORDER"> F  </i>
   <i type="logical" name="LMP2LT"> F  </i>
   <i type="logical" name="LUSEW"> F  </i>
   <i name="ENCUTGW">     -2.00000000</i>
   <i name="ENCUTGWSOFT">     -2.00000000</i>
   <i name="ENCUTLF">     -1.00000000</i>
   <i type="int" name="LMAXMP2">    -1</i>
   <i name="SCISSOR">      0.00000000</i>
   <i type="int" name="NOMEGA">     0</i>
   <i type="int" name="NOMEGAR">     0</i>
   <i type="int" name="NBANDSGW">    -1</i>
   <i type="int" name="NBANDSO">    -1</i>
   <i type="int" name="NBANDSV">    -1</i>
   <i type="int" name="NELM">     1</i>
   <i type="int" name="NELMHF">     1</i>
   <i type="int" name="DIM">     3</i>
   <i type="int" name="ANTIRES">     0</i>
   <i name="OMEGAMAX">    -30.00000000</i>
   <i name="OMEGAMIN">    -30.00000000</i>
   <i name="OMEGATL">   -200.00000000</i>
   <i type="int" name="OMEGAGRID">   140</i>
   <i name="CSHIFT">     -0.10000000</i>
   <i type="logical" name="SELFENERGY"> F  </i>
   <i type="logical" name="LSPECTRAL"> F  </i>
   <i type="logical" name="LSPECTRALGW"> F  </i>
   <i type="logical" name="LSINGLES"> F  </i>
   <i type="logical" name="LFERMIGW"> F  </i>
   <i type="logical" name="ODDONLYGW"> F  </i>
   <i type="logical" name="EVENONLYGW"> F  </i>
   <i type="int" name="NKREDLFX">     1</i>
   <i type="int" name="NKREDLFY">     1</i>
   <i type="int" name="NKREDLFZ">     1</i>
   <i type="int" name="MAXMEM">  2800</i>
   <i type="int" name="TELESCOPE">     0</i>
   <i type="int" name="TAUPAR">     1</i>
   <i type="int" name="OMEGAPAR">    -1</i>
   <i name="LAMBDA">      1.00000000</i>
  </separator>
  <separator name="External order field" >
   <i name="OFIELD_KAPPA">      0.00000000</i>
   <v name="OFIELD_K">      0.00000000      0.00000000      0.00000000</v>
   <i name="OFIELD_Q6_NEAR">      0.00000000</i>
   <i name="OFIELD_Q6_FAR">      0.00000000</i>
   <i name="OFIELD_A">      0.00000000</i>
  </separator>
 </parameters>
 <atominfo>
  <atoms>       2 </atoms>
  <types>       1 </types>
  <array name="atoms" >
   <dimension dim="1">ion</dimension>
   <field type="string">element</field>
   <field type="int">atomtype</field>
   <set>
    <rc><c>Si</c><c>   1</c></rc>
    <rc><c>Si</c><c>   1</c></rc>
   </set>
  </array>
  <array name="atomtypes" >
   <dimension dim="1">type</dimension>
   <field type="int">atomspertype</field>
   <field type="string">element</field>
   <field>mass</field>
   <field>valence</field>
   <field type="string">pseudopotential</field>
   <set>
    <rc><c>   2</c><c>Si</c><c>     28.08500000</c><c>      4.00000000</c><c> PAW_PBE Si 05Jan2001                   </c></rc>
   </set>
  </array>
 </atominfo>
 <structure name="initialpos" >
  <crystal>
   <varray name="basis" >
    <v>       0.00000000       2.71500000       2.71500000 </v>
    <v>       2.71500000       0.00000000       2.71500000 </v>
    <v>       2.71500000       2.71500000       0.00000000 </v>
   </varray>
   <i name="volume">     40.02575175 </i>
   <varray name="rec_basis" >
    <v>      -0.18416206       0.18416206       0.18416206 </v>
    <v>       0.18416206      -0.18416206       0.18416206 </v>
    <v>       0.18416206       0.18416206      -0.18416206 </v>
   </varray>
  </crystal>
  <varray name="positions" >
   <v>       0.50000000       0.50000000       0.50000000 </v>
   <v>       0.75000000       0.75000000       0.75000000 </v>
  </varray>
 </structure>
 <calculation>
  <scstep>
   <time name="dav">    0.26    0.27</time>
   <time name="total">    0.30    0.32</time>
   <energy>
    <i name="alphaZ">      3.36414203 </i>
    <i name="ewald">   -228.56352493 </i>
    <i name="hartreedc">    -11.00108243 </i>
    <i name="XCdc">    -18.60155909 </i>
    <i name="pawpsdc">     65.95520812 </i>
    <i name="pawaedc">    -30.76852678 </i>
    <i name="eentropy">     -0.01193912 </i>
    <i name="bandstr">      9.90104164 </i>
    <i name="atom">    206.09183643 </i>
    <i name="e_fr_energy">     -3.63440415 </i>
    <i name="e_wo_entrp">     -3.62246502 </i>
    <i name="e_0_energy">     -3.62843458 </i>
   </energy>
  </scstep>
  <scstep>
   <time name="dav">    0.43    0.44</time>
   <time name="total">    0.43    0.44</time>
   <energy>
    <i name="e_fr_energy">    -10.87074790 </i>
    <i name="e_wo_entrp">    -10.87073983 </i>
    <i name="e_0_energy">    -10.87074387 </i>
   </energy>
  </scstep>
  <scstep>
   <time name="dav">    0.32    0.32</time>
   <time name="total">    0.32    0.32</time>
   <energy>
    <i name="e_fr_energy">    -10.92466436 </i>
    <i name="e_wo_entrp">    -10.92465776 </i>
    <i name="e_0_energy">    -10.92466106 </i>
   </energy>
  </scstep>
  <scstep>
   <time name="dav">    0.41    0.42</time>
   <time name="total">    0.42    0.42</time>
   <energy>
    <i name="e_fr_energy">    -10.92474462 </i>
    <i name="e_wo_entrp">    -10.92473802 </i>
    <i name="e_0_energy">    -10.92474132 </i>
   </energy>
  </scstep>
  <scstep>
   <time name="dav">    0.29    0.30</time>
   <time name="total">    0.30    0.31</time>
   <energy>
    <i name="e_fr_energy">    -10.92474463 </i>
    <i name="e_wo_entrp">    -10.92473804 </i>
    <i name="e_0_energy">    -10.92474134 </i>
   </energy>
  </scstep>
  <scstep>
   <time name="dav">    0.29    0.29</time>
   <time name="total">    0.32    0.33</time>
   <energy>
    <i name="e_fr_energy">    -10.80066801 </i>
    <i name="e_wo_entrp">    -10.80063657 </i>
    <i name="e_0_energy">    -10.80065229 </i>
   </energy>
  </scstep>
  <scstep>
   <time name="dav">    0.31    0.31</time>
   <time name="total">    0.34    0.35</time>
   <energy>
    <i name="e_fr_energy">    -10.74240324 </i>
    <i name="e_wo_entrp">    -10.74223900 </i>
    <i name="e_0_energy">    -10.74232112 </i>
   </energy>
  </scstep>
  <scstep>
   <time name="dav">    0.27    0.27</time>
   <time name="total">    0.30    0.31</time>
   <energy>
    <i name="e_fr_energy">    -10.74364349 </i>
    <i name="e_wo_entrp">    -10.74350798 </i>
    <i name="e_0_energy">    -10.74357573 </i>
   </energy>
  </scstep>
  <scstep>
   <time name="dav">    0.19    0.19</time>
   <time name="total">    0.21    0.22</time>
   <energy>
    <i name="alphaZ">      3.36414203 </i>
    <i name="ewald">   -228.56352493 </i>
    <i name="hartreedc">    -14.88022882 </i>
    <i name="XCdc">    -17.92323253 </i>
    <i name="pawpsdc">     76.69475814 </i>
    <i name="pawaedc">    -41.74614705 </i>
    <i name="eentropy">     -0.00013507 </i>
    <i name="bandstr">      6.21879971 </i>
    <i name="atom">    206.09183643 </i>
    <i name="e_fr_energy">    -10.74373209 </i>
    <i name="e_wo_entrp">    -10.74359702 </i>
    <i name="e_0_energy">    -10.74366456 </i>
   </energy>
  </scstep>
  <structure>
   <crystal>
    <varray name="basis" >
     <v>       0.00000000       2.71500000       2.71500000 </v>
     <v>       2.71500000       0.00000000       2.71500000 </v>
     <v>       2.71500000       2.71500000       0.00000000 </v>
    </varray>
    <i name="volume">     40.02575175 </i>
    <varray name="rec_basis" >
     <v>      -0.18416206       0.18416206       0.18416206 </v>
     <v>       0.18416206      -0.18416206       0.18416206 </v>
     <v>       0.18416206       0.18416206      -0.18416206 </v>
    </varray>
   </crystal>
   <varray name="positions" >
    <v>       0.50000000       0.50000000       0.50000000 </v>
    <v>       0.75000000       0.75000000       0.75000000 </v>
   </varray>
  </structure>
  <varray name="forces" >
   <v>      -0.00000000      -0.00000000      -0.00000000 </v>
   <v>       0.00000000       0.00000000       0.00000000 </v>
  </varray>
  <varray name="stress" >
   <v>      19.58197440      -0.00000000       0.00000000 </v>
   <v>      -0.00000000      19.58197440       0.00000000 </v>
   <v>       0.00000000      -0.00000000      19.58197440 </v>
  </varray>
  <energy>
   <i name="e_fr_energy">    -10.74373209 </i>
   <i name="e_wo_entrp">    -10.74366456 </i>
   <i name="e_0_energy">     -0.00013507 </i>
  </energy>
  <time name="totalsc">    3.48    4.07</time>
  <eigenvalues>
   <array>
    <dimension dim="1">band</dimension>
    <dimension dim="2">kpoint</dimension>
    <dimension dim="3">spin</dimension>
    <field>eigene</field>
    <field>occ</field>
    <set>
     <set comment="spin 1">
      <set comment="kpoint 1">
       <r>   -6.1356    1.0000 </r>
       <r>    5.8762    0.9786 </r>
       <r>    5.8762    0.9786 </r>
       <r>    5.8765    0.9785 </r>
       <r>    8.4551    0.0000 </r>
       <r>    8.4551    0.0000 </r>
       <r>    8.4553    0.0000 </r>
       <r>    9.1966    0.0000 </r>
      </set>
      <set comment="kpoint 2">
       <r>   -5.9738    1.0000 </r>
       <r>    4.5173    1.0000 </r>
       <r>    5.6342    0.9999 </r>
       <r>    5.6345    0.9999 </r>
       <r>    8.4276    0.0000 </r>
       <r>    8.8100    0.0000 </r>
       <r>    8.8102    0.0000 </r>
       <r>   10.3266    0.0000 </r>
      </set>
      <set comment="kpoint 3">
       <r>   -5.4985    1.0000 </r>
       <r>    2.4256    1.0000 </r>
       <r>    5.1999    1.0000 </r>
       <r>    5.2001    1.0000 </r>
       <r>    8.0225    0.0000 </r>
       <r>    9.3517    0.0000 </r>
       <r>    9.3520    0.0000 </r>
       <r>   12.3136    0.0000 </r>
      </set>
      <set comment="kpoint 4">
       <r>   -4.7564    1.0000 </r>
       <r>    0.5043    1.0000 </r>
       <r>    4.8549    1.0000 </r>
       <r>    4.8551    1.0000 </r>
       <r>    7.6532    0.0000 </r>
       <r>    9.4351    0.0000 </r>
       <r>    9.4355    0.0000 </r>
       <r>   13.7382    0.0000 </r>
      </set>
      <set comment="kpoint 5">
       <r>   -3.9630    1.0000 </r>
       <r>   -0.8981    1.0000 </r>
       <r>    4.6764    1.0000 </r>
       <r>    4.6766    1.0000 </r>
       <r>    7.4371    0.0000 </r>
       <r>    9.3091    0.0000 </r>
       <r>    9.3095    0.0000 </r>
       <r>   13.6399    0.0000 </r>
      </set>
      <set comment="kpoint 6">
       <r>   -5.9195    1.0000 </r>
       <r>    4.7525    1.0000 </r>
       <r>    5.1890    1.0000 </r>
       <r>    5.1892    1.0000 </r>
       <r>    7.9984    0.0000 </r>
       <r>    9.4114    0.0000 </r>
       <r>    9.4116    0.0000 </r>
       <r>   10.1474    0.0000 </r>
      </set>
      <set comment="kpoint 7">
       <r>   -5.5467    1.0000 </r>
       <r>    3.0539    1.0000 </r>
       <r>    4.7067    1.0000 </r>
       <r>    4.8488    1.0000 </r>
       <r>    8.0973    0.0000 </r>
       <r>    9.4335    0.0000 </r>
       <r>   10.1419    0.0000 </r>
       <r>   10.8560    0.0000 </r>
      </set>
      <set comment="kpoint 8">
       <r>   -4.8845    1.0000 </r>
       <r>    1.1355    1.0000 </r>
       <r>    4.3387    1.0000 </r>
       <r>    4.3970    1.0000 </r>
       <r>    8.2279    0.0000 </r>
       <r>    9.4119    0.0000 </r>
       <r>   10.3247    0.0000 </r>
       <r>   11.3054    0.0000 </r>
      </set>
      <set comment="kpoint 9">
       <r>   -4.0562    1.0000 </r>
       <r>   -0.4632    1.0000 </r>
       <r>    3.8971    1.0000 </r>
       <r>    4.3108    1.0000 </r>
       <r>    8.0985    0.0000 </r>
       <r>    9.3194    0.0000 </r>
       <r>   10.0462    0.0000 </r>
       <r>   12.7486    0.0000 </r>
      </set>
      <set comment="kpoint 10">
       <r>   -3.6757    1.0000 </r>
       <r>   -1.0383    1.0000 </r>
       <r>    3.6340    1.0000 </r>
       <r>    4.4544    1.0000 </r>
       <r>    8.1023    0.0000 </r>
       <r>    9.3459    0.0000 </r>
       <r>    9.7862    0.0000 </r>
       <r>   14.0659    0.0000 </r>
      </set>
      <set comment="kpoint 11">
       <r>   -4.3354    1.0000 </r>
       <r>    0.0161    1.0000 </r>
       <r>    3.6011    1.0000 </r>
       <r>    4.7877    1.0000 </r>
       <r>    8.2935    0.0000 </r>
       <r>    9.5741    0.0000 </r>
       <r>    9.6530    0.0000 </r>
       <r>   13.3283    0.0000 </r>
      </set>
      <set comment="kpoint 12">
       <r>   -5.1360    1.0000 </r>
       <r>    1.7547    1.0000 </r>
       <r>    3.8371    1.0000 </r>
       <r>    5.2456    1.0000 </r>
       <r>    8.6292    0.0000 </r>
       <r>    9.4228    0.0000 </r>
       <r>    9.7195    0.0000 </r>
       <r>   12.0132    0.0000 </r>
      </set>
      <set comment="kpoint 13">
       <r>   -5.7067    1.0000 </r>
       <r>    3.5337    1.0000 </r>
       <r>    4.4918    1.0000 </r>
       <r>    5.6469    0.9999 </r>
       <r>    8.9008    0.0000 </r>
       <r>    8.9026    0.0000 </r>
       <r>    9.1319    0.0000 </r>
       <r>   11.2739    0.0000 </r>
      </set>
      <set comment="kpoint 14">
       <r>   -5.2771    1.0000 </r>
       <r>    2.8323    1.0000 </r>
       <r>    4.1778    1.0000 </r>
       <r>    4.1779    1.0000 </r>
       <r>    7.1989    0.0000 </r>
       <r>    9.4912    0.0000 </r>
       <r>   11.2080    0.0000 </r>
       <r>   11.2082    0.0000 </r>
      </set>
      <set comment="kpoint 15">
       <r>   -4.7065    1.0000 </r>
       <r>    1.4911    1.0000 </r>
       <r>    3.5503    1.0000 </r>
       <r>    3.8307    1.0000 </r>
       <r>    7.3602    0.0000 </r>
       <r>    9.0972    0.0000 </r>
       <r>   11.4610    0.0000 </r>
       <r>   11.7956    0.0000 </r>
      </set>
      <set comment="kpoint 16">
       <r>   -3.9053    1.0000 </r>
       <r>    0.0103    1.0000 </r>
       <r>    2.8068    1.0000 </r>
       <r>    3.7312    1.0000 </r>
       <r>    7.5503    0.0000 </r>
       <r>   10.1216    0.0000 </r>
       <r>   11.1957    0.0000 </r>
       <r>   11.6146    0.0000 </r>
      </set>
      <set comment="kpoint 17">
       <r>   -3.2482    1.0000 </r>
       <r>   -0.9379    1.0000 </r>
       <r>    2.2814    1.0000 </r>
       <r>    3.8854    1.0000 </r>
       <r>    7.6999    0.0000 </r>
       <r>   10.9490    0.0000 </r>
       <r>   11.2200    0.0000 </r>
       <r>   12.1269    0.0000 </r>
      </set>
      <set comment="kpoint 18">
       <r>   -3.6618    1.0000 </r>
       <r>   -0.3559    1.0000 </r>
       <r>    2.0996    1.0000 </r>
       <r>    4.2745    1.0000 </r>
       <r>    8.0929    0.0000 </r>
       <r>   10.8714    0.0000 </r>
       <r>   10.8958    0.0000 </r>
       <r>   13.1415    0.0000 </r>
      </set>
      <set comment="kpoint 19">
       <r>   -4.4868    1.0000 </r>
       <r>    0.8985    1.0000 </r>
       <r>    2.4868    1.0000 </r>
       <r>    4.8032    1.0000 </r>
       <r>    8.6255    0.0000 </r>
       <r>   10.2446    0.0000 </r>
       <r>   10.6064    0.0000 </r>
       <r>   11.7680    0.0000 </r>
      </set>
      <set comment="kpoint 20">
       <r>   -4.2281    1.0000 </r>
       <r>    0.8305    1.0000 </r>
       <r>    3.4252    1.0000 </r>
       <r>    3.4254    1.0000 </r>
       <r>    6.6260    0.0005 </r>
       <r>    7.8969    0.0000 </r>
       <r>   13.2222    0.0000 </r>
       <r>   13.2225    0.0000 </r>
      </set>
      <set comment="kpoint 21">
       <r>   -3.4873    1.0000 </r>
       <r>   -0.2234    1.0000 </r>
       <r>    2.6982    1.0000 </r>
       <r>    3.2664    1.0000 </r>
       <r>    6.8698    0.0000 </r>
       <r>    7.9452    0.0000 </r>
       <r>   13.5204    0.0000 </r>
       <r>   13.5848    0.0000 </r>
      </set>
      <set comment="kpoint 22">
       <r>   -2.6906    1.0000 </r>
       <r>   -1.1262    1.0000 </r>
       <r>    1.7908    1.0000 </r>
       <r>    3.3730    1.0000 </r>
       <r>    7.0667    0.0000 </r>
       <r>    9.5592    0.0000 </r>
       <r>   13.1961    0.0000 </r>
       <r>   13.2969    0.0000 </r>
      </set>
      <set comment="kpoint 23">
       <r>   -2.8652    1.0000 </r>
       <r>   -0.9362    1.0000 </r>
       <r>    1.4264    1.0000 </r>
       <r>    3.7307    1.0000 </r>
       <r>    7.4690    0.0000 </r>
       <r>   11.7718    0.0000 </r>
       <r>   12.4156    0.0000 </r>
       <r>   13.0130    0.0000 </r>
      </set>
      <set comment="kpoint 24">
       <r>   -2.8096    1.0000 </r>
       <r>   -1.0902    1.0000 </r>
       <r>    3.0362    1.0000 </r>
       <r>    3.0363    1.0000 </r>
       <r>    6.4886    0.0106 </r>
       <r>    6.8811    0.0000 </r>
       <r>   15.3397    0.0000 </r>
       <r>   15.3399    0.0000 </r>
      </set>
      <set comment="kpoint 25">
       <r>   -2.0354    1.0000 </r>
       <r>   -1.8659    1.0000 </r>
       <r>    2.4203    1.0000 </r>
       <r>    3.0728    1.0000 </r>
       <r>    6.7117    0.0001 </r>
       <r>    7.5456    0.0000 </r>
       <r>   15.1648    0.0000 </r>
       <r>   15.4651    0.0000 </r>
      </set>
      <set comment="kpoint 26">
       <r>   -5.0759    1.0000 </r>
       <r>    2.0577    1.0000 </r>
       <r>    3.4814    1.0000 </r>
       <r>    4.6916    1.0000 </r>
       <r>    8.2801    0.0000 </r>
       <r>    9.7300    0.0000 </r>
       <r>   10.3565    0.0000 </r>
       <r>   10.9637    0.0000 </r>
      </set>
      <set comment="kpoint 27">
       <r>   -4.3388    1.0000 </r>
       <r>    0.5591    1.0000 </r>
       <r>    2.8710    1.0000 </r>
       <r>    4.2495    1.0000 </r>
       <r>    8.6822    0.0000 </r>
       <r>    9.5287    0.0000 </r>
       <r>   10.7290    0.0000 </r>
       <r>   11.4271    0.0000 </r>
      </set>
      <set comment="kpoint 28">
       <r>   -3.5399    1.0000 </r>
       <r>   -0.7366    1.0000 </r>
       <r>    2.6765    1.0000 </r>
       <r>    3.9212    1.0000 </r>
       <r>    8.7745    0.0000 </r>
       <r>    9.1190    0.0000 </r>
       <r>   11.3592    0.0000 </r>
       <r>   12.4981    0.0000 </r>
      </set>
      <set comment="kpoint 29">
       <r>   -4.0533    1.0000 </r>
       <r>    0.5258    1.0000 </r>
       <r>    2.7616    1.0000 </r>
       <r>    3.4546    1.0000 </r>
       <r>    7.7242    0.0000 </r>
       <r>    8.7423    0.0000 </r>
       <r>   11.3841    0.0000 </r>
       <r>   13.1287    0.0000 </r>
      </set>
      <set comment="kpoint 30">
       <r>   -3.2238    1.0000 </r>
       <r>   -0.5632    1.0000 </r>
       <r>    2.0960    1.0000 </r>
       <r>    3.1475    1.0000 </r>
       <r>    8.1344    0.0000 </r>
       <r>    9.8581    0.0000 </r>
       <r>   10.9356    0.0000 </r>
       <r>   13.5386    0.0000 </r>
      </set>
      <set comment="kpoint 31">
       <r>   -2.8571    1.0000 </r>
       <r>   -0.9922    1.0000 </r>
       <r>    1.7072    1.0000 </r>
       <r>    3.2614    1.0000 </r>
       <r>    8.4304    0.0000 </r>
       <r>   10.4524    0.0000 </r>
       <r>   12.0169    0.0000 </r>
       <r>   12.5535    0.0000 </r>
      </set>
      <set comment="kpoint 32">
       <r>   -3.5602    1.0000 </r>
       <r>   -0.1864    1.0000 </r>
       <r>    1.8559    1.0000 </r>
       <r>    3.7014    1.0000 </r>
       <r>    8.9523    0.0000 </r>
       <r>    9.9548    0.0000 </r>
       <r>   10.8165    0.0000 </r>
       <r>   12.9083    0.0000 </r>
      </set>
      <set comment="kpoint 33">
       <r>   -2.6938    1.0000 </r>
       <r>   -1.1069    1.0000 </r>
       <r>    2.4717    1.0000 </r>
       <r>    2.6818    1.0000 </r>
       <r>    7.5520    0.0000 </r>
       <r>    7.8619    0.0000 </r>
       <r>   13.1786    0.0000 </r>
       <r>   15.0424    0.0000 </r>
      </set>
      <set comment="kpoint 34">
       <r>   -2.1687    1.0000 </r>
       <r>   -1.5692    1.0000 </r>
       <r>    1.7469    1.0000 </r>
       <r>    2.7709    1.0000 </r>
       <r>    7.9265    0.0000 </r>
       <r>    9.5876    0.0000 </r>
       <r>   12.6245    0.0000 </r>
       <r>   12.8804    0.0000 </r>
      </set>
      <set comment="kpoint 35">
       <r>   -2.4148    1.0000 </r>
       <r>   -1.2528    1.0000 </r>
       <r>    1.7867    1.0000 </r>
       <r>    2.4313    1.0000 </r>
       <r>    9.7822    0.0000 </r>
       <r>    9.8838    0.0000 </r>
       <r>   10.5547    0.0000 </r>
       <r>   12.3257    0.0000 </r>
      </set>
     </set>
    </set>
   </array>
  </eigenvalues>
  <separator name="orbital magnetization" >
   <v name="MAGDIPOLOUT">      0.00000000      0.00000000      0.00000000</v>
  </separator>
  <dos>
   <i name="efermi">      6.16265876 </i>
   <total>
    <array>
     <dimension dim="1">gridpoints</dimension>
     <dimension dim="2">spin</dimension>
     <field>energy</field>
     <field>total</field>
     <field>integrated</field>
     <set>
      <set comment="spin 1">
       <r>    -8.1356     0.0000     0.0000 </r>
       <r>    -8.0503     0.0000     0.0000 </r>
       <r>    -7.9649     0.0000     0.0000 </r>
       <r>    -7.8796     0.0000     0.0000 </r>
       <r>    -7.7943     0.0000     0.0000 </r>
       <r>    -7.7089     0.0000     0.0000 </r>
       <r>    -7.6236     0.0000     0.0000 </r>
       <r>    -7.5382     0.0000     0.0000 </r>
       <r>    -7.4529     0.0000     0.0000 </r>
       <r>    -7.3676     0.0000     0.0000 </r>
       <r>    -7.2822     0.0000     0.0000 </r>
       <r>    -7.1969     0.0000     0.0000 </r>
       <r>    -7.1116     0.0000     0.0000 </r>
       <r>    -7.0262     0.0000     0.0000 </r>
       <r>    -6.9409     0.0000     0.0000 </r>
       <r>    -6.8556     0.0000     0.0000 </r>
       <r>    -6.7702     0.0000     0.0000 </r>
       <r>    -6.6849     0.0000     0.0000 </r>
       <r>    -6.5996     0.0000     0.0000 </r>
       <r>    -6.5142     0.0001     0.0000 </r>
       <r>    -6.4289     0.0007     0.0001 </r>
       <r>    -6.3435     0.0029     0.0003 </r>
       <r>    -6.2582     0.0098     0.0012 </r>
       <r>    -6.1729     0.0269     0.0035 </r>
       <r>    -6.0875     0.0581     0.0084 </r>
       <r>    -6.0022     0.0976     0.0167 </r>
       <r>    -5.9169     0.1310     0.0279 </r>
       <r>    -5.8315     0.1548     0.0411 </r>
       <r>    -5.7462     0.1870     0.0571 </r>
       <r>    -5.6609     0.2400     0.0776 </r>
       <r>    -5.5755     0.2918     0.1025 </r>
       <r>    -5.4902     0.3016     0.1282 </r>
       <r>    -5.4049     0.2661     0.1509 </r>
       <r>    -5.3195     0.2412     0.1715 </r>
       <r>    -5.2342     0.2829     0.1956 </r>
       <r>    -5.1488     0.3751     0.2277 </r>
       <r>    -5.0635     0.4461     0.2657 </r>
       <r>    -4.9782     0.4568     0.3047 </r>
       <r>    -4.8928     0.4370     0.3420 </r>
       <r>    -4.8075     0.4216     0.3780 </r>
       <r>    -4.7222     0.4033     0.4124 </r>
       <r>    -4.6368     0.3736     0.4443 </r>
       <r>    -4.5515     0.3740     0.4762 </r>
       <r>    -4.4662     0.4602     0.5155 </r>
       <r>    -4.3808     0.6058     0.5671 </r>
       <r>    -4.2955     0.7004     0.6269 </r>
       <r>    -4.2102     0.6907     0.6859 </r>
       <r>    -4.1248     0.6480     0.7412 </r>
       <r>    -4.0395     0.6362     0.7954 </r>
       <r>    -3.9541     0.6229     0.8486 </r>
       <r>    -3.8688     0.5853     0.8986 </r>
       <r>    -3.7835     0.5959     0.9494 </r>
       <r>    -3.6981     0.7294     1.0117 </r>
       <r>    -3.6128     0.9289     1.0909 </r>
       <r>    -3.5275     1.0336     1.1791 </r>
       <r>    -3.4421     0.9636     1.2614 </r>
       <r>    -3.3568     0.8186     1.3312 </r>
       <r>    -3.2715     0.7223     1.3929 </r>
       <r>    -3.1861     0.6517     1.4485 </r>
       <r>    -3.1008     0.5444     1.4949 </r>
       <r>    -3.0154     0.4669     1.5348 </r>
       <r>    -2.9301     0.5208     1.5792 </r>
       <r>    -2.8448     0.6650     1.6360 </r>
       <r>    -2.7594     0.7529     1.7002 </r>
       <r>    -2.6741     0.6993     1.7599 </r>
       <r>    -2.5888     0.5462     1.8065 </r>
       <r>    -2.5034     0.3957     1.8402 </r>
       <r>    -2.4181     0.3101     1.8667 </r>
       <r>    -2.3328     0.2809     1.8907 </r>
       <r>    -2.2474     0.2811     1.9147 </r>
       <r>    -2.1621     0.2925     1.9396 </r>
       <r>    -2.0768     0.2911     1.9645 </r>
       <r>    -1.9914     0.2619     1.9868 </r>
       <r>    -1.9061     0.2168     2.0053 </r>
       <r>    -1.8207     0.1777     2.0205 </r>
       <r>    -1.7354     0.1625     2.0344 </r>
       <r>    -1.6501     0.1784     2.0496 </r>
       <r>    -1.5647     0.2057     2.0671 </r>
       <r>    -1.4794     0.2187     2.0858 </r>
       <r>    -1.3941     0.2419     2.1064 </r>
       <r>    -1.3087     0.3453     2.1359 </r>
       <r>    -1.2234     0.5702     2.1846 </r>
       <r>    -1.1381     0.8774     2.2594 </r>
       <r>    -1.0527     1.1496     2.3575 </r>
       <r>    -0.9674     1.2523     2.4644 </r>
       <r>    -0.8821     1.1535     2.5628 </r>
       <r>    -0.7967     0.9686     2.6455 </r>
       <r>    -0.7114     0.8374     2.7170 </r>
       <r>    -0.6260     0.7952     2.7848 </r>
       <r>    -0.5407     0.7891     2.8522 </r>
       <r>    -0.4554     0.7642     2.9174 </r>
       <r>    -0.3700     0.7159     2.9785 </r>
       <r>    -0.2847     0.6734     3.0359 </r>
       <r>    -0.1994     0.6470     3.0911 </r>
       <r>    -0.1140     0.6205     3.1441 </r>
       <r>    -0.0287     0.5761     3.1932 </r>
       <r>     0.0566     0.4898     3.2350 </r>
       <r>     0.1420     0.3523     3.2651 </r>
       <r>     0.2273     0.2173     3.2837 </r>
       <r>     0.3126     0.1773     3.2988 </r>
       <r>     0.3980     0.2814     3.3228 </r>
       <r>     0.4833     0.4751     3.3633 </r>
       <r>     0.5687     0.6082     3.4152 </r>
       <r>     0.6540     0.5689     3.4638 </r>
       <r>     0.7393     0.4117     3.4989 </r>
       <r>     0.8247     0.2741     3.5223 </r>
       <r>     0.9100     0.2154     3.5407 </r>
       <r>     0.9953     0.2102     3.5586 </r>
       <r>     1.0807     0.2239     3.5777 </r>
       <r>     1.1660     0.2319     3.5975 </r>
       <r>     1.2513     0.2277     3.6170 </r>
       <r>     1.3367     0.2421     3.6376 </r>
       <r>     1.4220     0.3123     3.6643 </r>
       <r>     1.5073     0.4528     3.7029 </r>
       <r>     1.5927     0.6844     3.7613 </r>
       <r>     1.6780     0.9989     3.8465 </r>
       <r>     1.7634     1.2581     3.9539 </r>
       <r>     1.8487     1.2936     4.0643 </r>
       <r>     1.9340     1.1474     4.1622 </r>
       <r>     2.0194     1.0177     4.2491 </r>
       <r>     2.1047     0.9673     4.3316 </r>
       <r>     2.1900     0.9069     4.4090 </r>
       <r>     2.2754     0.8268     4.4795 </r>
       <r>     2.3607     0.8151     4.5491 </r>
       <r>     2.4460     0.8965     4.6256 </r>
       <r>     2.5314     1.0372     4.7141 </r>
       <r>     2.6167     1.2421     4.8201 </r>
       <r>     2.7020     1.4803     4.9464 </r>
       <r>     2.7874     1.6042     5.0833 </r>
       <r>     2.8727     1.5095     5.2121 </r>
       <r>     2.9581     1.2997     5.3231 </r>
       <r>     3.0434     1.1710     5.4230 </r>
       <r>     3.1287     1.1913     5.5247 </r>
       <r>     3.2141     1.2749     5.6335 </r>
       <r>     3.2994     1.3294     5.7469 </r>
       <r>     3.3847     1.3514     5.8622 </r>
       <r>     3.4701     1.3827     5.9802 </r>
       <r>     3.5554     1.4330     6.1025 </r>
       <r>     3.6407     1.4852     6.2292 </r>
       <r>     3.7261     1.5373     6.3604 </r>
       <r>     3.8114     1.5687     6.4943 </r>
       <r>     3.8968     1.4921     6.6216 </r>
       <r>     3.9821     1.2510     6.7284 </r>
       <r>     4.0674     0.9778     6.8118 </r>
       <r>     4.1528     0.9036     6.8889 </r>
       <r>     4.2381     1.0693     6.9802 </r>
       <r>     4.3234     1.2622     7.0879 </r>
       <r>     4.4088     1.2755     7.1967 </r>
       <r>     4.4941     1.1271     7.2929 </r>
       <r>     4.5794     0.9959     7.3779 </r>
       <r>     4.6648     1.0011     7.4633 </r>
       <r>     4.7501     1.0691     7.5546 </r>
       <r>     4.8354     1.0254     7.6421 </r>
       <r>     4.9208     0.8085     7.7111 </r>
       <r>     5.0061     0.5457     7.7576 </r>
       <r>     5.0915     0.4018     7.7919 </r>
       <r>     5.1768     0.3966     7.8258 </r>
       <r>     5.2621     0.4088     7.8607 </r>
       <r>     5.3475     0.3444     7.8901 </r>
       <r>     5.4328     0.2429     7.9108 </r>
       <r>     5.5181     0.1941     7.9273 </r>
       <r>     5.6035     0.2103     7.9453 </r>
       <r>     5.6888     0.2247     7.9645 </r>
       <r>     5.7741     0.1885     7.9805 </r>
       <r>     5.8595     0.1209     7.9909 </r>
       <r>     5.9448     0.0628     7.9962 </r>
       <r>     6.0301     0.0284     7.9986 </r>
       <r>     6.1155     0.0119     7.9997 </r>
       <r>     6.2008     0.0072     8.0003 </r>
       <r>     6.2862     0.0133     8.0014 </r>
       <r>     6.3715     0.0329     8.0042 </r>
       <r>     6.4568     0.0675     8.0100 </r>
       <r>     6.5422     0.1153     8.0198 </r>
       <r>     6.6275     0.1740     8.0347 </r>
       <r>     6.7128     0.2411     8.0553 </r>
       <r>     6.7982     0.3083     8.0816 </r>
       <r>     6.8835     0.3569     8.1120 </r>
       <r>     6.9688     0.3715     8.1437 </r>
       <r>     7.0542     0.3551     8.1740 </r>
       <r>     7.1395     0.3284     8.2021 </r>
       <r>     7.2248     0.3282     8.2301 </r>
       <r>     7.3102     0.3986     8.2641 </r>
       <r>     7.3955     0.5534     8.3113 </r>
       <r>     7.4809     0.7472     8.3751 </r>
       <r>     7.5662     0.9012     8.4520 </r>
       <r>     7.6515     0.9666     8.5344 </r>
       <r>     7.7369     0.9735     8.6175 </r>
       <r>     7.8222     1.0120     8.7039 </r>
       <r>     7.9075     1.1586     8.8028 </r>
       <r>     7.9929     1.4102     8.9231 </r>
       <r>     8.0782     1.6605     9.0648 </r>
       <r>     8.1635     1.7534     9.2144 </r>
       <r>     8.2489     1.6249     9.3531 </r>
       <r>     8.3342     1.3728     9.4702 </r>
       <r>     8.4195     1.1464     9.5681 </r>
       <r>     8.5049     1.0429     9.6570 </r>
       <r>     8.5902     1.1046     9.7513 </r>
       <r>     8.6756     1.2805     9.8606 </r>
       <r>     8.7609     1.4082     9.9808 </r>
       <r>     8.8462     1.3645    10.0972 </r>
       <r>     8.9316     1.2077    10.2003 </r>
       <r>     9.0169     1.0895    10.2932 </r>
       <r>     9.1022     1.0821    10.3856 </r>
       <r>     9.1876     1.1759    10.4859 </r>
       <r>     9.2729     1.3849    10.6041 </r>
       <r>     9.3582     1.7071    10.7498 </r>
       <r>     9.4436     2.0167    10.9219 </r>
       <r>     9.5289     2.1546    11.1057 </r>
       <r>     9.6142     2.0997    11.2849 </r>
       <r>     9.6996     1.9589    11.4521 </r>
       <r>     9.7849     1.8151    11.6070 </r>
       <r>     9.8703     1.6500    11.7478 </r>
       <r>     9.9556     1.4356    11.8703 </r>
       <r>    10.0409     1.2217    11.9745 </r>
       <r>    10.1263     1.0755    12.0663 </r>
       <r>    10.2116     1.0102    12.1525 </r>
       <r>    10.2969     1.0076    12.2385 </r>
       <r>    10.3823     1.0310    12.3265 </r>
       <r>    10.4676     1.0269    12.4141 </r>
       <r>    10.5529     0.9890    12.4985 </r>
       <r>    10.6383     1.0000    12.5839 </r>
       <r>    10.7236     1.1547    12.6824 </r>
       <r>    10.8090     1.4277    12.8042 </r>
       <r>    10.8943     1.6350    12.9438 </r>
       <r>    10.9796     1.5922    13.0796 </r>
       <r>    11.0650     1.3544    13.1952 </r>
       <r>    11.1503     1.1949    13.2972 </r>
       <r>    11.2356     1.2840    13.4067 </r>
       <r>    11.3210     1.4987    13.5346 </r>
       <r>    11.4063     1.5798    13.6695 </r>
       <r>    11.4916     1.3980    13.7887 </r>
       <r>    11.5770     1.0623    13.8794 </r>
       <r>    11.6623     0.7833    13.9462 </r>
       <r>    11.7476     0.6609    14.0026 </r>
       <r>    11.8330     0.6589    14.0589 </r>
       <r>    11.9183     0.7207    14.1204 </r>
       <r>    12.0037     0.7961    14.1883 </r>
       <r>    12.0890     0.8083    14.2573 </r>
       <r>    12.1743     0.7318    14.3197 </r>
       <r>    12.2597     0.6614    14.3762 </r>
       <r>    12.3450     0.7104    14.4368 </r>
       <r>    12.4303     0.8797    14.5119 </r>
       <r>    12.5157     1.0510    14.6016 </r>
       <r>    12.6010     1.0879    14.6944 </r>
       <r>    12.6863     0.9722    14.7774 </r>
       <r>    12.7717     0.8195    14.8473 </r>
       <r>    12.8570     0.7392    14.9104 </r>
       <r>    12.9423     0.7514    14.9745 </r>
       <r>    13.0277     0.8481    15.0469 </r>
       <r>    13.1130     1.0120    15.1332 </r>
       <r>    13.1984     1.1520    15.2315 </r>
       <r>    13.2837     1.1605    15.3306 </r>
       <r>    13.3690     1.0637    15.4213 </r>
       <r>    13.4544     0.9891    15.5057 </r>
       <r>    13.5397     0.9626    15.5879 </r>
       <r>    13.6250     0.8686    15.6620 </r>
       <r>    13.7104     0.6454    15.7171 </r>
       <r>    13.7957     0.3875    15.7501 </r>
       <r>    13.8810     0.2195    15.7689 </r>
       <r>    13.9664     0.1720    15.7836 </r>
       <r>    14.0517     0.1863    15.7995 </r>
       <r>    14.1370     0.1832    15.8151 </r>
       <r>    14.2224     0.1343    15.8265 </r>
       <r>    14.3077     0.0700    15.8325 </r>
       <r>    14.3931     0.0257    15.8347 </r>
       <r>    14.4784     0.0066    15.8353 </r>
       <r>    14.5637     0.0015    15.8354 </r>
       <r>    14.6491     0.0020    15.8356 </r>
       <r>    14.7344     0.0097    15.8364 </r>
       <r>    14.8197     0.0356    15.8394 </r>
       <r>    14.9051     0.0937    15.8474 </r>
       <r>    14.9904     0.1787    15.8627 </r>
       <r>    15.0757     0.2529    15.8843 </r>
       <r>    15.1611     0.2787    15.9080 </r>
       <r>    15.2464     0.2614    15.9303 </r>
       <r>    15.3317     0.2338    15.9503 </r>
       <r>    15.4171     0.2079    15.9680 </r>
       <r>    15.5024     0.1697    15.9825 </r>
       <r>    15.5878     0.1144    15.9923 </r>
       <r>    15.6731     0.0595    15.9974 </r>
       <r>    15.7584     0.0230    15.9993 </r>
       <r>    15.8438     0.0064    15.9999 </r>
       <r>    15.9291     0.0013    16.0000 </r>
       <r>    16.0144     0.0002    16.0000 </r>
       <r>    16.0998     0.0000    16.0000 </r>
       <r>    16.1851     0.0000    16.0000 </r>
       <r>    16.2704     0.0000    16.0000 </r>
       <r>    16.3558     0.0000    16.0000 </r>
       <r>    16.4411     0.0000    16.0000 </r>
       <r>    16.5265     0.0000    16.0000 </r>
       <r>    16.6118     0.0000    16.0000 </r>
       <r>    16.6971     0.0000    16.0000 </r>
       <r>    16.7825     0.0000    16.0000 </r>
       <r>    16.8678     0.0000    16.0000 </r>
       <r>    16.9531     0.0000    16.0000 </r>
       <r>    17.0385     0.0000    16.0000 </r>
       <r>    17.1238     0.0000    16.0000 </r>
       <r>    17.2091     0.0000    16.0000 </r>
       <r>    17.2945     0.0000    16.0000 </r>
       <r>    17.3798     0.0000    16.0000 </r>
       <r>    17.4651     0.0000    16.0000 </r>
      </set>
     </set>
    </array>
   </total>
  </dos>
 </calculation>
 <structure name="finalpos" >
  <crystal>
   <varray name="basis" >
    <v>       0.00000000       2.71500000       2.71500000 </v>
    <v>       2.71500000       0.00000000       2.71500000 </v>
    <v>       2.71500000       2.71500000       0.00000000 </v>
   </varray>
   <i name="volume">     40.02575175 </i>
   <varray name="rec_basis" >
    <v>      -0.18416206       0.18416206       0.18416206 </v>
    <v>       0.18416206      -0.18416206       0.18416206 </v>
    <v>       0.18416206       0.18416206      -0.18416206 </v>
   </varray>
  </crystal>
  <varray name="positions" >
   <v>       0.50000000       0.50000000       0.50000000 </v>
   <v>       0.75000000       0.75000000       0.75000000 </v>
  </varray>
 </structure>
</modeling>
