   2   2   0   0
  0.1529437E+02  0.3691622E-09  0.3691622E-09  0.3691622E-09  0.5000000E-15
  1.000000000000000E-004
  CAR 
 unknown system                          
     22.28317572     -6.61772782  301      9.14645420      1.00000000
     -6.618  0.0000E+00  0.0000E+00
     -6.521  0.0000E+00  0.0000E+00
     -6.425  0.0000E+00  0.0000E+00
     -6.329  0.0000E+00  0.0000E+00
     -6.232  0.0000E+00  0.0000E+00
     -6.136  0.0000E+00  0.0000E+00
     -6.040  0.0000E+00  0.0000E+00
     -5.943  0.0000E+00  0.0000E+00
     -5.847  0.0000E+00  0.0000E+00
     -5.751  0.6146E-17  0.5921E-18
     -5.654  0.1267E-14  0.1226E-15
     -5.558  0.1622E-12  0.1575E-13
     -5.462  0.1316E-10  0.1283E-11
     -5.365  0.6768E-09  0.6649E-10
     -5.269  0.2211E-07  0.2196E-08
     -5.173  0.4591E-06  0.4642E-07
     -5.076  0.6068E-05  0.6310E-06
     -4.980  0.5111E-04  0.5555E-05
     -4.884  0.2747E-03  0.3202E-04
     -4.787  0.9433E-03  0.1229E-03
     -4.691  0.2073E-02  0.3226E-03
     -4.595  0.2935E-02  0.6053E-03
     -4.498  0.2841E-02  0.8791E-03
     -4.402  0.2699E-02  0.1139E-02
     -4.306  0.4554E-02  0.1578E-02
     -4.209  0.8688E-02  0.2415E-02
     -4.113  0.1176E-01  0.3547E-02
     -4.017  0.1052E-01  0.4561E-02
     -3.920  0.7196E-02  0.5254E-02
     -3.824  0.7142E-02  0.5942E-02
     -3.728  0.1279E-01  0.7175E-02
     -3.631  0.2189E-01  0.9283E-02
     -3.535  0.2914E-01  0.1209E-01
     -3.439  0.2892E-01  0.1488E-01
     -3.342  0.2035E-01  0.1684E-01
     -3.246  0.9709E-02  0.1777E-01
     -3.150  0.3098E-02  0.1807E-01
     -3.053  0.1026E-02  0.1817E-01
     -2.957  0.2137E-02  0.1838E-01
     -2.861  0.7216E-02  0.1907E-01
     -2.764  0.1848E-01  0.2085E-01
     -2.668  0.3576E-01  0.2430E-01
     -2.572  0.5185E-01  0.2929E-01
     -2.475  0.5573E-01  0.3466E-01
     -2.379  0.4718E-01  0.3920E-01
     -2.283  0.3674E-01  0.4274E-01
     -2.186  0.2766E-01  0.4541E-01
     -2.090  0.1707E-01  0.4705E-01
     -1.994  0.7671E-02  0.4779E-01
     -1.897  0.3910E-02  0.4817E-01
     -1.801  0.7013E-02  0.4885E-01
     -1.705  0.1544E-01  0.5033E-01
     -1.608  0.2285E-01  0.5253E-01
     -1.512  0.2173E-01  0.5463E-01
     -1.416  0.1340E-01  0.5592E-01
     -1.319  0.6143E-02  0.5651E-01
     -1.223  0.4572E-02  0.5695E-01
     -1.127  0.7829E-02  0.5770E-01
     -1.030  0.1369E-01  0.5902E-01
     -0.934  0.2185E-01  0.6113E-01
     -0.838  0.3575E-01  0.6457E-01
     -0.741  0.5687E-01  0.7005E-01
     -0.645  0.7309E-01  0.7709E-01
     -0.549  0.6846E-01  0.8369E-01
     -0.452  0.4845E-01  0.8836E-01
     -0.356  0.3257E-01  0.9149E-01
     -0.260  0.2956E-01  0.9434E-01
     -0.163  0.3582E-01  0.9779E-01
     -0.067  0.4520E-01  0.1021E+00
      0.029  0.5510E-01  0.1075E+00
      0.126  0.6324E-01  0.1135E+00
      0.222  0.6162E-01  0.1195E+00
      0.318  0.4527E-01  0.1238E+00
      0.415  0.2433E-01  0.1262E+00
      0.511  0.1394E-01  0.1275E+00
      0.607  0.1843E-01  0.1293E+00
      0.704  0.2973E-01  0.1322E+00
      0.800  0.3451E-01  0.1355E+00
      0.897  0.2821E-01  0.1382E+00
      0.993  0.2230E-01  0.1404E+00
      1.089  0.3017E-01  0.1433E+00
      1.186  0.4808E-01  0.1479E+00
      1.282  0.5651E-01  0.1533E+00
      1.378  0.4483E-01  0.1577E+00
      1.475  0.2400E-01  0.1600E+00
      1.571  0.8846E-02  0.1608E+00
      1.667  0.2989E-02  0.1611E+00
      1.764  0.4728E-02  0.1616E+00
      1.860  0.1519E-01  0.1630E+00
      1.956  0.3419E-01  0.1663E+00
      2.053  0.5160E-01  0.1713E+00
      2.149  0.5609E-01  0.1767E+00
      2.245  0.5157E-01  0.1817E+00
      2.342  0.4957E-01  0.1864E+00
      2.438  0.5308E-01  0.1916E+00
      2.534  0.5481E-01  0.1968E+00
      2.631  0.4762E-01  0.2014E+00
      2.727  0.3502E-01  0.2048E+00
      2.823  0.2616E-01  0.2073E+00
      2.920  0.2628E-01  0.2099E+00
      3.016  0.3318E-01  0.2130E+00
      3.112  0.3934E-01  0.2168E+00
      3.209  0.4451E-01  0.2211E+00
      3.305  0.5718E-01  0.2266E+00
      3.401  0.7177E-01  0.2335E+00
      3.498  0.6765E-01  0.2401E+00
      3.594  0.4298E-01  0.2442E+00
      3.690  0.1914E-01  0.2460E+00
      3.787  0.1111E-01  0.2471E+00
      3.883  0.1821E-01  0.2489E+00
      3.979  0.3239E-01  0.2520E+00
      4.076  0.4439E-01  0.2563E+00
      4.172  0.5132E-01  0.2612E+00
      4.268  0.5730E-01  0.2667E+00
      4.365  0.6410E-01  0.2729E+00
      4.461  0.6567E-01  0.2792E+00
      4.557  0.5408E-01  0.2844E+00
      4.654  0.3361E-01  0.2877E+00
      4.750  0.2103E-01  0.2897E+00
      4.846  0.2883E-01  0.2925E+00
      4.943  0.5564E-01  0.2978E+00
      5.039  0.8701E-01  0.3062E+00
      5.135  0.1014E+00  0.3160E+00
      5.232  0.8565E-01  0.3242E+00
      5.328  0.5080E-01  0.3291E+00
      5.424  0.2089E-01  0.3312E+00
      5.521  0.7877E-02  0.3319E+00
      5.617  0.9421E-02  0.3328E+00
      5.713  0.2061E-01  0.3348E+00
      5.810  0.3757E-01  0.3384E+00
      5.906  0.5881E-01  0.3441E+00
      6.002  0.8283E-01  0.3521E+00
      6.099  0.9990E-01  0.3617E+00
      6.195  0.9804E-01  0.3711E+00
      6.291  0.7709E-01  0.3786E+00
      6.388  0.4870E-01  0.3833E+00
      6.484  0.2869E-01  0.3860E+00
      6.580  0.2999E-01  0.3889E+00
      6.677  0.5308E-01  0.3940E+00
      6.773  0.8078E-01  0.4018E+00
      6.869  0.9195E-01  0.4107E+00
      6.966  0.8324E-01  0.4187E+00
      7.062  0.7030E-01  0.4255E+00
      7.158  0.6774E-01  0.4320E+00
      7.255  0.7009E-01  0.4387E+00
      7.351  0.6159E-01  0.4447E+00
      7.447  0.4467E-01  0.4490E+00
      7.544  0.4064E-01  0.4529E+00
      7.640  0.5847E-01  0.4585E+00
      7.736  0.7658E-01  0.4659E+00
      7.833  0.7005E-01  0.4726E+00
      7.929  0.4647E-01  0.4771E+00
      8.025  0.2952E-01  0.4800E+00
      8.122  0.2542E-01  0.4824E+00
      8.218  0.3036E-01  0.4853E+00
      8.314  0.4542E-01  0.4897E+00
      8.411  0.6392E-01  0.4959E+00
      8.507  0.6681E-01  0.5023E+00
      8.603  0.4827E-01  0.5070E+00
      8.700  0.2685E-01  0.5095E+00
      8.796  0.2294E-01  0.5117E+00
      8.892  0.4036E-01  0.5156E+00
      8.989  0.6482E-01  0.5219E+00
      9.085  0.7510E-01  0.5291E+00
      9.181  0.6587E-01  0.5355E+00
      9.278  0.5023E-01  0.5403E+00
      9.374  0.3846E-01  0.5440E+00
      9.470  0.3368E-01  0.5473E+00
      9.567  0.3730E-01  0.5508E+00
      9.663  0.4435E-01  0.5551E+00
      9.759  0.4765E-01  0.5597E+00
      9.856  0.4818E-01  0.5644E+00
      9.952  0.4999E-01  0.5692E+00
     10.048  0.5081E-01  0.5741E+00
     10.145  0.4923E-01  0.5788E+00
     10.241  0.5071E-01  0.5837E+00
     10.337  0.5820E-01  0.5893E+00
     10.434  0.6529E-01  0.5956E+00
     10.530  0.6299E-01  0.6017E+00
     10.626  0.5183E-01  0.6066E+00
     10.723  0.4015E-01  0.6105E+00
     10.819  0.3764E-01  0.6141E+00
     10.915  0.5399E-01  0.6193E+00
     11.012  0.8315E-01  0.6274E+00
     11.108  0.9872E-01  0.6369E+00
     11.204  0.9039E-01  0.6456E+00
     11.301  0.7834E-01  0.6531E+00
     11.397  0.7307E-01  0.6602E+00
     11.494  0.6251E-01  0.6662E+00
     11.590  0.4338E-01  0.6704E+00
     11.686  0.2799E-01  0.6731E+00
     11.783  0.2475E-01  0.6754E+00
     11.879  0.2962E-01  0.6783E+00
     11.975  0.3683E-01  0.6818E+00
     12.072  0.4957E-01  0.6866E+00
     12.168  0.7002E-01  0.6934E+00
     12.264  0.8744E-01  0.7018E+00
     12.361  0.8842E-01  0.7103E+00
     12.457  0.7562E-01  0.7176E+00
     12.553  0.6580E-01  0.7239E+00
     12.650  0.6533E-01  0.7302E+00
     12.746  0.6356E-01  0.7363E+00
     12.842  0.5470E-01  0.7416E+00
     12.939  0.4765E-01  0.7462E+00
     13.035  0.5242E-01  0.7513E+00
     13.131  0.6525E-01  0.7575E+00
     13.228  0.7424E-01  0.7647E+00
     13.324  0.7853E-01  0.7723E+00
     13.420  0.8736E-01  0.7807E+00
     13.517  0.1008E+00  0.7904E+00
     13.613  0.1078E+00  0.8008E+00
     13.709  0.1062E+00  0.8110E+00
     13.806  0.1104E+00  0.8216E+00
     13.902  0.1261E+00  0.8338E+00
     13.998  0.1325E+00  0.8465E+00
     14.095  0.1114E+00  0.8573E+00
     14.191  0.7790E-01  0.8648E+00
     14.287  0.5824E-01  0.8704E+00
     14.384  0.5447E-01  0.8756E+00
     14.480  0.5017E-01  0.8805E+00
     14.576  0.3596E-01  0.8839E+00
     14.673  0.1840E-01  0.8857E+00
     14.769  0.7760E-02  0.8865E+00
     14.865  0.6388E-02  0.8871E+00
     14.962  0.9872E-02  0.8880E+00
     15.058  0.1213E-01  0.8892E+00
     15.154  0.1131E-01  0.8903E+00
     15.251  0.1356E-01  0.8916E+00
     15.347  0.2698E-01  0.8942E+00
     15.443  0.4930E-01  0.8989E+00
     15.540  0.6517E-01  0.9052E+00
     15.636  0.6400E-01  0.9114E+00
     15.732  0.5591E-01  0.9168E+00
     15.829  0.5672E-01  0.9222E+00
     15.925  0.6658E-01  0.9286E+00
     16.021  0.8124E-01  0.9365E+00
     16.118  0.1034E+00  0.9464E+00
     16.214  0.1227E+00  0.9583E+00
     16.310  0.1167E+00  0.9695E+00
     16.407  0.8382E-01  0.9776E+00
     16.503  0.4582E-01  0.9820E+00
     16.599  0.2015E-01  0.9839E+00
     16.696  0.8411E-02  0.9847E+00
     16.792  0.4591E-02  0.9852E+00
     16.888  0.3871E-02  0.9855E+00
     16.985  0.6209E-02  0.9861E+00
     17.081  0.1355E-01  0.9875E+00
     17.177  0.2325E-01  0.9897E+00
     17.274  0.2833E-01  0.9924E+00
     17.370  0.2823E-01  0.9951E+00
     17.466  0.3115E-01  0.9981E+00
     17.563  0.4004E-01  0.1002E+01
     17.659  0.4701E-01  0.1007E+01
     17.755  0.4666E-01  0.1011E+01
     17.852  0.4356E-01  0.1015E+01
     17.948  0.4464E-01  0.1020E+01
     18.044  0.5003E-01  0.1024E+01
     18.141  0.5060E-01  0.1029E+01
     18.237  0.4230E-01  0.1033E+01
     18.333  0.3464E-01  0.1037E+01
     18.430  0.3283E-01  0.1040E+01
     18.526  0.2937E-01  0.1043E+01
     18.622  0.2105E-01  0.1045E+01
     18.719  0.1538E-01  0.1046E+01
     18.815  0.1683E-01  0.1048E+01
     18.911  0.2061E-01  0.1050E+01
     19.008  0.2084E-01  0.1052E+01
     19.104  0.1776E-01  0.1053E+01
     19.200  0.1554E-01  0.1055E+01
     19.297  0.1540E-01  0.1056E+01
     19.393  0.1540E-01  0.1058E+01
     19.489  0.1510E-01  0.1059E+01
     19.586  0.1392E-01  0.1061E+01
     19.682  0.1019E-01  0.1062E+01
     19.778  0.5185E-02  0.1062E+01
     19.875  0.1803E-02  0.1062E+01
     19.971  0.8892E-03  0.1062E+01
     20.067  0.2261E-02  0.1063E+01
     20.164  0.6014E-02  0.1063E+01
     20.260  0.1045E-01  0.1064E+01
     20.356  0.1163E-01  0.1065E+01
     20.453  0.8281E-02  0.1066E+01
     20.549  0.3773E-02  0.1067E+01
     20.645  0.1099E-02  0.1067E+01
     20.742  0.2044E-03  0.1067E+01
     20.838  0.2427E-04  0.1067E+01
     20.934  0.1836E-05  0.1067E+01
     21.031  0.8844E-07  0.1067E+01
     21.127  0.2707E-08  0.1067E+01
     21.223  0.5262E-10  0.1067E+01
     21.320  0.6487E-12  0.1067E+01
     21.416  0.5070E-14  0.1067E+01
     21.512  0.2459E-16  0.1067E+01
     21.609  0.0000E+00  0.1067E+01
     21.705  0.0000E+00  0.1067E+01
     21.801  0.0000E+00  0.1067E+01
     21.898  0.0000E+00  0.1067E+01
     21.994  0.0000E+00  0.1067E+01
     22.091  0.0000E+00  0.1067E+01
     22.187  0.0000E+00  0.1067E+01
     22.283  0.0000E+00  0.1067E+01
