    2    2   15    1
  0.1529437E+02  0.3691622E-09  0.3691622E-09  0.3691622E-09  0.5000000E-15
  1.000000000000000E-004
  CAR 
 unknown system                          
      8     18      8
 
  0.0000000E+00  0.0000000E+00  0.0000000E+00  0.8000000E-02
    1       -4.673809   1.000000
    2        5.470335   1.000000
    3        5.983287   1.000000
    4        5.983288   1.000000
    5       10.310175   0.000000
    6       16.457863   0.000000
    7       16.685180   0.000000
    8       16.685182   0.000000
 
  0.2000000E+00  0.1244391E-16 -0.1244391E-16  0.6400000E-01
    1       -3.513106   1.000000
    2        4.601167   1.000000
    3        6.068641   1.000000
    4        8.821442   0.877613
    5       12.393469   0.000000
    6       13.083776   0.000000
    7       13.316604   0.000000
    8       15.313978   0.000000
 
  0.4000000E+00  0.2488782E-16 -0.2488782E-16  0.6400000E-01
    1       -0.081235   1.000000
    2        5.388334   1.000000
    3        5.719423   1.000000
    4        7.275104   1.000000
    5        8.910544   0.703015
    6       11.500138   0.000000
    7       13.393964   0.000000
    8       14.022707   0.000000
 
  0.2000000E+00  0.2000000E+00 -0.2488782E-16  0.6400000E-01
    1       -0.526877   1.000000
    2        5.845006   1.000000
    3        6.996016   1.000000
    4        7.007710   1.000000
    5        9.619582   0.000004
    6       11.590671   0.000000
    7       12.407222   0.000000
    8       12.599799   0.000000
 
  0.4000000E+00  0.2000000E+00 -0.9576153E-17  0.1280000E+00
    1        1.239570   1.000000
    2        3.352974   1.000000
    3        4.655578   1.000000
    4        7.652541   1.000000
    5        8.955821   0.584311
    6       10.863682   0.000000
    7       13.801771   0.000000
    8       15.913488   0.000000
 
 -0.4000000E+00  0.2000000E+00  0.2251918E-16  0.1280000E+00
    1       -2.603828   1.000000
    2        1.791888   1.000000
    3        6.476655   1.000000
    4       10.298285   0.000000
    5       10.691968   0.000000
    6       12.282809   0.000000
    7       14.204029   0.000000
    8       15.401848   0.000000
 
 -0.2000000E+00  0.2000000E+00  0.2101777E-17  0.3200000E-01
    1       -4.214912   1.000000
    2        2.394598   1.000000
    3        6.413262   1.000000
    4        7.814735   1.000000
    5       12.776996   0.000000
    6       12.815972   0.000000
    7       14.344211   0.000000
    8       20.010839   0.000000
 
  0.4000000E+00  0.4000000E+00 -0.4977564E-16  0.6400000E-01
    1       -0.810424   1.000000
    2       -0.808356   1.000000
    3        8.104431   1.000000
    4        8.180810   1.000000
    5       10.858636   0.000000
    6       12.644165   0.000000
    7       13.705341   0.000000
    8       13.910802   0.000000
 
 -0.4000000E+00  0.4000000E+00  0.4203554E-17  0.3200000E-01
    1       -2.848246   1.000000
    2       -0.610175   1.000000
    3        7.702063   1.000000
    4        9.391769   0.002054
    5        9.842963   0.000000
    6       11.569674   0.000000
    7       17.670833   0.000000
    8       19.597174   0.000000
 
  0.2000000E+00  0.2000000E+00  0.2000000E+00  0.6400000E-01
    1        0.809877   1.000000
    2        2.987995   1.000000
    3        6.276138   1.000000
    4        6.282105   1.000000
    5       11.134274   0.000000
    6       12.740082   0.000000
    7       13.659111   0.000000
    8       14.188432   0.000000
 
 -0.2000000E+00  0.2000000E+00  0.2000000E+00  0.3200000E-01
    1       -3.759596   1.000000
    2        2.163382   1.000000
    3        4.003506   1.000000
    4        9.762629   0.000000
    5       10.806776   0.000000
    6       14.065172   0.000000
    7       17.433903   0.000000
    8       17.760926   0.000000
 
 -0.4000000E+00  0.4000000E+00  0.2000000E+00  0.6400000E-01
    1       -2.407408   1.000000
    2       -0.225081   1.000000
    3        4.664256   1.000000
    4        6.786165   1.000000
    5       12.990904   0.000000
    6       15.122097   0.000000
    7       18.087643   0.000000
    8       18.578443   0.000000
 
 -0.2000000E+00  0.4000000E+00  0.2000000E+00  0.6400000E-01
    1       -1.712444   1.000000
    2        1.935610   1.000000
    3        3.878298   1.000000
    4        7.420381   1.000000
    5       10.395569   0.000000
    6       14.918146   0.000000
    7       16.331089   0.000000
    8       17.278807   0.000000
 
 -0.4000000E+00 -0.4000000E+00  0.2000000E+00  0.6400000E-01
    1        0.008524   1.000000
    2        0.014647   1.000000
    3        4.908463   1.000000
    4        4.915021   1.000000
    5       10.052505   0.000000
    6       16.277024   0.000000
    7       17.073529   0.000000
    8       17.796305   0.000000
 
 -0.2000000E+00 -0.4000000E+00  0.2000000E+00  0.6400000E-01
    1        2.471788   1.000000
    2        3.645015   1.000000
    3        4.099040   1.000000
    4        5.838269   1.000000
    5        7.204411   1.000000
    6       11.966724   0.000000
    7       13.515223   0.000000
    8       15.892167   0.000000
 
 -0.2000000E+00 -0.2000000E+00  0.2000000E+00  0.1600000E-01
    1       -0.976391   1.000000
    2        7.535978   1.000000
    3        8.069872   1.000000
    4        8.525167   0.999439
    5        8.525167   0.999439
    6        9.817533   0.000000
    7       11.494058   0.000000
    8       11.494061   0.000000
 
 -0.4000000E+00  0.4000000E+00  0.4000000E+00  0.3200000E-01
    1       -1.130952   1.000000
    2        0.342531   1.000000
    3        2.378971   1.000000
    4        3.831454   1.000000
    5       16.290746   0.000000
    6       17.088599   0.000000
    7       18.756665   0.000000
    8       19.464461   0.000000
 
 -0.4000000E+00 -0.4000000E+00  0.4000000E+00  0.1600000E-01
    1        1.022460   1.000000
    2        1.032367   1.000000
    3        3.049784   1.000000
    4        3.049784   1.000000
    5        9.677153   0.000001
    6       18.167024   0.000000
    7       19.565709   0.000000
    8       19.565713   0.000000
