       N       E                     dE             d eps       ncg     rms          rms(c)
DAV:   1     0.162853611559E+01    0.16285E+01   -0.28783E+03   288   0.581E+02
DAV:   2    -0.101419627106E+02   -0.11770E+02   -0.11285E+02   424   0.679E+01
DAV:   3    -0.102614182452E+02   -0.11946E+00   -0.11875E+00   400   0.825E+00
DAV:   4    -0.102617244931E+02   -0.30625E-03   -0.30624E-03   424   0.448E-01
DAV:   5    -0.102617248486E+02   -0.35550E-06   -0.35631E-06   432   0.831E-03    0.146E+00
DAV:   6    -0.102570130118E+02    0.47118E-02   -0.18429E-03   344   0.328E-01    0.914E-01
DAV:   7    -0.102531959256E+02    0.38171E-02   -0.53657E-03   368   0.572E-01    0.338E-02
DAV:   8    -0.102531785650E+02    0.17361E-04   -0.91173E-05   232   0.802E-02
   1 F= -.10253179E+02 E0= -.10243594E+02  d E =-.102532E+02
