unknown system                          
           1
    -2.450000    2.450000    1.274000
     2.450000   -2.450000    1.274000
     2.450000    2.450000   -1.274000
   Si
   2
Direct configuration=     1
   0.25000000  0.75000000  0.50000000
   0.00000000  0.00000000  0.00000000
unknown system                          
           1
    -2.481760    2.481760    1.251561
     2.481760   -2.481760    1.251561
     2.481760    2.481760   -1.251561
   Si
   2
Direct configuration=     2
   0.25000000  0.75000000  0.50000000
   0.00000000  0.00000000  0.00000000
unknown system                          
           1
    -2.488764    2.488764    1.246613
     2.488764   -2.488764    1.246613
     2.488764    2.488764   -1.246613
   Si
   2
Direct configuration=     3
   0.25000000  0.75000000  0.50000000
   0.00000000  0.00000000  0.00000000
unknown system                          
           1
    -2.490142    2.490142    1.245639
     2.490142   -2.490142    1.245639
     2.490142    2.490142   -1.245639
   Si
   2
Direct configuration=     4
   0.25000000  0.75000000  0.50000000
   0.00000000  0.00000000  0.00000000
unknown system                          
           1
    -2.491584    2.491584    1.244620
     2.491584   -2.491584    1.244620
     2.491584    2.491584   -1.244620
   Si
   2
Direct configuration=     5
   0.25000000  0.75000000  0.50000000
   0.00000000  0.00000000  0.00000000
unknown system                          
           1
    -2.490705    2.490705    1.245242
     2.490705   -2.490705    1.245242
     2.490705    2.490705   -1.245242
   Si
   2
Direct configuration=     6
   0.25000000  0.75000000  0.50000000
   0.00000000  0.00000000  0.00000000
unknown system                          
           1
    -2.490347    2.490347    1.245495
     2.490347   -2.490347    1.245495
     2.490347    2.490347   -1.245495
   Si
   2
Direct configuration=     7
   0.25000000  0.75000000  0.50000000
   0.00000000  0.00000000  0.00000000
unknown system                          
           1
    -2.490268    2.490268    1.245550
     2.490268   -2.490268    1.245550
     2.490268    2.490268   -1.245550
   Si
   2
Direct configuration=     8
   0.25000000  0.75000000  0.50000000
   0.00000000  0.00000000  0.00000000
unknown system                          
           1
    -2.490213    2.490213    1.245589
     2.490213   -2.490213    1.245589
     2.490213    2.490213   -1.245589
   Si
   2
Direct configuration=     9
   0.25000000  0.75000000  0.50000000
   0.00000000  0.00000000  0.00000000
unknown system                          
           1
    -2.490177    2.490177    1.245614
     2.490177   -2.490177    1.245614
     2.490177    2.490177   -1.245614
   Si
   2
Direct configuration=    10
   0.25000000  0.75000000  0.50000000
   0.00000000  0.00000000  0.00000000
unknown system                          
           1
    -2.490159    2.490159    1.245627
     2.490159   -2.490159    1.245627
     2.490159    2.490159   -1.245627
   Si
   2
Direct configuration=    11
   0.25000000  0.75000000  0.50000000
   0.00000000  0.00000000  0.00000000
unknown system                          
           1
    -2.490151    2.490151    1.245633
     2.490151   -2.490151    1.245633
     2.490151    2.490151   -1.245633
   Si
   2
Direct configuration=    12
   0.25000000  0.75000000  0.50000000
   0.00000000  0.00000000  0.00000000
unknown system                          
           1
    -2.490146    2.490146    1.245636
     2.490146   -2.490146    1.245636
     2.490146    2.490146   -1.245636
   Si
   2
Direct configuration=    13
   0.25000000  0.75000000  0.50000000
   0.00000000  0.00000000  0.00000000
unknown system                          
           1
    -2.490144    2.490144    1.245638
     2.490144   -2.490144    1.245638
     2.490144    2.490144   -1.245638
   Si
   2
Direct configuration=    14
   0.25000000  0.75000000  0.50000000
   0.00000000  0.00000000  0.00000000
unknown system                          
           1
    -2.490143    2.490143    1.245639
     2.490143   -2.490143    1.245639
     2.490143    2.490143   -1.245639
   Si
   2
Direct configuration=    15
   0.25000000  0.75000000  0.50000000
   0.00000000  0.00000000  0.00000000
