 vasp.5.4.4.18Apr17-6-g9f103f2a35 (build Dec 09 2018 21:25:21) complex          
  
 executed on IFC18.0.1.163_CrayMP date 2019.03.19  13:14:28
 running on    8 total cores
 distrk:  each k-point on    8 cores,    1 groups
 distr:  one band on NCORES_PER_BAND=   1 cores,    8 groups


--------------------------------------------------------------------------------------------------------


 INCAR:
 POTCAR:   PAW_PBE Si 05Jan2001                   

 ----------------------------------------------------------------------------- 
|                                                                             |
|           W    W    AA    RRRRR   N    N  II  N    N   GGGG   !!!           |
|           W    W   A  A   R    R  NN   N  II  NN   N  G    G  !!!           |
|           W    W  A    A  R    R  N N  N  II  N N  N  G       !!!           |
|           W WW W  AAAAAA  RRRRR   N  N N  II  N  N N  G  GGG   !            |
|           WW  WW  A    A  R   R   N   NN  II  N   NN  G    G                |
|           W    W  A    A  R    R  N    N  II  N    N   GGGG   !!!           |
|                                                                             |
|      For optimal performance we recommend to set                            |
|        NCORE= 4 - approx SQRT( number of cores)                             |
|      NCORE specifies how many cores store one orbital (NPAR=cpu/NCORE).     |
|      This setting can  greatly improve the performance of VASP for DFT.     |
|      The default,   NCORE=1            might be grossly inefficient         |
|      on modern multi-core architectures or massively parallel machines.     |
|      Do your own testing !!!!                                               |
|      Unfortunately you need to use the default for GW and RPA calculations. |
|      (for HF NCORE is supported but not extensively tested yet)             |
|                                                                             |
 ----------------------------------------------------------------------------- 

 POTCAR:   PAW_PBE Si 05Jan2001                   
   VRHFIN =Si: s2p2                                                             
   LEXCH  = PE                                                                  
   EATOM  =   103.0669 eV,    7.5752 Ry                                         
                                                                                
   TITEL  = PAW_PBE Si 05Jan2001                                                
   LULTRA =        F    use ultrasoft PP ?                                      
   IUNSCR =        1    unscreen: 0-lin 1-nonlin 2-no                           
   RPACOR =    1.500    partial core radius                                     
   POMASS =   28.085; ZVAL   =    4.000    mass and valenz                      
   RCORE  =    1.900    outmost cutoff radius                                   
   RWIGS  =    2.480; RWIGS  =    1.312    wigner-seitz radius (au A)           
   ENMAX  =  245.345; ENMIN  =  184.009 eV                                      
   ICORE  =        2    local potential                                         
   LCOR   =        T    correct aug charges                                     
   LPAW   =        T    paw PP                                                  
   EAUG   =  322.069                                                            
   DEXC   =    -.007                                                            
   RMAX   =    2.944    core radius for proj-oper                               
   RAUG   =    1.300    factor for augmentation sphere                          
   RDEP   =    1.993    radius for radial grids                                 
   QCUT   =   -4.246; QGAM   =    8.493    optimization parameters              
                                                                                
   Description                                                                  
     l     E      TYP  RCUT    TYP  RCUT                                        
     0   .000     23  1.900                                                     
     0   .000     23  1.900                                                     
     1   .000     23  1.900                                                     
     1   .000     23  1.900                                                     
     2   .000      7  1.900                                                     
  local pseudopotential read in
  partial core-charges read in
  atomic valenz-charges read in
  non local Contribution for L=           0  read in
    real space projection operators read in
  non local Contribution for L=           0  read in
    real space projection operators read in
  non local Contribution for L=           1  read in
    real space projection operators read in
  non local Contribution for L=           1  read in
    real space projection operators read in
    PAW grid and wavefunctions read in
 
   number of l-projection  operators is LMAX  =           4
   number of lm-projection operators is LMMAX =           8
 
 PAW_PBE Si 05Jan2001                   :
 energy of atom  1       EATOM= -103.0669
 kinetic energy error for atom=    0.0052 (will be added to EATOM!!)
 
 
 POSCAR: Si2                                     
  positions in direct lattice
  No initial velocities read in
 exchange correlation table for  LEXCH =        8
   RHO(1)=    0.500       N(1)  =     2000
   RHO(2)=  100.500       N(2)  =     4000
 


--------------------------------------------------------------------------------------------------------


 ion  position               nearest neighbor table
   1  0.250  0.750  0.500-   2 2.53   2 2.53   2 2.53   2 2.53   2 3.11   2 3.11   2 3.11   2 3.11

   2  0.000  0.000  0.000-   1 2.53   1 2.53   1 2.53   1 2.53   1 3.11   1 3.11   1 3.11   1 3.11

 
  LATTYP: Found a body centered tetragonal cell.
 ALAT       =     4.9000000000
 C/A-ratio  =     0.5200000000
  
  Lattice vectors:
  
 A1 = (  -2.4500000000,   2.4500000000,   1.2740000000)
 A2 = (   2.4500000000,  -2.4500000000,   1.2740000000)
 A3 = (   2.4500000000,   2.4500000000,  -1.2740000000)


Analysis of symmetry for initial positions (statically):
=====================================================================
 Subroutine PRICEL returns:
 Original cell was already a primitive cell.
 

 Routine SETGRP: Setting up the symmetry group for a 
 body centered tetragonal supercell.


 Subroutine GETGRP returns: Found 16 space group operations
 (whereof  8 operations were pure point group operations)
 out of a pool of 16 trial point group operations.


The static configuration has the point symmetry D_2d.
 The point group associated with its full space group is D_4h.


Analysis of symmetry for dynamics (positions and initial velocities):
=====================================================================
 Subroutine PRICEL returns:
 Original cell was already a primitive cell.
 

 Routine SETGRP: Setting up the symmetry group for a 
 body centered tetragonal supercell.


 Subroutine GETGRP returns: Found 16 space group operations
 (whereof  8 operations were pure point group operations)
 out of a pool of 16 trial point group operations.


The dynamic configuration has the point symmetry D_2d.
 The point group associated with its full space group is D_4h.


 Subroutine INISYM returns: Found 16 space group operations
 (whereof  8 operations are pure point group operations),
 and found     1 'primitive' translations

 
 
 KPOINTS: Automatic kpoint scheme                 

Automatic generation of k-mesh.
Space group operators:
 irot       det(A)        alpha          n_x          n_y          n_z        tau_x        tau_y        tau_z
    1     1.000000     0.000000     1.000000     0.000000     0.000000     0.000000     0.000000     0.000000
    2    -1.000000    90.000000    -0.000000    -0.000000    -1.000000     0.000000     0.000000     0.000000
    3     1.000000   180.000000    -0.000000    -0.000000    -1.000000     0.000000     0.000000     0.000000
    4    -1.000000    90.000000    -0.000000     0.000000     1.000000     0.000000     0.000000     0.000000
    5    -1.000000   180.000000     0.000000    -1.000000     0.000000     0.000000     0.000000     0.000000
    6     1.000000   180.000000     0.707107     0.707107    -0.000000     0.000000     0.000000     0.000000
    7    -1.000000   180.000000     1.000000     0.000000     0.000000     0.000000     0.000000     0.000000
    8     1.000000   180.000000     0.707107    -0.707107     0.000000     0.000000     0.000000     0.000000
    9    -1.000000     0.000000     1.000000     0.000000     0.000000     0.250000     0.750000     0.500000
   10     1.000000    90.000000    -0.000000    -0.000000    -1.000000     0.250000     0.750000     0.500000
   11    -1.000000   180.000000    -0.000000    -0.000000    -1.000000     0.250000     0.750000     0.500000
   12     1.000000    90.000000    -0.000000     0.000000     1.000000     0.250000     0.750000     0.500000
   13     1.000000   180.000000     0.000000    -1.000000     0.000000     0.250000     0.750000     0.500000
   14    -1.000000   180.000000     0.707107     0.707107    -0.000000     0.250000     0.750000     0.500000
   15     1.000000   180.000000     1.000000     0.000000     0.000000     0.250000     0.750000     0.500000
   16    -1.000000   180.000000     0.707107    -0.707107     0.000000     0.250000     0.750000     0.500000
 
 Subroutine IBZKPT returns following result:
 ===========================================
 
 Found     56 irreducible k-points:
 
 Following reciprocal coordinates:
            Coordinates               Weight
  0.062500  0.062500  0.062500    128.000000
  0.187500  0.062500  0.062500    256.000000
  0.312500  0.062500  0.062500    256.000000
  0.437500  0.062500  0.062500    128.000000
 -0.062500  0.062500  0.062500     64.000000
  0.187500  0.187500  0.062500    128.000000
  0.312500  0.187500  0.062500    256.000000
  0.437500  0.187500  0.062500    256.000000
 -0.437500  0.187500  0.062500    256.000000
 -0.312500  0.187500  0.062500    128.000000
 -0.187500  0.187500  0.062500    128.000000
 -0.062500  0.187500  0.062500    128.000000
  0.312500  0.312500  0.062500    128.000000
  0.437500  0.312500  0.062500    256.000000
 -0.437500  0.312500  0.062500    128.000000
 -0.312500  0.312500  0.062500    128.000000
 -0.187500  0.312500  0.062500    256.000000
 -0.062500  0.312500  0.062500    128.000000
  0.437500  0.437500  0.062500     64.000000
 -0.437500  0.437500  0.062500    128.000000
 -0.312500  0.437500  0.062500    256.000000
 -0.187500  0.437500  0.062500    256.000000
 -0.062500  0.437500  0.062500    128.000000
 -0.437500 -0.437500  0.062500    128.000000
 -0.312500 -0.437500  0.062500    256.000000
 -0.187500 -0.437500  0.062500    256.000000
 -0.062500 -0.437500  0.062500    128.000000
 -0.312500 -0.312500  0.062500    128.000000
 -0.187500 -0.312500  0.062500    256.000000
 -0.062500 -0.312500  0.062500    128.000000
 -0.187500 -0.187500  0.062500    128.000000
 -0.062500 -0.187500  0.062500    128.000000
 -0.062500 -0.062500  0.062500     32.000000
  0.187500  0.187500  0.187500    128.000000
  0.312500  0.187500  0.187500    128.000000
 -0.187500  0.187500  0.187500     64.000000
  0.312500  0.312500  0.187500     64.000000
 -0.312500  0.312500  0.187500    128.000000
 -0.187500  0.312500  0.187500    128.000000
 -0.437500  0.437500  0.187500    128.000000
 -0.312500  0.437500  0.187500    256.000000
 -0.187500  0.437500  0.187500    128.000000
 -0.437500 -0.437500  0.187500    128.000000
 -0.312500 -0.437500  0.187500    256.000000
 -0.187500 -0.437500  0.187500    128.000000
 -0.312500 -0.312500  0.187500    128.000000
 -0.187500 -0.312500  0.187500    128.000000
 -0.187500 -0.187500  0.187500     32.000000
 -0.312500  0.312500  0.312500     64.000000
 -0.437500  0.437500  0.312500    128.000000
 -0.312500  0.437500  0.312500    128.000000
 -0.437500 -0.437500  0.312500    128.000000
 -0.312500 -0.437500  0.312500    128.000000
 -0.312500 -0.312500  0.312500     32.000000
 -0.437500  0.437500  0.437500     64.000000
 -0.437500 -0.437500  0.437500     32.000000
 
 Following cartesian coordinates:
            Coordinates               Weight
  0.025510  0.025510  0.049058    128.000000
  0.025510  0.051020  0.098116    256.000000
  0.025510  0.076531  0.147174    256.000000
  0.025510  0.102041  0.196232    128.000000
  0.025510  0.000000  0.000000     64.000000
  0.051020  0.051020  0.147174    128.000000
  0.051020  0.076531  0.196232    256.000000
  0.051020  0.102041  0.245290    256.000000
  0.051020 -0.076531 -0.098116    256.000000
  0.051020 -0.051020 -0.049058    128.000000
  0.051020 -0.025510  0.000000    128.000000
  0.051020  0.000000  0.049058    128.000000
  0.076531  0.076531  0.245290    128.000000
  0.076531  0.102041  0.294349    256.000000
  0.076531 -0.076531 -0.049058    128.000000
  0.076531 -0.051020  0.000000    128.000000
  0.076531 -0.025510  0.049058    256.000000
  0.076531  0.000000  0.098116    128.000000
  0.102041  0.102041  0.343407     64.000000
  0.102041 -0.076531  0.000000    128.000000
  0.102041 -0.051020  0.049058    256.000000
  0.102041 -0.025510  0.098116    256.000000
  0.102041  0.000000  0.147174    128.000000
 -0.076531 -0.076531 -0.343407    128.000000
 -0.076531 -0.051020 -0.294349    256.000000
 -0.076531 -0.025510 -0.245290    256.000000
 -0.076531 -0.000000 -0.196232    128.000000
 -0.051020 -0.051020 -0.245290    128.000000
 -0.051020 -0.025510 -0.196232    256.000000
 -0.051020 -0.000000 -0.147174    128.000000
 -0.025510 -0.025510 -0.147174    128.000000
 -0.025510  0.000000 -0.098116    128.000000
 -0.000000  0.000000 -0.049058     32.000000
  0.076531  0.076531  0.147174    128.000000
  0.076531  0.102041  0.196232    128.000000
  0.076531  0.000000  0.000000     64.000000
  0.102041  0.102041  0.245290     64.000000
  0.102041 -0.025510 -0.000000    128.000000
  0.102041  0.000000  0.049058    128.000000
  0.127551 -0.051020  0.000000    128.000000
  0.127551 -0.025510  0.049058    256.000000
  0.127551  0.000000  0.098116    128.000000
 -0.051020 -0.051020 -0.343407    128.000000
 -0.051020 -0.025510 -0.294349    256.000000
 -0.051020  0.000000 -0.245290    128.000000
 -0.025510 -0.025510 -0.245290    128.000000
 -0.025510 -0.000000 -0.196232    128.000000
  0.000000  0.000000 -0.147174     32.000000
  0.127551  0.000000  0.000000     64.000000
  0.153061 -0.025510  0.000000    128.000000
  0.153061  0.000000  0.049058    128.000000
 -0.025510 -0.025510 -0.343407    128.000000
 -0.025510 -0.000000 -0.294349    128.000000
 -0.000000  0.000000 -0.245290     32.000000
  0.178571  0.000000  0.000000     64.000000
 -0.000000  0.000000 -0.343407     32.000000
 


--------------------------------------------------------------------------------------------------------




 Dimension of arrays:
   k-points           NKPTS =     56   k-points in BZ     NKDIM =     56   number of bands    NBANDS=      8
   number of dos      NEDOS =    301   number of ions     NIONS =      2
   non local maximal  LDIM  =      4   non local SUM 2l+1 LMDIM =      8
   total plane-waves  NPLWV =   2744
   max r-space proj   IRMAX =      1   max aug-charges    IRDMAX=   3198
   dimension x,y,z NGX =    14 NGY =   14 NGZ =   14
   dimension x,y,z NGXF=    28 NGYF=   28 NGZF=   28
   support grid    NGXF=    28 NGYF=   28 NGZF=   28
   ions per type =               2
   NGX,Y,Z   is equivalent  to a cutoff of   6.30,  6.30,  6.30 a.u.
   NGXF,Y,Z  is equivalent  to a cutoff of  12.61, 12.61, 12.61 a.u.

 SYSTEM =  unknown system                          
 POSCAR =  Si2                                     

 Startparameter for this run:
   NWRITE =      2    write-flag & timer
   PREC   = normal    normal or accurate (medium, high low for compatibility)
   ISTART =      1    job   : 0-new  1-cont  2-samecut
   ICHARG =      0    charge: 1-file 2-atom 10-const
   ISPIN  =      1    spin polarized calculation?
   LNONCOLLINEAR =      F non collinear calculations
   LSORBIT =      F    spin-orbit coupling
   INIWAV =      1    electr: 0-lowe 1-rand  2-diag
   LASPH  =      F    aspherical Exc in radial PAW
   METAGGA=      F    non-selfconsistent MetaGGA calc.

 Electronic Relaxation 1
   ENCUT  =  250.0 eV  18.37 Ry    4.29 a.u.   4.76  4.76  4.76*2*pi/ulx,y,z
   ENINI  =  250.0     initial cutoff
   ENAUG  =  322.1 eV  augmentation charge cutoff
   NELM   =     60;   NELMIN=  2; NELMDL=  0     # of ELM steps 
   EDIFF  = 0.4E-03   stopping-criterion for ELM
   LREAL  =      F    real-space projection
   NLSPLINE    = F    spline interpolate recip. space projectors
   LCOMPAT=      F    compatible to vasp.4.4
   GGA_COMPAT  = T    GGA compatible to vasp.4.4-vasp.4.6
   LMAXPAW     = -100 max onsite density
   LMAXMIX     =    2 max onsite mixed and CHGCAR
   VOSKOWN=      0    Vosko Wilk Nusair interpolation
   ROPT   =    0.00000
 Ionic relaxation
   EDIFFG = -.1E-01   stopping-criterion for IOM
   NSW    =     15    number of steps for IOM
   NBLOCK =      1;   KBLOCK =     15    inner block; outer block 
   IBRION =      2    ionic relax: 0-MD 1-quasi-New 2-CG
   NFREE  =      1    steps in history (QN), initial steepest desc. (CG)
   ISIF   =      2    stress and relaxation
   IWAVPR =     11    prediction:  0-non 1-charg 2-wave 3-comb
   ISYM   =      2    0-nonsym 1-usesym 2-fastsym
   LCORR  =      T    Harris-Foulkes like correction to forces

   POTIM  = 0.5000    time-step for ionic-motion
   TEIN   =    0.0    initial temperature
   TEBEG  =    0.0;   TEEND  =   0.0 temperature during run
   SMASS  =  -3.00    Nose mass-parameter (am)
   estimated Nose-frequenzy (Omega)   =  0.10E-29 period in steps =****** mass=  -0.311E-27a.u.
   SCALEE = 1.0000    scale energy and forces
   NPACO  =    256;   APACO  = 16.0  distance and # of slots for P.C.
   PSTRESS=    0.0 pullay stress

  Mass of Ions in am
   POMASS =  28.09
  Ionic Valenz
   ZVAL   =   4.00
  Atomic Wigner-Seitz radii
   RWIGS  =  -1.00
  virtual crystal weights 
   VCA    =   1.00
   NELECT =       8.0000    total number of electrons
   NUPDOWN=      -1.0000    fix difference up-down

 DOS related values:
   EMIN   =  10.00;   EMAX   =-10.00  energy-range for DOS
   EFERMI =   0.00
   ISMEAR =     0;   SIGMA  =   0.20  broadening in eV -4-tet -1-fermi 0-gaus

 Electronic relaxation 2 (details)
   IALGO  =     38    algorithm
   LDIAG  =      T    sub-space diagonalisation (order eigenvalues)
   LSUBROT=      F    optimize rotation matrix (better conditioning)
   TURBO    =      0    0=normal 1=particle mesh
   IRESTART =      0    0=no restart 2=restart with 2 vectors
   NREBOOT  =      0    no. of reboots
   NMIN     =      0    reboot dimension
   EREF     =   0.00    reference energy to select bands
   IMIX   =      4    mixing-type and parameters
     AMIX     =   0.40;   BMIX     =  1.00
     AMIX_MAG =   1.60;   BMIX_MAG =  1.00
     AMIN     =   0.10
     WC   =   100.;   INIMIX=   1;  MIXPRE=   1;  MAXMIX= -45

 Intra band minimization:
   WEIMIN = 0.0010     energy-eigenvalue tresh-hold
   EBREAK =  0.13E-04  absolut break condition
   DEPER  =   0.30     relativ break condition  

   TIME   =   0.40     timestep for ELM

  volume/ion in A,a.u.               =      15.29       103.21
  Fermi-wavevector in a.u.,A,eV,Ry     =   1.046930  1.978411 14.912834  1.096062
  Thomas-Fermi vector in A             =   2.181789
 
 Write flags
   LWAVE        =      T    write WAVECAR
   LDOWNSAMPLE  =      F    k-point downsampling of WAVECAR
   LCHARG       =      T    write CHGCAR
   LVTOT        =      F    write LOCPOT, total local potential
   LVHAR        =      F    write LOCPOT, Hartree potential only
   LELF         =      F    write electronic localiz. function (ELF)
   LORBIT       =      0    0 simple, 1 ext, 2 COOP (PROOUT), +10 PAW based schemes


 Dipole corrections
   LMONO  =      F    monopole corrections only (constant potential shift)
   LDIPOL =      F    correct potential (dipole corrections)
   IDIPOL =      0    1-x, 2-y, 3-z, 4-all directions 
   EPSILON=  1.0000000 bulk dielectric constant

 Exchange correlation treatment:
   GGA     =    --    GGA type
   LEXCH   =     8    internal setting for exchange type
   VOSKOWN=      0    Vosko Wilk Nusair interpolation
   LHFCALC =     F    Hartree Fock is set to
   LHFONE  =     F    Hartree Fock one center treatment
   AEXX    =    0.0000 exact exchange contribution

 Linear response parameters
   LEPSILON=     F    determine dielectric tensor
   LRPA    =     F    only Hartree local field effects (RPA)
   LNABLA  =     F    use nabla operator in PAW spheres
   LVEL    =     F    velocity operator in full k-point grid
   LINTERFAST=   F  fast interpolation
   KINTER  =     0    interpolate to denser k-point grid
   CSHIFT  =0.1000    complex shift for real part using Kramers Kronig
   OMEGAMAX=  -1.0    maximum frequency
   DEG_THRESHOLD= 0.2000000E-02 threshold for treating states as degnerate
   RTIME   =   -0.100 relaxation time in fs
  (WPLASMAI=    0.000 imaginary part of plasma frequency in eV, 0.658/RTIME)
   DFIELD  = 0.0000000 0.0000000 0.0000000 field for delta impulse in time
 
 Orbital magnetization related:
   ORBITALMAG=     F  switch on orbital magnetization
   LCHIMAG   =     F  perturbation theory with respect to B field
   DQ        =  0.001000  dq finite difference perturbation B field
   LLRAUG    =     F  two centre corrections for induced B field



--------------------------------------------------------------------------------------------------------


 conjugate gradient relaxation of ions
 charge density and potential will be updated during run
 non-spin polarized calculation
 Variant of blocked Davidson
 Davidson routine will perform the subspace rotation
 perform sub-space diagonalisation
    after iterative eigenvector-optimisation
 modified Broyden-mixing scheme, WC =      100.0
 initial mixing is a Kerker type mixing with AMIX =  0.4000 and BMIX =      1.0000
 Hartree-type preconditioning will be used
 using additional bands            4
 reciprocal scheme for non local part
 use partial core corrections
 calculate Harris-corrections to forces 
   (improved forces if not selfconsistent)
 use gradient corrections 
 use of overlap-Matrix (Vanderbilt PP)
 Gauss-broadening in eV      SIGMA  =   0.20


--------------------------------------------------------------------------------------------------------


  energy-cutoff  :      250.00
  volume of cell :       30.59
      direct lattice vectors                 reciprocal lattice vectors
    -2.450000000  2.450000000  1.274000000     0.000000000  0.204081633  0.392464678
     2.450000000 -2.450000000  1.274000000     0.204081633  0.000000000  0.392464678
     2.450000000  2.450000000 -1.274000000     0.204081633  0.204081633 -0.000000000

  length of vectors
     3.691622408  3.691622408  3.691622408     0.442354876  0.442354876  0.288615013


 
 old parameters found on file WAVECAR:
  energy-cutoff  :      250.00
  volume of cell :       30.59
      direct lattice vectors                 reciprocal lattice vectors
    -2.450000000  2.450000000  1.274000000     0.000000000  0.204081633  0.392464678
     2.450000000 -2.450000000  1.274000000     0.204081633  0.000000000  0.392464678
     2.450000000  2.450000000 -1.274000000     0.204081633  0.204081633 -0.000000000

  length of vectors

 
 k-points in units of 2pi/SCALE and weight: Automatic kpoint scheme                 
   0.02551020  0.02551020  0.04905808       0.016
   0.02551020  0.05102041  0.09811617       0.031
   0.02551020  0.07653061  0.14717425       0.031
   0.02551020  0.10204082  0.19623234       0.016
   0.02551020  0.00000000 -0.00000000       0.008
   0.05102041  0.05102041  0.14717425       0.016
   0.05102041  0.07653061  0.19623234       0.031
   0.05102041  0.10204082  0.24529042       0.031
   0.05102041 -0.07653061 -0.09811617       0.031
   0.05102041 -0.05102041 -0.04905808       0.016
   0.05102041 -0.02551020  0.00000000       0.016
   0.05102041  0.00000000  0.04905808       0.016
   0.07653061  0.07653061  0.24529042       0.016
   0.07653061  0.10204082  0.29434851       0.031
   0.07653061 -0.07653061 -0.04905808       0.016
   0.07653061 -0.05102041  0.00000000       0.016
   0.07653061 -0.02551020  0.04905808       0.031
   0.07653061  0.00000000  0.09811617       0.016
   0.10204082  0.10204082  0.34340659       0.008
   0.10204082 -0.07653061  0.00000000       0.016
   0.10204082 -0.05102041  0.04905808       0.031
   0.10204082 -0.02551020  0.09811617       0.031
   0.10204082  0.00000000  0.14717425       0.016
  -0.07653061 -0.07653061 -0.34340659       0.016
  -0.07653061 -0.05102041 -0.29434851       0.031
  -0.07653061 -0.02551020 -0.24529042       0.031
  -0.07653061 -0.00000000 -0.19623234       0.016
  -0.05102041 -0.05102041 -0.24529042       0.016
  -0.05102041 -0.02551020 -0.19623234       0.031
  -0.05102041 -0.00000000 -0.14717425       0.016
  -0.02551020 -0.02551020 -0.14717425       0.016
  -0.02551020 -0.00000000 -0.09811617       0.016
   0.00000000  0.00000000 -0.04905808       0.004
   0.07653061  0.07653061  0.14717425       0.016
   0.07653061  0.10204082  0.19623234       0.016
   0.07653061  0.00000000  0.00000000       0.008
   0.10204082  0.10204082  0.24529042       0.008
   0.10204082 -0.02551020  0.00000000       0.016
   0.10204082  0.00000000  0.04905808       0.016
   0.12755102 -0.05102041 -0.00000000       0.016
   0.12755102 -0.02551020  0.04905808       0.031
   0.12755102  0.00000000  0.09811617       0.016
  -0.05102041 -0.05102041 -0.34340659       0.016
  -0.05102041 -0.02551020 -0.29434851       0.031
  -0.05102041  0.00000000 -0.24529042       0.016
  -0.02551020 -0.02551020 -0.24529042       0.016
  -0.02551020 -0.00000000 -0.19623234       0.016
   0.00000000 -0.00000000 -0.14717425       0.004
   0.12755102  0.00000000 -0.00000000       0.008
   0.15306122 -0.02551020 -0.00000000       0.016
   0.15306122  0.00000000  0.04905808       0.016
  -0.02551020 -0.02551020 -0.34340659       0.016
  -0.02551020 -0.00000000 -0.29434851       0.016
   0.00000000  0.00000000 -0.24529042       0.004
   0.17857143  0.00000000 -0.00000000       0.008
   0.00000000 -0.00000000 -0.34340659       0.004
 
 k-points in reciprocal lattice and weights: Automatic kpoint scheme                 
   0.06250000  0.06250000  0.06250000       0.016
   0.18750000  0.06250000  0.06250000       0.031
   0.31250000  0.06250000  0.06250000       0.031
   0.43750000  0.06250000  0.06250000       0.016
  -0.06250000  0.06250000  0.06250000       0.008
   0.18750000  0.18750000  0.06250000       0.016
   0.31250000  0.18750000  0.06250000       0.031
   0.43750000  0.18750000  0.06250000       0.031
  -0.43750000  0.18750000  0.06250000       0.031
  -0.31250000  0.18750000  0.06250000       0.016
  -0.18750000  0.18750000  0.06250000       0.016
  -0.06250000  0.18750000  0.06250000       0.016
   0.31250000  0.31250000  0.06250000       0.016
   0.43750000  0.31250000  0.06250000       0.031
  -0.43750000  0.31250000  0.06250000       0.016
  -0.31250000  0.31250000  0.06250000       0.016
  -0.18750000  0.31250000  0.06250000       0.031
  -0.06250000  0.31250000  0.06250000       0.016
   0.43750000  0.43750000  0.06250000       0.008
  -0.43750000  0.43750000  0.06250000       0.016
  -0.31250000  0.43750000  0.06250000       0.031
  -0.18750000  0.43750000  0.06250000       0.031
  -0.06250000  0.43750000  0.06250000       0.016
  -0.43750000 -0.43750000  0.06250000       0.016
  -0.31250000 -0.43750000  0.06250000       0.031
  -0.18750000 -0.43750000  0.06250000       0.031
  -0.06250000 -0.43750000  0.06250000       0.016
  -0.31250000 -0.31250000  0.06250000       0.016
  -0.18750000 -0.31250000  0.06250000       0.031
  -0.06250000 -0.31250000  0.06250000       0.016
  -0.18750000 -0.18750000  0.06250000       0.016
  -0.06250000 -0.18750000  0.06250000       0.016
  -0.06250000 -0.06250000  0.06250000       0.004
   0.18750000  0.18750000  0.18750000       0.016
   0.31250000  0.18750000  0.18750000       0.016
  -0.18750000  0.18750000  0.18750000       0.008
   0.31250000  0.31250000  0.18750000       0.008
  -0.31250000  0.31250000  0.18750000       0.016
  -0.18750000  0.31250000  0.18750000       0.016
  -0.43750000  0.43750000  0.18750000       0.016
  -0.31250000  0.43750000  0.18750000       0.031
  -0.18750000  0.43750000  0.18750000       0.016
  -0.43750000 -0.43750000  0.18750000       0.016
  -0.31250000 -0.43750000  0.18750000       0.031
  -0.18750000 -0.43750000  0.18750000       0.016
  -0.31250000 -0.31250000  0.18750000       0.016
  -0.18750000 -0.31250000  0.18750000       0.016
  -0.18750000 -0.18750000  0.18750000       0.004
  -0.31250000  0.31250000  0.31250000       0.008
  -0.43750000  0.43750000  0.31250000       0.016
  -0.31250000  0.43750000  0.31250000       0.016
  -0.43750000 -0.43750000  0.31250000       0.016
  -0.31250000 -0.43750000  0.31250000       0.016
  -0.31250000 -0.31250000  0.31250000       0.004
  -0.43750000  0.43750000  0.43750000       0.008
  -0.43750000 -0.43750000  0.43750000       0.004
 
 position of ions in fractional coordinates (direct lattice) 
   0.25000000  0.75000000  0.50000000
   0.00000000  0.00000000  0.00000000
 
 position of ions in cartesian coordinates  (Angst):
   2.45000000  0.00000000  0.63700000
   0.00000000  0.00000000  0.00000000
 


--------------------------------------------------------------------------------------------------------


 k-point  1 :   0.0625 0.0625 0.0625  plane waves:     269
 k-point  2 :   0.1875 0.0625 0.0625  plane waves:     273
 k-point  3 :   0.3125 0.0625 0.0625  plane waves:     274
 k-point  4 :   0.4375 0.0625 0.0625  plane waves:     280
 k-point  5 :  -0.0625 0.0625 0.0625  plane waves:     275
 k-point  6 :   0.1875 0.1875 0.0625  plane waves:     275
 k-point  7 :   0.3125 0.1875 0.0625  plane waves:     272
 k-point  8 :   0.4375 0.1875 0.0625  plane waves:     272
 k-point  9 :  -0.4375 0.1875 0.0625  plane waves:     273
 k-point 10 :  -0.3125 0.1875 0.0625  plane waves:     279
 k-point 11 :  -0.1875 0.1875 0.0625  plane waves:     281
 k-point 12 :  -0.0625 0.1875 0.0625  plane waves:     274
 k-point 13 :   0.3125 0.3125 0.0625  plane waves:     273
 k-point 14 :   0.4375 0.3125 0.0625  plane waves:     273
 k-point 15 :  -0.4375 0.3125 0.0625  plane waves:     276
 k-point 16 :  -0.3125 0.3125 0.0625  plane waves:     282
 k-point 17 :  -0.1875 0.3125 0.0625  plane waves:     275
 k-point 18 :  -0.0625 0.3125 0.0625  plane waves:     273
 k-point 19 :   0.4375 0.4375 0.0625  plane waves:     280
 k-point 20 :  -0.4375 0.4375 0.0625  plane waves:     275
 k-point 21 :  -0.3125 0.4375 0.0625  plane waves:     277
 k-point 22 :  -0.1875 0.4375 0.0625  plane waves:     272
 k-point 23 :  -0.0625 0.4375 0.0625  plane waves:     277
 k-point 24 :  -0.4375-0.4375 0.0625  plane waves:     275
 k-point 25 :  -0.3125-0.4375 0.0625  plane waves:     273
 k-point 26 :  -0.1875-0.4375 0.0625  plane waves:     274
 k-point 27 :  -0.0625-0.4375 0.0625  plane waves:     279
 k-point 28 :  -0.3125-0.3125 0.0625  plane waves:     272
 k-point 29 :  -0.1875-0.3125 0.0625  plane waves:     274
 k-point 30 :  -0.0625-0.3125 0.0625  plane waves:     273
 k-point 31 :  -0.1875-0.1875 0.0625  plane waves:     275
 k-point 32 :  -0.0625-0.1875 0.0625  plane waves:     274
 k-point 33 :  -0.0625-0.0625 0.0625  plane waves:     275
 k-point 34 :   0.1875 0.1875 0.1875  plane waves:     271
 k-point 35 :   0.3125 0.1875 0.1875  plane waves:     270
 k-point 36 :  -0.1875 0.1875 0.1875  plane waves:     270
 k-point 37 :   0.3125 0.3125 0.1875  plane waves:     272
 k-point 38 :  -0.3125 0.3125 0.1875  plane waves:     277
 k-point 39 :  -0.1875 0.3125 0.1875  plane waves:     275
 k-point 40 :  -0.4375 0.4375 0.1875  plane waves:     273
 k-point 41 :  -0.3125 0.4375 0.1875  plane waves:     277
 k-point 42 :  -0.1875 0.4375 0.1875  plane waves:     273
 k-point 43 :  -0.4375-0.4375 0.1875  plane waves:     276
 k-point 44 :  -0.3125-0.4375 0.1875  plane waves:     278
 k-point 45 :  -0.1875-0.4375 0.1875  plane waves:     277
 k-point 46 :  -0.3125-0.3125 0.1875  plane waves:     278
 k-point 47 :  -0.1875-0.3125 0.1875  plane waves:     274
 k-point 48 :  -0.1875-0.1875 0.1875  plane waves:     271
 k-point 49 :  -0.3125 0.3125 0.3125  plane waves:     270
 k-point 50 :  -0.4375 0.4375 0.3125  plane waves:     272
 k-point 51 :  -0.3125 0.4375 0.3125  plane waves:     277
 k-point 52 :  -0.4375-0.4375 0.3125  plane waves:     276
 k-point 53 :  -0.3125-0.4375 0.3125  plane waves:     276
 k-point 54 :  -0.3125-0.3125 0.3125  plane waves:     275
 k-point 55 :  -0.4375 0.4375 0.4375  plane waves:     278
 k-point 56 :  -0.4375-0.4375 0.4375  plane waves:     272

 maximum and minimum number of plane-waves per node :       282      269

 maximum number of plane-waves:       282
 maximum index in each direction: 
   IXMAX=    5   IYMAX=    5   IZMAX=    4
   IXMIN=   -5   IYMIN=   -5   IZMIN=   -5


 serial   3D FFT for wavefunctions
 parallel 3D FFT for charge:
    minimum data exchange during FFTs selected (reduces bandwidth)


 total amount of memory used by VASP MPI-rank0    31708. kBytes
=======================================================================

   base      :      30000. kBytes
   nonl-proj :       1041. kBytes
   fftplans  :        119. kBytes
   grid      :        270. kBytes
   one-center:          6. kBytes
   wavefun   :        272. kBytes
 
     INWAV:  cpu time    0.0640: real time    0.2926
 Broyden mixing: mesh for mixing (old mesh)
   NGX =  9   NGY =  9   NGZ =  9
  (NGX  = 28   NGY  = 28   NGZ  = 28)
  gives a total of    729 points

 charge density for first step will be calculated from the start-wavefunctions


--------------------------------------------------------------------------------------------------------


 Maximum index for augmentation-charges          442 (set IRDMAX)


--------------------------------------------------------------------------------------------------------


 initial charge from wavefunction
 First call to EWALD:  gamma=   0.567
 Maximum number of real-space cells 4x 4x 3
 Maximum number of reciprocal cells 3x 3x 3

    FEWALD:  cpu time    0.0080: real time    0.0074


--------------------------------------- Iteration      1(   1)  ---------------------------------------


    POTLOK:  cpu time    0.0280: real time    0.0644
    SETDIJ:  cpu time    0.0080: real time    0.0087
     EDDAV:  cpu time    0.2840: real time    0.2910
       DOS:  cpu time    0.0040: real time    0.0037
    CHARGE:  cpu time    0.0160: real time    0.0160
    MIXING:  cpu time    0.0000: real time    0.0020
    --------------------------------------------
      LOOP:  cpu time    0.3400: real time    0.3868

 eigenvalue-minimisations  :   480
 total energy-change (2. order) :-0.1018757E+02  (-0.1131097E-04)
 number of electron       7.9999993 magnetization 
 augmentation part       -0.4730986 magnetization 

 Broyden mixing:
  rms(total) = 0.72183E-03    rms(broyden)= 0.72173E-03
  rms(prec ) = 0.22010E-02
  weight for this iteration     100.00

 Free energy of the ion-electron system (eV)
  ---------------------------------------------------
  alpha Z        PSCENC =         4.40202223
  Ewald energy   TEWEN  =      -265.18101312
  -Hartree energ DENC   =        -2.48502383
  -exchange      EXHF   =         0.00000000
  -V(xc)+E(xc)   XCENC  =       -17.57751707
  PAW double counting   =        70.64424169      -35.55949971
  entropy T*S    EENTRO =        -0.02189173
  eigenvalues    EBANDS =        29.46761555
  atomic energy  EATOM  =       206.12349923
  Solvation  Ediel_sol  =         0.00000000
  ---------------------------------------------------
  free energy    TOTEN  =       -10.18756676 eV

  energy without entropy =      -10.16567503  energy(sigma->0) =      -10.17662089


--------------------------------------------------------------------------------------------------------




--------------------------------------- Iteration      1(   2)  ---------------------------------------


    POTLOK:  cpu time    0.0200: real time    0.0267
    SETDIJ:  cpu time    0.0080: real time    0.0082
     EDDAV:  cpu time    0.2600: real time    0.2590
       DOS:  cpu time    0.0000: real time    0.0032
    --------------------------------------------
      LOOP:  cpu time    0.2880: real time    0.2967

 eigenvalue-minimisations  :   448
 total energy-change (2. order) : 0.1281925E-05  (-0.5160110E-06)
 number of electron       7.9999993 magnetization 
 augmentation part       -0.4730986 magnetization 

 Free energy of the ion-electron system (eV)
  ---------------------------------------------------
  alpha Z        PSCENC =         4.40202223
  Ewald energy   TEWEN  =      -265.18101312
  -Hartree energ DENC   =        -2.48545153
  -exchange      EXHF   =         0.00000000
  -V(xc)+E(xc)   XCENC  =       -17.57748525
  PAW double counting   =        70.64453344      -35.55980185
  entropy T*S    EENTRO =        -0.02189432
  eigenvalues    EBANDS =        29.46802568
  atomic energy  EATOM  =       206.12349923
  Solvation  Ediel_sol  =         0.00000000
  ---------------------------------------------------
  free energy    TOTEN  =       -10.18756548 eV

  energy without entropy =      -10.16567116  energy(sigma->0) =      -10.17661832


--------------------------------------------------------------------------------------------------------




 average (electrostatic) potential at core
  the test charge radii are     0.9892
  (the norm of the test charge is              1.0000)
       1 -80.5567       2 -80.5567
 
 
 
 E-fermi :   9.0703     XC(G=0): -10.8932     alpha+bet :-15.6819


 k-point     1 :       0.0625    0.0625    0.0625
  band No.  band energies     occupation 
      1      -4.0823      2.00000
      2       4.3967      2.00000
      3       6.7672      2.00000
      4       8.0747      2.00000
      5      11.9869      0.00000
      6      14.5240      0.00000
      7      15.3400      0.00000
      8      16.5734      0.00000

 k-point     2 :       0.1875    0.0625    0.0625
  band No.  band energies     occupation 
      1      -2.7668      2.00000
      2       4.2848      2.00000
      3       7.2082      2.00000
      4       9.5920      0.00023
      5      11.3851      0.00000
      6      11.8716      0.00000
      7      14.1480      0.00000
      8      14.7768      0.00000

 k-point     3 :       0.3125    0.0625    0.0625
  band No.  band energies     occupation 
      1      -0.5995      2.00000
      2       4.9188      2.00000
      3       6.1831      2.00000
      4       7.6952      2.00000
      5       9.1889      0.40154
      6      12.3954      0.00000
      7      13.6364      0.00000
      8      13.9037      0.00000

 k-point     4 :       0.4375    0.0625    0.0625
  band No.  band energies     occupation 
      1       2.1215      2.00000
      2       2.6711      2.00000
      3       6.3769      2.00000
      4       6.4210      2.00000
      5       9.0919      0.87854
      6      10.9754      0.00000
      7      13.5882      0.00000
      8      14.5172      0.00000

 k-point     5 :      -0.0625    0.0625    0.0625
  band No.  band energies     occupation 
      1      -4.5233      2.00000
      2       4.9142      2.00000
      3       5.9308      2.00000
      4       7.7227      2.00000
      5      11.0851      0.00000
      6      15.0592      0.00000
      7      17.4440      0.00000
      8      18.1120      0.00000

 k-point     6 :       0.1875    0.1875    0.0625
  band No.  band energies     occupation 
      1      -0.7804      2.00000
      2       4.8307      2.00000
      3       7.1971      2.00000
      4       7.2649      2.00000
      5       9.9244      0.00000
      6      11.8891      0.00000
      7      13.6007      0.00000
      8      13.6223      0.00000

 k-point     7 :       0.3125    0.1875    0.0625
  band No.  band energies     occupation 
      1       1.9852      2.00000
      2       3.4956      2.00000
      3       4.8340      2.00000
      4       6.1579      2.00000
      5      10.3790      0.00000
      6      12.0439      0.00000
      7      13.0008      0.00000
      8      14.9764      0.00000

 k-point     8 :       0.4375    0.1875    0.0625
  band No.  band energies     occupation 
      1       0.3029      2.00000
      2       3.1165      2.00000
      3       5.6683      2.00000
      4       7.8512      2.00000
      5       9.4667      0.00506
      6      12.0380      0.00000
      7      14.0918      0.00000
      8      15.0711      0.00000

 k-point     9 :      -0.4375    0.1875    0.0625
  band No.  band energies     occupation 
      1      -2.0317      2.00000
      2       2.2658      2.00000
      3       7.8249      2.00000
      4       9.6207      0.00010
      5      11.0937      0.00000
      6      11.6524      0.00000
      7      13.0076      0.00000
      8      15.2661      0.00000

 k-point    10 :      -0.3125    0.1875    0.0625
  band No.  band energies     occupation 
      1      -3.5265      2.00000
      2       2.2275      2.00000
      3       7.2790      2.00000
      4       9.0128      1.31568
      5      12.5659      0.00000
      6      14.1926      0.00000
      7      14.4671      0.00000
      8      15.6068      0.00000

 k-point    11 :      -0.1875    0.1875    0.0625
  band No.  band energies     occupation 
      1      -4.1517      2.00000
      2       2.9745      2.00000
      3       6.0229      2.00000
      4       8.9700      1.52173
      5      12.8425      0.00000
      6      13.0025      0.00000
      7      15.8894      0.00000
      8      19.2198      0.00000

 k-point    12 :      -0.0625    0.1875    0.0625
  band No.  band energies     occupation 
      1      -3.8971      2.00000
      2       4.0782      2.00000
      3       5.4758      2.00000
      4       9.5905      0.00023
      5      12.7111      0.00000
      6      13.0200      0.00000
      7      14.8715      0.00000
      8      16.9831      0.00000

 k-point    13 :       0.3125    0.3125    0.0625
  band No.  band energies     occupation 
      1       1.5392      2.00000
      2       1.5613      2.00000
      3       5.4975      2.00000
      4       7.8548      2.00000
      5      10.0676      0.00000
      6      11.0111      0.00000
      7      14.9697      0.00000
      8      16.0134      0.00000

 k-point    14 :       0.4375    0.3125    0.0625
  band No.  band energies     occupation 
      1      -0.9375      2.00000
      2       0.5032      2.00000
      3       8.6908      1.99271
      4       9.3710      0.03349
      5      10.2709      0.00000
      6      11.9520      0.00000
      7      12.6553      0.00000
      8      13.9938      0.00000

 k-point    15 :      -0.4375    0.3125    0.0625
  band No.  band energies     occupation 
      1      -2.6049      2.00000
      2       0.2949      2.00000
      3       8.1289      2.00000
      4       9.9924      0.00000
      5      10.8181      0.00000
      6      12.6715      0.00000
      7      15.0861      0.00000
      8      15.0909      0.00000

 k-point    16 :      -0.3125    0.3125    0.0625
  band No.  band energies     occupation 
      1      -3.4113      2.00000
      2       0.9253      2.00000
      3       6.6976      2.00000
      4       9.9279      0.00000
      5      10.8287      0.00000
      6      14.0655      0.00000
      7      15.9745      0.00000
      8      18.8690      0.00000

 k-point    17 :      -0.1875    0.3125    0.0625
  band No.  band energies     occupation 
      1      -3.3425      2.00000
      2       2.3375      2.00000
      3       5.5578      2.00000
      4      10.7853      0.00000
      5      11.0178      0.00000
      6      14.0632      0.00000
      7      15.0636      0.00000
      8      16.7308      0.00000

 k-point    18 :      -0.0625    0.3125    0.0625
  band No.  band energies     occupation 
      1      -2.3996      2.00000
      2       4.0723      2.00000
      3       5.6147      2.00000
      4       9.4320      0.01054
      5      11.4485      0.00000
      6      12.6999      0.00000
      7      14.0456      0.00000
      8      14.5733      0.00000

 k-point    19 :       0.4375    0.4375    0.0625
  band No.  band energies     occupation 
      1      -1.3257      2.00000
      2      -1.3257      2.00000
      3       9.3080      0.09274
      4       9.3080      0.09274
      5      11.2258      0.00000
      6      11.2258      0.00000
      7      14.9439      0.00000
      8      14.9439      0.00000

 k-point    20 :      -0.4375    0.4375    0.0625
  band No.  band energies     occupation 
      1      -2.3087      2.00000
      2      -0.8550      2.00000
      3       7.7362      2.00000
      4       9.1181      0.73511
      5      11.0463      0.00000
      6      12.4279      0.00000
      7      18.4647      0.00000
      8      18.6232      0.00000

 k-point    21 :      -0.3125    0.4375    0.0625
  band No.  band energies     occupation 
      1      -2.4239      2.00000
      2       0.4559      2.00000
      3       6.3747      2.00000
      4       9.1154      0.74967
      5      11.7659      0.00000
      6      13.6027      0.00000
      7      15.4212      0.00000
      8      16.2754      0.00000

 k-point    22 :      -0.1875    0.4375    0.0625
  band No.  band energies     occupation 
      1      -1.6690      2.00000
      2       2.5329      2.00000
      3       5.7896      2.00000
      4       8.8626      1.85806
      5       9.8111      0.00000
      6      13.3797      0.00000
      7      14.1521      0.00000
      8      16.2658      0.00000

 k-point    23 :      -0.0625    0.4375    0.0625
  band No.  band energies     occupation 
      1      -0.0598      2.00000
      2       4.7560      2.00000
      3       5.4817      2.00000
      4       6.4410      2.00000
      5       9.6835      0.00001
      6      12.2221      0.00000
      7      12.3288      0.00000
      8      15.6351      0.00000

 k-point    24 :      -0.4375   -0.4375    0.0625
  band No.  band energies     occupation 
      1      -1.1518      2.00000
      2      -1.1494      2.00000
      3       7.5666      2.00000
      4       7.5858      2.00000
      5      12.3359      0.00000
      6      13.3362      0.00000
      7      14.7420      0.00000
      8      16.2117      0.00000

 k-point    25 :      -0.3125   -0.4375    0.0625
  band No.  band energies     occupation 
      1      -0.5837      2.00000
      2       0.8369      2.00000
      3       6.7383      2.00000
      4       8.0103      2.00000
      5       8.7472      1.97764
      6      13.1776      0.00000
      7      15.1368      0.00000
      8      16.5689      0.00000

 k-point    26 :      -0.1875   -0.4375    0.0625
  band No.  band energies     occupation 
      1       0.8304      2.00000
      2       3.5201      2.00000
      3       4.8563      2.00000
      4       6.7624      2.00000
      5       9.0188      1.28429
      6      11.1759      0.00000
      7      13.7897      0.00000
      8      16.8539      0.00000

 k-point    27 :      -0.0625   -0.4375    0.0625
  band No.  band energies     occupation 
      1       1.6313      2.00000
      2       3.1536      2.00000
      3       6.5089      2.00000
      4       7.6686      2.00000
      5       8.0053      2.00000
      6      10.6335      0.00000
      7      12.1490      0.00000
      8      15.7749      0.00000

 k-point    28 :      -0.3125   -0.3125    0.0625
  band No.  band energies     occupation 
      1       2.0232      2.00000
      2       2.0770      2.00000
      3       4.6601      2.00000
      4       7.6452      2.00000
      5       7.9725      2.00000
      6      10.8789      0.00000
      7      15.5940      0.00000
      8      16.1011      0.00000

 k-point    29 :      -0.1875   -0.3125    0.0625
  band No.  band energies     occupation 
      1       1.2950      2.00000
      2       4.1581      2.00000
      3       5.4410      2.00000
      4       7.5873      2.00000
      5       8.8020      1.94215
      6      10.6184      0.00000
      7      12.0616      0.00000
      8      14.3861      0.00000

 k-point    30 :      -0.0625   -0.3125    0.0625
  band No.  band energies     occupation 
      1      -1.1448      2.00000
      2       6.4887      2.00000
      3       7.0478      2.00000
      4       7.7181      2.00000
      5       9.0986      0.84140
      6      11.6047      0.00000
      7      12.2465      0.00000
      8      13.6416      0.00000

 k-point    31 :      -0.1875   -0.1875    0.0625
  band No.  band energies     occupation 
      1      -1.3273      2.00000
      2       6.8511      2.00000
      3       7.8398      2.00000
      4       7.8889      2.00000
      5       9.2337      0.24792
      6      11.0170      0.00000
      7      12.1515      0.00000
      8      12.3694      0.00000

 k-point    32 :      -0.0625   -0.1875    0.0625
  band No.  band energies     occupation 
      1      -3.1357      2.00000
      2       6.1774      2.00000
      3       7.1161      2.00000
      4       8.7588      1.97238
      5      11.8109      0.00000
      6      12.3728      0.00000
      7      12.4053      0.00000
      8      14.8197      0.00000

 k-point    33 :      -0.0625   -0.0625    0.0625
  band No.  band energies     occupation 
      1      -4.2682      2.00000
      2       6.5093      2.00000
      3       6.5962      2.00000
      4       6.5962      2.00000
      5      10.8887      0.00000
      6      15.7597      0.00000
      7      15.8326      0.00000
      8      17.2105      0.00000

 k-point    34 :       0.1875    0.1875    0.1875
  band No.  band energies     occupation 
      1       0.1254      2.00000
      2       2.9631      2.00000
      3       6.7734      2.00000
      4       6.8105      2.00000
      5      10.8555      0.00000
      6      12.6519      0.00000
      7      13.8753      0.00000
      8      14.4614      0.00000

 k-point    35 :       0.3125    0.1875    0.1875
  band No.  band energies     occupation 
      1       2.8348      2.00000
      2       3.3190      2.00000
      3       4.3577      2.00000
      4       4.7289      2.00000
      5      12.0062      0.00000
      6      13.8349      0.00000
      7      14.0959      0.00000
      8      14.4067      0.00000

 k-point    36 :      -0.1875    0.1875    0.1875
  band No.  band energies     occupation 
      1      -3.7818      2.00000
      2       2.7540      2.00000
      3       4.3500      2.00000
      4      10.6536      0.00000
      5      11.0821      0.00000
      6      14.0923      0.00000
      7      17.7217      0.00000
      8      18.7511      0.00000

 k-point    37 :       0.3125    0.3125    0.1875
  band No.  band energies     occupation 
      1       1.3798      2.00000
      2       1.3798      2.00000
      3       6.6402      2.00000
      4       6.6402      2.00000
      5      12.0631      0.00000
      6      12.0631      0.00000
      7      13.8799      0.00000
      8      13.8799      0.00000

 k-point    38 :      -0.3125    0.3125    0.1875
  band No.  band energies     occupation 
      1      -3.0460      2.00000
      2       1.1934      2.00000
      3       4.5249      2.00000
      4       8.6191      1.99858
      5      12.4995      0.00000
      6      16.4048      0.00000
      7      16.5660      0.00000
      8      18.3772      0.00000

 k-point    39 :      -0.1875    0.3125    0.1875
  band No.  band energies     occupation 
      1      -2.7930      2.00000
      2       2.2675      2.00000
      3       3.9537      2.00000
      4       8.8386      1.89869
      5      12.3219      0.00000
      6      14.3304      0.00000
      7      16.2828      0.00000
      8      17.7696      0.00000

 k-point    40 :      -0.4375    0.4375    0.1875
  band No.  band energies     occupation 
      1      -1.9523      2.00000
      2      -0.5192      2.00000
      3       5.5066      2.00000
      4       6.8903      2.00000
      5      13.6818      0.00000
      6      14.9849      0.00000
      7      17.8963      0.00000
      8      18.0137      0.00000

 k-point    41 :      -0.3125    0.4375    0.1875
  band No.  band energies     occupation 
      1      -1.8847      2.00000
      2       0.8959      2.00000
      3       4.2668      2.00000
      4       6.9611      2.00000
      5      12.3409      0.00000
      6      15.3511      0.00000
      7      17.7390      0.00000
      8      17.9807      0.00000

 k-point    42 :      -0.1875    0.4375    0.1875
  band No.  band energies     occupation 
      1      -0.9491      2.00000
      2       2.6305      2.00000
      3       4.3452      2.00000
      4       7.7202      2.00000
      5       8.4082      2.00000
      6      14.6281      0.00000
      7      16.2387      0.00000
      8      16.5924      0.00000

 k-point    43 :      -0.4375   -0.4375    0.1875
  band No.  band energies     occupation 
      1      -0.6377      2.00000
      2      -0.6324      2.00000
      3       5.4122      2.00000
      4       5.4135      2.00000
      5      12.2543      0.00000
      6      16.2224      0.00000
      7      16.9970      0.00000
      8      17.7920      0.00000

 k-point    44 :      -0.3125   -0.4375    0.1875
  band No.  band energies     occupation 
      1       0.1108      2.00000
      2       1.4526      2.00000
      3       4.8100      2.00000
      4       6.1013      2.00000
      5       8.0190      2.00000
      6      14.9104      0.00000
      7      17.4263      0.00000
      8      18.1186      0.00000

 k-point    45 :      -0.1875   -0.4375    0.1875
  band No.  band energies     occupation 
      1       1.6892      2.00000
      2       3.6848      2.00000
      3       4.4773      2.00000
      4       5.5175      2.00000
      5       7.5603      2.00000
      6      12.3253      0.00000
      7      13.7777      0.00000
      8      17.1320      0.00000

 k-point    46 :      -0.3125   -0.3125    0.1875
  band No.  band energies     occupation 
      1       2.7403      2.00000
      2       2.8721      2.00000
      3       4.2094      2.00000
      4       6.1253      2.00000
      5       6.1935      2.00000
      6      12.6008      0.00000
      7      15.0706      0.00000
      8      15.8053      0.00000

 k-point    47 :      -0.1875   -0.3125    0.1875
  band No.  band energies     occupation 
      1       0.9426      2.00000
      2       5.1049      2.00000
      3       5.9035      2.00000
      4       7.3260      2.00000
      5       7.9759      2.00000
      6      10.8628      0.00000
      7      11.9106      0.00000
      8      13.3150      0.00000

 k-point    48 :      -0.1875   -0.1875    0.1875
  band No.  band energies     occupation 
      1      -1.5103      2.00000
      2       8.1052      2.00000
      3       8.4285      1.99999
      4       8.4285      1.99999
      5       8.7218      1.98625
      6       9.9909      0.00000
      7      11.8309      0.00000
      8      11.8309      0.00000

 k-point    49 :      -0.3125    0.3125    0.3125
  band No.  band energies     occupation 
      1      -2.3211      2.00000
      2       1.2866      2.00000
      3       3.0489      2.00000
      4       6.5684      2.00000
      5      14.6676      0.00000
      6      16.8803      0.00000
      7      18.0417      0.00000
      8      18.2084      0.00000

 k-point    50 :      -0.4375    0.4375    0.3125
  band No.  band energies     occupation 
      1      -1.2526      2.00000
      2       0.0995      2.00000
      3       3.5179      2.00000
      4       4.8401      2.00000
      5      15.8220      0.00000
      6      16.4259      0.00000
      7      18.2057      0.00000
      8      18.8926      0.00000

 k-point    51 :      -0.3125    0.4375    0.3125
  band No.  band energies     occupation 
      1      -1.0023      2.00000
      2       1.1645      2.00000
      3       2.9537      2.00000
      4       5.0776      2.00000
      5      12.0159      0.00000
      6      17.6928      0.00000
      7      19.1133      0.00000
      8      19.6432      0.00000

 k-point    52 :      -0.4375   -0.4375    0.3125
  band No.  band energies     occupation 
      1       0.1605      2.00000
      2       0.1690      2.00000
      3       3.5866      2.00000
      4       3.5886      2.00000
      5      11.8792      0.00000
      6      18.9683      0.00000
      7      19.3728      0.00000
      8      21.4961      0.00000

 k-point    53 :      -0.3125   -0.4375    0.3125
  band No.  band energies     occupation 
      1       1.0887      2.00000
      2       1.9003      2.00000
      3       3.6771      2.00000
      4       4.4735      2.00000
      5       7.6757      2.00000
      6      16.4682      0.00000
      7      17.8537      0.00000
      8      18.7629      0.00000

 k-point    54 :      -0.3125   -0.3125    0.3125
  band No.  band energies     occupation 
      1       3.1891      2.00000
      2       3.5049      2.00000
      3       4.2506      2.00000
      4       5.1952      2.00000
      5       5.1952      2.00000
      6      14.1899      0.00000
      7      14.8925      0.00000
      8      14.8926      0.00000

 k-point    55 :      -0.4375    0.4375    0.4375
  band No.  band energies     occupation 
      1      -0.2687      2.00000
      2       0.5454      2.00000
      3       2.3697      2.00000
      4       3.1740      2.00000
      5      16.2604      0.00000
      6      16.3615      0.00000
      7      19.9277      0.00000
      8      20.7221      0.00000

 k-point    56 :      -0.4375   -0.4375    0.4375
  band No.  band energies     occupation 
      1       0.7883      2.00000
      2       0.8005      2.00000
      3       2.6127      2.00000
      4       2.6127      2.00000
      5      11.7395      0.00000
      6      20.1122      0.00000
      7      20.8767      0.00000
      8      20.8767      0.00000


--------------------------------------------------------------------------------------------------------


 soft charge-density along one line, spin component           1
         0         1         2         3         4         5         6         7         8         9
 total charge-density along one line
 
 pseudopotential strength for first ion, spin component:           1
 18.066  -0.003   0.000  -0.000  -0.000  -0.000   0.000   0.000
 -0.003   0.005  -0.000   0.000   0.000   0.000  -0.000  -0.000
  0.000  -0.000   4.117   0.000   0.000  -0.006  -0.000  -0.000
 -0.000   0.000   0.000   4.118   0.000  -0.000  -0.006  -0.000
 -0.000   0.000   0.000   0.000   4.117  -0.000  -0.000  -0.006
 -0.000   0.000  -0.006  -0.000  -0.000   0.005   0.000   0.000
  0.000  -0.000  -0.000  -0.006  -0.000   0.000   0.005   0.000
  0.000  -0.000  -0.000  -0.000  -0.006   0.000   0.000   0.005
 total augmentation occupancy for first ion, spin component:           1
  1.616  -0.542   0.000   0.000   0.000   0.000   0.000   0.000
 -0.542   0.959   0.000   0.000   0.000   0.000   0.000  -0.000
  0.000   0.000   0.888   0.000  -0.000  -0.538  -0.000   0.000
  0.000   0.000   0.000   0.870   0.000   0.000  -0.543   0.000
 -0.000  -0.000  -0.000   0.000   0.888   0.000   0.000  -0.538
  0.000   0.000  -0.538   0.000   0.000   0.413  -0.000  -0.000
  0.000   0.000   0.000  -0.543   0.000  -0.000   0.439  -0.000
  0.000  -0.000   0.000   0.000  -0.538  -0.000  -0.000   0.413


------------------------ aborting loop because EDIFF is reached ----------------------------------------


    CHARGE:  cpu time    0.0160: real time    0.0155
    FORLOC:  cpu time    0.0000: real time    0.0005
    FORNL :  cpu time    0.0120: real time    0.0133
    STRESS:  cpu time    0.1320: real time    0.1287
    FORCOR:  cpu time    0.0120: real time    0.0125
    FORHAR:  cpu time    0.0000: real time    0.0035
    MIXING:  cpu time    0.0000: real time    0.0012
    OFIELD:  cpu time    0.0000: real time    0.0006

  FORCE on cell =-STRESS in cart. coord.  units (eV):
  Direction    XX          YY          ZZ          XY          YZ          ZX
  --------------------------------------------------------------------------------------
  Alpha Z     4.40202     4.40202     4.40202
  Ewald     -90.96023   -90.96023   -83.26083    -0.00000     0.00000     0.00000
  Hartree     0.54705     0.54705     1.39205     0.00000     0.00000     0.00000
  E(xc)     -25.42563   -25.42563   -25.38370     0.00005     0.00001     0.00001
  Local     -11.15715   -11.15715   -17.64940    -0.00002    -0.00005    -0.00005
  n-local    76.99235    76.94902    76.60515     0.96143    -0.44729    -0.41226
  augment   -12.06165   -12.06165   -12.00169     0.00004     0.00005     0.00005
  Kinetic    56.95261    57.21422    57.16127     3.22617    -2.05940    -2.75558
  Fock        0.00000     0.00000     0.00000     0.00000     0.00000     0.00000
  -------------------------------------------------------------------------------------
  Total      -0.60150    -0.60150     1.26486    -0.00000     0.00000     0.00000
  in kB     -31.50524   -31.50524    66.25102    -0.00000     0.00000     0.00000
  external pressure =        1.08 kB  Pullay stress =        0.00 kB


 VOLUME and BASIS-vectors are now :
 -----------------------------------------------------------------------------
  energy-cutoff  :      250.00
  volume of cell :       30.59
      direct lattice vectors                 reciprocal lattice vectors
    -2.450000000  2.450000000  1.274000000     0.000000000  0.204081633  0.392464678
     2.450000000 -2.450000000  1.274000000     0.204081633  0.000000000  0.392464678
     2.450000000  2.450000000 -1.274000000     0.204081633  0.204081633 -0.000000000

  length of vectors
     3.691622408  3.691622408  3.691622408     0.442354876  0.442354876  0.288615013


 FORCES acting on ions
    electron-ion (+dipol)            ewald-force                    non-local-force                 convergence-correction
 -----------------------------------------------------------------------------------------------
   0.946E-05 -.946E-05 0.124E-13   0.198E-14 0.156E-15 0.342E-17   0.243E-16 -.520E-16 -.239E-16   0.993E-10 -.993E-10 -.860E-16
   -.946E-05 0.946E-05 -.558E-14   -.185E-14 0.943E-16 0.891E-15   -.427E-16 0.544E-16 0.105E-16   -.993E-10 0.993E-10 0.544E-16
 -----------------------------------------------------------------------------------------------
   -.184E-13 0.138E-13 0.680E-14   0.139E-15 0.250E-15 0.894E-15   -.184E-16 0.243E-17 -.135E-16   0.424E-17 0.408E-17 -.315E-16
 
 
 POSITION                                       TOTAL-FORCE (eV/Angst)
 -----------------------------------------------------------------------------------
      2.45000      0.00000      0.63700        -0.000000      0.000000      0.000000
      0.00000      0.00000      0.00000         0.000000     -0.000000     -0.000000
 -----------------------------------------------------------------------------------
    total drift:                               -0.000000      0.000000      0.000000


--------------------------------------------------------------------------------------------------------



  FREE ENERGIE OF THE ION-ELECTRON SYSTEM (eV)
  ---------------------------------------------------
  free  energy   TOTEN  =       -10.18756548 eV

  energy  without entropy=      -10.16567116  energy(sigma->0) =      -10.17661832
 


--------------------------------------------------------------------------------------------------------


    POTLOK:  cpu time    0.0280: real time    0.0404


--------------------------------------------------------------------------------------------------------




--------------------------------------------------------------------------------------------------------


  
 reached required accuracy - stopping structural energy minimisation
 writing wavefunctions
     LOOP+:  cpu time    1.5080: real time    2.2274
    4ORBIT:  cpu time    0.0000: real time    0.0000

 total amount of memory used by VASP MPI-rank0    31708. kBytes
=======================================================================

   base      :      30000. kBytes
   nonl-proj :       1041. kBytes
   fftplans  :        119. kBytes
   grid      :        270. kBytes
   one-center:          6. kBytes
   wavefun   :        272. kBytes
 
  
  
 General timing and accounting informations for this job:
 ========================================================
  
                  Total CPU time used (sec):        5.576
                            User time (sec):        3.884
                          System time (sec):        1.692
                         Elapsed time (sec):        8.680
  
                   Maximum memory used (kb):        9088.
                   Average memory used (kb):           0.
  
                          Minor page faults:        37949
                          Major page faults:           31
                 Voluntary context switches:        26141
