   2   2   0   0
  0.1529437E+02  0.3691622E-09  0.3691622E-09  0.3691622E-09  0.5000000E-15
  1.000000000000000E-004
  CAR 
 unknown system                          
     22.31899345     -6.34378501  301      8.46215654      1.00000000
     -6.344  0.0000E+00  0.0000E+00
     -6.248  0.0000E+00  0.0000E+00
     -6.153  0.0000E+00  0.0000E+00
     -6.057  0.0000E+00  0.0000E+00
     -5.962  0.0000E+00  0.0000E+00
     -5.866  0.0000E+00  0.0000E+00
     -5.771  0.0000E+00  0.0000E+00
     -5.675  0.0000E+00  0.0000E+00
     -5.579  0.0000E+00  0.0000E+00
     -5.484  0.3389E-16  0.3238E-17
     -5.388  0.6551E-14  0.6291E-15
     -5.293  0.8383E-12  0.8072E-13
     -5.197  0.6845E-10  0.6620E-11
     -5.102  0.3570E-08  0.3477E-09
     -5.006  0.1191E-06  0.1173E-07
     -4.911  0.2544E-05  0.2548E-06
     -4.815  0.3484E-04  0.3583E-05
     -4.720  0.3062E-03  0.3284E-04
     -4.624  0.1729E-02  0.1980E-03
     -4.528  0.6282E-02  0.7982E-03
     -4.433  0.1469E-01  0.2202E-02
     -4.337  0.2214E-01  0.4317E-02
     -4.242  0.2151E-01  0.6372E-02
     -4.146  0.1357E-01  0.7668E-02
     -4.051  0.6119E-02  0.8253E-02
     -3.955  0.4101E-02  0.8645E-02
     -3.860  0.6934E-02  0.9307E-02
     -3.764  0.1076E-01  0.1033E-01
     -3.669  0.1108E-01  0.1139E-01
     -3.573  0.7373E-02  0.1210E-01
     -3.478  0.3169E-02  0.1240E-01
     -3.382  0.9802E-03  0.1249E-01
     -3.286  0.1031E-02  0.1259E-01
     -3.191  0.4589E-02  0.1303E-01
     -3.095  0.1547E-01  0.1451E-01
     -3.000  0.3451E-01  0.1781E-01
     -2.904  0.5307E-01  0.2288E-01
     -2.809  0.6212E-01  0.2881E-01
     -2.713  0.6255E-01  0.3479E-01
     -2.618  0.5471E-01  0.4002E-01
     -2.522  0.3721E-01  0.4357E-01
     -2.427  0.1918E-01  0.4540E-01
     -2.331  0.1331E-01  0.4668E-01
     -2.235  0.2317E-01  0.4889E-01
     -2.140  0.3978E-01  0.5269E-01
     -2.044  0.4586E-01  0.5707E-01
     -1.949  0.3418E-01  0.6034E-01
     -1.853  0.1641E-01  0.6191E-01
     -1.758  0.5076E-02  0.6239E-01
     -1.662  0.1011E-02  0.6249E-01
     -1.567  0.1382E-03  0.6250E-01
     -1.471  0.1106E-03  0.6251E-01
     -1.376  0.7176E-03  0.6258E-01
     -1.280  0.3305E-02  0.6289E-01
     -1.184  0.9806E-02  0.6383E-01
     -1.089  0.1874E-01  0.6562E-01
     -0.993  0.2312E-01  0.6783E-01
     -0.898  0.1885E-01  0.6963E-01
     -0.802  0.1302E-01  0.7088E-01
     -0.707  0.1890E-01  0.7268E-01
     -0.611  0.4465E-01  0.7695E-01
     -0.516  0.7906E-01  0.8450E-01
     -0.420  0.9154E-01  0.9325E-01
     -0.325  0.6851E-01  0.9979E-01
     -0.229  0.3319E-01  0.1030E+00
     -0.134  0.1110E-01  0.1040E+00
     -0.038  0.6396E-02  0.1046E+00
      0.058  0.1612E-01  0.1062E+00
      0.153  0.3950E-01  0.1100E+00
      0.249  0.6995E-01  0.1166E+00
      0.344  0.9566E-01  0.1258E+00
      0.440  0.1127E+00  0.1365E+00
      0.535  0.1211E+00  0.1481E+00
      0.631  0.1107E+00  0.1587E+00
      0.726  0.7628E-01  0.1660E+00
      0.822  0.3649E-01  0.1695E+00
      0.917  0.1164E-01  0.1706E+00
      1.013  0.2433E-02  0.1708E+00
      1.109  0.3310E-03  0.1708E+00
      1.204  0.3718E-04  0.1708E+00
      1.300  0.1003E-03  0.1708E+00
      1.395  0.7753E-03  0.1709E+00
      1.491  0.3978E-02  0.1713E+00
      1.586  0.1356E-01  0.1726E+00
      1.682  0.3165E-01  0.1756E+00
      1.777  0.5294E-01  0.1807E+00
      1.873  0.6630E-01  0.1870E+00
      1.968  0.6283E-01  0.1930E+00
      2.064  0.4377E-01  0.1972E+00
      2.160  0.2219E-01  0.1993E+00
      2.255  0.1062E-01  0.2003E+00
      2.351  0.9785E-02  0.2013E+00
      2.446  0.1277E-01  0.2025E+00
      2.542  0.1511E-01  0.2039E+00
      2.637  0.1860E-01  0.2057E+00
      2.733  0.2405E-01  0.2080E+00
      2.828  0.2768E-01  0.2106E+00
      2.924  0.3136E-01  0.2136E+00
      3.019  0.4188E-01  0.2176E+00
      3.115  0.5519E-01  0.2229E+00
      3.210  0.6149E-01  0.2288E+00
      3.306  0.6358E-01  0.2349E+00
      3.402  0.6923E-01  0.2415E+00
      3.497  0.7593E-01  0.2487E+00
      3.593  0.7678E-01  0.2561E+00
      3.688  0.6808E-01  0.2626E+00
      3.784  0.4920E-01  0.2673E+00
      3.879  0.2800E-01  0.2700E+00
      3.975  0.1853E-01  0.2717E+00
      4.070  0.2657E-01  0.2743E+00
      4.166  0.4171E-01  0.2782E+00
      4.261  0.4534E-01  0.2826E+00
      4.357  0.3232E-01  0.2857E+00
      4.453  0.1701E-01  0.2873E+00
      4.548  0.1439E-01  0.2887E+00
      4.644  0.2788E-01  0.2913E+00
      4.739  0.4982E-01  0.2961E+00
      4.835  0.6857E-01  0.3026E+00
      4.930  0.7972E-01  0.3103E+00
      5.026  0.8116E-01  0.3180E+00
      5.121  0.6920E-01  0.3246E+00
      5.217  0.5544E-01  0.3299E+00
      5.312  0.6010E-01  0.3357E+00
      5.408  0.7949E-01  0.3433E+00
      5.503  0.8770E-01  0.3516E+00
      5.599  0.7294E-01  0.3586E+00
      5.695  0.4829E-01  0.3632E+00
      5.790  0.3117E-01  0.3662E+00
      5.886  0.3450E-01  0.3695E+00
      5.981  0.6103E-01  0.3753E+00
      6.077  0.8903E-01  0.3838E+00
      6.172  0.8820E-01  0.3923E+00
      6.268  0.6271E-01  0.3982E+00
      6.363  0.4565E-01  0.4026E+00
      6.459  0.5066E-01  0.4075E+00
      6.554  0.6407E-01  0.4136E+00
      6.650  0.7648E-01  0.4209E+00
      6.746  0.8802E-01  0.4293E+00
      6.841  0.8911E-01  0.4378E+00
      6.937  0.6968E-01  0.4445E+00
      7.032  0.4025E-01  0.4483E+00
      7.128  0.2395E-01  0.4506E+00
      7.223  0.3939E-01  0.4544E+00
      7.319  0.9063E-01  0.4630E+00
      7.414  0.1474E+00  0.4771E+00
      7.510  0.1561E+00  0.4920E+00
      7.605  0.1070E+00  0.5022E+00
      7.701  0.4745E-01  0.5068E+00
      7.797  0.1364E-01  0.5081E+00
      7.892  0.2950E-02  0.5083E+00
      7.988  0.3051E-02  0.5086E+00
      8.083  0.1145E-01  0.5097E+00
      8.179  0.3175E-01  0.5128E+00
      8.274  0.6042E-01  0.5185E+00
      8.370  0.8059E-01  0.5262E+00
      8.465  0.7644E-01  0.5335E+00
      8.561  0.5142E-01  0.5385E+00
      8.656  0.2407E-01  0.5408E+00
      8.752  0.7660E-02  0.5415E+00
      8.847  0.1622E-02  0.5416E+00
      8.943  0.2252E-03  0.5417E+00
      9.039  0.2210E-04  0.5417E+00
      9.134  0.2945E-04  0.5417E+00
      9.230  0.2888E-03  0.5417E+00
      9.325  0.1933E-02  0.5419E+00
      9.421  0.8491E-02  0.5427E+00
      9.516  0.2446E-01  0.5450E+00
      9.612  0.4621E-01  0.5494E+00
      9.707  0.5782E-01  0.5550E+00
      9.803  0.5168E-01  0.5599E+00
      9.898  0.4738E-01  0.5644E+00
      9.994  0.6854E-01  0.5710E+00
     10.090  0.1058E+00  0.5811E+00
     10.185  0.1252E+00  0.5931E+00
     10.281  0.1135E+00  0.6039E+00
     10.376  0.8760E-01  0.6123E+00
     10.472  0.6757E-01  0.6187E+00
     10.567  0.6354E-01  0.6248E+00
     10.663  0.7173E-01  0.6317E+00
     10.758  0.7793E-01  0.6391E+00
     10.854  0.7113E-01  0.6459E+00
     10.949  0.5168E-01  0.6508E+00
     11.045  0.3204E-01  0.6539E+00
     11.141  0.2608E-01  0.6564E+00
     11.236  0.3485E-01  0.6597E+00
     11.332  0.4887E-01  0.6644E+00
     11.427  0.5708E-01  0.6698E+00
     11.523  0.5215E-01  0.6748E+00
     11.618  0.4157E-01  0.6788E+00
     11.714  0.4752E-01  0.6833E+00
     11.809  0.8051E-01  0.6910E+00
     11.905  0.1202E+00  0.7025E+00
     12.000  0.1349E+00  0.7154E+00
     12.096  0.1181E+00  0.7267E+00
     12.191  0.9097E-01  0.7354E+00
     12.287  0.6957E-01  0.7420E+00
     12.383  0.5238E-01  0.7470E+00
     12.478  0.4350E-01  0.7512E+00
     12.574  0.5576E-01  0.7565E+00
     12.669  0.8505E-01  0.7646E+00
     12.765  0.1067E+00  0.7748E+00
     12.860  0.1028E+00  0.7847E+00
     12.956  0.8172E-01  0.7925E+00
     13.051  0.6568E-01  0.7987E+00
     13.147  0.6491E-01  0.8049E+00
     13.242  0.6939E-01  0.8116E+00
     13.338  0.6803E-01  0.8181E+00
     13.434  0.6537E-01  0.8243E+00
     13.529  0.6915E-01  0.8309E+00
     13.625  0.7717E-01  0.8383E+00
     13.720  0.8545E-01  0.8465E+00
     13.816  0.8877E-01  0.8549E+00
     13.911  0.7798E-01  0.8624E+00
     14.007  0.5257E-01  0.8674E+00
     14.102  0.2609E-01  0.8699E+00
     14.198  0.1333E-01  0.8712E+00
     14.293  0.2274E-01  0.8734E+00
     14.389  0.5894E-01  0.8790E+00
     14.485  0.1120E+00  0.8897E+00
     14.580  0.1504E+00  0.9041E+00
     14.676  0.1510E+00  0.9185E+00
     14.771  0.1228E+00  0.9302E+00
     14.867  0.8537E-01  0.9384E+00
     14.962  0.4901E-01  0.9430E+00
     15.058  0.2124E-01  0.9451E+00
     15.153  0.6533E-02  0.9457E+00
     15.249  0.2134E-02  0.9459E+00
     15.344  0.4546E-02  0.9463E+00
     15.440  0.1483E-01  0.9478E+00
     15.535  0.3232E-01  0.9508E+00
     15.631  0.4559E-01  0.9552E+00
     15.727  0.4261E-01  0.9593E+00
     15.822  0.3141E-01  0.9623E+00
     15.918  0.3331E-01  0.9655E+00
     16.013  0.5519E-01  0.9707E+00
     16.109  0.7827E-01  0.9782E+00
     16.204  0.8074E-01  0.9859E+00
     16.300  0.6844E-01  0.9925E+00
     16.395  0.6077E-01  0.9983E+00
     16.491  0.5785E-01  0.1004E+01
     16.586  0.5035E-01  0.1009E+01
     16.682  0.3872E-01  0.1012E+01
     16.778  0.2585E-01  0.1015E+01
     16.873  0.1352E-01  0.1016E+01
     16.969  0.5312E-02  0.1017E+01
     17.064  0.3550E-02  0.1017E+01
     17.160  0.9917E-02  0.1018E+01
     17.255  0.2672E-01  0.1020E+01
     17.351  0.5022E-01  0.1025E+01
     17.446  0.6855E-01  0.1032E+01
     17.542  0.7230E-01  0.1039E+01
     17.637  0.5983E-01  0.1044E+01
     17.733  0.3704E-01  0.1048E+01
     17.828  0.1608E-01  0.1049E+01
     17.924  0.4678E-02  0.1050E+01
     18.020  0.8908E-03  0.1050E+01
     18.115  0.1098E-03  0.1050E+01
     18.211  0.8716E-05  0.1050E+01
     18.306  0.4441E-06  0.1050E+01
     18.402  0.1450E-07  0.1050E+01
     18.497  0.3029E-09  0.1050E+01
     18.593  0.4043E-11  0.1050E+01
     18.688  0.3443E-13  0.1050E+01
     18.784  0.1937E-15  0.1050E+01
     18.879  0.0000E+00  0.1050E+01
     18.975  0.4842E-17  0.1050E+01
     19.071  0.6197E-15  0.1050E+01
     19.166  0.9750E-13  0.1050E+01
     19.262  0.9766E-11  0.1050E+01
     19.357  0.6248E-09  0.1050E+01
     19.453  0.2556E-07  0.1050E+01
     19.548  0.6698E-06  0.1050E+01
     19.644  0.1127E-04  0.1050E+01
     19.739  0.1221E-03  0.1050E+01
     19.835  0.8560E-03  0.1050E+01
     19.930  0.3924E-02  0.1050E+01
     20.026  0.1195E-01  0.1052E+01
     20.122  0.2482E-01  0.1054E+01
     20.217  0.3646E-01  0.1057E+01
     20.313  0.3908E-01  0.1061E+01
     20.408  0.3079E-01  0.1064E+01
     20.504  0.1744E-01  0.1066E+01
     20.599  0.6842E-02  0.1066E+01
     20.695  0.1803E-02  0.1067E+01
     20.790  0.3124E-03  0.1067E+01
     20.886  0.3517E-04  0.1067E+01
     20.981  0.2556E-05  0.1067E+01
     21.077  0.1194E-06  0.1067E+01
     21.172  0.3574E-08  0.1067E+01
     21.268  0.6848E-10  0.1067E+01
     21.364  0.8385E-12  0.1067E+01
     21.459  0.6546E-14  0.1067E+01
     21.555  0.3873E-16  0.1067E+01
     21.650  0.0000E+00  0.1067E+01
     21.746  0.0000E+00  0.1067E+01
     21.841  0.0000E+00  0.1067E+01
     21.937  0.0000E+00  0.1067E+01
     22.032  0.0000E+00  0.1067E+01
     22.128  0.0000E+00  0.1067E+01
     22.223  0.0000E+00  0.1067E+01
     22.319  0.0000E+00  0.1067E+01
