    2    2   15    1
  0.1529437E+02  0.3691622E-09  0.3691622E-09  0.3691622E-09  0.5000000E-15
  1.000000000000000E-004
  CAR 
 unknown system                          
      8     11      8
 
  0.1250000E+00  0.1250000E+00  0.1250000E+00  0.1250000E+00
    1       -2.928462   1.000000
    2        3.461266   1.000000
    3        7.431432   1.000000
    4        8.424123   0.606010
    5       10.098541   0.000000
    6       11.433890   0.000000
    7       14.610931   0.000000
    8       14.814452   0.000000
 
  0.3750000E+00  0.1250000E+00  0.1250000E+00  0.1250000E+00
    1        0.555516   1.000000
    2        1.923496   1.000000
    3        4.185472   1.000000
    4        5.432449   1.000000
    5       10.093712   0.000000
    6       12.265794   0.000000
    7       13.877842   0.000000
    8       14.490716   0.000000
 
 -0.1250000E+00  0.1250000E+00  0.1250000E+00  0.6250000E-01
    1       -4.343785   1.000000
    2        4.952842   1.000000
    3        5.632227   1.000000
    4       11.233283   0.000000
    5       12.893804   0.000000
    6       13.097590   0.000000
    7       14.679320   0.000000
    8       16.077750   0.000000
 
  0.3750000E+00  0.3750000E+00  0.1250000E+00  0.6250000E-01
    1       -0.473694   1.000000
    2       -0.473694   1.000000
    3        7.405289   1.000000
    4        7.405298   1.000000
    5       11.879729   0.000000
    6       11.879731   0.000000
    7       13.727701   0.000000
    8       13.727708   0.000000
 
 -0.3750000E+00  0.3750000E+00  0.1250000E+00  0.1250000E+00
    1       -2.677798   1.000000
    2        0.592089   1.000000
    3        6.847804   1.000000
    4        9.670579   0.000000
    5       12.649282   0.000000
    6       13.514538   0.000000
    7       14.516293   0.000000
    8       16.425081   0.000000
 
 -0.1250000E+00  0.3750000E+00  0.1250000E+00  0.1250000E+00
    1       -2.108267   1.000000
    2        3.666813   1.000000
    3        4.752968   1.000000
    4        6.487265   1.000000
    5       10.302800   0.000000
    6       12.779348   0.000000
    7       13.243356   0.000000
    8       16.124153   0.000000
 
 -0.3750000E+00 -0.3750000E+00  0.1250000E+00  0.1250000E+00
    1        0.231848   1.000000
    2        0.379125   1.000000
    3        5.025054   1.000000
    4        6.725494   1.000000
    5        7.438122   1.000000
    6       12.021916   0.000000
    7       17.368911   0.000000
    8       17.566604   0.000000
 
 -0.1250000E+00 -0.3750000E+00  0.1250000E+00  0.1250000E+00
    1       -0.493200   1.000000
    2        3.089889   1.000000
    3        6.064394   1.000000
    4        6.079028   1.000000
    5        8.285659   0.893990
    6       10.643942   0.000000
    7       10.828448   0.000000
    8       15.609417   0.000000
 
 -0.1250000E+00 -0.1250000E+00  0.1250000E+00  0.3125000E-01
    1       -3.757192   1.000000
    2        7.439239   1.000000
    3        7.439254   1.000000
    4        9.608837   0.000000
    5       10.144500   0.000000
    6       10.460395   0.000000
    7       12.029928   0.000000
    8       12.738750   0.000000
 
 -0.3750000E+00  0.3750000E+00  0.3750000E+00  0.6250000E-01
    1       -1.043731   1.000000
    2        1.739158   1.000000
    3        2.748439   1.000000
    4        5.435276   1.000000
    5       11.832331   0.000000
    6       11.921783   0.000000
    7       20.158591   0.000000
    8       20.318993   0.000000
 
 -0.3750000E+00 -0.3750000E+00  0.3750000E+00  0.3125000E-01
    1        1.760815   1.000000
    2        2.423364   1.000000
    3        3.296222   1.000000
    4        3.296223   1.000000
    5        5.328910   1.000000
    6       16.026517   0.000000
    7       16.665826   0.000000
    8       16.665851   0.000000
