<?xml version="1.0" encoding="ISO-8859-1"?>
<modeling>
 <generator>
  <i name="program" type="string">vasp </i>
  <i name="version" type="string">5.4.4.18Apr17-6-g9f103f2a35  </i>
  <i name="subversion" type="string">(build Dec 09 2018 21:25:21) complex            parallel </i>
  <i name="platform" type="string">IFC18.0.1.163_CrayMPICH7.7.0_MKL18.0.1.163 </i>
  <i name="date" type="string">2019 03 20 </i>
  <i name="time" type="string">09:14:14 </i>
 </generator>
 <incar>
  <i type="string" name="PREC">normal</i>
  <i type="int" name="IBRION">     2</i>
  <i name="EDIFF">      0.00040000</i>
  <i name="EDIFFG">     -0.01000000</i>
  <i type="int" name="NSW">    15</i>
  <i type="int" name="ISIF">     3</i>
  <i name="ENCUT">    200.00000000</i>
  <i type="int" name="NBANDS">     8</i>
  <i type="logical" name="LREAL"> F  </i>
  <i type="int" name="ISMEAR">     0</i>
  <i name="SIGMA">      0.20000000</i>
  <v type="int" name="KPOINT_BSE">    -1     0     0     0</v>
 </incar>
 <structure name="primitive_cell" >
  <crystal>
   <varray name="basis" >
    <v>      -2.45000000       2.45000000       1.27400000 </v>
    <v>       2.45000000      -2.45000000       1.27400000 </v>
    <v>       2.45000000       2.45000000      -1.27400000 </v>
   </varray>
   <i name="volume">     30.58874000 </i>
   <varray name="rec_basis" >
    <v>       0.00000000       0.20408163       0.39246468 </v>
    <v>       0.20408163       0.00000000       0.39246468 </v>
    <v>       0.20408163       0.20408163      -0.00000000 </v>
   </varray>
  </crystal>
  <varray name="positions" >
   <v>       0.25000000      -0.25000000      -0.50000000 </v>
   <v>       0.00000000       0.00000000       0.00000000 </v>
  </varray>
 </structure>
 <varray name="primitive_index" >
  <v type="int" >        1 </v>
  <v type="int" >        2 </v>
 </varray>
 <kpoints>
  <generation param="Monkhorst-Pack">
   <v type="int" name="divisions">       4        4        4 </v>
   <v name="usershift">      0.00000000       0.00000000       0.00000000 </v>
   <v name="genvec1">      0.25000000       0.00000000      -0.00000000 </v>
   <v name="genvec2">      0.00000000       0.25000000      -0.00000000 </v>
   <v name="genvec3">      0.00000000      -0.00000000       0.25000000 </v>
   <v name="shift">      0.50000000       0.50000000       0.50000000 </v>
  </generation>
  <varray name="kpointlist" >
   <v>       0.12500000       0.12500000       0.12500000 </v>
   <v>       0.37500000       0.12500000       0.12500000 </v>
   <v>      -0.12500000       0.12500000       0.12500000 </v>
   <v>       0.37500000       0.37500000       0.12500000 </v>
   <v>      -0.37500000       0.37500000       0.12500000 </v>
   <v>      -0.12500000       0.37500000       0.12500000 </v>
   <v>      -0.37500000      -0.37500000       0.12500000 </v>
   <v>      -0.12500000      -0.37500000       0.12500000 </v>
   <v>      -0.12500000      -0.12500000       0.12500000 </v>
   <v>      -0.37500000       0.37500000       0.37500000 </v>
   <v>      -0.37500000      -0.37500000       0.37500000 </v>
  </varray>
  <varray name="weights" >
   <v>       0.12500000 </v>
   <v>       0.12500000 </v>
   <v>       0.06250000 </v>
   <v>       0.06250000 </v>
   <v>       0.12500000 </v>
   <v>       0.12500000 </v>
   <v>       0.12500000 </v>
   <v>       0.12500000 </v>
   <v>       0.03125000 </v>
   <v>       0.06250000 </v>
   <v>       0.03125000 </v>
  </varray>
 </kpoints>
 <parameters>
  <separator name="general" >
   <i type="string" name="SYSTEM">unknown system</i>
   <i type="logical" name="LCOMPAT"> F  </i>
  </separator>
  <separator name="electronic" >
   <i type="string" name="PREC">normal</i>
   <i name="ENMAX">    200.00000000</i>
   <i name="ENAUG">    322.06900000</i>
   <i name="EDIFF">      0.00040000</i>
   <i type="int" name="IALGO">    38</i>
   <i type="int" name="IWAVPR">    11</i>
   <i type="int" name="NBANDS">     8</i>
   <i name="NELECT">      8.00000000</i>
   <i type="int" name="TURBO">     0</i>
   <i type="int" name="IRESTART">     0</i>
   <i type="int" name="NREBOOT">     0</i>
   <i type="int" name="NMIN">     0</i>
   <i name="EREF">      0.00000000</i>
   <separator name="electronic smearing" >
    <i type="int" name="ISMEAR">     0</i>
    <i name="SIGMA">      0.20000000</i>
    <i name="KSPACING">      0.50000000</i>
    <i type="logical" name="KGAMMA"> T  </i>
   </separator>
   <separator name="electronic projectors" >
    <i type="logical" name="LREAL"> F  </i>
    <v name="ROPT">      0.00000000</v>
    <i type="int" name="LMAXPAW">  -100</i>
    <i type="int" name="LMAXMIX">     2</i>
    <i type="logical" name="NLSPLINE"> F  </i>
   </separator>
   <separator name="electronic startup" >
    <i type="int" name="ISTART">     0</i>
    <i type="int" name="ICHARG">     2</i>
    <i type="int" name="INIWAV">     1</i>
   </separator>
   <separator name="electronic spin" >
    <i type="int" name="ISPIN">     1</i>
    <i type="logical" name="LNONCOLLINEAR"> F  </i>
    <v name="MAGMOM">      1.00000000      1.00000000</v>
    <i name="NUPDOWN">     -1.00000000</i>
    <i type="logical" name="LSORBIT"> F  </i>
    <v name="SAXIS">      0.00000000      0.00000000      1.00000000</v>
    <i type="logical" name="LSPIRAL"> F  </i>
    <v name="QSPIRAL">      0.00000000      0.00000000      0.00000000</v>
    <i type="logical" name="LZEROZ"> F  </i>
   </separator>
   <separator name="electronic exchange-correlation" >
    <i type="logical" name="LASPH"> F  </i>
    <i type="logical" name="LMETAGGA"> F  </i>
   </separator>
   <separator name="electronic convergence" >
    <i type="int" name="NELM">    60</i>
    <i type="int" name="NELMDL">    -5</i>
    <i type="int" name="NELMIN">     2</i>
    <i name="ENINI">    200.00000000</i>
    <separator name="electronic convergence detail" >
     <i type="logical" name="LDIAG"> T  </i>
     <i type="logical" name="LSUBROT"> F  </i>
     <i name="WEIMIN">      0.00100000</i>
     <i name="EBREAK">      0.00001250</i>
     <i name="DEPER">      0.30000000</i>
     <i type="int" name="NRMM">     4</i>
     <i name="TIME">      0.40000000</i>
    </separator>
   </separator>
   <separator name="electronic mixer" >
    <i name="AMIX">      0.40000000</i>
    <i name="BMIX">      1.00000000</i>
    <i name="AMIN">      0.10000000</i>
    <i name="AMIX_MAG">      1.60000000</i>
    <i name="BMIX_MAG">      1.00000000</i>
    <separator name="electronic mixer details" >
     <i type="int" name="IMIX">     4</i>
     <i type="logical" name="MIXFIRST"> F  </i>
     <i type="int" name="MAXMIX">   -45</i>
     <i name="WC">    100.00000000</i>
     <i type="int" name="INIMIX">     1</i>
     <i type="int" name="MIXPRE">     1</i>
     <i type="int" name="MREMOVE">     5</i>
    </separator>
   </separator>
   <separator name="electronic dipolcorrection" >
    <i type="logical" name="LDIPOL"> F  </i>
    <i type="logical" name="LMONO"> F  </i>
    <i type="int" name="IDIPOL">     0</i>
    <i name="EPSILON">      1.00000000</i>
    <v name="DIPOL">   -100.00000000   -100.00000000   -100.00000000</v>
    <i name="EFIELD">      0.00000000</i>
   </separator>
  </separator>
  <separator name="grids" >
   <i type="int" name="NGX">    14</i>
   <i type="int" name="NGY">    14</i>
   <i type="int" name="NGZ">    14</i>
   <i type="int" name="NGXF">    28</i>
   <i type="int" name="NGYF">    28</i>
   <i type="int" name="NGZF">    28</i>
   <i type="logical" name="ADDGRID"> F  </i>
  </separator>
  <separator name="ionic" >
   <i type="int" name="NSW">    15</i>
   <i type="int" name="IBRION">     2</i>
   <i type="int" name="MDALGO">     0</i>
   <i type="int" name="ISIF">     3</i>
   <i name="PSTRESS">      0.00000000</i>
   <i name="EDIFFG">     -0.01000000</i>
   <i type="int" name="NFREE">     1</i>
   <i name="POTIM">      0.50000000</i>
   <i name="SMASS">     -3.00000000</i>
   <i name="SCALEE">      1.00000000</i>
  </separator>
  <separator name="ionic md" >
   <i name="TEBEG">      0.00010000</i>
   <i name="TEEND">      0.00010000</i>
   <i type="int" name="NBLOCK">     1</i>
   <i type="int" name="KBLOCK">    15</i>
   <i type="int" name="NPACO">   256</i>
   <i name="APACO">     16.00000000</i>
  </separator>
  <separator name="symmetry" >
   <i type="int" name="ISYM">     2</i>
   <i name="SYMPREC">      0.00001000</i>
  </separator>
  <separator name="dos" >
   <i type="int" name="LORBIT">     0</i>
   <v name="RWIGS">     -1.00000000</v>
   <i type="int" name="NEDOS">   301</i>
   <i name="EMIN">     10.00000000</i>
   <i name="EMAX">    -10.00000000</i>
   <i name="EFERMI">      0.00000000</i>
  </separator>
  <separator name="writing" >
   <i type="int" name="NWRITE">     2</i>
   <i type="logical" name="LWAVE"> T  </i>
   <i type="logical" name="LDOWNSAMPLE"> F  </i>
   <i type="logical" name="LCHARG"> T  </i>
   <i type="logical" name="LPARD"> F  </i>
   <i type="logical" name="LVTOT"> F  </i>
   <i type="logical" name="LVHAR"> F  </i>
   <i type="logical" name="LELF"> F  </i>
   <i type="logical" name="LOPTICS"> F  </i>
   <v name="STM">      0.00000000      0.00000000      0.00000000      0.00000000      0.00000000      0.00000000      0.00000000</v>
  </separator>
  <separator name="performance" >
   <i type="int" name="NPAR">     8</i>
   <i type="int" name="NSIM">     4</i>
   <i type="int" name="NBLK">    -1</i>
   <i type="logical" name="LPLANE"> T  </i>
   <i type="logical" name="LSCALAPACK"> T  </i>
   <i type="logical" name="LSCAAWARE"> F  </i>
   <i type="logical" name="LSCALU"> F  </i>
   <i type="logical" name="LASYNC"> F  </i>
   <i type="logical" name="LORBITALREAL"> F  </i>
  </separator>
  <separator name="miscellaneous" >
   <i type="int" name="IDIOT">     3</i>
   <i type="int" name="ISPECIAL">     0</i>
   <i type="logical" name="LMUSIC"> F  </i>
   <v name="POMASS">     28.08500000</v>
   <v name="DARWINR">      0.00000000</v>
   <v name="DARWINV">      1.00000000</v>
   <i type="logical" name="LCORR"> T  </i>
  </separator>
  <i type="logical" name="GGA_COMPAT"> T  </i>
  <i type="logical" name="LBERRY"> F  </i>
  <i type="int" name="ICORELEVEL">     0</i>
  <i type="logical" name="LDAU"> F  </i>
  <i type="int" name="I_CONSTRAINED_M">     0</i>
  <separator name="electronic exchange-correlation" >
   <i type="string" name="GGA">--</i>
   <i type="int" name="VOSKOWN">     0</i>
   <i type="logical" name="LHFCALC"> F  </i>
   <i type="string" name="PRECFOCK"></i>
   <i type="logical" name="LSYMGRAD"> F  </i>
   <i type="logical" name="LHFONE"> F  </i>
   <i type="logical" name="LRHFCALC"> F  </i>
   <i type="logical" name="LTHOMAS"> F  </i>
   <i type="logical" name="LMODELHF"> F  </i>
   <i name="ENCUT4O">     -1.00000000</i>
   <i type="int" name="EXXOEP">     0</i>
   <i type="int" name="FOURORBIT">     0</i>
   <i name="AEXX">      0.00000000</i>
   <i name="HFALPHA">      0.00000000</i>
   <i name="MCALPHA">      0.00000000</i>
   <i name="ALDAX">      1.00000000</i>
   <i name="AGGAX">      1.00000000</i>
   <i name="ALDAC">      1.00000000</i>
   <i name="AGGAC">      1.00000000</i>
   <i type="int" name="NKREDX">     1</i>
   <i type="int" name="NKREDY">     1</i>
   <i type="int" name="NKREDZ">     1</i>
   <i type="logical" name="SHIFTRED"> F  </i>
   <i type="logical" name="ODDONLY"> F  </i>
   <i type="logical" name="EVENONLY"> F  </i>
   <i type="int" name="LMAXFOCK">     0</i>
   <i type="int" name="NMAXFOCKAE">     0</i>
   <i type="logical" name="LFOCKAEDFT"> F  </i>
   <i name="HFSCREEN">      0.00000000</i>
   <i name="HFSCREENC">      0.00000000</i>
   <i type="int" name="NBANDSGWLOW">     0</i>
  </separator>
  <separator name="vdW DFT" >
   <i type="logical" name="LUSE_VDW"> F  </i>
   <i name="Zab_VDW">     -0.84910000</i>
   <i name="PARAM1">      0.12340000</i>
   <i name="PARAM2">      1.00000000</i>
   <i name="PARAM3">      0.00000000</i>
  </separator>
  <separator name="model GW" >
   <i type="int" name="MODEL_GW">     0</i>
   <i name="MODEL_EPS0">      9.17662200</i>
   <i name="MODEL_ALPHA">      1.00000000</i>
  </separator>
  <separator name="linear response parameters" >
   <i type="logical" name="LEPSILON"> F  </i>
   <i type="logical" name="LRPA"> F  </i>
   <i type="logical" name="LNABLA"> F  </i>
   <i type="logical" name="LVEL"> F  </i>
   <i type="int" name="KINTER">     0</i>
   <i name="CSHIFT">      0.10000000</i>
   <i name="OMEGAMAX">     -1.00000000</i>
   <i name="DEG_THRESHOLD">      0.00200000</i>
   <i name="RTIME">     -0.10000000</i>
   <i name="WPLASMAI">      0.00000000</i>
   <v name="DFIELD">      0.00000000      0.00000000      0.00000000</v>
   <v name="WPLASMA">      0.00000000      0.00000000      0.00000000      0.00000000      0.00000000      0.00000000      0.00000000      0.00000000      0.00000000</v>
  </separator>
  <separator name="orbital magnetization" >
   <i type="logical" name="NUCIND"> F  </i>
   <v name="MAGPOS">      0.00000000      0.00000000      0.00000000</v>
   <i type="logical" name="LNICSALL"> T  </i>
   <i type="logical" name="ORBITALMAG"> F  </i>
   <i type="logical" name="LMAGBLOCH"> F  </i>
   <i type="logical" name="LCHIMAG"> F  </i>
   <i type="logical" name="LGAUGE"> T  </i>
   <i type="int" name="MAGATOM">     0</i>
   <v name="MAGDIPOL">      0.00000000      0.00000000      0.00000000</v>
   <v name="AVECCONST">      0.00000000      0.00000000      0.00000000</v>
  </separator>
  <separator name="response functions" >
   <i type="logical" name="LADDER"> F  </i>
   <i type="logical" name="LRPAFORCE"> F  </i>
   <i type="logical" name="LFXC"> F  </i>
   <i type="logical" name="LHARTREE"> T  </i>
   <i type="int" name="IBSE">     0</i>
   <v type="int" name="KPOINT">    -1     0     0     0</v>
   <i type="logical" name="LTCTE"> F  </i>
   <i type="logical" name="LTETE"> F  </i>
   <i type="logical" name="LTRIPLET"> F  </i>
   <i type="logical" name="LFXCEPS"> F  </i>
   <i type="logical" name="LFXHEG"> F  </i>
   <i type="int" name="NATURALO">     2</i>
   <i type="logical" name="L2ORDER"> F  </i>
   <i type="logical" name="LMP2LT"> F  </i>
   <i type="logical" name="LUSEW"> F  </i>
   <i name="ENCUTGW">     -2.00000000</i>
   <i name="ENCUTGWSOFT">     -2.00000000</i>
   <i name="ENCUTLF">     -1.00000000</i>
   <i type="int" name="LMAXMP2">    -1</i>
   <i name="SCISSOR">      0.00000000</i>
   <i type="int" name="NOMEGA">     0</i>
   <i type="int" name="NOMEGAR">     0</i>
   <i type="int" name="NBANDSGW">    -1</i>
   <i type="int" name="NBANDSO">    -1</i>
   <i type="int" name="NBANDSV">    -1</i>
   <i type="int" name="NELM">     1</i>
   <i type="int" name="NELMHF">     1</i>
   <i type="int" name="DIM">     3</i>
   <i type="int" name="ANTIRES">     0</i>
   <i name="OMEGAMAX">    -30.00000000</i>
   <i name="OMEGAMIN">    -30.00000000</i>
   <i name="OMEGATL">   -200.00000000</i>
   <i type="int" name="OMEGAGRID">   140</i>
   <i name="CSHIFT">     -0.10000000</i>
   <i type="logical" name="SELFENERGY"> F  </i>
   <i type="logical" name="LSPECTRAL"> F  </i>
   <i type="logical" name="LSPECTRALGW"> F  </i>
   <i type="logical" name="LSINGLES"> F  </i>
   <i type="logical" name="LFERMIGW"> F  </i>
   <i type="logical" name="ODDONLYGW"> F  </i>
   <i type="logical" name="EVENONLYGW"> F  </i>
   <i type="int" name="NKREDLFX">     1</i>
   <i type="int" name="NKREDLFY">     1</i>
   <i type="int" name="NKREDLFZ">     1</i>
   <i type="int" name="MAXMEM">  2800</i>
   <i type="int" name="TELESCOPE">     0</i>
   <i type="int" name="TAUPAR">     1</i>
   <i type="int" name="OMEGAPAR">    -1</i>
   <i name="LAMBDA">      1.00000000</i>
  </separator>
  <separator name="External order field" >
   <i name="OFIELD_KAPPA">      0.00000000</i>
   <v name="OFIELD_K">      0.00000000      0.00000000      0.00000000</v>
   <i name="OFIELD_Q6_NEAR">      0.00000000</i>
   <i name="OFIELD_Q6_FAR">      0.00000000</i>
   <i name="OFIELD_A">      0.00000000</i>
  </separator>
 </parameters>
 <atominfo>
  <atoms>       2 </atoms>
  <types>       1 </types>
  <array name="atoms" >
   <dimension dim="1">ion</dimension>
   <field type="string">element</field>
   <field type="int">atomtype</field>
   <set>
    <rc><c>Si</c><c>   1</c></rc>
    <rc><c>Si</c><c>   1</c></rc>
   </set>
  </array>
  <array name="atomtypes" >
   <dimension dim="1">type</dimension>
   <field type="int">atomspertype</field>
   <field type="string">element</field>
   <field>mass</field>
   <field>valence</field>
   <field type="string">pseudopotential</field>
   <set>
    <rc><c>   2</c><c>Si</c><c>     28.08500000</c><c>      4.00000000</c><c> PAW_PBE Si 05Jan2001                   </c></rc>
   </set>
  </array>
 </atominfo>
 <structure name="initialpos" >
  <crystal>
   <varray name="basis" >
    <v>      -2.45000000       2.45000000       1.27400000 </v>
    <v>       2.45000000      -2.45000000       1.27400000 </v>
    <v>       2.45000000       2.45000000      -1.27400000 </v>
   </varray>
   <i name="volume">     30.58874000 </i>
   <varray name="rec_basis" >
    <v>       0.00000000       0.20408163       0.39246468 </v>
    <v>       0.20408163       0.00000000       0.39246468 </v>
    <v>       0.20408163       0.20408163      -0.00000000 </v>
   </varray>
  </crystal>
  <varray name="positions" >
   <v>       0.25000000       0.75000000       0.50000000 </v>
   <v>       0.00000000       0.00000000       0.00000000 </v>
  </varray>
 </structure>
 <calculation>
  <scstep>
   <time name="dav">    0.10    0.11</time>
   <time name="total">    0.14    0.16</time>
   <energy>
    <i name="alphaZ">      4.40202223 </i>
    <i name="ewald">   -265.18101312 </i>
    <i name="hartreedc">     -2.30415367 </i>
    <i name="XCdc">    -17.81545108 </i>
    <i name="pawpsdc">     65.95520812 </i>
    <i name="pawaedc">    -30.76852678 </i>
    <i name="eentropy">     -0.01106506 </i>
    <i name="bandstr">     34.32325494 </i>
    <i name="atom">    206.11247263 </i>
    <i name="e_fr_energy">     -5.28725180 </i>
    <i name="e_wo_entrp">     -5.27618673 </i>
    <i name="e_0_energy">     -5.28171927 </i>
   </energy>
  </scstep>
  <scstep>
   <time name="dav">    0.15    0.17</time>
   <time name="total">    0.16    0.18</time>
   <energy>
    <i name="e_fr_energy">     -9.92652164 </i>
    <i name="e_wo_entrp">     -9.91240513 </i>
    <i name="e_0_energy">     -9.91946339 </i>
   </energy>
  </scstep>
  <scstep>
   <time name="dav">    0.10    0.12</time>
   <time name="total">    0.10    0.12</time>
   <energy>
    <i name="e_fr_energy">     -9.95432129 </i>
    <i name="e_wo_entrp">     -9.94019434 </i>
    <i name="e_0_energy">     -9.94725781 </i>
   </energy>
  </scstep>
  <scstep>
   <time name="dav">    0.14    0.15</time>
   <time name="total">    0.14    0.15</time>
   <energy>
    <i name="e_fr_energy">     -9.95436965 </i>
    <i name="e_wo_entrp">     -9.94024227 </i>
    <i name="e_0_energy">     -9.94730596 </i>
   </energy>
  </scstep>
  <scstep>
   <time name="dav">    0.11    0.12</time>
   <time name="total">    0.12    0.14</time>
   <energy>
    <i name="e_fr_energy">     -9.95436967 </i>
    <i name="e_wo_entrp">     -9.94024229 </i>
    <i name="e_0_energy">     -9.94730598 </i>
   </energy>
  </scstep>
  <scstep>
   <time name="dav">    0.10    0.10</time>
   <time name="total">    0.14    0.16</time>
   <energy>
    <i name="e_fr_energy">     -9.94857639 </i>
    <i name="e_wo_entrp">     -9.93446587 </i>
    <i name="e_0_energy">     -9.94152113 </i>
   </energy>
  </scstep>
  <scstep>
   <time name="dav">    0.09    0.09</time>
   <time name="total">    0.13    0.17</time>
   <energy>
    <i name="e_fr_energy">     -9.94402768 </i>
    <i name="e_wo_entrp">     -9.92995801 </i>
    <i name="e_0_energy">     -9.93699285 </i>
   </energy>
  </scstep>
  <scstep>
   <time name="dav">    0.07    0.07</time>
   <time name="total">    0.10    0.12</time>
   <energy>
    <i name="alphaZ">      4.40202223 </i>
    <i name="ewald">   -265.18101312 </i>
    <i name="hartreedc">     -2.51757660 </i>
    <i name="XCdc">    -17.56147249 </i>
    <i name="pawpsdc">     71.43614337 </i>
    <i name="pawaedc">    -36.36059192 </i>
    <i name="eentropy">     -0.01407189 </i>
    <i name="bandstr">     29.74008076 </i>
    <i name="atom">    206.11247263 </i>
    <i name="e_fr_energy">     -9.94400702 </i>
    <i name="e_wo_entrp">     -9.92993513 </i>
    <i name="e_0_energy">     -9.93697108 </i>
   </energy>
  </scstep>
  <structure>
   <crystal>
    <varray name="basis" >
     <v>      -2.45000000       2.45000000       1.27400000 </v>
     <v>       2.45000000      -2.45000000       1.27400000 </v>
     <v>       2.45000000       2.45000000      -1.27400000 </v>
    </varray>
    <i name="volume">     30.58874000 </i>
    <varray name="rec_basis" >
     <v>       0.00000000       0.20408163       0.39246468 </v>
     <v>       0.20408163       0.00000000       0.39246468 </v>
     <v>       0.20408163       0.20408163      -0.00000000 </v>
    </varray>
   </crystal>
   <varray name="positions" >
    <v>       0.25000000       0.75000000       0.50000000 </v>
    <v>       0.00000000       0.00000000       0.00000000 </v>
   </varray>
  </structure>
  <varray name="forces" >
   <v>      -0.00000000      -0.00000000      -0.00000000 </v>
   <v>       0.00000000       0.00000000       0.00000000 </v>
  </varray>
  <varray name="stress" >
   <v>     -56.51120042       0.00000000       0.00000000 </v>
   <v>       0.00000000     -56.51120042      -0.00000000 </v>
   <v>       0.00000000      -0.00000000     159.61943958 </v>
  </varray>
  <energy>
   <i name="e_fr_energy">     -9.94400702 </i>
   <i name="e_wo_entrp">     -9.93697108 </i>
   <i name="e_0_energy">     -0.01407189 </i>
  </energy>
  <time name="totalsc">    1.64    2.24</time>
 </calculation>
 <calculation>
  <scstep>
   <time name="dav">    0.12    0.12</time>
   <time name="total">    0.16    0.16</time>
   <energy>
    <i name="alphaZ">      4.32265806 </i>
    <i name="ewald">   -263.56016735 </i>
    <i name="hartreedc">     -2.45300624 </i>
    <i name="XCdc">    -17.65943583 </i>
    <i name="pawpsdc">     71.45023022 </i>
    <i name="pawaedc">    -36.37504495 </i>
    <i name="eentropy">     -0.01320499 </i>
    <i name="bandstr">     27.89470253 </i>
    <i name="atom">    206.11247263 </i>
    <i name="e_fr_energy">    -10.28079592 </i>
    <i name="e_wo_entrp">    -10.26759094 </i>
    <i name="e_0_energy">    -10.27419343 </i>
   </energy>
  </scstep>
  <scstep>
   <time name="dav">    0.08    0.08</time>
   <time name="total">    0.12    0.14</time>
   <energy>
    <i name="e_fr_energy">    -10.21744122 </i>
    <i name="e_wo_entrp">    -10.20340625 </i>
    <i name="e_0_energy">    -10.21042373 </i>
   </energy>
  </scstep>
  <scstep>
   <time name="dav">    0.10    0.11</time>
   <time name="total">    0.14    0.17</time>
   <energy>
    <i name="e_fr_energy">    -10.18679170 </i>
    <i name="e_wo_entrp">    -10.17223933 </i>
    <i name="e_0_energy">    -10.17951552 </i>
   </energy>
  </scstep>
  <scstep>
   <time name="dav">    0.11    0.11</time>
   <time name="total">    0.14    0.16</time>
   <energy>
    <i name="alphaZ">      4.32265806 </i>
    <i name="ewald">   -263.56016735 </i>
    <i name="hartreedc">     -2.66539544 </i>
    <i name="XCdc">    -17.64219060 </i>
    <i name="pawpsdc">     71.58288610 </i>
    <i name="pawaedc">    -36.51288449 </i>
    <i name="eentropy">     -0.01455027 </i>
    <i name="bandstr">     28.19018271 </i>
    <i name="atom">    206.11247263 </i>
    <i name="e_fr_energy">    -10.18698866 </i>
    <i name="e_wo_entrp">    -10.17243838 </i>
    <i name="e_0_energy">    -10.17971352 </i>
   </energy>
  </scstep>
  <structure>
   <crystal>
    <varray name="basis" >
     <v>      -2.38623934       2.38623934       1.36764992 </v>
     <v>       2.38623934      -2.38623934       1.36764992 </v>
     <v>       2.38623934       2.38623934      -1.36764992 </v>
    </varray>
    <i name="volume">     31.15035050 </i>
    <varray name="rec_basis" >
     <v>      -0.00000000       0.20953472       0.36559063 </v>
     <v>       0.20953472      -0.00000000       0.36559063 </v>
     <v>       0.20953472       0.20953472       0.00000000 </v>
    </varray>
   </crystal>
   <varray name="positions" >
    <v>       0.25000000       0.75000000       0.50000000 </v>
    <v>       0.00000000       0.00000000       0.00000000 </v>
   </varray>
  </structure>
  <varray name="forces" >
   <v>      -0.00000000       0.00000000      -0.00000000 </v>
   <v>       0.00000000      -0.00000000       0.00000000 </v>
  </varray>
  <varray name="stress" >
   <v>     -55.87638017      -0.00000000      -0.00000000 </v>
   <v>      -0.00000000     -55.87638017       0.00000000 </v>
   <v>      -0.00000000       0.00000000      89.86840159 </v>
  </varray>
  <energy>
   <i name="e_fr_energy">    -10.18698866 </i>
   <i name="e_wo_entrp">    -10.17971352 </i>
   <i name="e_0_energy">     -0.01455027 </i>
  </energy>
  <time name="totalsc">    0.72    0.93</time>
 </calculation>
 <calculation>
  <scstep>
   <time name="dav">    0.12    0.13</time>
   <time name="total">    0.16    0.18</time>
   <energy>
    <i name="alphaZ">      4.27602288 </i>
    <i name="ewald">   -261.89654823 </i>
    <i name="hartreedc">     -2.66489727 </i>
    <i name="XCdc">    -17.70286204 </i>
    <i name="pawpsdc">     71.45830276 </i>
    <i name="pawaedc">    -36.38314781 </i>
    <i name="eentropy">     -0.01442945 </i>
    <i name="bandstr">     26.45327094 </i>
    <i name="atom">    206.11247263 </i>
    <i name="e_fr_energy">    -10.36181559 </i>
    <i name="e_wo_entrp">    -10.34738614 </i>
    <i name="e_0_energy">    -10.35460087 </i>
   </energy>
  </scstep>
  <scstep>
   <time name="dav">    0.09    0.09</time>
   <time name="total">    0.13    0.15</time>
   <energy>
    <i name="e_fr_energy">    -10.32064823 </i>
    <i name="e_wo_entrp">    -10.30617457 </i>
    <i name="e_0_energy">    -10.31341140 </i>
   </energy>
  </scstep>
  <scstep>
   <time name="dav">    0.11    0.11</time>
   <time name="total">    0.15    0.17</time>
   <energy>
    <i name="e_fr_energy">    -10.29981184 </i>
    <i name="e_wo_entrp">    -10.28526428 </i>
    <i name="e_0_energy">    -10.29253806 </i>
   </energy>
  </scstep>
  <scstep>
   <time name="dav">    0.10    0.10</time>
   <time name="total">    0.13    0.15</time>
   <energy>
    <i name="alphaZ">      4.27602288 </i>
    <i name="ewald">   -261.89654823 </i>
    <i name="hartreedc">     -3.07039545 </i>
    <i name="XCdc">    -17.66069216 </i>
    <i name="pawpsdc">     71.83572516 </i>
    <i name="pawaedc">    -36.77190862 </i>
    <i name="eentropy">     -0.01454522 </i>
    <i name="bandstr">     26.88994647 </i>
    <i name="atom">    206.11247263 </i>
    <i name="e_fr_energy">    -10.29992255 </i>
    <i name="e_wo_entrp">    -10.28537732 </i>
    <i name="e_0_energy">    -10.29264993 </i>
   </energy>
  </scstep>
  <structure>
   <crystal>
    <varray name="basis" >
     <v>      -2.33062049       2.33062049       1.44934136 </v>
     <v>       2.33062049      -2.33062049       1.44934136 </v>
     <v>       2.33062049       2.33062049      -1.44934136 </v>
    </varray>
    <i name="volume">     31.49008255 </i>
    <varray name="rec_basis" >
     <v>      -0.00000000       0.21453514       0.34498429 </v>
     <v>       0.21453514      -0.00000000       0.34498429 </v>
     <v>       0.21453514       0.21453514      -0.00000000 </v>
    </varray>
   </crystal>
   <varray name="positions" >
    <v>       0.25000000       0.75000000       0.50000000 </v>
    <v>       0.00000000       0.00000000       0.00000000 </v>
   </varray>
  </structure>
  <varray name="forces" >
   <v>      -0.00000000      -0.00000000      -0.00000000 </v>
   <v>       0.00000000       0.00000000       0.00000000 </v>
  </varray>
  <varray name="stress" >
   <v>     -34.15607293       0.00000000       0.00000000 </v>
   <v>       0.00000000     -34.15607293      -0.00000000 </v>
   <v>       0.00000000      -0.00000000      17.77669898 </v>
  </varray>
  <energy>
   <i name="e_fr_energy">    -10.29992255 </i>
   <i name="e_wo_entrp">    -10.29264993 </i>
   <i name="e_0_energy">     -0.01454522 </i>
  </energy>
  <time name="totalsc">    0.73    0.97</time>
 </calculation>
 <calculation>
  <scstep>
   <time name="dav">    0.12    0.12</time>
   <time name="total">    0.16    0.18</time>
   <energy>
    <i name="alphaZ">      4.26021891 </i>
    <i name="ewald">   -261.04877187 </i>
    <i name="hartreedc">     -3.08223675 </i>
    <i name="XCdc">    -17.68314745 </i>
    <i name="pawpsdc">     71.70866834 </i>
    <i name="pawaedc">    -36.64005380 </i>
    <i name="eentropy">     -0.02226422 </i>
    <i name="bandstr">     26.07708587 </i>
    <i name="atom">    206.11247263 </i>
    <i name="e_fr_energy">    -10.31802834 </i>
    <i name="e_wo_entrp">    -10.29576412 </i>
    <i name="e_0_energy">    -10.30689623 </i>
   </energy>
  </scstep>
  <scstep>
   <time name="dav">    0.09    0.09</time>
   <time name="total">    0.13    0.16</time>
   <energy>
    <i name="e_fr_energy">    -10.31085833 </i>
    <i name="e_wo_entrp">    -10.28855596 </i>
    <i name="e_0_energy">    -10.29970714 </i>
   </energy>
  </scstep>
  <scstep>
   <time name="dav">    0.10    0.10</time>
   <time name="total">    0.14    0.17</time>
   <energy>
    <i name="e_fr_energy">    -10.30711392 </i>
    <i name="e_wo_entrp">    -10.28476601 </i>
    <i name="e_0_energy">    -10.29593997 </i>
   </energy>
  </scstep>
  <scstep>
   <time name="dav">    0.06    0.07</time>
   <time name="total">    0.10    0.12</time>
   <energy>
    <i name="alphaZ">      4.26021891 </i>
    <i name="ewald">   -261.04877187 </i>
    <i name="hartreedc">     -3.34003126 </i>
    <i name="XCdc">    -17.65707395 </i>
    <i name="pawpsdc">     72.10534044 </i>
    <i name="pawaedc">    -37.04746343 </i>
    <i name="eentropy">     -0.02234651 </i>
    <i name="bandstr">     26.33052633 </i>
    <i name="atom">    206.11247263 </i>
    <i name="e_fr_energy">    -10.30712872 </i>
    <i name="e_wo_entrp">    -10.28478221 </i>
    <i name="e_0_energy">    -10.29595546 </i>
   </energy>
  </scstep>
  <structure>
   <crystal>
    <varray name="basis" >
     <v>      -2.30350617       2.30350617       1.48916614 </v>
     <v>       2.30350617      -2.30350617       1.48916614 </v>
     <v>       2.30350617       2.30350617      -1.48916614 </v>
    </varray>
    <i name="volume">     31.60690009 </i>
    <varray name="rec_basis" >
     <v>      -0.00000000       0.21706041       0.33575837 </v>
     <v>       0.21706041      -0.00000000       0.33575837 </v>
     <v>       0.21706041       0.21706041       0.00000000 </v>
    </varray>
   </crystal>
   <varray name="positions" >
    <v>       0.25000000       0.75000000       0.50000000 </v>
    <v>       0.00000000       0.00000000       0.00000000 </v>
   </varray>
  </structure>
  <varray name="forces" >
   <v>       0.00000000      -0.00000000      -0.00000000 </v>
   <v>      -0.00000000       0.00000000       0.00000000 </v>
  </varray>
  <varray name="stress" >
   <v>      -2.60053329       0.00000000      -0.00000000 </v>
   <v>       0.00000000      -2.60053329       0.00000000 </v>
   <v>      -0.00000000       0.00000000     -14.97994052 </v>
  </varray>
  <energy>
   <i name="e_fr_energy">    -10.30712872 </i>
   <i name="e_wo_entrp">    -10.29595546 </i>
   <i name="e_0_energy">     -0.02234651 </i>
  </energy>
  <time name="totalsc">    0.68    0.96</time>
 </calculation>
 <calculation>
  <scstep>
   <time name="dav">    0.12    0.12</time>
   <time name="total">    0.16    0.17</time>
   <energy>
    <i name="alphaZ">      4.26360254 </i>
    <i name="ewald">   -261.25239702 </i>
    <i name="hartreedc">     -3.31906511 </i>
    <i name="XCdc">    -17.65516520 </i>
    <i name="pawpsdc">     72.04031616 </i>
    <i name="pawaedc">    -36.97990251 </i>
    <i name="eentropy">     -0.02093446 </i>
    <i name="bandstr">     26.50241815 </i>
    <i name="atom">    206.11247263 </i>
    <i name="e_fr_energy">    -10.30865482 </i>
    <i name="e_wo_entrp">    -10.28772036 </i>
    <i name="e_0_energy">    -10.29818759 </i>
   </energy>
  </scstep>
  <scstep>
   <time name="dav">    0.09    0.09</time>
   <time name="total">    0.12    0.14</time>
   <energy>
    <i name="alphaZ">      4.26360254 </i>
    <i name="ewald">   -261.25239702 </i>
    <i name="hartreedc">     -3.29081706 </i>
    <i name="XCdc">    -17.65831065 </i>
    <i name="pawpsdc">     71.99394607 </i>
    <i name="pawaedc">    -36.93238414 </i>
    <i name="eentropy">     -0.02091097 </i>
    <i name="bandstr">     26.47653144 </i>
    <i name="atom">    206.11247263 </i>
    <i name="e_fr_energy">    -10.30826717 </i>
    <i name="e_wo_entrp">    -10.28735620 </i>
    <i name="e_0_energy">    -10.29781168 </i>
   </energy>
  </scstep>
  <structure>
   <crystal>
    <varray name="basis" >
     <v>      -2.30998978       2.30998978       1.47964319 </v>
     <v>       2.30998978      -2.30998978       1.47964319 </v>
     <v>       2.30998978       2.30998978      -1.47964319 </v>
    </varray>
    <i name="volume">     31.58181664 </i>
    <varray name="rec_basis" >
     <v>       0.00000000       0.21645117       0.33791931 </v>
     <v>       0.21645117       0.00000000       0.33791931 </v>
     <v>       0.21645117       0.21645117      -0.00000000 </v>
    </varray>
   </crystal>
   <varray name="positions" >
    <v>       0.25000000       0.75000000       0.50000000 </v>
    <v>       0.00000000       0.00000000       0.00000000 </v>
   </varray>
  </structure>
  <varray name="forces" >
   <v>      -0.00000000      -0.00000000      -0.00000000 </v>
   <v>       0.00000000       0.00000000       0.00000000 </v>
  </varray>
  <varray name="stress" >
   <v>      -7.30142404       0.00000000      -0.00000000 </v>
   <v>       0.00000000      -7.30142404      -0.00000000 </v>
   <v>      -0.00000000       0.00000000     -15.28888525 </v>
  </varray>
  <energy>
   <i name="e_fr_energy">    -10.30826717 </i>
   <i name="e_wo_entrp">    -10.29781168 </i>
   <i name="e_0_energy">     -0.02091097 </i>
  </energy>
  <time name="totalsc">    0.44    0.66</time>
 </calculation>
 <calculation>
  <scstep>
   <time name="dav">    0.12    0.13</time>
   <time name="total">    0.16    0.17</time>
   <energy>
    <i name="alphaZ">      4.26949531 </i>
    <i name="ewald">   -261.57540448 </i>
    <i name="hartreedc">     -3.24005187 </i>
    <i name="XCdc">    -17.65526362 </i>
    <i name="pawpsdc">     71.95048214 </i>
    <i name="pawaedc">    -36.88799019 </i>
    <i name="eentropy">     -0.01697793 </i>
    <i name="bandstr">     26.73508365 </i>
    <i name="atom">    206.11247263 </i>
    <i name="e_fr_energy">    -10.30815438 </i>
    <i name="e_wo_entrp">    -10.29117644 </i>
    <i name="e_0_energy">    -10.29966541 </i>
   </energy>
  </scstep>
  <scstep>
   <time name="dav">    0.09    0.09</time>
   <time name="total">    0.13    0.15</time>
   <energy>
    <i name="e_fr_energy">    -10.30718950 </i>
    <i name="e_wo_entrp">    -10.29025110 </i>
    <i name="e_0_energy">    -10.29872030 </i>
   </energy>
  </scstep>
  <scstep>
   <time name="dav">    0.10    0.10</time>
   <time name="total">    0.13    0.16</time>
   <energy>
    <i name="e_fr_energy">    -10.30668230 </i>
    <i name="e_wo_entrp">    -10.28979409 </i>
    <i name="e_0_energy">    -10.29823819 </i>
   </energy>
  </scstep>
  <scstep>
   <time name="dav">    0.05    0.05</time>
   <time name="total">    0.08    0.10</time>
   <energy>
    <i name="alphaZ">      4.26949531 </i>
    <i name="ewald">   -261.57540448 </i>
    <i name="hartreedc">     -3.14918566 </i>
    <i name="XCdc">    -17.66417787 </i>
    <i name="pawpsdc">     71.82611108 </i>
    <i name="pawaedc">    -36.76063385 </i>
    <i name="eentropy">     -0.01688988 </i>
    <i name="bandstr">     26.65152672 </i>
    <i name="atom">    206.11247263 </i>
    <i name="e_fr_energy">    -10.30668601 </i>
    <i name="e_wo_entrp">    -10.28979613 </i>
    <i name="e_0_energy">    -10.29824107 </i>
   </energy>
  </scstep>
  <structure>
   <crystal>
    <varray name="basis" >
     <v>      -2.32030514       2.32030514       1.46449227 </v>
     <v>       2.32030514      -2.32030514       1.46449227 </v>
     <v>       2.32030514       2.32030514      -1.46449227 </v>
    </varray>
    <i name="volume">     31.53822734 </i>
    <varray name="rec_basis" >
     <v>       0.00000000       0.21548890       0.34141525 </v>
     <v>       0.21548890       0.00000000       0.34141525 </v>
     <v>       0.21548890       0.21548890       0.00000000 </v>
    </varray>
   </crystal>
   <varray name="positions" >
    <v>       0.25000000       0.75000000       0.50000000 </v>
    <v>       0.00000000       0.00000000       0.00000000 </v>
   </varray>
  </structure>
  <varray name="forces" >
   <v>      -0.00000000       0.00000000      -0.00000000 </v>
   <v>       0.00000000      -0.00000000       0.00000000 </v>
  </varray>
  <varray name="stress" >
   <v>     -19.19863760      -0.00000000       0.00000000 </v>
   <v>      -0.00000000     -19.19863760       0.00000000 </v>
   <v>       0.00000000       0.00000000       1.85225883 </v>
  </varray>
  <energy>
   <i name="e_fr_energy">    -10.30668601 </i>
   <i name="e_wo_entrp">    -10.29824107 </i>
   <i name="e_0_energy">     -0.01688988 </i>
  </energy>
  <time name="totalsc">    0.66    0.95</time>
 </calculation>
 <calculation>
  <scstep>
   <time name="dav">    0.12    0.12</time>
   <time name="total">    0.15    0.17</time>
   <energy>
    <i name="alphaZ">      4.26586164 </i>
    <i name="ewald">   -261.38052503 </i>
    <i name="hartreedc">     -3.16093866 </i>
    <i name="XCdc">    -17.66770840 </i>
    <i name="pawpsdc">     71.84498319 </i>
    <i name="pawaedc">    -36.78026597 </i>
    <i name="eentropy">     -0.01929508 </i>
    <i name="bandstr">     26.47682845 </i>
    <i name="atom">    206.11247263 </i>
    <i name="e_fr_energy">    -10.30858723 </i>
    <i name="e_wo_entrp">    -10.28929216 </i>
    <i name="e_0_energy">    -10.29893970 </i>
   </energy>
  </scstep>
  <scstep>
   <time name="dav">    0.07    0.07</time>
   <time name="total">    0.10    0.13</time>
   <energy>
    <i name="alphaZ">      4.26586164 </i>
    <i name="ewald">   -261.38052503 </i>
    <i name="hartreedc">     -3.18716369 </i>
    <i name="XCdc">    -17.66480951 </i>
    <i name="pawpsdc">     71.89183520 </i>
    <i name="pawaedc">    -36.82835371 </i>
    <i name="eentropy">     -0.01932261 </i>
    <i name="bandstr">     26.50179476 </i>
    <i name="atom">    206.11247263 </i>
    <i name="e_fr_energy">    -10.30821032 </i>
    <i name="e_wo_entrp">    -10.28888771 </i>
    <i name="e_0_energy">    -10.29854901 </i>
   </energy>
  </scstep>
  <structure>
   <crystal>
    <varray name="basis" >
     <v>      -2.31407609       2.31407609       1.47364133 </v>
     <v>       2.31407609      -2.31407609       1.47364133 </v>
     <v>       2.31407609       2.31407609      -1.47364133 </v>
    </varray>
    <i name="volume">     31.56509163 </i>
    <varray name="rec_basis" >
     <v>       0.00000000       0.21606895       0.33929559 </v>
     <v>       0.21606895       0.00000000       0.33929559 </v>
     <v>       0.21606895       0.21606895      -0.00000000 </v>
    </varray>
   </crystal>
   <varray name="positions" >
    <v>       0.25000000       0.75000000       0.50000000 </v>
    <v>       0.00000000       0.00000000       0.00000000 </v>
   </varray>
  </structure>
  <varray name="forces" >
   <v>      -0.00000000       0.00000000       0.00000000 </v>
   <v>       0.00000000      -0.00000000      -0.00000000 </v>
  </varray>
  <varray name="stress" >
   <v>     -12.67631600       0.00000000       0.00000000 </v>
   <v>       0.00000000     -12.67631600      -0.00000000 </v>
   <v>      -0.00000000      -0.00000000      -0.72815614 </v>
  </varray>
  <energy>
   <i name="e_fr_energy">    -10.30821032 </i>
   <i name="e_wo_entrp">    -10.29854901 </i>
   <i name="e_0_energy">     -0.01932261 </i>
  </energy>
  <time name="totalsc">    0.41    0.62</time>
 </calculation>
 <calculation>
  <scstep>
   <time name="dav">    0.12    0.12</time>
   <time name="total">    0.16    0.17</time>
   <energy>
    <i name="alphaZ">      4.26483531 </i>
    <i name="ewald">   -261.32302915 </i>
    <i name="hartreedc">     -3.22361852 </i>
    <i name="XCdc">    -17.66264985 </i>
    <i name="pawpsdc">     71.93651694 </i>
    <i name="pawaedc">    -36.87413715 </i>
    <i name="eentropy">     -0.02006186 </i>
    <i name="bandstr">     26.48153039 </i>
    <i name="atom">    206.11247263 </i>
    <i name="e_fr_energy">    -10.30814126 </i>
    <i name="e_wo_entrp">    -10.28807941 </i>
    <i name="e_0_energy">    -10.29811033 </i>
   </energy>
  </scstep>
  <scstep>
   <time name="dav">    0.05    0.05</time>
   <time name="total">    0.07    0.10</time>
   <energy>
    <i name="alphaZ">      4.26483531 </i>
    <i name="ewald">   -261.32302915 </i>
    <i name="hartreedc">     -3.22981596 </i>
    <i name="XCdc">    -17.66208723 </i>
    <i name="pawpsdc">     71.94243229 </i>
    <i name="pawaedc">    -36.88014307 </i>
    <i name="eentropy">     -0.02006860 </i>
    <i name="bandstr">     26.48728771 </i>
    <i name="atom">    206.11247263 </i>
    <i name="e_fr_energy">    -10.30811607 </i>
    <i name="e_wo_entrp">    -10.28804748 </i>
    <i name="e_0_energy">    -10.29808177 </i>
   </energy>
  </scstep>
  <structure>
   <crystal>
    <varray name="basis" >
     <v>      -2.31224164       2.31224164       1.47633572 </v>
     <v>       2.31224164      -2.31224164       1.47633572 </v>
     <v>       2.31224164       2.31224164      -1.47633572 </v>
    </varray>
    <i name="volume">     31.57268774 </i>
    <varray name="rec_basis" >
     <v>       0.00000000       0.21624038       0.33867636 </v>
     <v>       0.21624038       0.00000000       0.33867636 </v>
     <v>       0.21624038       0.21624038      -0.00000000 </v>
    </varray>
   </crystal>
   <varray name="positions" >
    <v>       0.25000000       0.75000000       0.50000000 </v>
    <v>       0.00000000       0.00000000       0.00000000 </v>
   </varray>
  </structure>
  <varray name="forces" >
   <v>      -0.00000000       0.00000000      -0.00000000 </v>
   <v>       0.00000000      -0.00000000       0.00000000 </v>
  </varray>
  <varray name="stress" >
   <v>     -10.36576879       0.00000000       0.00000000 </v>
   <v>       0.00000000     -10.36576879       0.00000000 </v>
   <v>       0.00000000       0.00000000      -6.67473058 </v>
  </varray>
  <energy>
   <i name="e_fr_energy">    -10.30811607 </i>
   <i name="e_wo_entrp">    -10.29808177 </i>
   <i name="e_0_energy">     -0.02006860 </i>
  </energy>
  <time name="totalsc">    0.38    0.63</time>
 </calculation>
 <calculation>
  <scstep>
   <time name="dav">    0.04    0.05</time>
   <time name="total">    0.08    0.09</time>
   <energy>
    <i name="alphaZ">      4.26475171 </i>
    <i name="ewald">   -261.31829452 </i>
    <i name="hartreedc">     -3.23755307 </i>
    <i name="XCdc">    -17.66159707 </i>
    <i name="pawpsdc">     71.94525541 </i>
    <i name="pawaedc">    -36.88291029 </i>
    <i name="eentropy">     -0.02013297 </i>
    <i name="bandstr">     26.48990136 </i>
    <i name="atom">    206.11247263 </i>
    <i name="e_fr_energy">    -10.30810681 </i>
    <i name="e_wo_entrp">    -10.28797384 </i>
    <i name="e_0_energy">    -10.29804033 </i>
   </energy>
  </scstep>
  <scstep>
   <time name="dav">    0.05    0.05</time>
   <time name="total">    0.07    0.11</time>
   <energy>
    <i name="alphaZ">      4.26475171 </i>
    <i name="ewald">   -261.31829452 </i>
    <i name="hartreedc">     -3.23774938 </i>
    <i name="XCdc">    -17.66160987 </i>
    <i name="pawpsdc">     71.94438894 </i>
    <i name="pawaedc">    -36.88200071 </i>
    <i name="eentropy">     -0.02013343 </i>
    <i name="bandstr">     26.49006776 </i>
    <i name="atom">    206.11247263 </i>
    <i name="e_fr_energy">    -10.30810686 </i>
    <i name="e_wo_entrp">    -10.28797343 </i>
    <i name="e_0_energy">    -10.29804015 </i>
   </energy>
  </scstep>
  <structure>
   <crystal>
    <varray name="basis" >
     <v>      -2.31209064       2.31209064       1.47655751 </v>
     <v>       2.31209064      -2.31209064       1.47655751 </v>
     <v>       2.31209064       2.31209064      -1.47655751 </v>
    </varray>
    <i name="volume">     31.57330664 </i>
    <varray name="rec_basis" >
     <v>       0.00000000       0.21625450       0.33862548 </v>
     <v>       0.21625450       0.00000000       0.33862548 </v>
     <v>       0.21625450       0.21625450      -0.00000000 </v>
    </varray>
   </crystal>
   <varray name="positions" >
    <v>       0.25000000       0.75000000       0.50000000 </v>
    <v>       0.00000000       0.00000000       0.00000000 </v>
   </varray>
  </structure>
  <varray name="forces" >
   <v>       0.00000000       0.00000000       0.00000000 </v>
   <v>      -0.00000000      -0.00000000      -0.00000000 </v>
  </varray>
  <varray name="stress" >
   <v>     -10.01877096       0.00000000       0.00000000 </v>
   <v>       0.00000000     -10.01877096       0.00000000 </v>
   <v>       0.00000000       0.00000000      -8.04299054 </v>
  </varray>
  <energy>
   <i name="e_fr_energy">    -10.30810686 </i>
   <i name="e_wo_entrp">    -10.29804015 </i>
   <i name="e_0_energy">     -0.02013343 </i>
  </energy>
  <time name="totalsc">    0.31    0.58</time>
 </calculation>
 <calculation>
  <scstep>
   <time name="dav">    0.05    0.05</time>
   <time name="total">    0.08    0.10</time>
   <energy>
    <i name="alphaZ">      4.26480085 </i>
    <i name="ewald">   -261.32107839 </i>
    <i name="hartreedc">     -3.23786882 </i>
    <i name="XCdc">    -17.66157897 </i>
    <i name="pawpsdc">     71.94315350 </i>
    <i name="pawaedc">    -36.88070579 </i>
    <i name="eentropy">     -0.02010128 </i>
    <i name="bandstr">     26.49280056 </i>
    <i name="atom">    206.11247263 </i>
    <i name="e_fr_energy">    -10.30810572 </i>
    <i name="e_wo_entrp">    -10.28800444 </i>
    <i name="e_0_energy">    -10.29805508 </i>
   </energy>
  </scstep>
  <scstep>
   <time name="dav">    0.04    0.05</time>
   <time name="total">    0.08    0.11</time>
   <energy>
    <i name="alphaZ">      4.26480085 </i>
    <i name="ewald">   -261.32107839 </i>
    <i name="hartreedc">     -3.23745987 </i>
    <i name="XCdc">    -17.66162821 </i>
    <i name="pawpsdc">     71.94231524 </i>
    <i name="pawaedc">    -36.87984432 </i>
    <i name="eentropy">     -0.02010092 </i>
    <i name="bandstr">     26.49241735 </i>
    <i name="atom">    206.11247263 </i>
    <i name="e_fr_energy">    -10.30810564 </i>
    <i name="e_wo_entrp">    -10.28800472 </i>
    <i name="e_0_energy">    -10.29805518 </i>
   </energy>
  </scstep>
  <structure>
   <crystal>
    <varray name="basis" >
     <v>      -2.31217942       2.31217942       1.47642710 </v>
     <v>       2.31217942      -2.31217942       1.47642710 </v>
     <v>       2.31217942       2.31217942      -1.47642710 </v>
    </varray>
    <i name="volume">     31.57294286 </i>
    <varray name="rec_basis" >
     <v>      -0.00000000       0.21624619       0.33865539 </v>
     <v>       0.21624619      -0.00000000       0.33865539 </v>
     <v>       0.21624619       0.21624619       0.00000000 </v>
    </varray>
   </crystal>
   <varray name="positions" >
    <v>       0.25000000       0.75000000       0.50000000 </v>
    <v>       0.00000000       0.00000000       0.00000000 </v>
   </varray>
  </structure>
  <varray name="forces" >
   <v>       0.00000000      -0.00000000       0.00000000 </v>
   <v>      -0.00000000       0.00000000      -0.00000000 </v>
  </varray>
  <varray name="stress" >
   <v>     -10.09537238       0.00000000       0.00000000 </v>
   <v>       0.00000000     -10.09537238      -0.00000000 </v>
   <v>       0.00000000      -0.00000000      -8.07332219 </v>
  </varray>
  <energy>
   <i name="e_fr_energy">    -10.30810564 </i>
   <i name="e_wo_entrp">    -10.29805518 </i>
   <i name="e_0_energy">     -0.02010092 </i>
  </energy>
  <time name="totalsc">    0.31    0.57</time>
 </calculation>
 <calculation>
  <scstep>
   <time name="dav">    0.04    0.05</time>
   <time name="total">    0.08    0.09</time>
   <energy>
    <i name="alphaZ">      4.26482090 </i>
    <i name="ewald">   -261.32221330 </i>
    <i name="hartreedc">     -3.23688164 </i>
    <i name="XCdc">    -17.66166505 </i>
    <i name="pawpsdc">     71.94158275 </i>
    <i name="pawaedc">    -36.87909316 </i>
    <i name="eentropy">     -0.02008708 </i>
    <i name="bandstr">     26.49295894 </i>
    <i name="atom">    206.11247263 </i>
    <i name="e_fr_energy">    -10.30810501 </i>
    <i name="e_wo_entrp">    -10.28801793 </i>
    <i name="e_0_energy">    -10.29806147 </i>
   </energy>
  </scstep>
  <scstep>
   <time name="dav">    0.05    0.05</time>
   <time name="total">    0.07    0.11</time>
   <energy>
    <i name="alphaZ">      4.26482090 </i>
    <i name="ewald">   -261.32221330 </i>
    <i name="hartreedc">     -3.23673988 </i>
    <i name="XCdc">    -17.66167941 </i>
    <i name="pawpsdc">     71.94138179 </i>
    <i name="pawaedc">    -36.87888793 </i>
    <i name="eentropy">     -0.02008693 </i>
    <i name="bandstr">     26.49282714 </i>
    <i name="atom">    206.11247263 </i>
    <i name="e_fr_energy">    -10.30810499 </i>
    <i name="e_wo_entrp">    -10.28801806 </i>
    <i name="e_0_energy">    -10.29806153 </i>
   </energy>
  </scstep>
  <structure>
   <crystal>
    <varray name="basis" >
     <v>      -2.31221562       2.31221562       1.47637393 </v>
     <v>       2.31221562      -2.31221562       1.47637393 </v>
     <v>       2.31221562       2.31221562      -1.47637393 </v>
    </varray>
    <i name="volume">     31.57279446 </i>
    <varray name="rec_basis" >
     <v>      -0.00000000       0.21624281       0.33866759 </v>
     <v>       0.21624281      -0.00000000       0.33866759 </v>
     <v>       0.21624281       0.21624281       0.00000000 </v>
    </varray>
   </crystal>
   <varray name="positions" >
    <v>       0.25000000       0.75000000       0.50000000 </v>
    <v>       0.00000000       0.00000000       0.00000000 </v>
   </varray>
  </structure>
  <varray name="forces" >
   <v>      -0.00000000       0.00000000      -0.00000000 </v>
   <v>       0.00000000      -0.00000000       0.00000000 </v>
  </varray>
  <varray name="stress" >
   <v>     -10.13460414       0.00000000       0.00000000 </v>
   <v>       0.00000000     -10.13460414      -0.00000000 </v>
   <v>      -0.00000000      -0.00000000      -7.99815328 </v>
  </varray>
  <energy>
   <i name="e_fr_energy">    -10.30810499 </i>
   <i name="e_wo_entrp">    -10.29806153 </i>
   <i name="e_0_energy">     -0.02008693 </i>
  </energy>
  <time name="totalsc">    0.73    1.46</time>
 </calculation>
 <calculation>
  <scstep>
   <time name="dav">    0.03    0.03</time>
   <time name="total">    0.06    0.08</time>
   <energy>
    <i name="alphaZ">      4.26482887 </i>
    <i name="ewald">   -261.32266432 </i>
    <i name="hartreedc">     -3.23654239 </i>
    <i name="XCdc">    -17.66168668 </i>
    <i name="pawpsdc">     71.94124731 </i>
    <i name="pawaedc">    -36.87875229 </i>
    <i name="eentropy">     -0.02008142 </i>
    <i name="bandstr">     26.49307356 </i>
    <i name="atom">    206.11247263 </i>
    <i name="e_fr_energy">    -10.30810474 </i>
    <i name="e_wo_entrp">    -10.28802332 </i>
    <i name="e_0_energy">    -10.29806403 </i>
   </energy>
  </scstep>
  <scstep>
   <time name="dav">    0.03    0.03</time>
   <time name="total">    0.06    0.10</time>
   <energy>
    <i name="alphaZ">      4.26482887 </i>
    <i name="ewald">   -261.32266432 </i>
    <i name="hartreedc">     -3.23648743 </i>
    <i name="XCdc">    -17.66169209 </i>
    <i name="pawpsdc">     71.94116994 </i>
    <i name="pawaedc">    -36.87867335 </i>
    <i name="eentropy">     -0.02008137 </i>
    <i name="bandstr">     26.49302239 </i>
    <i name="atom">    206.11247263 </i>
    <i name="e_fr_energy">    -10.30810474 </i>
    <i name="e_wo_entrp">    -10.28802337 </i>
    <i name="e_0_energy">    -10.29806406 </i>
   </energy>
  </scstep>
  <structure>
   <crystal>
    <varray name="basis" >
     <v>      -2.31223001       2.31223001       1.47635281 </v>
     <v>       2.31223001      -2.31223001       1.47635281 </v>
     <v>       2.31223001       2.31223001      -1.47635281 </v>
    </varray>
    <i name="volume">     31.57273546 </i>
    <varray name="rec_basis" >
     <v>       0.00000000       0.21624146       0.33867244 </v>
     <v>       0.21624146       0.00000000       0.33867244 </v>
     <v>       0.21624146       0.21624146      -0.00000000 </v>
    </varray>
   </crystal>
   <varray name="positions" >
    <v>       0.25000000       0.75000000       0.50000000 </v>
    <v>       0.00000000       0.00000000       0.00000000 </v>
   </varray>
  </structure>
  <varray name="forces" >
   <v>      -0.00000000       0.00000000       0.00000000 </v>
   <v>       0.00000000      -0.00000000      -0.00000000 </v>
  </varray>
  <varray name="stress" >
   <v>     -10.15017894      -0.00000000       0.00000000 </v>
   <v>      -0.00000000     -10.15017894      -0.00000000 </v>
   <v>       0.00000000       0.00000000      -7.97091261 </v>
  </varray>
  <energy>
   <i name="e_fr_energy">    -10.30810474 </i>
   <i name="e_wo_entrp">    -10.29806406 </i>
   <i name="e_0_energy">     -0.02008137 </i>
  </energy>
  <time name="totalsc">    0.23    0.47</time>
 </calculation>
 <calculation>
  <scstep>
   <time name="dav">    0.03    0.03</time>
   <time name="total">    0.06    0.08</time>
   <energy>
    <i name="alphaZ">      4.26483235 </i>
    <i name="ewald">   -261.32286170 </i>
    <i name="hartreedc">     -3.23641080 </i>
    <i name="XCdc">    -17.66169401 </i>
    <i name="pawpsdc">     71.94111589 </i>
    <i name="pawaedc">    -36.87861874 </i>
    <i name="eentropy">     -0.02007896 </i>
    <i name="bandstr">     26.49313871 </i>
    <i name="atom">    206.11247263 </i>
    <i name="e_fr_energy">    -10.30810463 </i>
    <i name="e_wo_entrp">    -10.28802567 </i>
    <i name="e_0_energy">    -10.29806515 </i>
   </energy>
  </scstep>
  <scstep>
   <time name="dav">    0.03    0.03</time>
   <time name="total">    0.05    0.08</time>
   <energy>
    <i name="alphaZ">      4.26483235 </i>
    <i name="ewald">   -261.32286170 </i>
    <i name="hartreedc">     -3.23638656 </i>
    <i name="XCdc">    -17.66169639 </i>
    <i name="pawpsdc">     71.94108157 </i>
    <i name="pawaedc">    -36.87858370 </i>
    <i name="eentropy">     -0.02007893 </i>
    <i name="bandstr">     26.49311611 </i>
    <i name="atom">    206.11247263 </i>
    <i name="e_fr_energy">    -10.30810463 </i>
    <i name="e_wo_entrp">    -10.28802569 </i>
    <i name="e_0_energy">    -10.29806516 </i>
   </energy>
  </scstep>
  <structure>
   <crystal>
    <varray name="basis" >
     <v>      -2.31223630       2.31223630       1.47634356 </v>
     <v>       2.31223630      -2.31223630       1.47634356 </v>
     <v>       2.31223630       2.31223630      -1.47634356 </v>
    </varray>
    <i name="volume">     31.57270964 </i>
    <varray name="rec_basis" >
     <v>       0.00000000       0.21624087       0.33867456 </v>
     <v>       0.21624087       0.00000000       0.33867456 </v>
     <v>       0.21624087       0.21624087      -0.00000000 </v>
    </varray>
   </crystal>
   <varray name="positions" >
    <v>       0.25000000       0.75000000       0.50000000 </v>
    <v>       0.00000000       0.00000000       0.00000000 </v>
   </varray>
  </structure>
  <varray name="forces" >
   <v>      -0.00000000       0.00000000      -0.00000000 </v>
   <v>       0.00000000      -0.00000000       0.00000000 </v>
  </varray>
  <varray name="stress" >
   <v>     -10.15659637       0.00000000       0.00000000 </v>
   <v>       0.00000000     -10.15659637      -0.00000000 </v>
   <v>       0.00000000       0.00000000      -7.96048941 </v>
  </varray>
  <energy>
   <i name="e_fr_energy">    -10.30810463 </i>
   <i name="e_wo_entrp">    -10.29806516 </i>
   <i name="e_0_energy">     -0.02007893 </i>
  </energy>
  <time name="totalsc">    0.24    0.46</time>
 </calculation>
 <calculation>
  <scstep>
   <time name="dav">    0.03    0.03</time>
   <time name="total">    0.06    0.07</time>
   <energy>
    <i name="alphaZ">      4.26483394 </i>
    <i name="ewald">   -261.32295149 </i>
    <i name="hartreedc">     -3.23635271 </i>
    <i name="XCdc">    -17.66169714 </i>
    <i name="pawpsdc">     71.94105754 </i>
    <i name="pawaedc">    -36.87855935 </i>
    <i name="eentropy">     -0.02007784 </i>
    <i name="bandstr">     26.49316985 </i>
    <i name="atom">    206.11247263 </i>
    <i name="e_fr_energy">    -10.30810458 </i>
    <i name="e_wo_entrp">    -10.28802674 </i>
    <i name="e_0_energy">    -10.29806566 </i>
   </energy>
  </scstep>
  <scstep>
   <time name="dav">    0.03    0.03</time>
   <time name="total">    0.05    0.09</time>
   <energy>
    <i name="alphaZ">      4.26483394 </i>
    <i name="ewald">   -261.32295149 </i>
    <i name="hartreedc">     -3.23634167 </i>
    <i name="XCdc">    -17.66169823 </i>
    <i name="pawpsdc">     71.94104218 </i>
    <i name="pawaedc">    -36.87854367 </i>
    <i name="eentropy">     -0.02007783 </i>
    <i name="bandstr">     26.49315956 </i>
    <i name="atom">    206.11247263 </i>
    <i name="e_fr_energy">    -10.30810458 </i>
    <i name="e_wo_entrp">    -10.28802675 </i>
    <i name="e_0_energy">    -10.29806566 </i>
   </energy>
  </scstep>
  <structure>
   <crystal>
    <varray name="basis" >
     <v>      -2.31223916       2.31223916       1.47633935 </v>
     <v>       2.31223916      -2.31223916       1.47633935 </v>
     <v>       2.31223916       2.31223916      -1.47633935 </v>
    </varray>
    <i name="volume">     31.57269790 </i>
    <varray name="rec_basis" >
     <v>       0.00000000       0.21624061       0.33867552 </v>
     <v>       0.21624061       0.00000000       0.33867552 </v>
     <v>       0.21624061       0.21624061      -0.00000000 </v>
    </varray>
   </crystal>
   <varray name="positions" >
    <v>       0.25000000       0.75000000       0.50000000 </v>
    <v>       0.00000000       0.00000000       0.00000000 </v>
   </varray>
  </structure>
  <varray name="forces" >
   <v>       0.00000000       0.00000000      -0.00000000 </v>
   <v>      -0.00000000      -0.00000000       0.00000000 </v>
  </varray>
  <varray name="stress" >
   <v>     -10.15944791      -0.00000000       0.00000000 </v>
   <v>      -0.00000000     -10.15944791       0.00000000 </v>
   <v>       0.00000000       0.00000000      -7.95591882 </v>
  </varray>
  <energy>
   <i name="e_fr_energy">    -10.30810458 </i>
   <i name="e_wo_entrp">    -10.29806566 </i>
   <i name="e_0_energy">     -0.02007783 </i>
  </energy>
  <time name="totalsc">    0.24    0.47</time>
 </calculation>
 <calculation>
  <scstep>
   <time name="dav">    0.03    0.03</time>
   <time name="total">    0.06    0.07</time>
   <energy>
    <i name="alphaZ">      4.26483467 </i>
    <i name="ewald">   -261.32299297 </i>
    <i name="hartreedc">     -3.23632627 </i>
    <i name="XCdc">    -17.66169855 </i>
    <i name="pawpsdc">     71.94103154 </i>
    <i name="pawaedc">    -36.87853287 </i>
    <i name="eentropy">     -0.02007732 </i>
    <i name="bandstr">     26.49318458 </i>
    <i name="atom">    206.11247263 </i>
    <i name="e_fr_energy">    -10.30810455 </i>
    <i name="e_wo_entrp">    -10.28802723 </i>
    <i name="e_0_energy">    -10.29806589 </i>
   </energy>
  </scstep>
  <scstep>
   <time name="dav">    0.03    0.03</time>
   <time name="total">    0.05    0.09</time>
   <energy>
    <i name="alphaZ">      4.26483467 </i>
    <i name="ewald">   -261.32299297 </i>
    <i name="hartreedc">     -3.23632115 </i>
    <i name="XCdc">    -17.66169905 </i>
    <i name="pawpsdc">     71.94102456 </i>
    <i name="pawaedc">    -36.87852574 </i>
    <i name="eentropy">     -0.02007732 </i>
    <i name="bandstr">     26.49317982 </i>
    <i name="atom">    206.11247263 </i>
    <i name="e_fr_energy">    -10.30810455 </i>
    <i name="e_wo_entrp">    -10.28802724 </i>
    <i name="e_0_energy">    -10.29806589 </i>
   </energy>
  </scstep>
  <structure>
   <crystal>
    <varray name="basis" >
     <v>      -2.31224049       2.31224049       1.47633741 </v>
     <v>       2.31224049      -2.31224049       1.47633741 </v>
     <v>       2.31224049       2.31224049      -1.47633741 </v>
    </varray>
    <i name="volume">     31.57269247 </i>
    <varray name="rec_basis" >
     <v>       0.00000000       0.21624048       0.33867597 </v>
     <v>       0.21624048       0.00000000       0.33867597 </v>
     <v>       0.21624048       0.21624048      -0.00000000 </v>
    </varray>
   </crystal>
   <varray name="positions" >
    <v>       0.25000000       0.75000000       0.50000000 </v>
    <v>       0.00000000       0.00000000       0.00000000 </v>
   </varray>
  </structure>
  <varray name="forces" >
   <v>      -0.00000000       0.00000000       0.00000000 </v>
   <v>       0.00000000      -0.00000000      -0.00000000 </v>
  </varray>
  <varray name="stress" >
   <v>     -10.16075224       0.00000000       0.00000000 </v>
   <v>       0.00000000     -10.16075224       0.00000000 </v>
   <v>       0.00000000       0.00000000      -7.95384083 </v>
  </varray>
  <energy>
   <i name="e_fr_energy">    -10.30810455 </i>
   <i name="e_wo_entrp">    -10.29806589 </i>
   <i name="e_0_energy">     -0.02007732 </i>
  </energy>
  <time name="totalsc">    0.24    0.49</time>
  <eigenvalues>
   <array>
    <dimension dim="1">band</dimension>
    <dimension dim="2">kpoint</dimension>
    <dimension dim="3">spin</dimension>
    <field>eigene</field>
    <field>occ</field>
    <set>
     <set comment="spin 1">
      <set comment="kpoint 1">
       <r>   -2.9285    1.0000 </r>
       <r>    3.4613    1.0000 </r>
       <r>    7.4314    1.0000 </r>
       <r>    8.4241    0.6060 </r>
       <r>   10.0985    0.0000 </r>
       <r>   11.4339    0.0000 </r>
       <r>   14.6109    0.0000 </r>
       <r>   14.8145    0.0000 </r>
      </set>
      <set comment="kpoint 2">
       <r>    0.5555    1.0000 </r>
       <r>    1.9235    1.0000 </r>
       <r>    4.1855    1.0000 </r>
       <r>    5.4324    1.0000 </r>
       <r>   10.0937    0.0000 </r>
       <r>   12.2658    0.0000 </r>
       <r>   13.8778    0.0000 </r>
       <r>   14.4907    0.0000 </r>
      </set>
      <set comment="kpoint 3">
       <r>   -4.3438    1.0000 </r>
       <r>    4.9528    1.0000 </r>
       <r>    5.6322    1.0000 </r>
       <r>   11.2333    0.0000 </r>
       <r>   12.8938    0.0000 </r>
       <r>   13.0976    0.0000 </r>
       <r>   14.6793    0.0000 </r>
       <r>   16.0778    0.0000 </r>
      </set>
      <set comment="kpoint 4">
       <r>   -0.4737    1.0000 </r>
       <r>   -0.4737    1.0000 </r>
       <r>    7.4053    1.0000 </r>
       <r>    7.4053    1.0000 </r>
       <r>   11.8797    0.0000 </r>
       <r>   11.8797    0.0000 </r>
       <r>   13.7277    0.0000 </r>
       <r>   13.7277    0.0000 </r>
      </set>
      <set comment="kpoint 5">
       <r>   -2.6778    1.0000 </r>
       <r>    0.5921    1.0000 </r>
       <r>    6.8478    1.0000 </r>
       <r>    9.6706    0.0000 </r>
       <r>   12.6493    0.0000 </r>
       <r>   13.5145    0.0000 </r>
       <r>   14.5163    0.0000 </r>
       <r>   16.4251    0.0000 </r>
      </set>
      <set comment="kpoint 6">
       <r>   -2.1083    1.0000 </r>
       <r>    3.6668    1.0000 </r>
       <r>    4.7530    1.0000 </r>
       <r>    6.4873    1.0000 </r>
       <r>   10.3028    0.0000 </r>
       <r>   12.7793    0.0000 </r>
       <r>   13.2434    0.0000 </r>
       <r>   16.1242    0.0000 </r>
      </set>
      <set comment="kpoint 7">
       <r>    0.2318    1.0000 </r>
       <r>    0.3791    1.0000 </r>
       <r>    5.0251    1.0000 </r>
       <r>    6.7255    1.0000 </r>
       <r>    7.4381    1.0000 </r>
       <r>   12.0219    0.0000 </r>
       <r>   17.3689    0.0000 </r>
       <r>   17.5666    0.0000 </r>
      </set>
      <set comment="kpoint 8">
       <r>   -0.4932    1.0000 </r>
       <r>    3.0899    1.0000 </r>
       <r>    6.0644    1.0000 </r>
       <r>    6.0790    1.0000 </r>
       <r>    8.2857    0.8940 </r>
       <r>   10.6439    0.0000 </r>
       <r>   10.8284    0.0000 </r>
       <r>   15.6094    0.0000 </r>
      </set>
      <set comment="kpoint 9">
       <r>   -3.7572    1.0000 </r>
       <r>    7.4392    1.0000 </r>
       <r>    7.4393    1.0000 </r>
       <r>    9.6088    0.0000 </r>
       <r>   10.1445    0.0000 </r>
       <r>   10.4604    0.0000 </r>
       <r>   12.0299    0.0000 </r>
       <r>   12.7387    0.0000 </r>
      </set>
      <set comment="kpoint 10">
       <r>   -1.0437    1.0000 </r>
       <r>    1.7392    1.0000 </r>
       <r>    2.7484    1.0000 </r>
       <r>    5.4353    1.0000 </r>
       <r>   11.8323    0.0000 </r>
       <r>   11.9218    0.0000 </r>
       <r>   20.1586    0.0000 </r>
       <r>   20.3190    0.0000 </r>
      </set>
      <set comment="kpoint 11">
       <r>    1.7608    1.0000 </r>
       <r>    2.4234    1.0000 </r>
       <r>    3.2962    1.0000 </r>
       <r>    3.2962    1.0000 </r>
       <r>    5.3289    1.0000 </r>
       <r>   16.0265    0.0000 </r>
       <r>   16.6658    0.0000 </r>
       <r>   16.6659    0.0000 </r>
      </set>
     </set>
    </set>
   </array>
  </eigenvalues>
  <separator name="orbital magnetization" >
   <v name="MAGDIPOLOUT">      0.00000000      0.00000000      0.00000000</v>
  </separator>
  <dos>
   <i name="efermi">      8.46215654 </i>
   <total>
    <array>
     <dimension dim="1">gridpoints</dimension>
     <dimension dim="2">spin</dimension>
     <field>energy</field>
     <field>total</field>
     <field>integrated</field>
     <set>
      <set comment="spin 1">
       <r>    -6.3438     0.0000     0.0000 </r>
       <r>    -6.2482     0.0000     0.0000 </r>
       <r>    -6.1527     0.0000     0.0000 </r>
       <r>    -6.0572     0.0000     0.0000 </r>
       <r>    -5.9616     0.0000     0.0000 </r>
       <r>    -5.8661     0.0000     0.0000 </r>
       <r>    -5.7705     0.0000     0.0000 </r>
       <r>    -5.6750     0.0000     0.0000 </r>
       <r>    -5.5794     0.0000     0.0000 </r>
       <r>    -5.4839     0.0000     0.0000 </r>
       <r>    -5.3884     0.0000     0.0000 </r>
       <r>    -5.2928     0.0000     0.0000 </r>
       <r>    -5.1973     0.0000     0.0000 </r>
       <r>    -5.1017     0.0000     0.0000 </r>
       <r>    -5.0062     0.0000     0.0000 </r>
       <r>    -4.9106     0.0000     0.0000 </r>
       <r>    -4.8151     0.0005     0.0001 </r>
       <r>    -4.7196     0.0046     0.0005 </r>
       <r>    -4.6240     0.0259     0.0030 </r>
       <r>    -4.5285     0.0942     0.0120 </r>
       <r>    -4.4329     0.2204     0.0330 </r>
       <r>    -4.3374     0.3321     0.0648 </r>
       <r>    -4.2418     0.3226     0.0956 </r>
       <r>    -4.1463     0.2035     0.1150 </r>
       <r>    -4.0508     0.0918     0.1238 </r>
       <r>    -3.9552     0.0615     0.1297 </r>
       <r>    -3.8597     0.1040     0.1396 </r>
       <r>    -3.7641     0.1614     0.1550 </r>
       <r>    -3.6686     0.1662     0.1709 </r>
       <r>    -3.5730     0.1106     0.1815 </r>
       <r>    -3.4775     0.0475     0.1860 </r>
       <r>    -3.3820     0.0147     0.1874 </r>
       <r>    -3.2864     0.0155     0.1889 </r>
       <r>    -3.1909     0.0688     0.1955 </r>
       <r>    -3.0953     0.2321     0.2176 </r>
       <r>    -2.9998     0.5176     0.2671 </r>
       <r>    -2.9043     0.7961     0.3432 </r>
       <r>    -2.8087     0.9318     0.4322 </r>
       <r>    -2.7132     0.9382     0.5218 </r>
       <r>    -2.6176     0.8207     0.6002 </r>
       <r>    -2.5221     0.5582     0.6536 </r>
       <r>    -2.4265     0.2877     0.6811 </r>
       <r>    -2.3310     0.1997     0.7001 </r>
       <r>    -2.2355     0.3476     0.7333 </r>
       <r>    -2.1399     0.5967     0.7904 </r>
       <r>    -2.0444     0.6879     0.8561 </r>
       <r>    -1.9488     0.5126     0.9051 </r>
       <r>    -1.8533     0.2462     0.9286 </r>
       <r>    -1.7577     0.0761     0.9359 </r>
       <r>    -1.6622     0.0152     0.9373 </r>
       <r>    -1.5667     0.0021     0.9375 </r>
       <r>    -1.4711     0.0017     0.9377 </r>
       <r>    -1.3756     0.0108     0.9387 </r>
       <r>    -1.2800     0.0496     0.9434 </r>
       <r>    -1.1845     0.1471     0.9575 </r>
       <r>    -1.0889     0.2811     0.9843 </r>
       <r>    -0.9934     0.3468     1.0175 </r>
       <r>    -0.8979     0.2827     1.0445 </r>
       <r>    -0.8023     0.1953     1.0631 </r>
       <r>    -0.7068     0.2835     1.0902 </r>
       <r>    -0.6112     0.6697     1.1542 </r>
       <r>    -0.5157     1.1859     1.2675 </r>
       <r>    -0.4201     1.3731     1.3987 </r>
       <r>    -0.3246     1.0277     1.4969 </r>
       <r>    -0.2291     0.4979     1.5445 </r>
       <r>    -0.1335     0.1665     1.5604 </r>
       <r>    -0.0380     0.0959     1.5695 </r>
       <r>     0.0576     0.2418     1.5926 </r>
       <r>     0.1531     0.5926     1.6493 </r>
       <r>     0.2487     1.0492     1.7495 </r>
       <r>     0.3442     1.4348     1.8866 </r>
       <r>     0.4397     1.6902     2.0481 </r>
       <r>     0.5353     1.8162     2.2216 </r>
       <r>     0.6308     1.6600     2.3802 </r>
       <r>     0.7264     1.1441     2.4895 </r>
       <r>     0.8219     0.5474     2.5418 </r>
       <r>     0.9175     0.1746     2.5585 </r>
       <r>     1.0130     0.0365     2.5620 </r>
       <r>     1.1085     0.0050     2.5625 </r>
       <r>     1.2041     0.0006     2.5625 </r>
       <r>     1.2996     0.0015     2.5627 </r>
       <r>     1.3952     0.0116     2.5638 </r>
       <r>     1.4907     0.0597     2.5695 </r>
       <r>     1.5863     0.2034     2.5889 </r>
       <r>     1.6818     0.4747     2.6343 </r>
       <r>     1.7773     0.7941     2.7101 </r>
       <r>     1.8729     0.9946     2.8052 </r>
       <r>     1.9684     0.9425     2.8952 </r>
       <r>     2.0640     0.6565     2.9579 </r>
       <r>     2.1595     0.3328     2.9897 </r>
       <r>     2.2550     0.1593     3.0049 </r>
       <r>     2.3506     0.1468     3.0190 </r>
       <r>     2.4461     0.1916     3.0373 </r>
       <r>     2.5417     0.2266     3.0589 </r>
       <r>     2.6372     0.2791     3.0856 </r>
       <r>     2.7328     0.3607     3.1200 </r>
       <r>     2.8283     0.4152     3.1597 </r>
       <r>     2.9238     0.4704     3.2047 </r>
       <r>     3.0194     0.6282     3.2647 </r>
       <r>     3.1149     0.8279     3.3438 </r>
       <r>     3.2105     0.9224     3.4319 </r>
       <r>     3.3060     0.9537     3.5230 </r>
       <r>     3.4016     1.0384     3.6222 </r>
       <r>     3.4971     1.1390     3.7311 </r>
       <r>     3.5926     1.1516     3.8411 </r>
       <r>     3.6882     1.0211     3.9386 </r>
       <r>     3.7837     0.7380     4.0092 </r>
       <r>     3.8793     0.4200     4.0493 </r>
       <r>     3.9748     0.2779     4.0758 </r>
       <r>     4.0704     0.3986     4.1139 </r>
       <r>     4.1659     0.6257     4.1737 </r>
       <r>     4.2614     0.6801     4.2387 </r>
       <r>     4.3570     0.4848     4.2850 </r>
       <r>     4.4525     0.2551     4.3094 </r>
       <r>     4.5481     0.2158     4.3300 </r>
       <r>     4.6436     0.4182     4.3699 </r>
       <r>     4.7392     0.7473     4.4413 </r>
       <r>     4.8347     1.0285     4.5396 </r>
       <r>     4.9302     1.1958     4.6539 </r>
       <r>     5.0258     1.2174     4.7702 </r>
       <r>     5.1213     1.0380     4.8693 </r>
       <r>     5.2169     0.8316     4.9488 </r>
       <r>     5.3124     0.9014     5.0349 </r>
       <r>     5.4080     1.1924     5.1489 </r>
       <r>     5.5035     1.3155     5.2745 </r>
       <r>     5.5990     1.0942     5.3791 </r>
       <r>     5.6946     0.7244     5.4483 </r>
       <r>     5.7901     0.4676     5.4930 </r>
       <r>     5.8857     0.5175     5.5424 </r>
       <r>     5.9812     0.9154     5.6299 </r>
       <r>     6.0768     1.3354     5.7575 </r>
       <r>     6.1723     1.3230     5.8839 </r>
       <r>     6.2678     0.9407     5.9737 </r>
       <r>     6.3634     0.6847     6.0392 </r>
       <r>     6.4589     0.7599     6.1118 </r>
       <r>     6.5545     0.9610     6.2036 </r>
       <r>     6.6500     1.1472     6.3132 </r>
       <r>     6.7456     1.3203     6.4393 </r>
       <r>     6.8411     1.3366     6.5670 </r>
       <r>     6.9366     1.0452     6.6669 </r>
       <r>     7.0322     0.6038     6.7246 </r>
       <r>     7.1277     0.3592     6.7589 </r>
       <r>     7.2233     0.5908     6.8153 </r>
       <r>     7.3188     1.3594     6.9452 </r>
       <r>     7.4143     2.2106     7.1564 </r>
       <r>     7.5099     2.3412     7.3801 </r>
       <r>     7.6054     1.6050     7.5335 </r>
       <r>     7.7010     0.7117     7.6015 </r>
       <r>     7.7965     0.2046     7.6210 </r>
       <r>     7.8921     0.0443     7.6252 </r>
       <r>     7.9876     0.0458     7.6296 </r>
       <r>     8.0831     0.1717     7.6460 </r>
       <r>     8.1787     0.4763     7.6915 </r>
       <r>     8.2742     0.9063     7.7781 </r>
       <r>     8.3698     1.2088     7.8936 </r>
       <r>     8.4653     1.1467     8.0032 </r>
       <r>     8.5609     0.7713     8.0768 </r>
       <r>     8.6564     0.3611     8.1113 </r>
       <r>     8.7519     0.1149     8.1223 </r>
       <r>     8.8475     0.0243     8.1246 </r>
       <r>     8.9430     0.0034     8.1250 </r>
       <r>     9.0386     0.0003     8.1250 </r>
       <r>     9.1341     0.0004     8.1250 </r>
       <r>     9.2297     0.0043     8.1255 </r>
       <r>     9.3252     0.0290     8.1282 </r>
       <r>     9.4207     0.1274     8.1404 </r>
       <r>     9.5163     0.3668     8.1754 </r>
       <r>     9.6118     0.6931     8.2417 </r>
       <r>     9.7074     0.8673     8.3245 </r>
       <r>     9.8029     0.7752     8.3986 </r>
       <r>     9.8985     0.7107     8.4665 </r>
       <r>     9.9940     1.0280     8.5647 </r>
       <r>    10.0895     1.5869     8.7163 </r>
       <r>    10.1851     1.8786     8.8958 </r>
       <r>    10.2806     1.7032     9.0586 </r>
       <r>    10.3762     1.3140     9.1841 </r>
       <r>    10.4717     1.0135     9.2809 </r>
       <r>    10.5673     0.9531     9.3720 </r>
       <r>    10.6628     1.0759     9.4748 </r>
       <r>    10.7583     1.1689     9.5865 </r>
       <r>    10.8539     1.0669     9.6884 </r>
       <r>    10.9494     0.7751     9.7625 </r>
       <r>    11.0450     0.4806     9.8084 </r>
       <r>    11.1405     0.3912     9.8458 </r>
       <r>    11.2361     0.5227     9.8957 </r>
       <r>    11.3316     0.7330     9.9657 </r>
       <r>    11.4271     0.8562    10.0475 </r>
       <r>    11.5227     0.7822    10.1223 </r>
       <r>    11.6182     0.6236    10.1819 </r>
       <r>    11.7138     0.7128    10.2500 </r>
       <r>    11.8093     1.2076    10.3653 </r>
       <r>    11.9049     1.8032    10.5376 </r>
       <r>    12.0004     2.0241    10.7310 </r>
       <r>    12.0959     1.7718    10.9003 </r>
       <r>    12.1915     1.3645    11.0307 </r>
       <r>    12.2870     1.0435    11.1304 </r>
       <r>    12.3826     0.7857    11.2054 </r>
       <r>    12.4781     0.6525    11.2678 </r>
       <r>    12.5736     0.8365    11.3477 </r>
       <r>    12.6692     1.2757    11.4696 </r>
       <r>    12.7647     1.6006    11.6225 </r>
       <r>    12.8603     1.5427    11.7699 </r>
       <r>    12.9558     1.2257    11.8870 </r>
       <r>    13.0514     0.9853    11.9812 </r>
       <r>    13.1469     0.9736    12.0742 </r>
       <r>    13.2424     1.0408    12.1736 </r>
       <r>    13.3380     1.0205    12.2711 </r>
       <r>    13.4335     0.9805    12.3648 </r>
       <r>    13.5291     1.0372    12.4639 </r>
       <r>    13.6246     1.1575    12.5745 </r>
       <r>    13.7202     1.2817    12.6970 </r>
       <r>    13.8157     1.3315    12.8242 </r>
       <r>    13.9112     1.1697    12.9359 </r>
       <r>    14.0068     0.7886    13.0113 </r>
       <r>    14.1023     0.3914    13.0487 </r>
       <r>    14.1979     0.1999    13.0678 </r>
       <r>    14.2934     0.3412    13.1004 </r>
       <r>    14.3890     0.8841    13.1848 </r>
       <r>    14.4845     1.6794    13.3453 </r>
       <r>    14.5800     2.2554    13.5608 </r>
       <r>    14.6756     2.2645    13.7771 </r>
       <r>    14.7711     1.8422    13.9531 </r>
       <r>    14.8667     1.2806    14.0755 </r>
       <r>    14.9622     0.7352    14.1457 </r>
       <r>    15.0578     0.3186    14.1762 </r>
       <r>    15.1533     0.0980    14.1855 </r>
       <r>    15.2488     0.0320    14.1886 </r>
       <r>    15.3444     0.0682    14.1951 </r>
       <r>    15.4399     0.2224    14.2163 </r>
       <r>    15.5355     0.4848    14.2627 </r>
       <r>    15.6310     0.6838    14.3280 </r>
       <r>    15.7266     0.6391    14.3891 </r>
       <r>    15.8221     0.4711    14.4341 </r>
       <r>    15.9176     0.4996    14.4818 </r>
       <r>    16.0132     0.8278    14.5609 </r>
       <r>    16.1087     1.1740    14.6731 </r>
       <r>    16.2043     1.2112    14.7888 </r>
       <r>    16.2998     1.0265    14.8869 </r>
       <r>    16.3954     0.9116    14.9740 </r>
       <r>    16.4909     0.8678    15.0569 </r>
       <r>    16.5864     0.7552    15.1290 </r>
       <r>    16.6820     0.5808    15.1845 </r>
       <r>    16.7775     0.3878    15.2216 </r>
       <r>    16.8731     0.2028    15.2409 </r>
       <r>    16.9686     0.0797    15.2486 </r>
       <r>    17.0642     0.0533    15.2536 </r>
       <r>    17.1597     0.1488    15.2679 </r>
       <r>    17.2552     0.4008    15.3061 </r>
       <r>    17.3508     0.7533    15.3781 </r>
       <r>    17.4463     1.0283    15.4764 </r>
       <r>    17.5419     1.0844    15.5800 </r>
       <r>    17.6374     0.8975    15.6657 </r>
       <r>    17.7329     0.5556    15.7188 </r>
       <r>    17.8285     0.2412    15.7418 </r>
       <r>    17.9240     0.0702    15.7486 </r>
       <r>    18.0196     0.0134    15.7498 </r>
       <r>    18.1151     0.0016    15.7500 </r>
       <r>    18.2107     0.0001    15.7500 </r>
       <r>    18.3062     0.0000    15.7500 </r>
       <r>    18.4017     0.0000    15.7500 </r>
       <r>    18.4973     0.0000    15.7500 </r>
       <r>    18.5928     0.0000    15.7500 </r>
       <r>    18.6884     0.0000    15.7500 </r>
       <r>    18.7839     0.0000    15.7500 </r>
       <r>    18.8795     0.0000    15.7500 </r>
       <r>    18.9750     0.0000    15.7500 </r>
       <r>    19.0705     0.0000    15.7500 </r>
       <r>    19.1661     0.0000    15.7500 </r>
       <r>    19.2616     0.0000    15.7500 </r>
       <r>    19.3572     0.0000    15.7500 </r>
       <r>    19.4527     0.0000    15.7500 </r>
       <r>    19.5483     0.0000    15.7500 </r>
       <r>    19.6438     0.0002    15.7500 </r>
       <r>    19.7393     0.0018    15.7502 </r>
       <r>    19.8349     0.0128    15.7514 </r>
       <r>    19.9304     0.0589    15.7570 </r>
       <r>    20.0260     0.1792    15.7742 </r>
       <r>    20.1215     0.3723    15.8097 </r>
       <r>    20.2171     0.5468    15.8620 </r>
       <r>    20.3126     0.5862    15.9180 </r>
       <r>    20.4081     0.4619    15.9621 </r>
       <r>    20.5037     0.2616    15.9871 </r>
       <r>    20.5992     0.1026    15.9969 </r>
       <r>    20.6948     0.0270    15.9995 </r>
       <r>    20.7903     0.0047    15.9999 </r>
       <r>    20.8859     0.0005    16.0000 </r>
       <r>    20.9814     0.0000    16.0000 </r>
       <r>    21.0769     0.0000    16.0000 </r>
       <r>    21.1725     0.0000    16.0000 </r>
       <r>    21.2680     0.0000    16.0000 </r>
       <r>    21.3636     0.0000    16.0000 </r>
       <r>    21.4591     0.0000    16.0000 </r>
       <r>    21.5547     0.0000    16.0000 </r>
       <r>    21.6502     0.0000    16.0000 </r>
       <r>    21.7457     0.0000    16.0000 </r>
       <r>    21.8413     0.0000    16.0000 </r>
       <r>    21.9368     0.0000    16.0000 </r>
       <r>    22.0324     0.0000    16.0000 </r>
       <r>    22.1279     0.0000    16.0000 </r>
       <r>    22.2235     0.0000    16.0000 </r>
       <r>    22.3190     0.0000    16.0000 </r>
      </set>
     </set>
    </array>
   </total>
  </dos>
 </calculation>
 <structure name="finalpos" >
  <crystal>
   <varray name="basis" >
    <v>      -2.31224049       2.31224049       1.47633741 </v>
    <v>       2.31224049      -2.31224049       1.47633741 </v>
    <v>       2.31224049       2.31224049      -1.47633741 </v>
   </varray>
   <i name="volume">     31.57269247 </i>
   <varray name="rec_basis" >
    <v>       0.00000000       0.21624048       0.33867597 </v>
    <v>       0.21624048       0.00000000       0.33867597 </v>
    <v>       0.21624048       0.21624048      -0.00000000 </v>
   </varray>
  </crystal>
  <varray name="positions" >
   <v>       0.25000000       0.75000000       0.50000000 </v>
   <v>       0.00000000       0.00000000       0.00000000 </v>
  </varray>
 </structure>
</modeling>
