   2   2   0   0
  0.1529437E+02  0.3691622E-09  0.3691622E-09  0.3691622E-09  0.5000000E-15
  1.000000000000000E-004
  CAR 
 unknown system                          
     23.71590900     -6.56695614  301      8.99254280      1.00000000
     -6.567  0.0000E+00  0.0000E+00
     -6.466  0.0000E+00  0.0000E+00
     -6.365  0.0000E+00  0.0000E+00
     -6.264  0.0000E+00  0.0000E+00
     -6.163  0.0000E+00  0.0000E+00
     -6.062  0.0000E+00  0.0000E+00
     -5.961  0.0000E+00  0.0000E+00
     -5.860  0.0000E+00  0.0000E+00
     -5.759  0.0000E+00  0.0000E+00
     -5.658  0.3109E-16  0.3138E-17
     -5.558  0.6524E-14  0.6617E-15
     -5.457  0.8294E-12  0.8438E-13
     -5.356  0.6396E-10  0.6540E-11
     -5.255  0.2997E-08  0.3091E-09
     -5.154  0.8552E-07  0.8942E-08
     -5.053  0.1491E-05  0.1594E-06
     -4.952  0.1596E-04  0.1771E-05
     -4.851  0.1060E-03  0.1247E-04
     -4.750  0.4469E-03  0.5758E-04
     -4.649  0.1265E-02  0.1853E-03
     -4.548  0.2684E-02  0.4562E-03
     -4.447  0.4832E-02  0.9439E-03
     -4.346  0.7493E-02  0.1700E-02
     -4.245  0.9299E-02  0.2639E-02
     -4.144  0.9260E-02  0.3574E-02
     -4.043  0.8940E-02  0.4476E-02
     -3.942  0.1075E-01  0.5562E-02
     -3.841  0.1422E-01  0.6997E-02
     -3.741  0.1606E-01  0.8618E-02
     -3.640  0.1550E-01  0.1018E-01
     -3.539  0.1500E-01  0.1170E-01
     -3.438  0.1518E-01  0.1323E-01
     -3.337  0.1553E-01  0.1480E-01
     -3.236  0.1672E-01  0.1648E-01
     -3.135  0.1846E-01  0.1835E-01
     -3.034  0.1951E-01  0.2032E-01
     -2.933  0.2032E-01  0.2237E-01
     -2.832  0.2195E-01  0.2458E-01
     -2.731  0.2198E-01  0.2680E-01
     -2.630  0.1821E-01  0.2864E-01
     -2.529  0.1525E-01  0.3018E-01
     -2.428  0.1916E-01  0.3212E-01
     -2.327  0.2799E-01  0.3494E-01
     -2.226  0.3292E-01  0.3826E-01
     -2.125  0.3028E-01  0.4132E-01
     -2.025  0.2544E-01  0.4389E-01
     -1.924  0.2234E-01  0.4614E-01
     -1.823  0.2016E-01  0.4818E-01
     -1.722  0.1891E-01  0.5009E-01
     -1.621  0.1975E-01  0.5208E-01
     -1.520  0.2257E-01  0.5436E-01
     -1.419  0.2782E-01  0.5717E-01
     -1.318  0.3493E-01  0.6069E-01
     -1.217  0.3810E-01  0.6454E-01
     -1.116  0.3366E-01  0.6794E-01
     -1.015  0.2767E-01  0.7073E-01
     -0.914  0.2748E-01  0.7350E-01
     -0.813  0.3220E-01  0.7675E-01
     -0.712  0.3599E-01  0.8039E-01
     -0.611  0.3603E-01  0.8402E-01
     -0.510  0.3298E-01  0.8735E-01
     -0.409  0.2766E-01  0.9014E-01
     -0.308  0.2209E-01  0.9237E-01
     -0.208  0.2001E-01  0.9439E-01
     -0.107  0.2361E-01  0.9678E-01
     -0.006  0.3200E-01  0.1000E+00
      0.095  0.4199E-01  0.1042E+00
      0.196  0.4832E-01  0.1091E+00
      0.297  0.4675E-01  0.1138E+00
      0.398  0.4086E-01  0.1180E+00
      0.499  0.3843E-01  0.1218E+00
      0.600  0.4030E-01  0.1259E+00
      0.701  0.4043E-01  0.1300E+00
      0.802  0.3618E-01  0.1336E+00
      0.903  0.3270E-01  0.1369E+00
      1.004  0.3430E-01  0.1404E+00
      1.105  0.3902E-01  0.1443E+00
      1.206  0.4443E-01  0.1488E+00
      1.307  0.4741E-01  0.1536E+00
      1.408  0.4456E-01  0.1581E+00
      1.508  0.3985E-01  0.1621E+00
      1.609  0.3835E-01  0.1660E+00
      1.710  0.3723E-01  0.1698E+00
      1.811  0.3566E-01  0.1734E+00
      1.912  0.3877E-01  0.1773E+00
      2.013  0.4435E-01  0.1818E+00
      2.114  0.4362E-01  0.1862E+00
      2.215  0.3678E-01  0.1899E+00
      2.316  0.3132E-01  0.1930E+00
      2.417  0.2973E-01  0.1960E+00
      2.518  0.2977E-01  0.1990E+00
      2.619  0.3025E-01  0.2021E+00
      2.720  0.3132E-01  0.2053E+00
      2.821  0.3221E-01  0.2085E+00
      2.922  0.3198E-01  0.2117E+00
      3.023  0.3325E-01  0.2151E+00
      3.124  0.3965E-01  0.2191E+00
      3.225  0.4939E-01  0.2241E+00
      3.325  0.5749E-01  0.2299E+00
      3.426  0.6074E-01  0.2360E+00
      3.527  0.5725E-01  0.2418E+00
      3.628  0.4873E-01  0.2467E+00
      3.729  0.4104E-01  0.2509E+00
      3.830  0.3752E-01  0.2546E+00
      3.931  0.3661E-01  0.2583E+00
      4.032  0.3598E-01  0.2620E+00
      4.133  0.3403E-01  0.2654E+00
      4.234  0.3118E-01  0.2686E+00
      4.335  0.3191E-01  0.2718E+00
      4.436  0.3882E-01  0.2757E+00
      4.537  0.4739E-01  0.2805E+00
      4.638  0.5358E-01  0.2859E+00
      4.739  0.5991E-01  0.2919E+00
      4.840  0.6647E-01  0.2986E+00
      4.941  0.6798E-01  0.3055E+00
      5.041  0.6420E-01  0.3120E+00
      5.142  0.5900E-01  0.3179E+00
      5.243  0.5092E-01  0.3231E+00
      5.344  0.3881E-01  0.3270E+00
      5.445  0.3043E-01  0.3301E+00
      5.546  0.3277E-01  0.3334E+00
      5.647  0.4278E-01  0.3377E+00
      5.748  0.5435E-01  0.3432E+00
      5.849  0.6474E-01  0.3497E+00
      5.950  0.7197E-01  0.3570E+00
      6.051  0.7226E-01  0.3643E+00
      6.152  0.6525E-01  0.3709E+00
      6.253  0.5694E-01  0.3766E+00
      6.354  0.5243E-01  0.3819E+00
      6.455  0.5316E-01  0.3873E+00
      6.556  0.5775E-01  0.3931E+00
      6.657  0.6264E-01  0.3994E+00
      6.758  0.6463E-01  0.4059E+00
      6.858  0.6280E-01  0.4123E+00
      6.959  0.6075E-01  0.4184E+00
      7.060  0.6194E-01  0.4247E+00
      7.161  0.6634E-01  0.4314E+00
      7.262  0.7340E-01  0.4388E+00
      7.363  0.7782E-01  0.4466E+00
      7.464  0.7266E-01  0.4540E+00
      7.565  0.6173E-01  0.4602E+00
      7.666  0.5479E-01  0.4657E+00
      7.767  0.5572E-01  0.4714E+00
      7.868  0.5895E-01  0.4773E+00
      7.969  0.5599E-01  0.4830E+00
      8.070  0.4859E-01  0.4879E+00
      8.171  0.4606E-01  0.4925E+00
      8.272  0.5013E-01  0.4976E+00
      8.373  0.5472E-01  0.5031E+00
      8.474  0.5566E-01  0.5087E+00
      8.574  0.5233E-01  0.5140E+00
      8.675  0.4612E-01  0.5187E+00
      8.776  0.4189E-01  0.5229E+00
      8.877  0.4449E-01  0.5274E+00
      8.978  0.5136E-01  0.5326E+00
      9.079  0.5385E-01  0.5380E+00
      9.180  0.4734E-01  0.5428E+00
      9.281  0.3629E-01  0.5464E+00
      9.382  0.2960E-01  0.5494E+00
      9.483  0.3336E-01  0.5528E+00
      9.584  0.4490E-01  0.5573E+00
      9.685  0.5464E-01  0.5628E+00
      9.786  0.5702E-01  0.5686E+00
      9.887  0.5514E-01  0.5742E+00
      9.988  0.5465E-01  0.5797E+00
     10.089  0.5554E-01  0.5853E+00
     10.190  0.5260E-01  0.5906E+00
     10.291  0.4445E-01  0.5951E+00
     10.391  0.3614E-01  0.5987E+00
     10.492  0.3426E-01  0.6022E+00
     10.593  0.4101E-01  0.6063E+00
     10.694  0.5023E-01  0.6114E+00
     10.795  0.5441E-01  0.6169E+00
     10.896  0.5350E-01  0.6223E+00
     10.997  0.5234E-01  0.6276E+00
     11.098  0.5417E-01  0.6330E+00
     11.199  0.5932E-01  0.6390E+00
     11.300  0.6800E-01  0.6459E+00
     11.401  0.7773E-01  0.6537E+00
     11.502  0.8056E-01  0.6619E+00
     11.603  0.7466E-01  0.6694E+00
     11.704  0.6813E-01  0.6763E+00
     11.805  0.6544E-01  0.6829E+00
     11.906  0.6447E-01  0.6894E+00
     12.007  0.6270E-01  0.6957E+00
     12.107  0.6128E-01  0.7019E+00
     12.208  0.6421E-01  0.7084E+00
     12.309  0.7017E-01  0.7155E+00
     12.410  0.7260E-01  0.7228E+00
     12.511  0.6934E-01  0.7298E+00
     12.612  0.6425E-01  0.7363E+00
     12.713  0.6279E-01  0.7426E+00
     12.814  0.6624E-01  0.7493E+00
     12.915  0.6969E-01  0.7564E+00
     13.016  0.7025E-01  0.7634E+00
     13.117  0.6902E-01  0.7704E+00
     13.218  0.6577E-01  0.7770E+00
     13.319  0.6082E-01  0.7832E+00
     13.420  0.5530E-01  0.7888E+00
     13.521  0.5105E-01  0.7939E+00
     13.622  0.5348E-01  0.7993E+00
     13.723  0.6500E-01  0.8059E+00
     13.824  0.7738E-01  0.8137E+00
     13.924  0.7949E-01  0.8217E+00
     14.025  0.7266E-01  0.8291E+00
     14.126  0.6862E-01  0.8360E+00
     14.227  0.7357E-01  0.8434E+00
     14.328  0.8524E-01  0.8520E+00
     14.429  0.9655E-01  0.8618E+00
     14.530  0.9709E-01  0.8716E+00
     14.631  0.8418E-01  0.8801E+00
     14.732  0.6863E-01  0.8870E+00
     14.833  0.6050E-01  0.8931E+00
     14.934  0.5858E-01  0.8990E+00
     15.035  0.5812E-01  0.9049E+00
     15.136  0.5836E-01  0.9108E+00
     15.237  0.6218E-01  0.9170E+00
     15.338  0.7013E-01  0.9241E+00
     15.439  0.7654E-01  0.9318E+00
     15.540  0.7382E-01  0.9393E+00
     15.640  0.6135E-01  0.9455E+00
     15.741  0.4758E-01  0.9503E+00
     15.842  0.3979E-01  0.9543E+00
     15.943  0.3840E-01  0.9582E+00
     16.044  0.4102E-01  0.9623E+00
     16.145  0.4482E-01  0.9668E+00
     16.246  0.4732E-01  0.9716E+00
     16.347  0.4811E-01  0.9765E+00
     16.448  0.4905E-01  0.9814E+00
     16.549  0.5104E-01  0.9866E+00
     16.650  0.5212E-01  0.9918E+00
     16.751  0.5062E-01  0.9970E+00
     16.852  0.4769E-01  0.1002E+01
     16.953  0.4791E-01  0.1007E+01
     17.054  0.5259E-01  0.1012E+01
     17.155  0.5492E-01  0.1017E+01
     17.256  0.5031E-01  0.1023E+01
     17.357  0.4201E-01  0.1027E+01
     17.457  0.3277E-01  0.1030E+01
     17.558  0.2246E-01  0.1032E+01
     17.659  0.1305E-01  0.1034E+01
     17.760  0.8905E-02  0.1035E+01
     17.861  0.1209E-01  0.1036E+01
     17.962  0.1985E-01  0.1038E+01
     18.063  0.2679E-01  0.1040E+01
     18.164  0.2854E-01  0.1043E+01
     18.265  0.2455E-01  0.1046E+01
     18.366  0.1807E-01  0.1048E+01
     18.467  0.1291E-01  0.1049E+01
     18.568  0.1007E-01  0.1050E+01
     18.669  0.8142E-02  0.1051E+01
     18.770  0.6342E-02  0.1051E+01
     18.871  0.5522E-02  0.1052E+01
     18.972  0.6812E-02  0.1053E+01
     19.073  0.1036E-01  0.1054E+01
     19.173  0.1427E-01  0.1055E+01
     19.274  0.1539E-01  0.1057E+01
     19.375  0.1329E-01  0.1058E+01
     19.476  0.1001E-01  0.1059E+01
     19.577  0.6583E-02  0.1060E+01
     19.678  0.3432E-02  0.1060E+01
     19.779  0.1479E-02  0.1060E+01
     19.880  0.1346E-02  0.1060E+01
     19.981  0.3119E-02  0.1061E+01
     20.082  0.6198E-02  0.1061E+01
     20.183  0.8836E-02  0.1062E+01
     20.284  0.9304E-02  0.1063E+01
     20.385  0.7756E-02  0.1064E+01
     20.486  0.5546E-02  0.1065E+01
     20.587  0.3375E-02  0.1065E+01
     20.688  0.1564E-02  0.1065E+01
     20.789  0.5461E-03  0.1065E+01
     20.890  0.3857E-03  0.1065E+01
     20.990  0.9301E-03  0.1065E+01
     21.091  0.1934E-02  0.1065E+01
     21.192  0.2699E-02  0.1066E+01
     21.293  0.2482E-02  0.1066E+01
     21.394  0.1524E-02  0.1066E+01
     21.495  0.8110E-03  0.1066E+01
     21.596  0.8690E-03  0.1066E+01
     21.697  0.1333E-02  0.1066E+01
     21.798  0.1440E-02  0.1067E+01
     21.899  0.9671E-03  0.1067E+01
     22.000  0.3988E-03  0.1067E+01
     22.101  0.1008E-03  0.1067E+01
     22.202  0.1559E-04  0.1067E+01
     22.303  0.1474E-05  0.1067E+01
     22.404  0.8505E-07  0.1067E+01
     22.505  0.2989E-08  0.1067E+01
     22.606  0.6387E-10  0.1067E+01
     22.706  0.8288E-12  0.1067E+01
     22.807  0.6522E-14  0.1067E+01
     22.908  0.3109E-16  0.1067E+01
     23.009  0.0000E+00  0.1067E+01
     23.110  0.0000E+00  0.1067E+01
     23.211  0.0000E+00  0.1067E+01
     23.312  0.0000E+00  0.1067E+01
     23.413  0.0000E+00  0.1067E+01
     23.514  0.0000E+00  0.1067E+01
     23.615  0.0000E+00  0.1067E+01
     23.716  0.0000E+00  0.1067E+01
