unknown system                          
           1
    -2.450000    2.450000    1.274000
     2.450000   -2.450000    1.274000
     2.450000    2.450000   -1.274000
   Si
   2
Direct configuration=     1
   0.25000000  0.75000000  0.50000000
   0.00000000  0.00000000  0.00000000
unknown system                          
           1
    -2.437147    2.437147    1.291324
     2.437147   -2.437147    1.291324
     2.437147    2.437147   -1.291324
   Si
   2
Direct configuration=     2
   0.25000000  0.75000000  0.50000000
   0.00000000 -0.00000000  0.00000000
unknown system                          
           1
    -2.423731    2.423731    1.309406
     2.423731   -2.423731    1.309406
     2.423731    2.423731   -1.309406
   Si
   2
Direct configuration=     3
   0.25000000  0.75000000  0.50000000
   0.00000000 -0.00000000  0.00000000
unknown system                          
           1
    -2.396900    2.396900    1.345570
     2.396900   -2.396900    1.345570
     2.396900    2.396900   -1.345570
   Si
   2
Direct configuration=     4
   0.25000000  0.75000000  0.50000000
   0.00000000 -0.00000000  0.00000000
unknown system                          
           1
    -2.392770    2.392770    1.351137
     2.392770   -2.392770    1.351137
     2.392770    2.392770   -1.351137
   Si
   2
Direct configuration=     5
   0.25000000  0.75000000  0.50000000
   0.00000000 -0.00000000  0.00000000
unknown system                          
           1
    -2.384509    2.384509    1.362271
     2.384509   -2.384509    1.362271
     2.384509    2.384509   -1.362271
   Si
   2
Direct configuration=     6
   0.25000000  0.75000000  0.50000000
   0.00000000 -0.00000000  0.00000000
unknown system                          
           1
    -2.390011    2.390011    1.354855
     2.390011   -2.390011    1.354855
     2.390011    2.390011   -1.354855
   Si
   2
Direct configuration=     7
   0.25000000  0.75000000  0.50000000
   0.00000000 -0.00000000  0.00000000
unknown system                          
           1
    -2.391069    2.391069    1.353429
     2.391069   -2.391069    1.353429
     2.391069    2.391069   -1.353429
   Si
   2
Direct configuration=     8
   0.25000000  0.75000000  0.50000000
   0.00000000 -0.00000000  0.00000000
unknown system                          
           1
    -2.391920    2.391920    1.352283
     2.391920   -2.391920    1.352283
     2.391920    2.391920   -1.352283
   Si
   2
Direct configuration=     9
   0.25000000  0.75000000  0.50000000
   0.00000000 -0.00000000  0.00000000
unknown system                          
           1
    -2.392345    2.392345    1.351710
     2.392345   -2.392345    1.351710
     2.392345    2.392345   -1.351710
   Si
   2
Direct configuration=    10
   0.25000000  0.75000000  0.50000000
   0.00000000 -0.00000000  0.00000000
unknown system                          
           1
    -2.392557    2.392557    1.351423
     2.392557   -2.392557    1.351423
     2.392557    2.392557   -1.351423
   Si
   2
Direct configuration=    11
   0.25000000  0.75000000  0.50000000
   0.00000000 -0.00000000  0.00000000
unknown system                          
           1
    -2.392664    2.392664    1.351280
     2.392664   -2.392664    1.351280
     2.392664    2.392664   -1.351280
   Si
   2
Direct configuration=    12
   0.25000000  0.75000000  0.50000000
   0.00000000 -0.00000000  0.00000000
unknown system                          
           1
    -2.375513    2.375513    1.349256
     2.375513   -2.375513    1.349256
     2.375513    2.375513   -1.349256
   Si
   2
Direct configuration=    13
   0.25000000  0.75000000  0.50000000
  -0.00000000 -0.00000000 -0.00000000
unknown system                          
           1
    -2.386422    2.386422    1.350543
     2.386422   -2.386422    1.350543
     2.386422    2.386422   -1.350543
   Si
   2
Direct configuration=    14
   0.25000000  0.75000000  0.50000000
   0.00000000 -0.00000000 -0.00000000
unknown system                          
           1
    -2.388545    2.388545    1.350794
     2.388545   -2.388545    1.350794
     2.388545    2.388545   -1.350794
   Si
   2
Direct configuration=    15
   0.25000000  0.75000000  0.50000000
   0.00000000 -0.00000000 -0.00000000
