<?xml version="1.0" encoding="ISO-8859-1"?>
<modeling>
 <generator>
  <i name="program" type="string">vasp </i>
  <i name="version" type="string">5.4.4.18Apr17-6-g9f103f2a35  </i>
  <i name="subversion" type="string">(build Dec 09 2018 21:25:21) complex            parallel </i>
  <i name="platform" type="string">IFC18.0.1.163_CrayMPICH7.7.0_MKL18.0.1.163 </i>
  <i name="date" type="string">2019 03 19 </i>
  <i name="time" type="string">13:20:08 </i>
 </generator>
 <incar>
  <i type="string" name="PREC">normal</i>
  <i type="int" name="IBRION">     2</i>
  <i name="EDIFF">      0.00040000</i>
  <i name="EDIFFG">     -0.01000000</i>
  <i type="int" name="NSW">    15</i>
  <i type="int" name="ISIF">     2</i>
  <i name="ENCUT">    350.00000000</i>
  <i type="int" name="NBANDS">     8</i>
  <i type="logical" name="LREAL"> F  </i>
  <i type="int" name="ISMEAR">     0</i>
  <i name="SIGMA">      0.20000000</i>
  <v type="int" name="KPOINT_BSE">    -1     0     0     0</v>
 </incar>
 <structure name="primitive_cell" >
  <crystal>
   <varray name="basis" >
    <v>      -2.45000000       2.45000000       1.27400000 </v>
    <v>       2.45000000      -2.45000000       1.27400000 </v>
    <v>       2.45000000       2.45000000      -1.27400000 </v>
   </varray>
   <i name="volume">     30.58874000 </i>
   <varray name="rec_basis" >
    <v>       0.00000000       0.20408163       0.39246468 </v>
    <v>       0.20408163       0.00000000       0.39246468 </v>
    <v>       0.20408163       0.20408163      -0.00000000 </v>
   </varray>
  </crystal>
  <varray name="positions" >
   <v>       0.25000000      -0.25000000      -0.50000000 </v>
   <v>       0.00000000       0.00000000       0.00000000 </v>
  </varray>
 </structure>
 <varray name="primitive_index" >
  <v type="int" >        1 </v>
  <v type="int" >        2 </v>
 </varray>
 <kpoints>
  <generation param="Monkhorst-Pack">
   <v type="int" name="divisions">      10       10       10 </v>
   <v name="usershift">      0.00000000       0.00000000       0.00000000 </v>
   <v name="genvec1">      0.10000000       0.00000000      -0.00000000 </v>
   <v name="genvec2">      0.00000000       0.10000000      -0.00000000 </v>
   <v name="genvec3">      0.00000000      -0.00000000       0.10000000 </v>
   <v name="shift">      0.50000000       0.50000000       0.50000000 </v>
  </generation>
  <varray name="kpointlist" >
   <v>       0.05000000       0.05000000       0.05000000 </v>
   <v>       0.15000000       0.05000000       0.05000000 </v>
   <v>       0.25000000       0.05000000       0.05000000 </v>
   <v>       0.35000000       0.05000000       0.05000000 </v>
   <v>       0.45000000       0.05000000       0.05000000 </v>
   <v>      -0.05000000       0.05000000       0.05000000 </v>
   <v>       0.15000000       0.15000000       0.05000000 </v>
   <v>       0.25000000       0.15000000       0.05000000 </v>
   <v>       0.35000000       0.15000000       0.05000000 </v>
   <v>       0.45000000       0.15000000       0.05000000 </v>
   <v>      -0.45000000       0.15000000       0.05000000 </v>
   <v>      -0.35000000       0.15000000       0.05000000 </v>
   <v>      -0.25000000       0.15000000       0.05000000 </v>
   <v>      -0.15000000       0.15000000       0.05000000 </v>
   <v>      -0.05000000       0.15000000       0.05000000 </v>
   <v>       0.25000000       0.25000000       0.05000000 </v>
   <v>       0.35000000       0.25000000       0.05000000 </v>
   <v>       0.45000000       0.25000000       0.05000000 </v>
   <v>      -0.45000000       0.25000000       0.05000000 </v>
   <v>      -0.35000000       0.25000000       0.05000000 </v>
   <v>      -0.25000000       0.25000000       0.05000000 </v>
   <v>      -0.15000000       0.25000000       0.05000000 </v>
   <v>      -0.05000000       0.25000000       0.05000000 </v>
   <v>       0.35000000       0.35000000       0.05000000 </v>
   <v>       0.45000000       0.35000000       0.05000000 </v>
   <v>      -0.45000000       0.35000000       0.05000000 </v>
   <v>      -0.35000000       0.35000000       0.05000000 </v>
   <v>      -0.25000000       0.35000000       0.05000000 </v>
   <v>      -0.15000000       0.35000000       0.05000000 </v>
   <v>      -0.05000000       0.35000000       0.05000000 </v>
   <v>       0.45000000       0.45000000       0.05000000 </v>
   <v>      -0.45000000       0.45000000       0.05000000 </v>
   <v>      -0.35000000       0.45000000       0.05000000 </v>
   <v>      -0.25000000       0.45000000       0.05000000 </v>
   <v>      -0.15000000       0.45000000       0.05000000 </v>
   <v>      -0.05000000       0.45000000       0.05000000 </v>
   <v>      -0.45000000      -0.45000000       0.05000000 </v>
   <v>      -0.35000000      -0.45000000       0.05000000 </v>
   <v>      -0.25000000      -0.45000000       0.05000000 </v>
   <v>      -0.15000000      -0.45000000       0.05000000 </v>
   <v>      -0.05000000      -0.45000000       0.05000000 </v>
   <v>      -0.35000000      -0.35000000       0.05000000 </v>
   <v>      -0.25000000      -0.35000000       0.05000000 </v>
   <v>      -0.15000000      -0.35000000       0.05000000 </v>
   <v>      -0.05000000      -0.35000000       0.05000000 </v>
   <v>      -0.25000000      -0.25000000       0.05000000 </v>
   <v>      -0.15000000      -0.25000000       0.05000000 </v>
   <v>      -0.05000000      -0.25000000       0.05000000 </v>
   <v>      -0.15000000      -0.15000000       0.05000000 </v>
   <v>      -0.05000000      -0.15000000       0.05000000 </v>
   <v>      -0.05000000      -0.05000000       0.05000000 </v>
   <v>       0.15000000       0.15000000       0.15000000 </v>
   <v>       0.25000000       0.15000000       0.15000000 </v>
   <v>       0.35000000       0.15000000       0.15000000 </v>
   <v>      -0.15000000       0.15000000       0.15000000 </v>
   <v>       0.25000000       0.25000000       0.15000000 </v>
   <v>       0.35000000       0.25000000       0.15000000 </v>
   <v>       0.45000000       0.25000000       0.15000000 </v>
   <v>      -0.25000000       0.25000000       0.15000000 </v>
   <v>      -0.15000000       0.25000000       0.15000000 </v>
   <v>       0.35000000       0.35000000       0.15000000 </v>
   <v>      -0.35000000       0.35000000       0.15000000 </v>
   <v>      -0.25000000       0.35000000       0.15000000 </v>
   <v>      -0.15000000       0.35000000       0.15000000 </v>
   <v>      -0.45000000       0.45000000       0.15000000 </v>
   <v>      -0.35000000       0.45000000       0.15000000 </v>
   <v>      -0.25000000       0.45000000       0.15000000 </v>
   <v>      -0.15000000       0.45000000       0.15000000 </v>
   <v>      -0.45000000      -0.45000000       0.15000000 </v>
   <v>      -0.35000000      -0.45000000       0.15000000 </v>
   <v>      -0.25000000      -0.45000000       0.15000000 </v>
   <v>      -0.15000000      -0.45000000       0.15000000 </v>
   <v>      -0.35000000      -0.35000000       0.15000000 </v>
   <v>      -0.25000000      -0.35000000       0.15000000 </v>
   <v>      -0.15000000      -0.35000000       0.15000000 </v>
   <v>      -0.25000000      -0.25000000       0.15000000 </v>
   <v>      -0.15000000      -0.25000000       0.15000000 </v>
   <v>      -0.15000000      -0.15000000       0.15000000 </v>
   <v>       0.25000000       0.25000000       0.25000000 </v>
   <v>      -0.25000000       0.25000000       0.25000000 </v>
   <v>      -0.35000000       0.35000000       0.25000000 </v>
   <v>      -0.25000000       0.35000000       0.25000000 </v>
   <v>      -0.45000000       0.45000000       0.25000000 </v>
   <v>      -0.35000000       0.45000000       0.25000000 </v>
   <v>      -0.25000000       0.45000000       0.25000000 </v>
   <v>      -0.45000000      -0.45000000       0.25000000 </v>
   <v>      -0.35000000      -0.45000000       0.25000000 </v>
   <v>      -0.25000000      -0.45000000       0.25000000 </v>
   <v>      -0.35000000      -0.35000000       0.25000000 </v>
   <v>      -0.25000000      -0.35000000       0.25000000 </v>
   <v>      -0.25000000      -0.25000000       0.25000000 </v>
   <v>      -0.35000000       0.35000000       0.35000000 </v>
   <v>      -0.45000000       0.45000000       0.35000000 </v>
   <v>      -0.35000000       0.45000000       0.35000000 </v>
   <v>      -0.45000000      -0.45000000       0.35000000 </v>
   <v>      -0.35000000      -0.45000000       0.35000000 </v>
   <v>      -0.35000000      -0.35000000       0.35000000 </v>
   <v>      -0.45000000       0.45000000       0.45000000 </v>
   <v>      -0.45000000      -0.45000000       0.45000000 </v>
  </varray>
  <varray name="weights" >
   <v>       0.00800000 </v>
   <v>       0.01600000 </v>
   <v>       0.01600000 </v>
   <v>       0.01600000 </v>
   <v>       0.00800000 </v>
   <v>       0.00400000 </v>
   <v>       0.00800000 </v>
   <v>       0.01600000 </v>
   <v>       0.01600000 </v>
   <v>       0.01600000 </v>
   <v>       0.01600000 </v>
   <v>       0.01600000 </v>
   <v>       0.00800000 </v>
   <v>       0.00800000 </v>
   <v>       0.00800000 </v>
   <v>       0.00800000 </v>
   <v>       0.01600000 </v>
   <v>       0.01600000 </v>
   <v>       0.01600000 </v>
   <v>       0.00800000 </v>
   <v>       0.00800000 </v>
   <v>       0.01600000 </v>
   <v>       0.00800000 </v>
   <v>       0.00800000 </v>
   <v>       0.01600000 </v>
   <v>       0.00800000 </v>
   <v>       0.00800000 </v>
   <v>       0.01600000 </v>
   <v>       0.01600000 </v>
   <v>       0.00800000 </v>
   <v>       0.00400000 </v>
   <v>       0.00800000 </v>
   <v>       0.01600000 </v>
   <v>       0.01600000 </v>
   <v>       0.01600000 </v>
   <v>       0.00800000 </v>
   <v>       0.00800000 </v>
   <v>       0.01600000 </v>
   <v>       0.01600000 </v>
   <v>       0.01600000 </v>
   <v>       0.00800000 </v>
   <v>       0.00800000 </v>
   <v>       0.01600000 </v>
   <v>       0.01600000 </v>
   <v>       0.00800000 </v>
   <v>       0.00800000 </v>
   <v>       0.01600000 </v>
   <v>       0.00800000 </v>
   <v>       0.00800000 </v>
   <v>       0.00800000 </v>
   <v>       0.00200000 </v>
   <v>       0.00800000 </v>
   <v>       0.01600000 </v>
   <v>       0.00800000 </v>
   <v>       0.00400000 </v>
   <v>       0.00800000 </v>
   <v>       0.01600000 </v>
   <v>       0.00800000 </v>
   <v>       0.00800000 </v>
   <v>       0.00800000 </v>
   <v>       0.00400000 </v>
   <v>       0.00800000 </v>
   <v>       0.01600000 </v>
   <v>       0.00800000 </v>
   <v>       0.00800000 </v>
   <v>       0.01600000 </v>
   <v>       0.01600000 </v>
   <v>       0.00800000 </v>
   <v>       0.00800000 </v>
   <v>       0.01600000 </v>
   <v>       0.01600000 </v>
   <v>       0.00800000 </v>
   <v>       0.00800000 </v>
   <v>       0.01600000 </v>
   <v>       0.00800000 </v>
   <v>       0.00800000 </v>
   <v>       0.00800000 </v>
   <v>       0.00200000 </v>
   <v>       0.00200000 </v>
   <v>       0.00400000 </v>
   <v>       0.00800000 </v>
   <v>       0.00800000 </v>
   <v>       0.00800000 </v>
   <v>       0.01600000 </v>
   <v>       0.00800000 </v>
   <v>       0.00800000 </v>
   <v>       0.01600000 </v>
   <v>       0.00800000 </v>
   <v>       0.00800000 </v>
   <v>       0.00800000 </v>
   <v>       0.00200000 </v>
   <v>       0.00400000 </v>
   <v>       0.00800000 </v>
   <v>       0.00800000 </v>
   <v>       0.00800000 </v>
   <v>       0.00800000 </v>
   <v>       0.00200000 </v>
   <v>       0.00400000 </v>
   <v>       0.00200000 </v>
  </varray>
 </kpoints>
 <parameters>
  <separator name="general" >
   <i type="string" name="SYSTEM">unknown system</i>
   <i type="logical" name="LCOMPAT"> F  </i>
  </separator>
  <separator name="electronic" >
   <i type="string" name="PREC">normal</i>
   <i name="ENMAX">    350.00000000</i>
   <i name="ENAUG">    322.06900000</i>
   <i name="EDIFF">      0.00040000</i>
   <i type="int" name="IALGO">    38</i>
   <i type="int" name="IWAVPR">    11</i>
   <i type="int" name="NBANDS">     8</i>
   <i name="NELECT">      8.00000000</i>
   <i type="int" name="TURBO">     0</i>
   <i type="int" name="IRESTART">     0</i>
   <i type="int" name="NREBOOT">     0</i>
   <i type="int" name="NMIN">     0</i>
   <i name="EREF">      0.00000000</i>
   <separator name="electronic smearing" >
    <i type="int" name="ISMEAR">     0</i>
    <i name="SIGMA">      0.20000000</i>
    <i name="KSPACING">      0.50000000</i>
    <i type="logical" name="KGAMMA"> T  </i>
   </separator>
   <separator name="electronic projectors" >
    <i type="logical" name="LREAL"> F  </i>
    <v name="ROPT">      0.00000000</v>
    <i type="int" name="LMAXPAW">  -100</i>
    <i type="int" name="LMAXMIX">     2</i>
    <i type="logical" name="NLSPLINE"> F  </i>
   </separator>
   <separator name="electronic startup" >
    <i type="int" name="ISTART">     1</i>
    <i type="int" name="ICHARG">     0</i>
    <i type="int" name="INIWAV">     1</i>
   </separator>
   <separator name="electronic spin" >
    <i type="int" name="ISPIN">     1</i>
    <i type="logical" name="LNONCOLLINEAR"> F  </i>
    <v name="MAGMOM">      1.00000000      1.00000000</v>
    <i name="NUPDOWN">     -1.00000000</i>
    <i type="logical" name="LSORBIT"> F  </i>
    <v name="SAXIS">      0.00000000      0.00000000      1.00000000</v>
    <i type="logical" name="LSPIRAL"> F  </i>
    <v name="QSPIRAL">      0.00000000      0.00000000      0.00000000</v>
    <i type="logical" name="LZEROZ"> F  </i>
   </separator>
   <separator name="electronic exchange-correlation" >
    <i type="logical" name="LASPH"> F  </i>
    <i type="logical" name="LMETAGGA"> F  </i>
   </separator>
   <separator name="electronic convergence" >
    <i type="int" name="NELM">    60</i>
    <i type="int" name="NELMDL">     0</i>
    <i type="int" name="NELMIN">     2</i>
    <i name="ENINI">    350.00000000</i>
    <separator name="electronic convergence detail" >
     <i type="logical" name="LDIAG"> T  </i>
     <i type="logical" name="LSUBROT"> F  </i>
     <i name="WEIMIN">      0.00100000</i>
     <i name="EBREAK">      0.00001250</i>
     <i name="DEPER">      0.30000000</i>
     <i type="int" name="NRMM">     4</i>
     <i name="TIME">      0.40000000</i>
    </separator>
   </separator>
   <separator name="electronic mixer" >
    <i name="AMIX">      0.40000000</i>
    <i name="BMIX">      1.00000000</i>
    <i name="AMIN">      0.10000000</i>
    <i name="AMIX_MAG">      1.60000000</i>
    <i name="BMIX_MAG">      1.00000000</i>
    <separator name="electronic mixer details" >
     <i type="int" name="IMIX">     4</i>
     <i type="logical" name="MIXFIRST"> F  </i>
     <i type="int" name="MAXMIX">   -45</i>
     <i name="WC">    100.00000000</i>
     <i type="int" name="INIMIX">     1</i>
     <i type="int" name="MIXPRE">     1</i>
     <i type="int" name="MREMOVE">     5</i>
    </separator>
   </separator>
   <separator name="electronic dipolcorrection" >
    <i type="logical" name="LDIPOL"> F  </i>
    <i type="logical" name="LMONO"> F  </i>
    <i type="int" name="IDIPOL">     0</i>
    <i name="EPSILON">      1.00000000</i>
    <v name="DIPOL">   -100.00000000   -100.00000000   -100.00000000</v>
    <i name="EFIELD">      0.00000000</i>
   </separator>
  </separator>
  <separator name="grids" >
   <i type="int" name="NGX">    18</i>
   <i type="int" name="NGY">    18</i>
   <i type="int" name="NGZ">    18</i>
   <i type="int" name="NGXF">    36</i>
   <i type="int" name="NGYF">    36</i>
   <i type="int" name="NGZF">    36</i>
   <i type="logical" name="ADDGRID"> F  </i>
  </separator>
  <separator name="ionic" >
   <i type="int" name="NSW">    15</i>
   <i type="int" name="IBRION">     2</i>
   <i type="int" name="MDALGO">     0</i>
   <i type="int" name="ISIF">     2</i>
   <i name="PSTRESS">      0.00000000</i>
   <i name="EDIFFG">     -0.01000000</i>
   <i type="int" name="NFREE">     1</i>
   <i name="POTIM">      0.50000000</i>
   <i name="SMASS">     -3.00000000</i>
   <i name="SCALEE">      1.00000000</i>
  </separator>
  <separator name="ionic md" >
   <i name="TEBEG">      0.00010000</i>
   <i name="TEEND">      0.00010000</i>
   <i type="int" name="NBLOCK">     1</i>
   <i type="int" name="KBLOCK">    15</i>
   <i type="int" name="NPACO">   256</i>
   <i name="APACO">     16.00000000</i>
  </separator>
  <separator name="symmetry" >
   <i type="int" name="ISYM">     2</i>
   <i name="SYMPREC">      0.00001000</i>
  </separator>
  <separator name="dos" >
   <i type="int" name="LORBIT">     0</i>
   <v name="RWIGS">     -1.00000000</v>
   <i type="int" name="NEDOS">   301</i>
   <i name="EMIN">     10.00000000</i>
   <i name="EMAX">    -10.00000000</i>
   <i name="EFERMI">      0.00000000</i>
  </separator>
  <separator name="writing" >
   <i type="int" name="NWRITE">     2</i>
   <i type="logical" name="LWAVE"> T  </i>
   <i type="logical" name="LDOWNSAMPLE"> F  </i>
   <i type="logical" name="LCHARG"> T  </i>
   <i type="logical" name="LPARD"> F  </i>
   <i type="logical" name="LVTOT"> F  </i>
   <i type="logical" name="LVHAR"> F  </i>
   <i type="logical" name="LELF"> F  </i>
   <i type="logical" name="LOPTICS"> F  </i>
   <v name="STM">      0.00000000      0.00000000      0.00000000      0.00000000      0.00000000      0.00000000      0.00000000</v>
  </separator>
  <separator name="performance" >
   <i type="int" name="NPAR">     8</i>
   <i type="int" name="NSIM">     4</i>
   <i type="int" name="NBLK">    -1</i>
   <i type="logical" name="LPLANE"> T  </i>
   <i type="logical" name="LSCALAPACK"> T  </i>
   <i type="logical" name="LSCAAWARE"> F  </i>
   <i type="logical" name="LSCALU"> F  </i>
   <i type="logical" name="LASYNC"> F  </i>
   <i type="logical" name="LORBITALREAL"> F  </i>
  </separator>
  <separator name="miscellaneous" >
   <i type="int" name="IDIOT">     3</i>
   <i type="int" name="ISPECIAL">     0</i>
   <i type="logical" name="LMUSIC"> F  </i>
   <v name="POMASS">     28.08500000</v>
   <v name="DARWINR">      0.00000000</v>
   <v name="DARWINV">      1.00000000</v>
   <i type="logical" name="LCORR"> T  </i>
  </separator>
  <i type="logical" name="GGA_COMPAT"> T  </i>
  <i type="logical" name="LBERRY"> F  </i>
  <i type="int" name="ICORELEVEL">     0</i>
  <i type="logical" name="LDAU"> F  </i>
  <i type="int" name="I_CONSTRAINED_M">     0</i>
  <separator name="electronic exchange-correlation" >
   <i type="string" name="GGA">--</i>
   <i type="int" name="VOSKOWN">     0</i>
   <i type="logical" name="LHFCALC"> F  </i>
   <i type="string" name="PRECFOCK"></i>
   <i type="logical" name="LSYMGRAD"> F  </i>
   <i type="logical" name="LHFONE"> F  </i>
   <i type="logical" name="LRHFCALC"> F  </i>
   <i type="logical" name="LTHOMAS"> F  </i>
   <i type="logical" name="LMODELHF"> F  </i>
   <i name="ENCUT4O">     -1.00000000</i>
   <i type="int" name="EXXOEP">     0</i>
   <i type="int" name="FOURORBIT">     0</i>
   <i name="AEXX">      0.00000000</i>
   <i name="HFALPHA">      0.00000000</i>
   <i name="MCALPHA">      0.00000000</i>
   <i name="ALDAX">      1.00000000</i>
   <i name="AGGAX">      1.00000000</i>
   <i name="ALDAC">      1.00000000</i>
   <i name="AGGAC">      1.00000000</i>
   <i type="int" name="NKREDX">     1</i>
   <i type="int" name="NKREDY">     1</i>
   <i type="int" name="NKREDZ">     1</i>
   <i type="logical" name="SHIFTRED"> F  </i>
   <i type="logical" name="ODDONLY"> F  </i>
   <i type="logical" name="EVENONLY"> F  </i>
   <i type="int" name="LMAXFOCK">     0</i>
   <i type="int" name="NMAXFOCKAE">     0</i>
   <i type="logical" name="LFOCKAEDFT"> F  </i>
   <i name="HFSCREEN">      0.00000000</i>
   <i name="HFSCREENC">      0.00000000</i>
   <i type="int" name="NBANDSGWLOW">     0</i>
  </separator>
  <separator name="vdW DFT" >
   <i type="logical" name="LUSE_VDW"> F  </i>
   <i name="Zab_VDW">     -0.84910000</i>
   <i name="PARAM1">      0.12340000</i>
   <i name="PARAM2">      1.00000000</i>
   <i name="PARAM3">      0.00000000</i>
  </separator>
  <separator name="model GW" >
   <i type="int" name="MODEL_GW">     0</i>
   <i name="MODEL_EPS0">      9.17662200</i>
   <i name="MODEL_ALPHA">      1.00000000</i>
  </separator>
  <separator name="linear response parameters" >
   <i type="logical" name="LEPSILON"> F  </i>
   <i type="logical" name="LRPA"> F  </i>
   <i type="logical" name="LNABLA"> F  </i>
   <i type="logical" name="LVEL"> F  </i>
   <i type="int" name="KINTER">     0</i>
   <i name="CSHIFT">      0.10000000</i>
   <i name="OMEGAMAX">     -1.00000000</i>
   <i name="DEG_THRESHOLD">      0.00200000</i>
   <i name="RTIME">     -0.10000000</i>
   <i name="WPLASMAI">      0.00000000</i>
   <v name="DFIELD">      0.00000000      0.00000000      0.00000000</v>
   <v name="WPLASMA">      0.00000000      0.00000000      0.00000000      0.00000000      0.00000000      0.00000000      0.00000000      0.00000000      0.00000000</v>
  </separator>
  <separator name="orbital magnetization" >
   <i type="logical" name="NUCIND"> F  </i>
   <v name="MAGPOS">      0.00000000      0.00000000      0.00000000</v>
   <i type="logical" name="LNICSALL"> T  </i>
   <i type="logical" name="ORBITALMAG"> F  </i>
   <i type="logical" name="LMAGBLOCH"> F  </i>
   <i type="logical" name="LCHIMAG"> F  </i>
   <i type="logical" name="LGAUGE"> T  </i>
   <i type="int" name="MAGATOM">     0</i>
   <v name="MAGDIPOL">      0.00000000      0.00000000      0.00000000</v>
   <v name="AVECCONST">      0.00000000      0.00000000      0.00000000</v>
  </separator>
  <separator name="response functions" >
   <i type="logical" name="LADDER"> F  </i>
   <i type="logical" name="LRPAFORCE"> F  </i>
   <i type="logical" name="LFXC"> F  </i>
   <i type="logical" name="LHARTREE"> T  </i>
   <i type="int" name="IBSE">     0</i>
   <v type="int" name="KPOINT">    -1     0     0     0</v>
   <i type="logical" name="LTCTE"> F  </i>
   <i type="logical" name="LTETE"> F  </i>
   <i type="logical" name="LTRIPLET"> F  </i>
   <i type="logical" name="LFXCEPS"> F  </i>
   <i type="logical" name="LFXHEG"> F  </i>
   <i type="int" name="NATURALO">     2</i>
   <i type="logical" name="L2ORDER"> F  </i>
   <i type="logical" name="LMP2LT"> F  </i>
   <i type="logical" name="LUSEW"> F  </i>
   <i name="ENCUTGW">     -2.00000000</i>
   <i name="ENCUTGWSOFT">     -2.00000000</i>
   <i name="ENCUTLF">     -1.00000000</i>
   <i type="int" name="LMAXMP2">    -1</i>
   <i name="SCISSOR">      0.00000000</i>
   <i type="int" name="NOMEGA">     0</i>
   <i type="int" name="NOMEGAR">     0</i>
   <i type="int" name="NBANDSGW">    -1</i>
   <i type="int" name="NBANDSO">    -1</i>
   <i type="int" name="NBANDSV">    -1</i>
   <i type="int" name="NELM">     1</i>
   <i type="int" name="NELMHF">     1</i>
   <i type="int" name="DIM">     3</i>
   <i type="int" name="ANTIRES">     0</i>
   <i name="OMEGAMAX">    -30.00000000</i>
   <i name="OMEGAMIN">    -30.00000000</i>
   <i name="OMEGATL">   -200.00000000</i>
   <i type="int" name="OMEGAGRID">   140</i>
   <i name="CSHIFT">     -0.10000000</i>
   <i type="logical" name="SELFENERGY"> F  </i>
   <i type="logical" name="LSPECTRAL"> F  </i>
   <i type="logical" name="LSPECTRALGW"> F  </i>
   <i type="logical" name="LSINGLES"> F  </i>
   <i type="logical" name="LFERMIGW"> F  </i>
   <i type="logical" name="ODDONLYGW"> F  </i>
   <i type="logical" name="EVENONLYGW"> F  </i>
   <i type="int" name="NKREDLFX">     1</i>
   <i type="int" name="NKREDLFY">     1</i>
   <i type="int" name="NKREDLFZ">     1</i>
   <i type="int" name="MAXMEM">  2800</i>
   <i type="int" name="TELESCOPE">     0</i>
   <i type="int" name="TAUPAR">     1</i>
   <i type="int" name="OMEGAPAR">    -1</i>
   <i name="LAMBDA">      1.00000000</i>
  </separator>
  <separator name="External order field" >
   <i name="OFIELD_KAPPA">      0.00000000</i>
   <v name="OFIELD_K">      0.00000000      0.00000000      0.00000000</v>
   <i name="OFIELD_Q6_NEAR">      0.00000000</i>
   <i name="OFIELD_Q6_FAR">      0.00000000</i>
   <i name="OFIELD_A">      0.00000000</i>
  </separator>
 </parameters>
 <atominfo>
  <atoms>       2 </atoms>
  <types>       1 </types>
  <array name="atoms" >
   <dimension dim="1">ion</dimension>
   <field type="string">element</field>
   <field type="int">atomtype</field>
   <set>
    <rc><c>Si</c><c>   1</c></rc>
    <rc><c>Si</c><c>   1</c></rc>
   </set>
  </array>
  <array name="atomtypes" >
   <dimension dim="1">type</dimension>
   <field type="int">atomspertype</field>
   <field type="string">element</field>
   <field>mass</field>
   <field>valence</field>
   <field type="string">pseudopotential</field>
   <set>
    <rc><c>   2</c><c>Si</c><c>     28.08500000</c><c>      4.00000000</c><c> PAW_PBE Si 05Jan2001                   </c></rc>
   </set>
  </array>
 </atominfo>
 <structure name="initialpos" >
  <crystal>
   <varray name="basis" >
    <v>      -2.45000000       2.45000000       1.27400000 </v>
    <v>       2.45000000      -2.45000000       1.27400000 </v>
    <v>       2.45000000       2.45000000      -1.27400000 </v>
   </varray>
   <i name="volume">     30.58874000 </i>
   <varray name="rec_basis" >
    <v>       0.00000000       0.20408163       0.39246468 </v>
    <v>       0.20408163       0.00000000       0.39246468 </v>
    <v>       0.20408163       0.20408163      -0.00000000 </v>
   </varray>
  </crystal>
  <varray name="positions" >
   <v>       0.25000000       0.75000000       0.50000000 </v>
   <v>       0.00000000       0.00000000       0.00000000 </v>
  </varray>
 </structure>
 <calculation>
  <scstep>
   <time name="dav">    0.85    0.87</time>
   <time name="total">    1.00    1.02</time>
   <energy>
    <i name="alphaZ">      4.40202223 </i>
    <i name="ewald">   -265.18101312 </i>
    <i name="hartreedc">     -2.50413963 </i>
    <i name="XCdc">    -17.58149274 </i>
    <i name="pawpsdc">     70.18814599 </i>
    <i name="pawaedc">    -35.10030232 </i>
    <i name="eentropy">     -0.01669153 </i>
    <i name="bandstr">     29.41349355 </i>
    <i name="atom">    206.13125414 </i>
    <i name="e_fr_energy">    -10.24872341 </i>
    <i name="e_wo_entrp">    -10.23203188 </i>
    <i name="e_0_energy">    -10.24037765 </i>
   </energy>
  </scstep>
  <scstep>
   <time name="dav">    0.85    0.85</time>
   <time name="total">    0.89    0.91</time>
   <energy>
    <i name="alphaZ">      4.40202223 </i>
    <i name="ewald">   -265.18101312 </i>
    <i name="hartreedc">     -2.50424589 </i>
    <i name="XCdc">    -17.58146990 </i>
    <i name="pawpsdc">     70.18802987 </i>
    <i name="pawaedc">    -35.10018082 </i>
    <i name="eentropy">     -0.01669153 </i>
    <i name="bandstr">     29.41357160 </i>
    <i name="atom">    206.13125414 </i>
    <i name="e_fr_energy">    -10.24872343 </i>
    <i name="e_wo_entrp">    -10.23203190 </i>
    <i name="e_0_energy">    -10.24037767 </i>
   </energy>
  </scstep>
  <structure>
   <crystal>
    <varray name="basis" >
     <v>      -2.45000000       2.45000000       1.27400000 </v>
     <v>       2.45000000      -2.45000000       1.27400000 </v>
     <v>       2.45000000       2.45000000      -1.27400000 </v>
    </varray>
    <i name="volume">     30.58874000 </i>
    <varray name="rec_basis" >
     <v>       0.00000000       0.20408163       0.39246468 </v>
     <v>       0.20408163       0.00000000       0.39246468 </v>
     <v>       0.20408163       0.20408163      -0.00000000 </v>
    </varray>
   </crystal>
   <varray name="positions" >
    <v>       0.25000000       0.75000000       0.50000000 </v>
    <v>       0.00000000       0.00000000       0.00000000 </v>
   </varray>
  </structure>
  <varray name="forces" >
   <v>       0.00000000       0.00000000       0.00000000 </v>
   <v>      -0.00000000      -0.00000000      -0.00000000 </v>
  </varray>
  <varray name="stress" >
   <v>     -10.45644914       0.00000000       0.00000000 </v>
   <v>      -0.00000000     -10.45644914       0.00000000 </v>
   <v>       0.00000000       0.00000000      30.55716599 </v>
  </varray>
  <energy>
   <i name="e_fr_energy">    -10.24872343 </i>
   <i name="e_wo_entrp">    -10.24037767 </i>
   <i name="e_0_energy">     -0.01669153 </i>
  </energy>
  <time name="totalsc">    3.60    4.74</time>
  <eigenvalues>
   <array>
    <dimension dim="1">band</dimension>
    <dimension dim="2">kpoint</dimension>
    <dimension dim="3">spin</dimension>
    <field>eigene</field>
    <field>occ</field>
    <set>
     <set comment="spin 1">
      <set comment="kpoint 1">
       <r>   -4.2731    1.0000 </r>
       <r>    4.7264    1.0000 </r>
       <r>    6.5988    1.0000 </r>
       <r>    7.7306    1.0000 </r>
       <r>   11.4666    0.0000 </r>
       <r>   15.0047    0.0000 </r>
       <r>   16.0508    0.0000 </r>
       <r>   16.9813    0.0000 </r>
      </set>
      <set comment="kpoint 2">
       <r>   -3.4289    1.0000 </r>
       <r>    4.4538    1.0000 </r>
       <r>    6.8536    1.0000 </r>
       <r>    9.1290    0.3286 </r>
       <r>   12.5783    0.0000 </r>
       <r>   13.0217    0.0000 </r>
       <r>   13.3952    0.0000 </r>
       <r>   15.3658    0.0000 </r>
      </set>
      <set comment="kpoint 3">
       <r>   -2.0319    1.0000 </r>
       <r>    4.6613    1.0000 </r>
       <r>    7.1679    1.0000 </r>
       <r>    8.5774    0.9997 </r>
       <r>   10.6838    0.0000 </r>
       <r>   11.9982    0.0000 </r>
       <r>   13.6677    0.0000 </r>
       <r>   14.4179    0.0000 </r>
      </set>
      <set comment="kpoint 4">
       <r>   -0.1004    1.0000 </r>
       <r>    5.1138    1.0000 </r>
       <r>    5.6015    1.0000 </r>
       <r>    7.5918    1.0000 </r>
       <r>    8.8807    0.9052 </r>
       <r>   11.7754    0.0000 </r>
       <r>   13.7298    0.0000 </r>
       <r>   14.1611    0.0000 </r>
      </set>
      <set comment="kpoint 5">
       <r>    2.0885    1.0000 </r>
       <r>    2.6415    1.0000 </r>
       <r>    6.5117    1.0000 </r>
       <r>    6.6618    1.0000 </r>
       <r>    8.8010    0.9696 </r>
       <r>   10.7570    0.0000 </r>
       <r>   13.5503    0.0000 </r>
       <r>   14.4929    0.0000 </r>
      </set>
      <set comment="kpoint 6">
       <r>   -4.5554    1.0000 </r>
       <r>    5.1662    1.0000 </r>
       <r>    6.0521    1.0000 </r>
       <r>    7.4141    1.0000 </r>
       <r>   10.8741    0.0000 </r>
       <r>   15.4537    0.0000 </r>
       <r>   17.4147    0.0000 </r>
       <r>   17.9844    0.0000 </r>
      </set>
      <set comment="kpoint 7">
       <r>   -2.1490    1.0000 </r>
       <r>    4.6232    1.0000 </r>
       <r>    8.1546    1.0000 </r>
       <r>    9.0560    0.5288 </r>
       <r>   10.1255    0.0000 </r>
       <r>   10.9809    0.0000 </r>
       <r>   14.4866    0.0000 </r>
       <r>   14.5015    0.0000 </r>
      </set>
      <set comment="kpoint 8">
       <r>   -0.3305    1.0000 </r>
       <r>    5.2194    1.0000 </r>
       <r>    6.1972    1.0000 </r>
       <r>    7.1248    1.0000 </r>
       <r>    9.7737    0.0000 </r>
       <r>   12.3657    0.0000 </r>
       <r>   12.8042    0.0000 </r>
       <r>   13.6679    0.0000 </r>
      </set>
      <set comment="kpoint 9">
       <r>    1.9581    1.0000 </r>
       <r>    3.2138    1.0000 </r>
       <r>    5.3375    1.0000 </r>
       <r>    6.3690    1.0000 </r>
       <r>    9.8625    0.0000 </r>
       <r>   11.7296    0.0000 </r>
       <r>   12.8046    0.0000 </r>
       <r>   15.2685    0.0000 </r>
      </set>
      <set comment="kpoint 10">
       <r>    0.5891    1.0000 </r>
       <r>    3.8988    1.0000 </r>
       <r>    4.9519    1.0000 </r>
       <r>    7.6366    1.0000 </r>
       <r>    9.1875    0.1955 </r>
       <r>   12.1595    0.0000 </r>
       <r>   13.4232    0.0000 </r>
       <r>   15.1728    0.0000 </r>
      </set>
      <set comment="kpoint 11">
       <r>   -1.4467    1.0000 </r>
       <r>    3.0929    1.0000 </r>
       <r>    7.5620    1.0000 </r>
       <r>    8.1904    1.0000 </r>
       <r>   10.3264    0.0000 </r>
       <r>   12.5349    0.0000 </r>
       <r>   12.8143    0.0000 </r>
       <r>   15.2887    0.0000 </r>
      </set>
      <set comment="kpoint 12">
       <r>   -2.9561    1.0000 </r>
       <r>    2.7654    1.0000 </r>
       <r>    7.2657    1.0000 </r>
       <r>    9.8019    0.0000 </r>
       <r>   11.9780    0.0000 </r>
       <r>   12.4716    0.0000 </r>
       <r>   14.0202    0.0000 </r>
       <r>   15.4931    0.0000 </r>
      </set>
      <set comment="kpoint 13">
       <r>   -3.9166    1.0000 </r>
       <r>    2.9549    1.0000 </r>
       <r>    6.9274    1.0000 </r>
       <r>    8.5445    0.9999 </r>
       <r>   13.1890    0.0000 </r>
       <r>   13.4681    0.0000 </r>
       <r>   14.9411    0.0000 </r>
       <r>   16.4668    0.0000 </r>
      </set>
      <set comment="kpoint 14">
       <r>   -4.3173    1.0000 </r>
       <r>    3.6188    1.0000 </r>
       <r>    6.0845    1.0000 </r>
       <r>    8.4596    1.0000 </r>
       <r>   12.1868    0.0000 </r>
       <r>   13.6777    0.0000 </r>
       <r>   16.2340    0.0000 </r>
       <r>   19.0899    0.0000 </r>
      </set>
      <set comment="kpoint 15">
       <r>   -4.1542    1.0000 </r>
       <r>    4.4046    1.0000 </r>
       <r>    5.6850    1.0000 </r>
       <r>    8.8516    0.9355 </r>
       <r>   11.9934    0.0000 </r>
       <r>   13.7991    0.0000 </r>
       <r>   15.8930    0.0000 </r>
       <r>   17.5131    0.0000 </r>
      </set>
      <set comment="kpoint 16">
       <r>    1.8646    1.0000 </r>
       <r>    4.1351    1.0000 </r>
       <r>    4.2182    1.0000 </r>
       <r>    6.2912    1.0000 </r>
       <r>   10.5082    0.0000 </r>
       <r>   11.6541    0.0000 </r>
       <r>   13.4952    0.0000 </r>
       <r>   14.1654    0.0000 </r>
      </set>
      <set comment="kpoint 17">
       <r>    1.4985    1.0000 </r>
       <r>    2.6150    1.0000 </r>
       <r>    4.7082    1.0000 </r>
       <r>    7.6114    1.0000 </r>
       <r>    9.7796    0.0000 </r>
       <r>   11.1510    0.0000 </r>
       <r>   14.8144    0.0000 </r>
       <r>   15.7339    0.0000 </r>
      </set>
      <set comment="kpoint 18">
       <r>   -0.6324    1.0000 </r>
       <r>    1.6538    1.0000 </r>
       <r>    7.7306    1.0000 </r>
       <r>    8.3457    1.0000 </r>
       <r>    9.9212    0.0000 </r>
       <r>   11.6447    0.0000 </r>
       <r>   13.4044    0.0000 </r>
       <r>   15.3926    0.0000 </r>
      </set>
      <set comment="kpoint 19">
       <r>   -2.2501    1.0000 </r>
       <r>    1.2094    1.0000 </r>
       <r>    7.9003    1.0000 </r>
       <r>   10.3084    0.0000 </r>
       <r>   11.0401    0.0000 </r>
       <r>   12.0775    0.0000 </r>
       <r>   13.4334    0.0000 </r>
       <r>   14.4458    0.0000 </r>
      </set>
      <set comment="kpoint 20">
       <r>   -3.3244    1.0000 </r>
       <r>    1.2995    1.0000 </r>
       <r>    7.4744    1.0000 </r>
       <r>    9.2741    0.0708 </r>
       <r>   11.7808    0.0000 </r>
       <r>   13.6064    0.0000 </r>
       <r>   15.3811    0.0000 </r>
       <r>   16.0611    0.0000 </r>
      </set>
      <set comment="kpoint 21">
       <r>   -3.8424    1.0000 </r>
       <r>    1.9131    1.0000 </r>
       <r>    6.5096    1.0000 </r>
       <r>    9.2208    0.1373 </r>
       <r>   11.9848    0.0000 </r>
       <r>   14.3691    0.0000 </r>
       <r>   14.7409    0.0000 </r>
       <r>   19.0675    0.0000 </r>
      </set>
      <set comment="kpoint 22">
       <r>   -3.7983    1.0000 </r>
       <r>    2.9933    1.0000 </r>
       <r>    5.6571    1.0000 </r>
       <r>    9.8982    0.0000 </r>
       <r>   12.1124    0.0000 </r>
       <r>   13.5864    0.0000 </r>
       <r>   15.2856    0.0000 </r>
       <r>   16.9401    0.0000 </r>
      </set>
      <set comment="kpoint 23">
       <r>   -3.1927    1.0000 </r>
       <r>    4.1724    1.0000 </r>
       <r>    5.6337    1.0000 </r>
       <r>   10.2973    0.0000 </r>
       <r>   12.3186    0.0000 </r>
       <r>   12.5663    0.0000 </r>
       <r>   13.7473    0.0000 </r>
       <r>   15.0525    0.0000 </r>
      </set>
      <set comment="kpoint 24">
       <r>    0.4007    1.0000 </r>
       <r>    0.4087    1.0000 </r>
       <r>    7.6709    1.0000 </r>
       <r>    8.7359    0.9902 </r>
       <r>    9.6171    0.0000 </r>
       <r>   11.2238    0.0000 </r>
       <r>   14.0192    0.0000 </r>
       <r>   14.7910    0.0000 </r>
      </set>
      <set comment="kpoint 25">
       <r>   -1.3152    1.0000 </r>
       <r>   -0.1582    1.0000 </r>
       <r>    8.7314    0.9910 </r>
       <r>    9.7189    0.0000 </r>
       <r>   10.9109    0.0000 </r>
       <r>   12.1126    0.0000 </r>
       <r>   13.1587    0.0000 </r>
       <r>   13.4857    0.0000 </r>
      </set>
      <set comment="kpoint 26">
       <r>   -2.4999    1.0000 </r>
       <r>   -0.1770    1.0000 </r>
       <r>    8.2377    1.0000 </r>
       <r>   10.1099    0.0000 </r>
       <r>   10.4117    0.0000 </r>
       <r>   12.3062    0.0000 </r>
       <r>   15.7911    0.0000 </r>
       <r>   15.8107    0.0000 </r>
      </set>
      <set comment="kpoint 27">
       <r>   -3.1331    1.0000 </r>
       <r>    0.3455    1.0000 </r>
       <r>    7.1713    1.0000 </r>
       <r>   10.0068    0.0000 </r>
       <r>   10.4709    0.0000 </r>
       <r>   13.3238    0.0000 </r>
       <r>   16.8711    0.0000 </r>
       <r>   18.8414    0.0000 </r>
      </set>
      <set comment="kpoint 28">
       <r>   -3.2073    1.0000 </r>
       <r>    1.3907    1.0000 </r>
       <r>    6.1581    1.0000 </r>
       <r>   10.5090    0.0000 </r>
       <r>   10.7152    0.0000 </r>
       <r>   14.4005    0.0000 </r>
       <r>   15.7111    0.0000 </r>
       <r>   16.1917    0.0000 </r>
      </set>
      <set comment="kpoint 29">
       <r>   -2.7215    1.0000 </r>
       <r>    2.8922    1.0000 </r>
       <r>    5.6328    1.0000 </r>
       <r>   10.4659    0.0000 </r>
       <r>   11.0692    0.0000 </r>
       <r>   12.6846    0.0000 </r>
       <r>   14.5754    0.0000 </r>
       <r>   15.7846    0.0000 </r>
      </set>
      <set comment="kpoint 30">
       <r>   -1.6813    1.0000 </r>
       <r>    4.4647    1.0000 </r>
       <r>    6.0033    1.0000 </r>
       <r>    7.9376    1.0000 </r>
       <r>   10.8959    0.0000 </r>
       <r>   12.9463    0.0000 </r>
       <r>   13.6851    0.0000 </r>
       <r>   13.8197    0.0000 </r>
      </set>
      <set comment="kpoint 31">
       <r>   -1.4481    1.0000 </r>
       <r>   -1.4481    1.0000 </r>
       <r>    9.2140    0.1480 </r>
       <r>    9.2140    0.1479 </r>
       <r>   11.1341    0.0000 </r>
       <r>   11.1341    0.0000 </r>
       <r>   15.7329    0.0000 </r>
       <r>   15.7329    0.0000 </r>
      </set>
      <set comment="kpoint 32">
       <r>   -2.1935    1.0000 </r>
       <r>   -1.0304    1.0000 </r>
       <r>    8.0560    1.0000 </r>
       <r>    9.1581    0.2581 </r>
       <r>   10.9402    0.0000 </r>
       <r>   12.0477    0.0000 </r>
       <r>   18.5567    0.0000 </r>
       <r>   18.6683    0.0000 </r>
      </set>
      <set comment="kpoint 33">
       <r>   -2.3845    1.0000 </r>
       <r>   -0.0709    1.0000 </r>
       <r>    6.9217    1.0000 </r>
       <r>    9.1194    0.3534 </r>
       <r>   11.5224    0.0000 </r>
       <r>   13.5095    0.0000 </r>
       <r>   15.3342    0.0000 </r>
       <r>   16.7550    0.0000 </r>
      </set>
      <set comment="kpoint 34">
       <r>   -2.0184    1.0000 </r>
       <r>    1.4056    1.0000 </r>
       <r>    6.2169    1.0000 </r>
       <r>    9.3990    0.0093 </r>
       <r>   10.5490    0.0000 </r>
       <r>   13.2812    0.0000 </r>
       <r>   14.3309    0.0000 </r>
       <r>   16.3192    0.0000 </r>
      </set>
      <set comment="kpoint 35">
       <r>   -1.0995    1.0000 </r>
       <r>    3.3192    1.0000 </r>
       <r>    6.0613    1.0000 </r>
       <r>    7.4419    1.0000 </r>
       <r>   10.0244    0.0000 </r>
       <r>   12.4186    0.0000 </r>
       <r>   14.3582    0.0000 </r>
       <r>   15.1709    0.0000 </r>
      </set>
      <set comment="kpoint 36">
       <r>    0.3576    1.0000 </r>
       <r>    4.5608    1.0000 </r>
       <r>    5.4341    1.0000 </r>
       <r>    6.7850    1.0000 </r>
       <r>    9.2556    0.0903 </r>
       <r>   11.7407    0.0000 </r>
       <r>   12.4019    0.0000 </r>
       <r>   15.5955    0.0000 </r>
      </set>
      <set comment="kpoint 37">
       <r>   -1.3366    1.0000 </r>
       <r>   -1.3351    1.0000 </r>
       <r>    7.9039    1.0000 </r>
       <r>    7.9227    1.0000 </r>
       <r>   12.2916    0.0000 </r>
       <r>   12.6735    0.0000 </r>
       <r>   15.1571    0.0000 </r>
       <r>   16.7311    0.0000 </r>
      </set>
      <set comment="kpoint 38">
       <r>   -1.0884    1.0000 </r>
       <r>    0.0593    1.0000 </r>
       <r>    7.0726    1.0000 </r>
       <r>    8.1481    1.0000 </r>
       <r>   10.3894    0.0000 </r>
       <r>   14.0208    0.0000 </r>
       <r>   14.1893    0.0000 </r>
       <r>   15.3271    0.0000 </r>
      </set>
      <set comment="kpoint 39">
       <r>   -0.2915    1.0000 </r>
       <r>    1.9582    1.0000 </r>
       <r>    6.6650    1.0000 </r>
       <r>    7.1817    1.0000 </r>
       <r>    8.8428    0.9429 </r>
       <r>   12.0647    0.0000 </r>
       <r>   15.3333    0.0000 </r>
       <r>   16.4490    0.0000 </r>
      </set>
      <set comment="kpoint 40">
       <r>    1.0379    1.0000 </r>
       <r>    3.9840    1.0000 </r>
       <r>    4.5531    1.0000 </r>
       <r>    6.9400    1.0000 </r>
       <r>    9.1331    0.3180 </r>
       <r>   11.1747    0.0000 </r>
       <r>   12.8428    0.0000 </r>
       <r>   16.6865    0.0000 </r>
      </set>
      <set comment="kpoint 41">
       <r>    1.7306    1.0000 </r>
       <r>    2.9944    1.0000 </r>
       <r>    6.5880    1.0000 </r>
       <r>    7.6971    1.0000 </r>
       <r>    7.8907    1.0000 </r>
       <r>   10.5282    0.0000 </r>
       <r>   12.4589    0.0000 </r>
       <r>   15.5301    0.0000 </r>
      </set>
      <set comment="kpoint 42">
       <r>    0.7259    1.0000 </r>
       <r>    0.7426    1.0000 </r>
       <r>    6.9117    1.0000 </r>
       <r>    7.6013    1.0000 </r>
       <r>    7.8860    1.0000 </r>
       <r>   11.9476    0.0000 </r>
       <r>   15.9236    0.0000 </r>
       <r>   16.9377    0.0000 </r>
      </set>
      <set comment="kpoint 43">
       <r>    1.9275    1.0000 </r>
       <r>    2.9945    1.0000 </r>
       <r>    4.0951    1.0000 </r>
       <r>    7.5856    1.0000 </r>
       <r>    8.5480    0.9999 </r>
       <r>   10.5541    0.0000 </r>
       <r>   14.4115    0.0000 </r>
       <r>   16.2151    0.0000 </r>
      </set>
      <set comment="kpoint 44">
       <r>    1.4156    1.0000 </r>
       <r>    3.7400    1.0000 </r>
       <r>    5.7841    1.0000 </r>
       <r>    7.4943    1.0000 </r>
       <r>    8.6794    0.9969 </r>
       <r>   10.9457    0.0000 </r>
       <r>   11.6905    0.0000 </r>
       <r>   15.0787    0.0000 </r>
      </set>
      <set comment="kpoint 45">
       <r>   -0.5630    1.0000 </r>
       <r>    5.8837    1.0000 </r>
       <r>    6.6499    1.0000 </r>
       <r>    7.7165    1.0000 </r>
       <r>    8.6533    0.9982 </r>
       <r>   11.1717    0.0000 </r>
       <r>   12.8004    0.0000 </r>
       <r>   14.0266    0.0000 </r>
      </set>
      <set comment="kpoint 46">
       <r>    1.3066    1.0000 </r>
       <r>    4.6717    1.0000 </r>
       <r>    4.7234    1.0000 </r>
       <r>    7.5021    1.0000 </r>
       <r>    9.1402    0.3005 </r>
       <r>   10.4211    0.0000 </r>
       <r>   12.7974    0.0000 </r>
       <r>   13.6633    0.0000 </r>
      </set>
      <set comment="kpoint 47">
       <r>   -0.7952    1.0000 </r>
       <r>    6.6495    1.0000 </r>
       <r>    6.9148    1.0000 </r>
       <r>    7.5975    1.0000 </r>
       <r>    9.1153    0.3642 </r>
       <r>   11.5670    0.0000 </r>
       <r>   11.6242    0.0000 </r>
       <r>   12.7440    0.0000 </r>
      </set>
      <set comment="kpoint 48">
       <r>   -2.3844    1.0000 </r>
       <r>    6.0253    1.0000 </r>
       <r>    7.1980    1.0000 </r>
       <r>    8.9885    0.7086 </r>
       <r>   10.6519    0.0000 </r>
       <r>   11.4909    0.0000 </r>
       <r>   12.9604    0.0000 </r>
       <r>   14.2751    0.0000 </r>
      </set>
      <set comment="kpoint 49">
       <r>   -2.5021    1.0000 </r>
       <r>    6.3296    1.0000 </r>
       <r>    7.9663    1.0000 </r>
       <r>    8.8570    0.9305 </r>
       <r>   10.4635    0.0000 </r>
       <r>   11.0381    0.0000 </r>
       <r>   13.0244    0.0000 </r>
       <r>   13.7414    0.0000 </r>
      </set>
      <set comment="kpoint 50">
       <r>   -3.6659    1.0000 </r>
       <r>    5.9781    1.0000 </r>
       <r>    6.8169    1.0000 </r>
       <r>    8.1462    1.0000 </r>
       <r>   11.7456    0.0000 </r>
       <r>   13.3335    0.0000 </r>
       <r>   13.6988    0.0000 </r>
       <r>   16.0534    0.0000 </r>
      </set>
      <set comment="kpoint 51">
       <r>   -4.3921    1.0000 </r>
       <r>    6.3925    1.0000 </r>
       <r>    6.4892    1.0000 </r>
       <r>    6.4892    1.0000 </r>
       <r>   10.7383    0.0000 </r>
       <r>   16.2504    0.0000 </r>
       <r>   16.4763    0.0000 </r>
       <r>   17.3154    0.0000 </r>
      </set>
      <set comment="kpoint 52">
       <r>   -1.5627    1.0000 </r>
       <r>    3.0030    1.0000 </r>
       <r>    8.3409    1.0000 </r>
       <r>    8.8563    0.9311 </r>
       <r>   10.0621    0.0000 </r>
       <r>   11.3221    0.0000 </r>
       <r>   13.9783    0.0000 </r>
       <r>   14.7128    0.0000 </r>
      </set>
      <set comment="kpoint 53">
       <r>    0.3628    1.0000 </r>
       <r>    3.7366    1.0000 </r>
       <r>    5.7723    1.0000 </r>
       <r>    6.7714    1.0000 </r>
       <r>   10.5132    0.0000 </r>
       <r>   13.1917    0.0000 </r>
       <r>   13.6369    0.0000 </r>
       <r>   14.4754    0.0000 </r>
      </set>
      <set comment="kpoint 54">
       <r>    2.5483    1.0000 </r>
       <r>    3.0674    1.0000 </r>
       <r>    4.8962    1.0000 </r>
       <r>    5.2163    1.0000 </r>
       <r>   11.1428    0.0000 </r>
       <r>   12.8689    0.0000 </r>
       <r>   14.0612    0.0000 </r>
       <r>   14.3159    0.0000 </r>
      </set>
      <set comment="kpoint 55">
       <r>   -4.0800    1.0000 </r>
       <r>    3.3306    1.0000 </r>
       <r>    4.8289    1.0000 </r>
       <r>   10.0215    0.0000 </r>
       <r>   11.9505    0.0000 </r>
       <r>   13.0088    0.0000 </r>
       <r>   17.8041    0.0000 </r>
       <r>   17.8898    0.0000 </r>
      </set>
      <set comment="kpoint 56">
       <r>    2.6178    1.0000 </r>
       <r>    3.7658    1.0000 </r>
       <r>    3.9406    1.0000 </r>
       <r>    5.0036    1.0000 </r>
       <r>   11.9058    0.0000 </r>
       <r>   13.2814    0.0000 </r>
       <r>   14.3725    0.0000 </r>
       <r>   14.4168    0.0000 </r>
      </set>
      <set comment="kpoint 57">
       <r>    1.2792    1.0000 </r>
       <r>    2.4097    1.0000 </r>
       <r>    5.5589    1.0000 </r>
       <r>    6.5841    1.0000 </r>
       <r>   11.3747    0.0000 </r>
       <r>   12.6428    0.0000 </r>
       <r>   13.9432    0.0000 </r>
       <r>   15.0078    0.0000 </r>
      </set>
      <set comment="kpoint 58">
       <r>   -0.7466    1.0000 </r>
       <r>    1.5489    1.0000 </r>
       <r>    8.4164    1.0000 </r>
       <r>    8.6170    0.9993 </r>
       <r>   10.4737    0.0000 </r>
       <r>   11.8312    0.0000 </r>
       <r>   12.7512    0.0000 </r>
       <r>   13.9816    0.0000 </r>
      </set>
      <set comment="kpoint 59">
       <r>   -3.6067    1.0000 </r>
       <r>    2.0392    1.0000 </r>
       <r>    4.8238    1.0000 </r>
       <r>   10.2525    0.0000 </r>
       <r>   11.1463    0.0000 </r>
       <r>   14.8310    0.0000 </r>
       <r>   16.5410    0.0000 </r>
       <r>   18.4588    0.0000 </r>
      </set>
      <set comment="kpoint 60">
       <r>   -3.4442    1.0000 </r>
       <r>    2.7888    1.0000 </r>
       <r>    4.3993    1.0000 </r>
       <r>   10.3822    0.0000 </r>
       <r>   11.5054    0.0000 </r>
       <r>   14.6216    0.0000 </r>
       <r>   14.8851    0.0000 </r>
       <r>   18.1018    0.0000 </r>
      </set>
      <set comment="kpoint 61">
       <r>    0.2937    1.0000 </r>
       <r>    0.2937    1.0000 </r>
       <r>    8.4724    1.0000 </r>
       <r>    8.4724    1.0000 </r>
       <r>   11.2695    0.0000 </r>
       <r>   11.2695    0.0000 </r>
       <r>   13.0502    0.0000 </r>
       <r>   13.0502    0.0000 </r>
      </set>
      <set comment="kpoint 62">
       <r>   -2.9003    1.0000 </r>
       <r>    0.5422    1.0000 </r>
       <r>    5.4164    1.0000 </r>
       <r>    8.7250    0.9921 </r>
       <r>   12.0381    0.0000 </r>
       <r>   15.2486    0.0000 </r>
       <r>   17.1391    0.0000 </r>
       <r>   18.2952    0.0000 </r>
      </set>
      <set comment="kpoint 63">
       <r>   -2.8567    1.0000 </r>
       <r>    1.6196    1.0000 </r>
       <r>    4.4622    1.0000 </r>
       <r>    8.7745    0.9804 </r>
       <r>   12.4831    0.0000 </r>
       <r>   14.5597    0.0000 </r>
       <r>   16.5804    0.0000 </r>
       <r>   17.6023    0.0000 </r>
      </set>
      <set comment="kpoint 64">
       <r>   -2.2540    1.0000 </r>
       <r>    2.7887    1.0000 </r>
       <r>    4.4528    1.0000 </r>
       <r>    9.2386    0.1114 </r>
       <r>   10.4019    0.0000 </r>
       <r>   14.1351    0.0000 </r>
       <r>   15.6237    0.0000 </r>
       <r>   16.2293    0.0000 </r>
      </set>
      <set comment="kpoint 65">
       <r>   -1.9658    1.0000 </r>
       <r>   -0.8121    1.0000 </r>
       <r>    6.2903    1.0000 </r>
       <r>    7.3988    1.0000 </r>
       <r>   12.9792    0.0000 </r>
       <r>   14.0488    0.0000 </r>
       <r>   18.0196    0.0000 </r>
       <r>   18.1113    0.0000 </r>
      </set>
      <set comment="kpoint 66">
       <r>   -2.0400    1.0000 </r>
       <r>    0.2371    1.0000 </r>
       <r>    5.1532    1.0000 </r>
       <r>    7.3481    1.0000 </r>
       <r>   12.9732    0.0000 </r>
       <r>   14.6320    0.0000 </r>
       <r>   16.5799    0.0000 </r>
       <r>   17.8869    0.0000 </r>
      </set>
      <set comment="kpoint 67">
       <r>   -1.5576    1.0000 </r>
       <r>    1.7433    1.0000 </r>
       <r>    4.6036    1.0000 </r>
       <r>    7.7706    1.0000 </r>
       <r>   10.0305    0.0000 </r>
       <r>   15.2196    0.0000 </r>
       <r>   15.7213    0.0000 </r>
       <r>   17.6368    0.0000 </r>
      </set>
      <set comment="kpoint 68">
       <r>   -0.5248    1.0000 </r>
       <r>    3.3208    1.0000 </r>
       <r>    5.0038    1.0000 </r>
       <r>    6.9059    1.0000 </r>
       <r>    8.6884    0.9962 </r>
       <r>   13.1778    0.0000 </r>
       <r>   14.7347    0.0000 </r>
       <r>   16.5512    0.0000 </r>
      </set>
      <set comment="kpoint 69">
       <r>   -1.0043    1.0000 </r>
       <r>   -1.0011    1.0000 </r>
       <r>    6.1315    1.0000 </r>
       <r>    6.1359    1.0000 </r>
       <r>   13.0972    0.0000 </r>
       <r>   14.9305    0.0000 </r>
       <r>   15.9571    0.0000 </r>
       <r>   17.9169    0.0000 </r>
      </set>
      <set comment="kpoint 70">
       <r>   -0.6400    1.0000 </r>
       <r>    0.4806    1.0000 </r>
       <r>    5.3935    1.0000 </r>
       <r>    6.4713    1.0000 </r>
       <r>    9.8366    0.0000 </r>
       <r>   15.4584    0.0000 </r>
       <r>   16.3030    0.0000 </r>
       <r>   17.5456    0.0000 </r>
      </set>
      <set comment="kpoint 71">
       <r>    0.2700    1.0000 </r>
       <r>    2.4039    1.0000 </r>
       <r>    5.2413    1.0000 </r>
       <r>    6.5626    1.0000 </r>
       <r>    7.3728    1.0000 </r>
       <r>   13.3506    0.0000 </r>
       <r>   15.8396    0.0000 </r>
       <r>   17.5834    0.0000 </r>
      </set>
      <set comment="kpoint 72">
       <r>    1.6977    1.0000 </r>
       <r>    3.6684    1.0000 </r>
       <r>    4.5699    1.0000 </r>
       <r>    6.0313    1.0000 </r>
       <r>    8.4474    1.0000 </r>
       <r>   11.5151    0.0000 </r>
       <r>   12.8383    0.0000 </r>
       <r>   17.0581    0.0000 </r>
      </set>
      <set comment="kpoint 73">
       <r>    1.2535    1.0000 </r>
       <r>    1.2804    1.0000 </r>
       <r>    6.0123    1.0000 </r>
       <r>    6.1247    1.0000 </r>
       <r>    6.6541    1.0000 </r>
       <r>   13.3231    0.0000 </r>
       <r>   17.2072    0.0000 </r>
       <r>   17.2491    0.0000 </r>
      </set>
      <set comment="kpoint 74">
       <r>    2.5238    1.0000 </r>
       <r>    3.3362    1.0000 </r>
       <r>    3.9190    1.0000 </r>
       <r>    6.3883    1.0000 </r>
       <r>    7.3408    1.0000 </r>
       <r>   11.6482    0.0000 </r>
       <r>   14.0246    0.0000 </r>
       <r>   15.8917    0.0000 </r>
      </set>
      <set comment="kpoint 75">
       <r>    1.0803    1.0000 </r>
       <r>    4.4794    1.0000 </r>
       <r>    6.0281    1.0000 </r>
       <r>    7.4049    1.0000 </r>
       <r>    8.4061    1.0000 </r>
       <r>   10.6573    0.0000 </r>
       <r>   11.4798    0.0000 </r>
       <r>   14.1674    0.0000 </r>
      </set>
      <set comment="kpoint 76">
       <r>    0.9676    1.0000 </r>
       <r>    5.3343    1.0000 </r>
       <r>    5.3888    1.0000 </r>
       <r>    7.6739    1.0000 </r>
       <r>    7.9289    1.0000 </r>
       <r>   10.5929    0.0000 </r>
       <r>   12.3835    0.0000 </r>
       <r>   13.0296    0.0000 </r>
      </set>
      <set comment="kpoint 77">
       <r>   -1.0282    1.0000 </r>
       <r>    7.4639    1.0000 </r>
       <r>    7.7589    1.0000 </r>
       <r>    8.3600    1.0000 </r>
       <r>    8.4601    1.0000 </r>
       <r>   10.5483    0.0000 </r>
       <r>   11.3918    0.0000 </r>
       <r>   11.9689    0.0000 </r>
      </set>
      <set comment="kpoint 78">
       <r>   -2.6200    1.0000 </r>
       <r>    7.8926    1.0000 </r>
       <r>    7.8926    1.0000 </r>
       <r>    7.8994    1.0000 </r>
       <r>   10.6794    0.0000 </r>
       <r>   11.1497    0.0000 </r>
       <r>   12.5176    0.0000 </r>
       <r>   13.3506    0.0000 </r>
      </set>
      <set comment="kpoint 79">
       <r>    3.3996    1.0000 </r>
       <r>    3.3996    1.0000 </r>
       <r>    4.0603    1.0000 </r>
       <r>    4.0603    1.0000 </r>
       <r>   13.2081    0.0000 </r>
       <r>   13.2081    0.0000 </r>
       <r>   15.0231    0.0000 </r>
       <r>   15.0231    0.0000 </r>
      </set>
      <set comment="kpoint 80">
       <r>   -3.1371    1.0000 </r>
       <r>    1.9309    1.0000 </r>
       <r>    3.6277    1.0000 </r>
       <r>    8.5382    0.9999 </r>
       <r>   12.8889    0.0000 </r>
       <r>   16.0161    0.0000 </r>
       <r>   17.2466    0.0000 </r>
       <r>   18.2754    0.0000 </r>
      </set>
      <set comment="kpoint 81">
       <r>   -2.4374    1.0000 </r>
       <r>    0.8799    1.0000 </r>
       <r>    3.7770    1.0000 </r>
       <r>    6.9984    1.0000 </r>
       <r>   14.0887    0.0000 </r>
       <r>   16.6634    0.0000 </r>
       <r>   17.7018    0.0000 </r>
       <r>   18.4161    0.0000 </r>
      </set>
      <set comment="kpoint 82">
       <r>   -2.2760    1.0000 </r>
       <r>    1.6180    1.0000 </r>
       <r>    3.3596    1.0000 </r>
       <r>    7.1456    1.0000 </r>
       <r>   13.0623    0.0000 </r>
       <r>   15.4507    0.0000 </r>
       <r>   17.8205    0.0000 </r>
       <r>   18.9414    0.0000 </r>
      </set>
      <set comment="kpoint 83">
       <r>   -1.5155    1.0000 </r>
       <r>   -0.3894    1.0000 </r>
       <r>    4.5746    1.0000 </r>
       <r>    5.6687    1.0000 </r>
       <r>   15.0302    0.0000 </r>
       <r>   15.8942    0.0000 </r>
       <r>   17.8408    0.0000 </r>
       <r>   18.0561    0.0000 </r>
      </set>
      <set comment="kpoint 84">
       <r>   -1.4725    1.0000 </r>
       <r>    0.6875    1.0000 </r>
       <r>    3.6067    1.0000 </r>
       <r>    5.7130    1.0000 </r>
       <r>   12.9773    0.0000 </r>
       <r>   16.5332    0.0000 </r>
       <r>   18.6805    0.0000 </r>
       <r>   19.1002    0.0000 </r>
      </set>
      <set comment="kpoint 85">
       <r>   -0.8744    1.0000 </r>
       <r>    1.8540    1.0000 </r>
       <r>    3.6086    1.0000 </r>
       <r>    6.2632    1.0000 </r>
       <r>    9.6387    0.0000 </r>
       <r>   16.4532    0.0000 </r>
       <r>   17.4679    0.0000 </r>
       <r>   17.9794    0.0000 </r>
      </set>
      <set comment="kpoint 86">
       <r>   -0.4665    1.0000 </r>
       <r>   -0.4616    1.0000 </r>
       <r>    4.5108    1.0000 </r>
       <r>    4.5118    1.0000 </r>
       <r>   12.9185    0.0000 </r>
       <r>   17.2319    0.0000 </r>
       <r>   18.0448    0.0000 </r>
       <r>   19.1432    0.0000 </r>
      </set>
      <set comment="kpoint 87">
       <r>    0.0138    1.0000 </r>
       <r>    1.0450    1.0000 </r>
       <r>    3.9588    1.0000 </r>
       <r>    4.9661    1.0000 </r>
       <r>    9.4357    0.0045 </r>
       <r>   16.8631    0.0000 </r>
       <r>   18.3518    0.0000 </r>
       <r>   19.0605    0.0000 </r>
      </set>
      <set comment="kpoint 88">
       <r>    1.0349    1.0000 </r>
       <r>    2.6254    1.0000 </r>
       <r>    4.3736    1.0000 </r>
       <r>    5.8540    1.0000 </r>
       <r>    6.3815    1.0000 </r>
       <r>   14.5332    0.0000 </r>
       <r>   16.0132    0.0000 </r>
       <r>   18.1293    0.0000 </r>
      </set>
      <set comment="kpoint 89">
       <r>    1.9204    1.0000 </r>
       <r>    1.9621    1.0000 </r>
       <r>    4.8058    1.0000 </r>
       <r>    4.8287    1.0000 </r>
       <r>    6.2171    1.0000 </r>
       <r>   14.8513    0.0000 </r>
       <r>   16.9165    0.0000 </r>
       <r>   17.3459    0.0000 </r>
      </set>
      <set comment="kpoint 90">
       <r>    2.9775    1.0000 </r>
       <r>    3.5761    1.0000 </r>
       <r>    4.1473    1.0000 </r>
       <r>    5.6305    1.0000 </r>
       <r>    6.1943    1.0000 </r>
       <r>   12.9356    0.0000 </r>
       <r>   14.0273    0.0000 </r>
       <r>   15.0590    0.0000 </r>
      </set>
      <set comment="kpoint 91">
       <r>    0.8540    1.0000 </r>
       <r>    5.7750    1.0000 </r>
       <r>    5.8675    1.0000 </r>
       <r>    7.2638    1.0000 </r>
       <r>    7.2638    1.0000 </r>
       <r>   11.5894    0.0000 </r>
       <r>   12.2472    0.0000 </r>
       <r>   12.2472    0.0000 </r>
      </set>
      <set comment="kpoint 92">
       <r>   -1.7512    1.0000 </r>
       <r>    0.9873    1.0000 </r>
       <r>    2.7744    1.0000 </r>
       <r>    5.4551    1.0000 </r>
       <r>   15.4972    0.0000 </r>
       <r>   16.6445    0.0000 </r>
       <r>   18.1791    0.0000 </r>
       <r>   19.5188    0.0000 </r>
      </set>
      <set comment="kpoint 93">
       <r>   -0.8591    1.0000 </r>
       <r>    0.1760    1.0000 </r>
       <r>    3.1244    1.0000 </r>
       <r>    4.1402    1.0000 </r>
       <r>   16.0922    0.0000 </r>
       <r>   16.3837    0.0000 </r>
       <r>   18.7452    0.0000 </r>
       <r>   19.4597    0.0000 </r>
      </set>
      <set comment="kpoint 94">
       <r>   -0.6990    1.0000 </r>
       <r>    0.9090    1.0000 </r>
       <r>    2.7123    1.0000 </r>
       <r>    4.2935    1.0000 </r>
       <r>   12.7704    0.0000 </r>
       <r>   18.3211    0.0000 </r>
       <r>   19.8440    0.0000 </r>
       <r>   20.1593    0.0000 </r>
      </set>
      <set comment="kpoint 95">
       <r>    0.2140    1.0000 </r>
       <r>    0.2211    1.0000 </r>
       <r>    3.1684    1.0000 </r>
       <r>    3.1700    1.0000 </r>
       <r>   12.6889    0.0000 </r>
       <r>   19.2168    0.0000 </r>
       <r>   20.0632    0.0000 </r>
       <r>   20.1044    0.0000 </r>
      </set>
      <set comment="kpoint 96">
       <r>    0.8106    1.0000 </r>
       <r>    1.3832    1.0000 </r>
       <r>    3.1764    1.0000 </r>
       <r>    3.7410    1.0000 </r>
       <r>    9.2294    0.1243 </r>
       <r>   17.9640    0.0000 </r>
       <r>   19.2871    0.0000 </r>
       <r>   19.6081    0.0000 </r>
      </set>
      <set comment="kpoint 97">
       <r>    2.3624    1.0000 </r>
       <r>    2.4216    1.0000 </r>
       <r>    4.1600    1.0000 </r>
       <r>    4.1600    1.0000 </r>
       <r>    6.0936    1.0000 </r>
       <r>   15.9433    0.0000 </r>
       <r>   16.8119    0.0000 </r>
       <r>   16.8119    0.0000 </r>
      </set>
      <set comment="kpoint 98">
       <r>   -0.0599    1.0000 </r>
       <r>    0.5122    1.0000 </r>
       <r>    2.3385    1.0000 </r>
       <r>    2.9042    1.0000 </r>
       <r>   16.2456    0.0000 </r>
       <r>   16.3088    0.0000 </r>
       <r>   20.2402    0.0000 </r>
       <r>   20.8409    0.0000 </r>
      </set>
      <set comment="kpoint 99">
       <r>    0.6668    1.0000 </r>
       <r>    0.6763    1.0000 </r>
       <r>    2.4938    1.0000 </r>
       <r>    2.4938    1.0000 </r>
       <r>   12.6028    0.0000 </r>
       <r>   19.9220    0.0000 </r>
       <r>   20.7422    0.0000 </r>
       <r>   21.0092    0.0000 </r>
      </set>
     </set>
    </set>
   </array>
  </eigenvalues>
  <separator name="orbital magnetization" >
   <v name="MAGDIPOLOUT">      0.00000000      0.00000000      0.00000000</v>
  </separator>
  <dos>
   <i name="efermi">      9.06622337 </i>
   <total>
    <array>
     <dimension dim="1">gridpoints</dimension>
     <dimension dim="2">spin</dimension>
     <field>energy</field>
     <field>total</field>
     <field>integrated</field>
     <set>
      <set comment="spin 1">
       <r>    -6.5554     0.0000     0.0000 </r>
       <r>    -6.4568     0.0000     0.0000 </r>
       <r>    -6.3583     0.0000     0.0000 </r>
       <r>    -6.2597     0.0000     0.0000 </r>
       <r>    -6.1612     0.0000     0.0000 </r>
       <r>    -6.0626     0.0000     0.0000 </r>
       <r>    -5.9641     0.0000     0.0000 </r>
       <r>    -5.8655     0.0000     0.0000 </r>
       <r>    -5.7670     0.0000     0.0000 </r>
       <r>    -5.6684     0.0000     0.0000 </r>
       <r>    -5.5699     0.0000     0.0000 </r>
       <r>    -5.4714     0.0000     0.0000 </r>
       <r>    -5.3728     0.0000     0.0000 </r>
       <r>    -5.2743     0.0000     0.0000 </r>
       <r>    -5.1757     0.0000     0.0000 </r>
       <r>    -5.0772     0.0000     0.0000 </r>
       <r>    -4.9786     0.0001     0.0000 </r>
       <r>    -4.8801     0.0008     0.0001 </r>
       <r>    -4.7815     0.0038     0.0005 </r>
       <r>    -4.6830     0.0121     0.0017 </r>
       <r>    -4.5844     0.0279     0.0044 </r>
       <r>    -4.4859     0.0528     0.0096 </r>
       <r>    -4.3873     0.0887     0.0184 </r>
       <r>    -4.2888     0.1261     0.0308 </r>
       <r>    -4.1902     0.1443     0.0450 </r>
       <r>    -4.0917     0.1410     0.0589 </r>
       <r>    -3.9931     0.1446     0.0731 </r>
       <r>    -3.8946     0.1757     0.0905 </r>
       <r>    -3.7960     0.2125     0.1114 </r>
       <r>    -3.6975     0.2220     0.1333 </r>
       <r>    -3.5989     0.2129     0.1543 </r>
       <r>    -3.5004     0.2181     0.1758 </r>
       <r>    -3.4018     0.2437     0.1998 </r>
       <r>    -3.3033     0.2720     0.2266 </r>
       <r>    -3.2047     0.2896     0.2551 </r>
       <r>    -3.1062     0.2894     0.2836 </r>
       <r>    -3.0076     0.2834     0.3116 </r>
       <r>    -2.9091     0.2884     0.3400 </r>
       <r>    -2.8105     0.2848     0.3680 </r>
       <r>    -2.7120     0.2559     0.3933 </r>
       <r>    -2.6134     0.2357     0.4165 </r>
       <r>    -2.5149     0.2685     0.4429 </r>
       <r>    -2.4163     0.3473     0.4772 </r>
       <r>    -2.3178     0.4221     0.5188 </r>
       <r>    -2.2192     0.4628     0.5644 </r>
       <r>    -2.1207     0.4755     0.6112 </r>
       <r>    -2.0222     0.4533     0.6559 </r>
       <r>    -1.9236     0.3673     0.6921 </r>
       <r>    -1.8251     0.2523     0.7170 </r>
       <r>    -1.7265     0.2081     0.7375 </r>
       <r>    -1.6280     0.2808     0.7652 </r>
       <r>    -1.5294     0.4141     0.8060 </r>
       <r>    -1.4309     0.5013     0.8554 </r>
       <r>    -1.3323     0.4847     0.9031 </r>
       <r>    -1.2338     0.4196     0.9445 </r>
       <r>    -1.1352     0.4024     0.9842 </r>
       <r>    -1.0367     0.4398     1.0275 </r>
       <r>    -0.9381     0.4672     1.0735 </r>
       <r>    -0.8396     0.4744     1.1203 </r>
       <r>    -0.7410     0.4890     1.1685 </r>
       <r>    -0.6425     0.4985     1.2176 </r>
       <r>    -0.5439     0.4803     1.2649 </r>
       <r>    -0.4454     0.4487     1.3092 </r>
       <r>    -0.3468     0.4363     1.3522 </r>
       <r>    -0.2483     0.4563     1.3971 </r>
       <r>    -0.1497     0.4972     1.4461 </r>
       <r>    -0.0512     0.5278     1.4981 </r>
       <r>     0.0474     0.5304     1.5504 </r>
       <r>     0.1459     0.5456     1.6042 </r>
       <r>     0.2445     0.6081     1.6641 </r>
       <r>     0.3430     0.6633     1.7295 </r>
       <r>     0.4416     0.6434     1.7929 </r>
       <r>     0.5401     0.5679     1.8488 </r>
       <r>     0.6387     0.4969     1.8978 </r>
       <r>     0.7372     0.4526     1.9424 </r>
       <r>     0.8358     0.4358     1.9854 </r>
       <r>     0.9343     0.4577     2.0305 </r>
       <r>     1.0329     0.5063     2.0804 </r>
       <r>     1.1314     0.5531     2.1349 </r>
       <r>     1.2300     0.6131     2.1953 </r>
       <r>     1.3285     0.6907     2.2634 </r>
       <r>     1.4270     0.7254     2.3348 </r>
       <r>     1.5256     0.6913     2.4030 </r>
       <r>     1.6241     0.6429     2.4663 </r>
       <r>     1.7227     0.6245     2.5279 </r>
       <r>     1.8212     0.6437     2.5913 </r>
       <r>     1.9198     0.6699     2.6573 </r>
       <r>     2.0183     0.6109     2.7175 </r>
       <r>     2.1169     0.4378     2.7607 </r>
       <r>     2.2154     0.2771     2.7880 </r>
       <r>     2.3140     0.2561     2.8132 </r>
       <r>     2.4125     0.3610     2.8488 </r>
       <r>     2.5111     0.4901     2.8971 </r>
       <r>     2.6096     0.5721     2.9535 </r>
       <r>     2.7082     0.6020     3.0128 </r>
       <r>     2.8067     0.6207     3.0740 </r>
       <r>     2.9053     0.6739     3.1404 </r>
       <r>     3.0038     0.7473     3.2140 </r>
       <r>     3.1024     0.7740     3.2903 </r>
       <r>     3.2009     0.7305     3.3623 </r>
       <r>     3.2995     0.6450     3.4259 </r>
       <r>     3.3980     0.5410     3.4792 </r>
       <r>     3.4966     0.4707     3.5256 </r>
       <r>     3.5951     0.5026     3.5751 </r>
       <r>     3.6937     0.6045     3.6347 </r>
       <r>     3.7922     0.6778     3.7015 </r>
       <r>     3.8908     0.6968     3.7701 </r>
       <r>     3.9893     0.6872     3.8379 </r>
       <r>     4.0879     0.6503     3.9019 </r>
       <r>     4.1864     0.5925     3.9603 </r>
       <r>     4.2850     0.5739     4.0169 </r>
       <r>     4.3835     0.6744     4.0833 </r>
       <r>     4.4821     0.8637     4.1685 </r>
       <r>     4.5806     0.9885     4.2659 </r>
       <r>     4.6792     0.9539     4.3599 </r>
       <r>     4.7777     0.8162     4.4403 </r>
       <r>     4.8762     0.6866     4.5080 </r>
       <r>     4.9748     0.6207     4.5691 </r>
       <r>     5.0733     0.6110     4.6294 </r>
       <r>     5.1719     0.6374     4.6922 </r>
       <r>     5.2704     0.6713     4.7583 </r>
       <r>     5.3690     0.6835     4.8257 </r>
       <r>     5.4675     0.6929     4.8940 </r>
       <r>     5.5661     0.7497     4.9679 </r>
       <r>     5.6646     0.8273     5.0494 </r>
       <r>     5.7632     0.8244     5.1306 </r>
       <r>     5.8617     0.7477     5.2043 </r>
       <r>     5.9603     0.7357     5.2768 </r>
       <r>     6.0588     0.8449     5.3601 </r>
       <r>     6.1574     0.9657     5.4553 </r>
       <r>     6.2559     0.9875     5.5526 </r>
       <r>     6.3545     0.9313     5.6443 </r>
       <r>     6.4530     0.8913     5.7322 </r>
       <r>     6.5516     0.9081     5.8217 </r>
       <r>     6.6501     0.9292     5.9132 </r>
       <r>     6.7487     0.9092     6.0028 </r>
       <r>     6.8472     0.8837     6.0899 </r>
       <r>     6.9458     0.8715     6.1758 </r>
       <r>     7.0443     0.8509     6.2597 </r>
       <r>     7.1429     0.8456     6.3430 </r>
       <r>     7.2414     0.8819     6.4299 </r>
       <r>     7.3400     0.9571     6.5242 </r>
       <r>     7.4385     1.0706     6.6297 </r>
       <r>     7.5371     1.1928     6.7473 </r>
       <r>     7.6356     1.2446     6.8699 </r>
       <r>     7.7342     1.1642     6.9847 </r>
       <r>     7.8327     0.9940     7.0826 </r>
       <r>     7.9313     0.8198     7.1634 </r>
       <r>     8.0298     0.6760     7.2300 </r>
       <r>     8.1284     0.5863     7.2878 </r>
       <r>     8.2269     0.5682     7.3438 </r>
       <r>     8.3255     0.6085     7.4038 </r>
       <r>     8.4240     0.6875     7.4715 </r>
       <r>     8.5225     0.7745     7.5479 </r>
       <r>     8.6211     0.8460     7.6312 </r>
       <r>     8.7196     0.8909     7.7190 </r>
       <r>     8.8182     0.8759     7.8053 </r>
       <r>     8.9167     0.7978     7.8840 </r>
       <r>     9.0153     0.7600     7.9589 </r>
       <r>     9.1138     0.8319     8.0408 </r>
       <r>     9.2124     0.8803     8.1276 </r>
       <r>     9.3109     0.7614     8.2026 </r>
       <r>     9.4095     0.5463     8.2565 </r>
       <r>     9.5080     0.3910     8.2950 </r>
       <r>     9.6066     0.3797     8.3324 </r>
       <r>     9.7051     0.5170     8.3834 </r>
       <r>     9.8037     0.7102     8.4534 </r>
       <r>     9.9022     0.8183     8.5340 </r>
       <r>    10.0008     0.7858     8.6114 </r>
       <r>    10.0993     0.6756     8.6780 </r>
       <r>    10.1979     0.6126     8.7384 </r>
       <r>    10.2964     0.7112     8.8085 </r>
       <r>    10.3950     0.9524     8.9023 </r>
       <r>    10.4935     1.1555     9.0162 </r>
       <r>    10.5921     1.1486     9.1294 </r>
       <r>    10.6906     0.9491     9.2229 </r>
       <r>    10.7892     0.7344     9.2953 </r>
       <r>    10.8877     0.6554     9.3599 </r>
       <r>    10.9863     0.7140     9.4303 </r>
       <r>    11.0848     0.7985     9.5089 </r>
       <r>    11.1834     0.8034     9.5881 </r>
       <r>    11.2819     0.7275     9.6598 </r>
       <r>    11.3805     0.6812     9.7269 </r>
       <r>    11.4790     0.7531     9.8012 </r>
       <r>    11.5776     0.8961     9.8895 </r>
       <r>    11.6761     0.9867     9.9867 </r>
       <r>    11.7747     0.9645    10.0818 </r>
       <r>    11.8732     0.9128    10.1717 </r>
       <r>    11.9717     0.9436    10.2647 </r>
       <r>    12.0703     0.9990    10.3631 </r>
       <r>    12.1688     0.9486    10.4566 </r>
       <r>    12.2674     0.8371    10.5391 </r>
       <r>    12.3659     0.8075    10.6187 </r>
       <r>    12.4645     0.8703    10.7045 </r>
       <r>    12.5630     0.9489    10.7980 </r>
       <r>    12.6616     1.0414    10.9006 </r>
       <r>    12.7601     1.1731    11.0162 </r>
       <r>    12.8587     1.2827    11.1426 </r>
       <r>    12.9572     1.2865    11.2694 </r>
       <r>    13.0558     1.1837    11.3861 </r>
       <r>    13.1543     1.0564    11.4902 </r>
       <r>    13.2529     1.0115    11.5899 </r>
       <r>    13.3514     1.0741    11.6957 </r>
       <r>    13.4500     1.1582    11.8098 </r>
       <r>    13.5485     1.1853    11.9266 </r>
       <r>    13.6471     1.1444    12.0394 </r>
       <r>    13.7456     1.0294    12.1409 </r>
       <r>    13.8442     0.8932    12.2289 </r>
       <r>    13.9427     0.8743    12.3151 </r>
       <r>    14.0413     0.9707    12.4107 </r>
       <r>    14.1398     1.0227    12.5115 </r>
       <r>    14.2384     1.0134    12.6114 </r>
       <r>    14.3369     1.0696    12.7168 </r>
       <r>    14.4355     1.1681    12.8319 </r>
       <r>    14.5340     1.1447    12.9447 </r>
       <r>    14.6326     0.9714    13.0404 </r>
       <r>    14.7311     0.7880    13.1181 </r>
       <r>    14.8297     0.7013    13.1872 </r>
       <r>    14.9282     0.7125    13.2574 </r>
       <r>    15.0268     0.7923    13.3355 </r>
       <r>    15.1253     0.9259    13.4268 </r>
       <r>    15.2239     1.0922    13.5344 </r>
       <r>    15.3224     1.2083    13.6535 </r>
       <r>    15.4209     1.1613    13.7679 </r>
       <r>    15.5195     0.9710    13.8636 </r>
       <r>    15.6180     0.8123    13.9437 </r>
       <r>    15.7166     0.8018    14.0227 </r>
       <r>    15.8151     0.8596    14.1074 </r>
       <r>    15.9137     0.8498    14.1911 </r>
       <r>    16.0122     0.7663    14.2667 </r>
       <r>    16.1108     0.6992    14.3356 </r>
       <r>    16.2093     0.6972    14.4043 </r>
       <r>    16.3079     0.7254    14.4758 </r>
       <r>    16.4064     0.7481    14.5495 </r>
       <r>    16.5050     0.7721    14.6256 </r>
       <r>    16.6035     0.7774    14.7022 </r>
       <r>    16.7021     0.7305    14.7742 </r>
       <r>    16.8006     0.6567    14.8389 </r>
       <r>    16.8992     0.5884    14.8969 </r>
       <r>    16.9977     0.5083    14.9470 </r>
       <r>    17.0963     0.4162    14.9880 </r>
       <r>    17.1948     0.3543    15.0229 </r>
       <r>    17.2934     0.3359    15.0560 </r>
       <r>    17.3919     0.3565    15.0911 </r>
       <r>    17.4905     0.4274    15.1333 </r>
       <r>    17.5890     0.5090    15.1834 </r>
       <r>    17.6876     0.5280    15.2355 </r>
       <r>    17.7861     0.5054    15.2853 </r>
       <r>    17.8847     0.5163    15.3361 </r>
       <r>    17.9832     0.5484    15.3902 </r>
       <r>    18.0818     0.5348    15.4429 </r>
       <r>    18.1803     0.4692    15.4891 </r>
       <r>    18.2789     0.4049    15.5290 </r>
       <r>    18.3774     0.3653    15.5650 </r>
       <r>    18.4760     0.3270    15.5973 </r>
       <r>    18.5745     0.2924    15.6261 </r>
       <r>    18.6731     0.2785    15.6535 </r>
       <r>    18.7716     0.2696    15.6801 </r>
       <r>    18.8701     0.2645    15.7062 </r>
       <r>    18.9687     0.3015    15.7359 </r>
       <r>    19.0672     0.3716    15.7725 </r>
       <r>    19.1658     0.3899    15.8109 </r>
       <r>    19.2643     0.3165    15.8421 </r>
       <r>    19.3629     0.2151    15.8633 </r>
       <r>    19.4614     0.1522    15.8783 </r>
       <r>    19.5600     0.1260    15.8907 </r>
       <r>    19.6585     0.1069    15.9013 </r>
       <r>    19.7571     0.0906    15.9102 </r>
       <r>    19.8556     0.0903    15.9191 </r>
       <r>    19.9542     0.1099    15.9299 </r>
       <r>    20.0527     0.1403    15.9438 </r>
       <r>    20.1513     0.1559    15.9591 </r>
       <r>    20.2498     0.1311    15.9720 </r>
       <r>    20.3484     0.0782    15.9798 </r>
       <r>    20.4469     0.0330    15.9830 </r>
       <r>    20.5455     0.0130    15.9843 </r>
       <r>    20.6440     0.0136    15.9856 </r>
       <r>    20.7426     0.0248    15.9881 </r>
       <r>    20.8411     0.0349    15.9915 </r>
       <r>    20.9397     0.0353    15.9950 </r>
       <r>    21.0382     0.0266    15.9976 </r>
       <r>    21.1368     0.0153    15.9991 </r>
       <r>    21.2353     0.0066    15.9998 </r>
       <r>    21.3339     0.0020    16.0000 </r>
       <r>    21.4324     0.0004    16.0000 </r>
       <r>    21.5310     0.0001    16.0000 </r>
       <r>    21.6295     0.0000    16.0000 </r>
       <r>    21.7281     0.0000    16.0000 </r>
       <r>    21.8266     0.0000    16.0000 </r>
       <r>    21.9252     0.0000    16.0000 </r>
       <r>    22.0237     0.0000    16.0000 </r>
       <r>    22.1223     0.0000    16.0000 </r>
       <r>    22.2208     0.0000    16.0000 </r>
       <r>    22.3193     0.0000    16.0000 </r>
       <r>    22.4179     0.0000    16.0000 </r>
       <r>    22.5164     0.0000    16.0000 </r>
       <r>    22.6150     0.0000    16.0000 </r>
       <r>    22.7135     0.0000    16.0000 </r>
       <r>    22.8121     0.0000    16.0000 </r>
       <r>    22.9106     0.0000    16.0000 </r>
       <r>    23.0092     0.0000    16.0000 </r>
      </set>
     </set>
    </array>
   </total>
  </dos>
 </calculation>
 <structure name="finalpos" >
  <crystal>
   <varray name="basis" >
    <v>      -2.45000000       2.45000000       1.27400000 </v>
    <v>       2.45000000      -2.45000000       1.27400000 </v>
    <v>       2.45000000       2.45000000      -1.27400000 </v>
   </varray>
   <i name="volume">     30.58874000 </i>
   <varray name="rec_basis" >
    <v>       0.00000000       0.20408163       0.39246468 </v>
    <v>       0.20408163       0.00000000       0.39246468 </v>
    <v>       0.20408163       0.20408163      -0.00000000 </v>
   </varray>
  </crystal>
  <varray name="positions" >
   <v>       0.25000000       0.75000000       0.50000000 </v>
   <v>       0.00000000       0.00000000       0.00000000 </v>
  </varray>
 </structure>
</modeling>
